<event>
 5    1  0.1320187E-009  0.9118800E+02  0.7818608E-02  0.1130116E+00
         25   -1    0    0    0    0  0.00000000000E+00  0.00000000000E+00  0.99999998245E-14  0.12500000000E+03  0.12500000000E+03 0.  0.
        -13    1    3    3    0    0  0.47319949741E+01  0.59718765060E+02 -0.11996352579E+02  0.61095387027E+02  0.10566000000E+00 0. -1.
         23    2    1    0    0    0 -0.52373063012E+01  0.23696522464E+02 -0.10654127375E+02  0.98495944003E+02  0.94862985409E+02 0.  0.
         13    1    3    3    0    0 -0.99693012753E+01 -0.36022242596E+02  0.13422252043E+01  0.37400556976E+02  0.10566000000E+00 0.  1.
         22    1    1    0    0    0  0.52373063012E+01 -0.23696522464E+02  0.10654127375E+02  0.26504055997E+02  0.00000000000E+00 0. -1.
</event>
<event>
 5    1  0.1320187E-009  0.9118800E+02  0.7818608E-02  0.1130116E+00
         25   -1    0    0    0    0  0.00000000000E+00  0.00000000000E+00  0.99999998245E-14  0.12500000000E+03  0.12500000000E+03 0.  0.
        -13    1    3    3    0    0  0.39554356217E+02  0.18383276926E+02  0.12871790223E+01  0.43636681361E+02  0.10566000000E+00 0.  1.
         23    2    1    0    0    0  0.76591147424E+01 -0.18942064764E+02  0.20217040445E+02  0.96256434102E+02  0.91864620641E+02 0.  0.
         13    1    3    3    0    0 -0.31895241475E+02 -0.37325341690E+02  0.18929861423E+02  0.52619752741E+02  0.10566000000E+00 0. -1.
         22    1    1    0    0    0 -0.76591147424E+01  0.18942064764E+02 -0.20217040445E+02  0.28743565898E+02  0.00000000000E+00 0. -1.
</event>
<event>
 5    1  0.1320187E-009  0.9118800E+02  0.7818608E-02  0.1130116E+00
         25   -1    0    0    0    0  0.00000000000E+00  0.00000000000E+00  0.99999998245E-14  0.12500000000E+03  0.12500000000E+03 0.  0.
        -13    1    3    3    0    0 -0.26009452695E+01  0.47223920028E+02 -0.18357691629E+02  0.50733416454E+02  0.10566000000E+00 0. -1.
         23    2    1    0    0    0 -0.26330504405E+02  0.10805406135E+02 -0.61632809246E+01  0.95878902910E+02  0.91349470319E+02 0.  0.
         13    1    3    3    0    0 -0.23729559135E+02 -0.36418513893E+02  0.12194410705E+02  0.45145486456E+02  0.10566000000E+00 0.  1.
         22    1    1    0    0    0  0.26330504405E+02 -0.10805406135E+02  0.61632809246E+01  0.29121097090E+02  0.00000000000E+00 0. -1.
</event>
<event>
 5    1  0.1320187E-009  0.9118800E+02  0.7818608E-02  0.1130116E+00
         25   -1    0    0    0    0  0.00000000000E+00  0.00000000000E+00  0.99999998245E-14  0.12500000000E+03  0.12500000000E+03 0.  0.
        -13    1    3    3    0    0  0.96250191211E+01 -0.41366942141E+02  0.35967512238E+02  0.55655529786E+02  0.10566000000E+00 0. -1.
         23    2    1    0    0    0  0.20335222798E+02 -0.18257441140E+02  0.27228411650E+01  0.97536036207E+02  0.93589577688E+02 0.  0.
         13    1    3    3    0    0  0.10710203677E+02  0.23109501001E+02 -0.33244671073E+02  0.41880506421E+02  0.10566000000E+00 0.  1.
         22    1    1    0    0    0 -0.20335222798E+02  0.18257441140E+02 -0.27228411650E+01  0.27463963793E+02  0.00000000000E+00 0. -1.
</event>
<event>
 5    1  0.1320187E-009  0.9118800E+02  0.7818608E-02  0.1130116E+00
         25   -1    0    0    0    0  0.00000000000E+00  0.00000000000E+00  0.99999998245E-14  0.12500000000E+03  0.12500000000E+03 0.  0.
        -13    1    3    3    0    0  0.33046996450E+02 -0.17278306396E+02  0.16158036254E+02  0.40641569186E+02  0.10566000000E+00 0.  1.
         23    2    1    0    0    0 -0.25063523557E+00  0.27143975943E+02  0.75759860237E+01  0.96817491023E+02  0.92624903540E+02 0.  0.
         13    1    3    3    0    0 -0.33297631685E+02  0.44422282339E+02 -0.85820502304E+01  0.56175921837E+02  0.10566000000E+00 0. -1.
         22    1    1    0    0    0  0.25063523557E+00 -0.27143975943E+02 -0.75759860237E+01  0.28182508977E+02  0.00000000000E+00 0. -1.
</event>
<event>
 5    1  0.1320187E-009  0.9118800E+02  0.7818608E-02  0.1130116E+00
         25   -1    0    0    0    0  0.00000000000E+00  0.00000000000E+00  0.99999998245E-14  0.12500000000E+03  0.12500000000E+03 0.  0.
        -13    1    3    3    0    0 -0.62056272603E+01  0.29444817953E+02  0.48806306720E+02  0.57337368737E+02  0.10566000000E+00 0.  1.
         23    2    1    0    0    0 -0.58503728632E+00 -0.19964607603E+01  0.31048641736E+02  0.93881737230E+02  0.88574456292E+02 0.  0.
         13    1    3    3    0    0  0.56205899739E+01 -0.31441278714E+02 -0.17757664984E+02  0.36544368493E+02  0.10566000000E+00 0. -1.
         22    1    1    0    0    0  0.58503728632E+00  0.19964607603E+01 -0.31048641736E+02  0.31118262770E+02  0.00000000000E+00 0.  1.
</event>
<event>
 5    1  0.1320187E-009  0.9118800E+02  0.7818608E-02  0.1130116E+00
         25   -1    0    0    0    0  0.00000000000E+00  0.00000000000E+00  0.99999998245E-14  0.12500000000E+03  0.12500000000E+03 0.  0.
        -13    1    3    3    0    0  0.37045665093E+01 -0.97316110340E+01  0.43594400953E+02  0.44820877109E+02  0.10566000000E+00 0.  1.
         23    2    1    0    0    0 -0.70796504222E+01 -0.28408876383E+02 -0.24032700380E+01  0.95623795100E+02  0.90999718543E+02 0.  0.
         13    1    3    3    0    0 -0.10784216931E+02 -0.18677265349E+02 -0.45997670991E+02  0.50802917991E+02  0.10566000000E+00 0. -1.
         22    1    1    0    0    0  0.70796504222E+01  0.28408876383E+02  0.24032700380E+01  0.29376204900E+02  0.00000000000E+00 0. -1.
</event>
<event>
 5    1  0.1320187E-009  0.9118800E+02  0.7818608E-02  0.1130116E+00
         25   -1    0    0    0    0  0.00000000000E+00  0.00000000000E+00  0.99999998245E-14  0.12500000000E+03  0.12500000000E+03 0.  0.
        -13    1    3    3    0    0 -0.29593611092E+02 -0.71638872840E+01 -0.25563573010E+02  0.39756892830E+02  0.10566000000E+00 0.  1.
         23    2    1    0    0    0 -0.11300143511E+02 -0.14058430330E+02  0.25117100935E+02  0.94077492564E+02  0.88850284980E+02 0.  0.
         13    1    3    3    0    0  0.18293467580E+02 -0.68945430462E+01  0.50680673945E+02  0.54320599734E+02  0.10566000000E+00 0. -1.
         22    1    1    0    0    0  0.11300143511E+02  0.14058430330E+02 -0.25117100935E+02  0.30922507436E+02  0.00000000000E+00 0. -1.
</event>
<event>
 5    1  0.1320187E-009  0.9118800E+02  0.7818608E-02  0.1130116E+00
         25   -1    0    0    0    0  0.00000000000E+00  0.00000000000E+00  0.99999998245E-14  0.12500000000E+03  0.12500000000E+03 0.  0.
        -13    1    3    3    0    0 -0.23452003302E+02  0.36504062981E+02 -0.38436274098E+02  0.57964656504E+02  0.10566000000E+00 0.  1.
         23    2    1    0    0    0  0.51917608690E+01  0.16682603979E+02 -0.23130295750E+02  0.96012515839E+02  0.91532119826E+02 0.  0.
         13    1    3    3    0    0  0.28643764171E+02 -0.19821459002E+02  0.15305978347E+02  0.38047859336E+02  0.10566000000E+00 0. -1.
         22    1    1    0    0    0 -0.51917608690E+01 -0.16682603979E+02  0.23130295750E+02  0.28987484161E+02  0.00000000000E+00 0.  1.
</event>
<event>
 5    1  0.1320187E-009  0.9118800E+02  0.7818608E-02  0.1130116E+00
         25   -1    0    0    0    0  0.00000000000E+00  0.00000000000E+00  0.99999998245E-14  0.12500000000E+03  0.12500000000E+03 0.  0.
        -13    1    3    3    0    0  0.21239501571E+02 -0.14195585816E+02  0.28569805806E+02  0.38325918795E+02  0.10566000000E+00 0.  1.
         23    2    1    0    0    0 -0.16466078746E+01  0.29058681579E+02 -0.16624352788E+01  0.95847264559E+02  0.91306167042E+02 0.  0.
         13    1    3    3    0    0 -0.22886109446E+02  0.43254267396E+02 -0.30232241085E+02  0.57521345764E+02  0.10566000000E+00 0. -1.
         22    1    1    0    0    0  0.16466078746E+01 -0.29058681579E+02  0.16624352788E+01  0.29152735441E+02  0.00000000000E+00 0. -1.
</event>
<event>
 5    1  0.1320187E-009  0.9118800E+02  0.7818608E-02  0.1130116E+00
         25   -1    0    0    0    0  0.00000000000E+00  0.00000000000E+00  0.99999998245E-14  0.12500000000E+03  0.12500000000E+03 0.  0.
        -13    1    3    3    0    0  0.33138706268E+02 -0.31931370520E+02 -0.15976305456E+02  0.48713856103E+02  0.10566000000E+00 0.  1.
         23    2    1    0    0    0  0.31513043642E+02 -0.19349604446E+02  0.17187471024E+02  0.84221472905E+02  0.73691032198E+02 0.  0.
         13    1    3    3    0    0 -0.16256626256E+01  0.12581766074E+02  0.33163776480E+02  0.35507616802E+02  0.10566000000E+00 0. -1.
         22    1    1    0    0    0 -0.31513043642E+02  0.19349604446E+02 -0.17187471024E+02  0.40778527095E+02  0.00000000000E+00 0.  1.
</event>
<event>
 5    1  0.1320187E-009  0.9118800E+02  0.7818608E-02  0.1130116E+00
         25   -1    0    0    0    0  0.00000000000E+00  0.00000000000E+00  0.99999998245E-14  0.12500000000E+03  0.12500000000E+03 0.  0.
        -13    1    3    3    0    0 -0.24038672568E+02  0.25956894240E+02  0.84018503029E+01  0.36362348521E+02  0.10566000000E+00 0.  1.
         23    2    1    0    0    0  0.13040866570E+02 -0.59080546178E+01 -0.25429821590E+02  0.95817040308E+02  0.91264780047E+02 0.  0.
         13    1    3    3    0    0  0.37079539138E+02 -0.31864948858E+02 -0.33831671893E+02  0.59454691787E+02  0.10566000000E+00 0. -1.
         22    1    1    0    0    0 -0.13040866570E+02  0.59080546178E+01  0.25429821590E+02  0.29182959692E+02  0.00000000000E+00 0. -1.
</event>
<event>
 5    1  0.1320187E-009  0.9118800E+02  0.7818608E-02  0.1130116E+00
         25   -1    0    0    0    0  0.00000000000E+00  0.00000000000E+00  0.99999998245E-14  0.12500000000E+03  0.12500000000E+03 0.  0.
        -13    1    3    3    0    0  0.54356721983E+02  0.11368548003E+02 -0.37961832460E+01  0.55662548268E+02  0.10566000000E+00 0. -1.
         23    2    1    0    0    0  0.20964523240E+02  0.56843072128E+01  0.18710706227E+02  0.96330972973E+02  0.91965989601E+02 0.  0.
         13    1    3    3    0    0 -0.33392198743E+02 -0.56842407905E+01  0.22506889473E+02  0.40668424705E+02  0.10566000000E+00 0.  1.
         22    1    1    0    0    0 -0.20964523240E+02 -0.56843072128E+01 -0.18710706227E+02  0.28669027027E+02  0.00000000000E+00 0. -1.
</event>
<event>
 5    1  0.1320187E-009  0.9118800E+02  0.7818608E-02  0.1130116E+00
         25   -1    0    0    0    0  0.00000000000E+00  0.00000000000E+00  0.99999998245E-14  0.12500000000E+03  0.12500000000E+03 0.  0.
        -13    1    3    3    0    0  0.28802833108E+02  0.39643240600E+02  0.25801683913E+02  0.55379849920E+02  0.10566000000E+00 0.  1.
         23    2    1    0    0    0 -0.23792470987E+01  0.13725393154E+02  0.25517376168E+02  0.95927956376E+02  0.91416569034E+02 0.  0.
         13    1    3    3    0    0 -0.31182080207E+02 -0.25917847447E+02 -0.28430774493E+00  0.40548106456E+02  0.10566000000E+00 0. -1.
         22    1    1    0    0    0  0.23792470987E+01 -0.13725393154E+02 -0.25517376168E+02  0.29072043624E+02  0.00000000000E+00 0.  1.
</event>
<event>
 5    1  0.1320187E-009  0.9118800E+02  0.7818608E-02  0.1130116E+00
         25   -1    0    0    0    0  0.00000000000E+00  0.00000000000E+00  0.99999998245E-14  0.12500000000E+03  0.12500000000E+03 0.  0.
        -13    1    3    3    0    0  0.19409953238E+01 -0.23072987770E+02 -0.53283258573E+02  0.58096876298E+02  0.10566000000E+00 0. -1.
         23    2    1    0    0    0 -0.37980373149E+01 -0.25645871107E+02 -0.19243279337E+02  0.92713166895E+02  0.86909675662E+02 0.  0.
         13    1    3    3    0    0 -0.57390326387E+01 -0.25728833376E+01  0.34039979235E+02  0.34616290597E+02  0.10566000000E+00 0.  1.
         22    1    1    0    0    0  0.37980373149E+01  0.25645871107E+02  0.19243279337E+02  0.32286833105E+02  0.00000000000E+00 0. -1.
</event>
<event>
 5    1  0.1320187E-009  0.9118800E+02  0.7818608E-02  0.1130116E+00
         25   -1    0    0    0    0  0.00000000000E+00  0.00000000000E+00  0.99999998245E-14  0.12500000000E+03  0.12500000000E+03 0.  0.
        -13    1    3    3    0    0  0.17864516684E+01  0.41463567236E+02  0.27848240002E+01  0.41595495264E+02  0.10566000000E+00 0.  1.
         23    2    1    0    0    0 -0.20714694249E+02 -0.60396483669E+01  0.18627979090E+02  0.96494254698E+02  0.92187654676E+02 0.  0.
         13    1    3    3    0    0 -0.22501145917E+02 -0.47503215603E+02  0.15843155090E+02  0.54898759434E+02  0.10566000000E+00 0. -1.
         22    1    1    0    0    0  0.20714694249E+02  0.60396483669E+01 -0.18627979090E+02  0.28505745302E+02  0.00000000000E+00 0. -1.
</event>
<event>
 5    1  0.1320187E-009  0.9118800E+02  0.7818608E-02  0.1130116E+00
         25   -1    0    0    0    0  0.00000000000E+00  0.00000000000E+00  0.99999998245E-14  0.12500000000E+03  0.12500000000E+03 0.  0.
        -13    1    3    3    0    0 -0.33047306348E+02  0.55631119050E+01  0.33810473769E+02  0.47604957425E+02  0.10566000000E+00 0.  1.
         23    2    1    0    0    0  0.55840534320E+01 -0.20136091004E+02  0.20146256019E+02  0.95973883393E+02  0.91479346567E+02 0.  0.
         13    1    3    3    0    0  0.38631359780E+02 -0.25699202909E+02 -0.13664217749E+02  0.48368925969E+02  0.10566000000E+00 0. -1.
         22    1    1    0    0    0 -0.55840534320E+01  0.20136091004E+02 -0.20146256019E+02  0.29026116607E+02  0.00000000000E+00 0.  1.
</event>
<event>
 5    1  0.1320187E-009  0.9118800E+02  0.7818608E-02  0.1130116E+00
         25   -1    0    0    0    0  0.00000000000E+00  0.00000000000E+00  0.99999998245E-14  0.12500000000E+03  0.12500000000E+03 0.  0.
        -13    1    3    3    0    0 -0.15973498463E+02  0.32243294563E+02 -0.20312154029E+02  0.41320424281E+02  0.10566000000E+00 0.  1.
         23    2    1    0    0    0  0.28057869106E+02  0.88940965842E+01  0.10558663517E+01  0.95547261136E+02  0.90894528350E+02 0.  0.
         13    1    3    3    0    0  0.44031367569E+02 -0.23349197979E+02  0.21368020381E+02  0.54226836855E+02  0.10566000000E+00 0. -1.
         22    1    1    0    0    0 -0.28057869106E+02 -0.88940965842E+01 -0.10558663517E+01  0.29452738864E+02  0.00000000000E+00 0. -1.
</event>
<event>
 5    1  0.1320187E-009  0.9118800E+02  0.7818608E-02  0.1130116E+00
         25   -1    0    0    0    0  0.00000000000E+00  0.00000000000E+00  0.99999998245E-14  0.12500000000E+03  0.12500000000E+03 0.  0.
        -13    1    3    3    0    0  0.65228336198E+01 -0.26717245418E+02  0.52352795520E+02  0.59137001310E+02  0.10566000000E+00 0.  1.
         23    2    1    0    0    0 -0.84785394870E+01 -0.45762305714E+01  0.28293759423E+02  0.95110798934E+02  0.90292301629E+02 0.  0.
         13    1    3    3    0    0 -0.15001373107E+02  0.22141014846E+02 -0.24059036098E+02  0.35973797624E+02  0.10566000000E+00 0. -1.
         22    1    1    0    0    0  0.84785394870E+01  0.45762305714E+01 -0.28293759423E+02  0.29889201066E+02  0.00000000000E+00 0.  1.
</event>
<event>
 5    1  0.1320187E-009  0.9118800E+02  0.7818608E-02  0.1130116E+00
         25   -1    0    0    0    0  0.00000000000E+00  0.00000000000E+00  0.99999998245E-14  0.12500000000E+03  0.12500000000E+03 0.  0.
        -13    1    3    3    0    0  0.14677135022E+02 -0.19226734314E+02  0.26851079119E+02  0.36139690352E+02  0.10566000000E+00 0. -1.
         23    2    1    0    0    0 -0.13333925887E+02 -0.14805747197E+01 -0.24383929149E+02  0.97169051726E+02  0.93098136026E+02 0.  0.
         13    1    3    3    0    0 -0.28011060909E+02  0.17746159594E+02 -0.51235008268E+02  0.61029361375E+02  0.10566000000E+00 0.  1.
         22    1    1    0    0    0  0.13333925887E+02  0.14805747197E+01  0.24383929149E+02  0.27830948274E+02  0.00000000000E+00 0.  1.
</event>
<event>
 5    1  0.1320187E-009  0.9118800E+02  0.7818608E-02  0.1130116E+00
         25   -1    0    0    0    0  0.00000000000E+00  0.00000000000E+00  0.99999998245E-14  0.12500000000E+03  0.12500000000E+03 0.  0.
        -13    1    3    3    0    0 -0.42829615482E+02 -0.27898508434E+02 -0.11852757751E+02  0.52470961164E+02  0.10566000000E+00 0. -1.
         23    2    1    0    0    0 -0.10914862494E+02 -0.98464161423E+00 -0.26187604663E+02  0.96611721075E+02  0.92346793495E+02 0.  0.
         13    1    3    3    0    0  0.31914752988E+02  0.26913866819E+02 -0.14334846912E+02  0.44140759911E+02  0.10566000000E+00 0.  1.
         22    1    1    0    0    0  0.10914862494E+02  0.98464161423E+00  0.26187604663E+02  0.28388278925E+02  0.00000000000E+00 0. -1.
</event>
<event>
 5    1  0.1320187E-009  0.9118800E+02  0.7818608E-02  0.1130116E+00
         25   -1    0    0    0    0  0.00000000000E+00  0.00000000000E+00  0.99999998245E-14  0.12500000000E+03  0.12500000000E+03 0.  0.
        -13    1    3    3    0    0 -0.47006150620E+02 -0.66529774771E+01 -0.33851957655E+02  0.58307859732E+02  0.10566000000E+00 0.  1.
         23    2    1    0    0    0 -0.97671891275E+01 -0.61674478655E+01 -0.26253767253E+02  0.96317327677E+02  0.91947441069E+02 0.  0.
         13    1    3    3    0    0  0.37238961493E+02  0.48552961157E+00  0.75981904017E+01  0.38009467945E+02  0.10566000000E+00 0. -1.
         22    1    1    0    0    0  0.97671891275E+01  0.61674478655E+01  0.26253767253E+02  0.28682672323E+02  0.00000000000E+00 0.  1.
</event>
<event>
 5    1  0.1320187E-009  0.9118800E+02  0.7818608E-02  0.1130116E+00
         25   -1    0    0    0    0  0.00000000000E+00  0.00000000000E+00  0.99999998245E-14  0.12500000000E+03  0.12500000000E+03 0.  0.
        -13    1    3    3    0    0 -0.29135907332E+02  0.11274842033E+02  0.12640490437E+02  0.33701874153E+02  0.10566000000E+00 0.  1.
         23    2    1    0    0    0  0.29298939527E+02  0.22998593640E+00 -0.39321772773E+01  0.95437476950E+02  0.90743425313E+02 0.  0.
         13    1    3    3    0    0  0.58434846858E+02 -0.11044856097E+02 -0.16572667714E+02  0.61735602797E+02  0.10566000000E+00 0. -1.
         22    1    1    0    0    0 -0.29298939527E+02 -0.22998593640E+00  0.39321772773E+01  0.29562523050E+02  0.00000000000E+00 0. -1.
</event>
<event>
 5    1  0.1320187E-009  0.9118800E+02  0.7818608E-02  0.1130116E+00
         25   -1    0    0    0    0  0.00000000000E+00  0.00000000000E+00  0.99999998245E-14  0.12500000000E+03  0.12500000000E+03 0.  0.
        -13    1    3    3    0    0 -0.32008059721E+02 -0.78461106386E+01 -0.34894018291E+02  0.47996677133E+02  0.10566000000E+00 0. -1.
         23    2    1    0    0    0  0.47701960663E+01 -0.26620837457E+02 -0.10293863369E+02  0.96062353577E+02  0.91600154991E+02 0.  0.
         13    1    3    3    0    0  0.36778255788E+02 -0.18774726818E+02  0.24600154921E+02  0.48065676444E+02  0.10566000000E+00 0.  1.
         22    1    1    0    0    0 -0.47701960663E+01  0.26620837457E+02  0.10293863369E+02  0.28937646423E+02  0.00000000000E+00 0. -1.
</event>
<event>
 5    1  0.1320187E-009  0.9118800E+02  0.7818608E-02  0.1130116E+00
         25   -1    0    0    0    0  0.00000000000E+00  0.00000000000E+00  0.99999998245E-14  0.12500000000E+03  0.12500000000E+03 0.  0.
        -13    1    3    3    0    0 -0.17230162049E+02 -0.43263244042E+02  0.26538577006E+01  0.46643765864E+02  0.10566000000E+00 0. -1.
         23    2    1    0    0    0  0.62680811311E+01 -0.34902109297E+01  0.25734114303E+02  0.98284554049E+02  0.94584028843E+02 0.  0.
         13    1    3    3    0    0  0.23498243180E+02  0.39773033112E+02  0.23080256602E+02  0.51640788185E+02  0.10566000000E+00 0.  1.
         22    1    1    0    0    0 -0.62680811311E+01  0.34902109297E+01 -0.25734114303E+02  0.26715445951E+02  0.00000000000E+00 0.  1.
</event>
<event>
 5    1  0.1320187E-009  0.9118800E+02  0.7818608E-02  0.1130116E+00
         25   -1    0    0    0    0  0.00000000000E+00  0.00000000000E+00  0.99999998245E-14  0.12500000000E+03  0.12500000000E+03 0.  0.
        -13    1    3    3    0    0 -0.38497636334E+02  0.43963476319E+02  0.19964610627E+02  0.61753154534E+02  0.10566000000E+00 0.  1.
         23    2    1    0    0    0 -0.27004223034E+02  0.22055542843E+02  0.80329748296E+01  0.89220065450E+02  0.81731367067E+02 0.  0.
         13    1    3    3    0    0  0.11493413300E+02 -0.21907933476E+02 -0.11931635797E+02  0.27466910917E+02  0.10566000000E+00 0. -1.
         22    1    1    0    0    0  0.27004223034E+02 -0.22055542843E+02 -0.80329748296E+01  0.35779934550E+02  0.00000000000E+00 0.  1.
</event>
<event>
 5    1  0.1320187E-009  0.9118800E+02  0.7818608E-02  0.1130116E+00
         25   -1    0    0    0    0  0.00000000000E+00  0.00000000000E+00  0.99999998245E-14  0.12500000000E+03  0.12500000000E+03 0.  0.
        -13    1    3    3    0    0  0.45916596090E+02  0.25485476356E+01 -0.28832980847E+02  0.54278732853E+02  0.10566000000E+00 0.  1.
         23    2    1    0    0    0  0.97177208473E+01  0.15197586131E+02 -0.26821373669E+02  0.92676837900E+02  0.86857408866E+02 0.  0.
         13    1    3    3    0    0 -0.36198875243E+02  0.12649038496E+02  0.20116071782E+01  0.38398105047E+02  0.10566000000E+00 0. -1.
         22    1    1    0    0    0 -0.97177208473E+01 -0.15197586131E+02  0.26821373669E+02  0.32323162100E+02  0.00000000000E+00 0.  1.
</event>
<event>
 5    1  0.1320187E-009  0.9118800E+02  0.7818608E-02  0.1130116E+00
         25   -1    0    0    0    0  0.00000000000E+00  0.00000000000E+00  0.99999998245E-14  0.12500000000E+03  0.12500000000E+03 0.  0.
        -13    1    3    3    0    0  0.26267478332E+02 -0.61406113509E+01  0.21073404070E+02  0.34231375211E+02  0.10566000000E+00 0.  1.
         23    2    1    0    0    0 -0.80993525010E+01  0.98681577626E+01 -0.26809379715E+02  0.95306180958E+02  0.90562383138E+02 0.  0.
         13    1    3    3    0    0 -0.34366830833E+02  0.16008769113E+02 -0.47882783785E+02  0.61074805748E+02  0.10566000000E+00 0. -1.
         22    1    1    0    0    0  0.80993525010E+01 -0.98681577626E+01  0.26809379715E+02  0.29693819042E+02  0.00000000000E+00 0. -1.
</event>
<event>
 5    1  0.1320187E-009  0.9118800E+02  0.7818608E-02  0.1130116E+00
         25   -1    0    0    0    0  0.00000000000E+00  0.00000000000E+00  0.99999998245E-14  0.12500000000E+03  0.12500000000E+03 0.  0.
        -13    1    3    3    0    0 -0.26648554061E+02  0.12759587649E+02 -0.16416030094E+02  0.33800143766E+02  0.10566000000E+00 0. -1.
         23    2    1    0    0    0  0.24138224387E+02 -0.15381908782E+01  0.16255525586E+02  0.95857899530E+02  0.91320725372E+02 0.  0.
         13    1    3    3    0    0  0.50786778448E+02 -0.14297778528E+02  0.32671555680E+02  0.62057755764E+02  0.10566000000E+00 0.  1.
         22    1    1    0    0    0 -0.24138224387E+02  0.15381908782E+01 -0.16255525586E+02  0.29142100470E+02  0.00000000000E+00 0.  1.
</event>
<event>
 5    1  0.1320187E-009  0.9118800E+02  0.7818608E-02  0.1130116E+00
         25   -1    0    0    0    0  0.00000000000E+00  0.00000000000E+00  0.99999998245E-14  0.12500000000E+03  0.12500000000E+03 0.  0.
        -13    1    3    3    0    0 -0.11822969676E+02  0.41642601857E+02 -0.24713722393E+02  0.49846445610E+02  0.10566000000E+00 0. -1.
         23    2    1    0    0    0  0.15166194667E+02  0.48419211228E+01 -0.24854960052E+02  0.95483450405E+02  0.90806732136E+02 0.  0.
         13    1    3    3    0    0  0.26989164344E+02 -0.36800680735E+02 -0.14123765861E+00  0.45637004795E+02  0.10566000000E+00 0.  1.
         22    1    1    0    0    0 -0.15166194667E+02 -0.48419211228E+01  0.24854960052E+02  0.29516549595E+02  0.00000000000E+00 0. -1.
</event>
<event>
 5    1  0.1320187E-009  0.9118800E+02  0.7818608E-02  0.1130116E+00
         25   -1    0    0    0    0  0.00000000000E+00  0.00000000000E+00  0.99999998245E-14  0.12500000000E+03  0.12500000000E+03 0.  0.
        -13    1    3    3    0    0  0.18428209306E+02 -0.14816225769E+02 -0.30004557256E+02  0.38202147380E+02  0.10566000000E+00 0. -1.
         23    2    1    0    0    0  0.20698175556E+02  0.88325128780E+01  0.20843290155E+02  0.94326387569E+02  0.89199758364E+02 0.  0.
         13    1    3    3    0    0  0.22699662502E+01  0.23648738647E+02  0.50847847411E+02  0.56124240189E+02  0.10566000000E+00 0.  1.
         22    1    1    0    0    0 -0.20698175556E+02 -0.88325128780E+01 -0.20843290155E+02  0.30673612431E+02  0.00000000000E+00 0.  1.
</event>
<event>
 5    1  0.1320187E-009  0.9118800E+02  0.7818608E-02  0.1130116E+00
         25   -1    0    0    0    0  0.00000000000E+00  0.00000000000E+00  0.99999998245E-14  0.12500000000E+03  0.12500000000E+03 0.  0.
        -13    1    3    3    0    0 -0.85474611257E+01  0.28123527855E+02 -0.24188467928E+02  0.38066849823E+02  0.10566000000E+00 0.  1.
         23    2    1    0    0    0  0.95456209340E+01  0.78217645409E+01  0.26599457426E+02  0.95677141768E+02  0.91072967680E+02 0.  0.
         13    1    3    3    0    0  0.18093082060E+02 -0.20301763315E+02  0.50787925354E+02  0.57610291944E+02  0.10566000000E+00 0. -1.
         22    1    1    0    0    0 -0.95456209340E+01 -0.78217645409E+01 -0.26599457426E+02  0.29322858232E+02  0.00000000000E+00 0. -1.
</event>
<event>
 5    1  0.1320187E-009  0.9118800E+02  0.7818608E-02  0.1130116E+00
         25   -1    0    0    0    0  0.00000000000E+00  0.00000000000E+00  0.99999998245E-14  0.12500000000E+03  0.12500000000E+03 0.  0.
        -13    1    3    3    0    0 -0.15619563155E+00  0.70295505032E+00 -0.19023147001E+02  0.19037064604E+02  0.10566000000E+00 0. -1.
         23    2    1    0    0    0  0.70992654990E+01 -0.10362915812E+02  0.41836340328E+02  0.81318551228E+02  0.68590362348E+02 0.  0.
         13    1    3    3    0    0  0.72554611305E+01 -0.11065870862E+02  0.60859487329E+02  0.62281486624E+02  0.10566000000E+00 0.  1.
         22    1    1    0    0    0 -0.70992654990E+01  0.10362915812E+02 -0.41836340328E+02  0.43681448772E+02  0.00000000000E+00 0.  1.
</event>
<event>
 5    1  0.1320187E-009  0.9118800E+02  0.7818608E-02  0.1130116E+00
         25   -1    0    0    0    0  0.00000000000E+00  0.00000000000E+00  0.99999998245E-14  0.12500000000E+03  0.12500000000E+03 0.  0.
        -13    1    3    3    0    0  0.10971062549E+02  0.45859030746E+02 -0.37132900220E+02  0.60018983307E+02  0.10566000000E+00 0. -1.
         23    2    1    0    0    0  0.17510783050E+02  0.25141252558E+02 -0.27671066827E+02  0.83715644094E+02  0.72827954959E+02 0.  0.
         13    1    3    3    0    0  0.65397205013E+01 -0.20717778188E+02  0.94618333928E+01  0.23696660788E+02  0.10566000000E+00 0.  1.
         22    1    1    0    0    0 -0.17510783050E+02 -0.25141252558E+02  0.27671066827E+02  0.41284355906E+02  0.00000000000E+00 0. -1.
</event>
<event>
 5    1  0.1320187E-009  0.9118800E+02  0.7818608E-02  0.1130116E+00
         25   -1    0    0    0    0  0.00000000000E+00  0.00000000000E+00  0.99999998245E-14  0.12500000000E+03  0.12500000000E+03 0.  0.
        -13    1    3    3    0    0 -0.29932130818E+02  0.28353993789E+02 -0.96544870513E+01  0.42345031625E+02  0.10566000000E+00 0. -1.
         23    2    1    0    0    0 -0.10322126468E+01 -0.14096927705E+02 -0.25290814388E+02  0.96027355556E+02  0.91552383306E+02 0.  0.
         13    1    3    3    0    0  0.28899918171E+02 -0.42450921493E+02 -0.15636327337E+02  0.53682323931E+02  0.10566000000E+00 0.  1.
         22    1    1    0    0    0  0.10322126468E+01  0.14096927705E+02  0.25290814388E+02  0.28972644444E+02  0.00000000000E+00 0.  1.
</event>
<event>
 5    1  0.1320187E-009  0.9118800E+02  0.7818608E-02  0.1130116E+00
         25   -1    0    0    0    0  0.00000000000E+00  0.00000000000E+00  0.99999998245E-14  0.12500000000E+03  0.12500000000E+03 0.  0.
        -13    1    3    3    0    0 -0.28608521672E+02 -0.39134251081E+02 -0.10903615120E+02  0.49687393841E+02  0.10566000000E+00 0.  1.
         23    2    1    0    0    0 -0.15060330706E+02  0.15545138384E+01 -0.25799597678E+02  0.95085967932E+02  0.90257919226E+02 0.  0.
         13    1    3    3    0    0  0.13548190967E+02  0.40688764919E+02 -0.14895982558E+02  0.45398574091E+02  0.10566000000E+00 0. -1.
         22    1    1    0    0    0  0.15060330706E+02 -0.15545138384E+01  0.25799597678E+02  0.29914032068E+02  0.00000000000E+00 0.  1.
</event>
<event>
 5    1  0.1320187E-009  0.9118800E+02  0.7818608E-02  0.1130116E+00
         25   -1    0    0    0    0  0.00000000000E+00  0.00000000000E+00  0.99999998245E-14  0.12500000000E+03  0.12500000000E+03 0.  0.
        -13    1    3    3    0    0 -0.10788836717E+02  0.37509372751E+02  0.11827598700E+02  0.40783027070E+02  0.10566000000E+00 0.  1.
         23    2    1    0    0    0 -0.18220579111E+02 -0.19163405409E+01 -0.24160202376E+02  0.94678765806E+02  0.89692203962E+02 0.  0.
         13    1    3    3    0    0 -0.74317423937E+01 -0.39425713292E+02 -0.35987801076E+02  0.53895738736E+02  0.10566000000E+00 0. -1.
         22    1    1    0    0    0  0.18220579111E+02  0.19163405409E+01  0.24160202376E+02  0.30321234194E+02  0.00000000000E+00 0. -1.
</event>
<event>
 5    1  0.1320187E-009  0.9118800E+02  0.7818608E-02  0.1130116E+00
         25   -1    0    0    0    0  0.00000000000E+00  0.00000000000E+00  0.99999998245E-14  0.12500000000E+03  0.12500000000E+03 0.  0.
        -13    1    3    3    0    0 -0.69720141979E+01  0.15984660234E+02 -0.45004362196E+02  0.48265123282E+02  0.10566000000E+00 0. -1.
         23    2    1    0    0    0  0.46518014770E+01 -0.21905433183E+02 -0.18608046685E+02  0.95883910610E+02  0.91356322455E+02 0.  0.
         13    1    3    3    0    0  0.11623815675E+02 -0.37890093417E+02  0.26396315511E+02  0.47618787328E+02  0.10566000000E+00 0.  1.
         22    1    1    0    0    0 -0.46518014770E+01  0.21905433183E+02  0.18608046685E+02  0.29116089390E+02  0.00000000000E+00 0.  1.
</event>
<event>
 5    1  0.1320187E-009  0.9118800E+02  0.7818608E-02  0.1130116E+00
         25   -1    0    0    0    0  0.00000000000E+00  0.00000000000E+00  0.99999998245E-14  0.12500000000E+03  0.12500000000E+03 0.  0.
        -13    1    3    3    0    0  0.49207387649E+02  0.14003859275E+01 -0.13596696488E+02  0.51070631477E+02  0.10566000000E+00 0.  1.
         23    2    1    0    0    0  0.18191657552E+02 -0.17711453581E+02  0.13283656035E+02  0.96345375415E+02  0.91985563290E+02 0.  0.
         13    1    3    3    0    0 -0.31015730098E+02 -0.19111839508E+02  0.26880352524E+02  0.45274743939E+02  0.10566000000E+00 0. -1.
         22    1    1    0    0    0 -0.18191657552E+02  0.17711453581E+02 -0.13283656035E+02  0.28654624585E+02  0.00000000000E+00 0.  1.
</event>
<event>
 5    1  0.1320187E-009  0.9118800E+02  0.7818608E-02  0.1130116E+00
         25   -1    0    0    0    0  0.00000000000E+00  0.00000000000E+00  0.99999998245E-14  0.12500000000E+03  0.12500000000E+03 0.  0.
        -13    1    3    3    0    0  0.20826802475E+02  0.46195498053E+02 -0.75248776714E+00  0.50678961548E+02  0.10566000000E+00 0.  1.
         23    2    1    0    0    0  0.23246765105E+02  0.74629388893E+01  0.18847913029E+02  0.94156015655E+02  0.88960687463E+02 0.  0.
         13    1    3    3    0    0  0.24199626305E+01 -0.38732559164E+02  0.19600400796E+02  0.43477054108E+02  0.10566000000E+00 0. -1.
         22    1    1    0    0    0 -0.23246765105E+02 -0.74629388893E+01 -0.18847913029E+02  0.30843984345E+02  0.00000000000E+00 0.  1.
</event>
<event>
 5    1  0.1320187E-009  0.9118800E+02  0.7818608E-02  0.1130116E+00
         25   -1    0    0    0    0  0.00000000000E+00  0.00000000000E+00  0.99999998245E-14  0.12500000000E+03  0.12500000000E+03 0.  0.
        -13    1    3    3    0    0  0.33236451382E+02 -0.29797586124E+02 -0.26382001306E+02  0.51851509103E+02  0.10566000000E+00 0.  1.
         23    2    1    0    0    0  0.23445463279E+01 -0.31429424268E+02  0.14301973940E+01  0.93450815036E+02  0.87964218629E+02 0.  0.
         13    1    3    3    0    0 -0.30891905054E+02 -0.16318381441E+01  0.27812198700E+02  0.41599305933E+02  0.10566000000E+00 0. -1.
         22    1    1    0    0    0 -0.23445463279E+01  0.31429424268E+02 -0.14301973940E+01  0.31549184964E+02  0.00000000000E+00 0.  1.
</event>
<event>
 5    1  0.1320187E-009  0.9118800E+02  0.7818608E-02  0.1130116E+00
         25   -1    0    0    0    0  0.00000000000E+00  0.00000000000E+00  0.99999998245E-14  0.12500000000E+03  0.12500000000E+03 0.  0.
        -13    1    3    3    0    0  0.19315299658E+02 -0.16832640218E+02  0.46352951473E+02  0.52962494766E+02  0.10566000000E+00 0.  1.
         23    2    1    0    0    0  0.11510627708E+02 -0.27972750352E+02  0.79195661114E+01  0.93731983755E+02  0.88362865157E+02 0.  0.
         13    1    3    3    0    0 -0.78046719502E+01 -0.11140110135E+02 -0.38433385361E+02  0.40769488989E+02  0.10566000000E+00 0. -1.
         22    1    1    0    0    0 -0.11510627708E+02  0.27972750352E+02 -0.79195661114E+01  0.31268016245E+02  0.00000000000E+00 0.  1.
</event>
<event>
 5    1  0.1320187E-009  0.9118800E+02  0.7818608E-02  0.1130116E+00
         25   -1    0    0    0    0  0.00000000000E+00  0.00000000000E+00  0.99999998245E-14  0.12500000000E+03  0.12500000000E+03 0.  0.
        -13    1    3    3    0    0  0.14071943698E+02 -0.50143943303E+02  0.13359779265E+02  0.53767364781E+02  0.10566000000E+00 0. -1.
         23    2    1    0    0    0  0.45237871238E+01 -0.14599852364E+02  0.27777488787E+02  0.93294965348E+02  0.87742471682E+02 0.  0.
         13    1    3    3    0    0 -0.95481565741E+01  0.35544090939E+02  0.14417709522E+02  0.39527600567E+02  0.10566000000E+00 0.  1.
         22    1    1    0    0    0 -0.45237871238E+01  0.14599852364E+02 -0.27777488787E+02  0.31705034652E+02  0.00000000000E+00 0. -1.
</event>
<event>
 5    1  0.1320187E-009  0.9118800E+02  0.7818608E-02  0.1130116E+00
         25   -1    0    0    0    0  0.00000000000E+00  0.00000000000E+00  0.99999998245E-14  0.12500000000E+03  0.12500000000E+03 0.  0.
        -13    1    3    3    0    0  0.62174148191E+01  0.24271750838E+02 -0.17782116289E+02  0.30724403322E+02  0.10566000000E+00 0. -1.
         23    2    1    0    0    0 -0.32078523198E+02 -0.16619606783E+02 -0.11427283157E+02  0.87107708164E+02  0.78434221109E+02 0.  0.
         13    1    3    3    0    0 -0.38295938017E+02 -0.40891357621E+02  0.63548331318E+01  0.56383304842E+02  0.10566000000E+00 0.  1.
         22    1    1    0    0    0  0.32078523198E+02  0.16619606783E+02  0.11427283157E+02  0.37892291836E+02  0.00000000000E+00 0.  1.
</event>
<event>
 5    1  0.1320187E-009  0.9118800E+02  0.7818608E-02  0.1130116E+00
         25   -1    0    0    0    0  0.00000000000E+00  0.00000000000E+00  0.99999998245E-14  0.12500000000E+03  0.12500000000E+03 0.  0.
        -13    1    3    3    0    0 -0.17524894952E+02  0.47309319411E+02 -0.19483034491E+02  0.54082284005E+02  0.10566000000E+00 0.  1.
         23    2    1    0    0    0 -0.22255586844E+02  0.68635763972E+01 -0.19218051556E+02  0.94804746526E+02  0.89867606129E+02 0.  0.
         13    1    3    3    0    0 -0.47306918925E+01 -0.40445743014E+02  0.26498293488E+00  0.40722462520E+02  0.10566000000E+00 0. -1.
         22    1    1    0    0    0  0.22255586844E+02 -0.68635763972E+01  0.19218051556E+02  0.30195253474E+02  0.00000000000E+00 0. -1.
</event>
<event>
 5    1  0.1320187E-009  0.9118800E+02  0.7818608E-02  0.1130116E+00
         25   -1    0    0    0    0  0.00000000000E+00  0.00000000000E+00  0.99999998245E-14  0.12500000000E+03  0.12500000000E+03 0.  0.
        -13    1    3    3    0    0  0.45637463630E+02  0.14296634257E+02  0.38145989807E+02  0.61174337267E+02  0.10566000000E+00 0. -1.
         23    2    1    0    0    0  0.28629665806E+02  0.13549827018E+02  0.14877714458E+02  0.90005686693E+02  0.82924192327E+02 0.  0.
         13    1    3    3    0    0 -0.17007797825E+02 -0.74680723891E+00 -0.23268275349E+02  0.28831349425E+02  0.10566000000E+00 0.  1.
         22    1    1    0    0    0 -0.28629665806E+02 -0.13549827018E+02 -0.14877714458E+02  0.34994313307E+02  0.00000000000E+00 0. -1.
</event>
<event>
 5    1  0.1320187E-009  0.9118800E+02  0.7818608E-02  0.1130116E+00
         25   -1    0    0    0    0  0.00000000000E+00  0.00000000000E+00  0.99999998245E-14  0.12500000000E+03  0.12500000000E+03 0.  0.
        -13    1    3    3    0    0 -0.30737199813E+02  0.25621278085E+01 -0.14661325315E+02  0.34151216307E+02  0.10566000000E+00 0.  1.
         23    2    1    0    0    0  0.15312567432E+02 -0.25915426541E+02  0.94912190441E+01  0.93437881993E+02  0.87945838436E+02 0.  0.
         13    1    3    3    0    0  0.46049767245E+02 -0.28477554349E+02  0.24152544359E+02  0.59286665685E+02  0.10566000000E+00 0. -1.
         22    1    1    0    0    0 -0.15312567432E+02  0.25915426541E+02 -0.94912190441E+01  0.31562118007E+02  0.00000000000E+00 0. -1.
</event>
<event>
 5    1  0.1320187E-009  0.9118800E+02  0.7818608E-02  0.1130116E+00
         25   -1    0    0    0    0  0.00000000000E+00  0.00000000000E+00  0.99999998245E-14  0.12500000000E+03  0.12500000000E+03 0.  0.
        -13    1    3    3    0    0  0.53496928050E+01  0.36137761302E+02 -0.24194577919E+02  0.43817185780E+02  0.10566000000E+00 0. -1.
         23    2    1    0    0    0 -0.18209319838E+02  0.10607440635E+02  0.17157642303E+02  0.97824978101E+02  0.93974701518E+02 0.  0.
         13    1    3    3    0    0 -0.23559012643E+02 -0.25530320666E+02  0.41352220222E+02  0.54007792321E+02  0.10566000000E+00 0.  1.
         22    1    1    0    0    0  0.18209319838E+02 -0.10607440635E+02 -0.17157642303E+02  0.27175021899E+02  0.00000000000E+00 0.  1.
</event>
<event>
 5    1  0.1320187E-009  0.9118800E+02  0.7818608E-02  0.1130116E+00
         25   -1    0    0    0    0  0.00000000000E+00  0.00000000000E+00  0.99999998245E-14  0.12500000000E+03  0.12500000000E+03 0.  0.
        -13    1    3    3    0    0  0.23202942378E+02  0.17778507968E+02  0.30065205695E+02  0.41933037549E+02  0.10566000000E+00 0. -1.
         23    2    1    0    0    0 -0.11468394900E+02 -0.21783716791E+02  0.12478132360E+02  0.97400032862E+02  0.93407752438E+02 0.  0.
         13    1    3    3    0    0 -0.34671337279E+02 -0.39562224759E+02 -0.17587073334E+02  0.55466995313E+02  0.10566000000E+00 0.  1.
         22    1    1    0    0    0  0.11468394900E+02  0.21783716791E+02 -0.12478132360E+02  0.27599967138E+02  0.00000000000E+00 0. -1.
</event>
<event>
 5    1  0.1320187E-009  0.9118800E+02  0.7818608E-02  0.1130116E+00
         25   -1    0    0    0    0  0.00000000000E+00  0.00000000000E+00  0.99999998245E-14  0.12500000000E+03  0.12500000000E+03 0.  0.
        -13    1    3    3    0    0 -0.37475634996E+02  0.35368952362E+02 -0.23765467439E+01  0.51585319113E+02  0.10566000000E+00 0.  1.
         23    2    1    0    0    0 -0.10270507729E+02  0.84406151876E+01 -0.25454791143E+02  0.96282867381E+02  0.91900581310E+02 0.  0.
         13    1    3    3    0    0  0.27205127267E+02 -0.26928337174E+02 -0.23078244399E+02  0.44697548268E+02  0.10566000000E+00 0. -1.
         22    1    1    0    0    0  0.10270507729E+02 -0.84406151876E+01  0.25454791143E+02  0.28717132619E+02  0.00000000000E+00 0.  1.
</event>
<event>
 5    1  0.1320187E-009  0.9118800E+02  0.7818608E-02  0.1130116E+00
         25   -1    0    0    0    0  0.00000000000E+00  0.00000000000E+00  0.99999998245E-14  0.12500000000E+03  0.12500000000E+03 0.  0.
        -13    1    3    3    0    0  0.15939674560E+01  0.10863651971E+01  0.33575846981E+02  0.33631377999E+02  0.10566000000E+00 0.  1.
         23    2    1    0    0    0 -0.11589184014E+02 -0.65655557562E+01 -0.26354958074E+02  0.95470361946E+02  0.90788713431E+02 0.  0.
         13    1    3    3    0    0 -0.13183151470E+02 -0.76519209533E+01 -0.59930805055E+02  0.61838983947E+02  0.10566000000E+00 0. -1.
         22    1    1    0    0    0  0.11589184014E+02  0.65655557562E+01  0.26354958074E+02  0.29529638054E+02  0.00000000000E+00 0. -1.
</event>
<event>
 5    1  0.1320187E-009  0.9118800E+02  0.7818608E-02  0.1130116E+00
         25   -1    0    0    0    0  0.00000000000E+00  0.00000000000E+00  0.99999998245E-14  0.12500000000E+03  0.12500000000E+03 0.  0.
        -13    1    3    3    0    0 -0.29301054358E+01  0.12607213473E+02 -0.22850944535E+02  0.26262219624E+02  0.10566000000E+00 0.  1.
         23    2    1    0    0    0  0.59186240611E+01 -0.29087288832E+02  0.21936987510E+02  0.88090219407E+02  0.79984716364E+02 0.  0.
         13    1    3    3    0    0  0.88487294969E+01 -0.41694502305E+02  0.44787932045E+02  0.61827999783E+02  0.10566000000E+00 0. -1.
         22    1    1    0    0    0 -0.59186240611E+01  0.29087288832E+02 -0.21936987510E+02  0.36909780593E+02  0.00000000000E+00 0. -1.
</event>
<event>
 5    1  0.1320187E-009  0.9118800E+02  0.7818608E-02  0.1130116E+00
         25   -1    0    0    0    0  0.00000000000E+00  0.00000000000E+00  0.99999998245E-14  0.12500000000E+03  0.12500000000E+03 0.  0.
        -13    1    3    3    0    0 -0.52565851575E+02  0.96312878142E-01  0.21503295441E+02  0.56794197828E+02  0.10566000000E+00 0.  1.
         23    2    1    0    0    0 -0.27224247182E+02 -0.14635185401E+02 -0.14996840550E+01  0.94054930302E+02  0.88818537342E+02 0.  0.
         13    1    3    3    0    0  0.25341604394E+02 -0.14731498279E+02 -0.23002979496E+02  0.37260732474E+02  0.10566000000E+00 0. -1.
         22    1    1    0    0    0  0.27224247182E+02  0.14635185401E+02  0.14996840550E+01  0.30945069698E+02  0.00000000000E+00 0.  1.
</event>
<event>
 5    1  0.1320187E-009  0.9118800E+02  0.7818608E-02  0.1130116E+00
         25   -1    0    0    0    0  0.00000000000E+00  0.00000000000E+00  0.99999998245E-14  0.12500000000E+03  0.12500000000E+03 0.  0.
        -13    1    3    3    0    0  0.13214740945E+02  0.43114801036E+02  0.42080044065E+02  0.61678656918E+02  0.10566000000E+00 0.  1.
         23    2    1    0    0    0  0.11269041134E+02  0.15835768938E+02  0.22228706323E+02  0.95472415426E+02  0.90791540666E+02 0.  0.
         13    1    3    3    0    0 -0.19456998106E+01 -0.27279032098E+02 -0.19851337742E+02  0.33793758509E+02  0.10566000000E+00 0. -1.
         22    1    1    0    0    0 -0.11269041134E+02 -0.15835768938E+02 -0.22228706323E+02  0.29527584574E+02  0.00000000000E+00 0.  1.
</event>
<event>
 5    1  0.1320187E-009  0.9118800E+02  0.7818608E-02  0.1130116E+00
         25   -1    0    0    0    0  0.00000000000E+00  0.00000000000E+00  0.99999998245E-14  0.12500000000E+03  0.12500000000E+03 0.  0.
        -13    1    3    3    0    0 -0.74432774156E+01 -0.45758015336E+02  0.24723673078E+02  0.52540170543E+02  0.10566000000E+00 0. -1.
         23    2    1    0    0    0  0.20847361273E+02 -0.18299082850E+02  0.43400640549E+01  0.96923229153E+02  0.92767490470E+02 0.  0.
         13    1    3    3    0    0  0.28290638689E+02  0.27458932486E+02 -0.20383609023E+02  0.44383058609E+02  0.10566000000E+00 0.  1.
         22    1    1    0    0    0 -0.20847361273E+02  0.18299082850E+02 -0.43400640549E+01  0.28076770847E+02  0.00000000000E+00 0. -1.
</event>
<event>
 5    1  0.1320187E-009  0.9118800E+02  0.7818608E-02  0.1130116E+00
         25   -1    0    0    0    0  0.00000000000E+00  0.00000000000E+00  0.99999998245E-14  0.12500000000E+03  0.12500000000E+03 0.  0.
        -13    1    3    3    0    0 -0.16849663734E+02  0.14744745024E+02  0.45565461420E+01  0.22849331512E+02  0.10566000000E+00 0.  1.
         23    2    1    0    0    0  0.34281299605E+02 -0.90511086049E+01  0.23637794927E+02  0.82386910243E+02  0.70510478376E+02 0.  0.
         13    1    3    3    0    0  0.51130963339E+02 -0.23795853629E+02  0.19081248785E+02  0.59537578731E+02  0.10566000000E+00 0. -1.
         22    1    1    0    0    0 -0.34281299605E+02  0.90511086049E+01 -0.23637794927E+02  0.42613089757E+02  0.00000000000E+00 0. -1.
</event>
<event>
 5    1  0.1320187E-009  0.9118800E+02  0.7818608E-02  0.1130116E+00
         25   -1    0    0    0    0  0.00000000000E+00  0.00000000000E+00  0.99999998245E-14  0.12500000000E+03  0.12500000000E+03 0.  0.
        -13    1    3    3    0    0  0.15673736233E+02  0.43473416123E+01 -0.42390423514E+02  0.45404014760E+02  0.10566000000E+00 0. -1.
         23    2    1    0    0    0 -0.62979084974E+01 -0.22937621850E+02  0.10261058242E+01  0.10119136626E+03  0.98350605307E+02 0.  0.
         13    1    3    3    0    0 -0.21971644731E+02 -0.27284963462E+02  0.43416529338E+02  0.55787351497E+02  0.10566000000E+00 0.  1.
         22    1    1    0    0    0  0.62979084974E+01  0.22937621850E+02 -0.10261058242E+01  0.23808633743E+02  0.00000000000E+00 0. -1.
</event>
<event>
 5    1  0.1320187E-009  0.9118800E+02  0.7818608E-02  0.1130116E+00
         25   -1    0    0    0    0  0.00000000000E+00  0.00000000000E+00  0.99999998245E-14  0.12500000000E+03  0.12500000000E+03 0.  0.
        -13    1    3    3    0    0 -0.14210673491E+02 -0.46775786183E+02  0.20958793108E+02  0.53190220781E+02  0.10566000000E+00 0. -1.
         23    2    1    0    0    0 -0.19243156010E+02 -0.15053778338E+02 -0.10735142934E+02  0.98313700345E+02  0.94622540053E+02 0.  0.
         13    1    3    3    0    0 -0.50324825192E+01  0.31722007846E+02 -0.31693936042E+02  0.45123479564E+02  0.10566000000E+00 0.  1.
         22    1    1    0    0    0  0.19243156010E+02  0.15053778338E+02  0.10735142934E+02  0.26686299655E+02  0.00000000000E+00 0.  1.
</event>
<event>
 5    1  0.1320187E-009  0.9118800E+02  0.7818608E-02  0.1130116E+00
         25   -1    0    0    0    0  0.00000000000E+00  0.00000000000E+00  0.99999998245E-14  0.12500000000E+03  0.12500000000E+03 0.  0.
        -13    1    3    3    0    0 -0.17559594302E+02 -0.12035224659E+02 -0.37323931733E+02  0.42968279331E+02  0.10566000000E+00 0.  1.
         23    2    1    0    0    0  0.24108956327E+02  0.97377845749E+01 -0.14481074384E+02  0.95238149606E+02  0.90468433177E+02 0.  0.
         13    1    3    3    0    0  0.41668550628E+02  0.21773009234E+02  0.22842857349E+02  0.52269870274E+02  0.10566000000E+00 0. -1.
         22    1    1    0    0    0 -0.24108956327E+02 -0.97377845749E+01  0.14481074384E+02  0.29761850394E+02  0.00000000000E+00 0. -1.
</event>
<event>
 5    1  0.1320187E-009  0.9118800E+02  0.7818608E-02  0.1130116E+00
         25   -1    0    0    0    0  0.00000000000E+00  0.00000000000E+00  0.99999998245E-14  0.12500000000E+03  0.12500000000E+03 0.  0.
        -13    1    3    3    0    0 -0.10727102234E+02 -0.59457336296E+02  0.12866386096E+02  0.61772167008E+02  0.10566000000E+00 0.  1.
         23    2    1    0    0    0 -0.49343253627E+00 -0.25256346890E+02  0.10787068550E+02  0.97532066299E+02  0.93584275253E+02 0.  0.
         13    1    3    3    0    0  0.10233669697E+02  0.34200989405E+02 -0.20793175458E+01  0.35759899291E+02  0.10566000000E+00 0. -1.
         22    1    1    0    0    0  0.49343253627E+00  0.25256346890E+02 -0.10787068550E+02  0.27467933701E+02  0.00000000000E+00 0.  1.
</event>
<event>
 5    1  0.1320187E-009  0.9118800E+02  0.7818608E-02  0.1130116E+00
         25   -1    0    0    0    0  0.00000000000E+00  0.00000000000E+00  0.99999998245E-14  0.12500000000E+03  0.12500000000E+03 0.  0.
        -13    1    3    3    0    0  0.13474044302E+02  0.25644171859E+02 -0.30570898963E+02  0.42116083004E+02  0.10566000000E+00 0. -1.
         23    2    1    0    0    0  0.21894589692E+02 -0.17809831487E+02  0.14384163534E+01  0.96739918666E+02  0.92520158163E+02 0.  0.
         13    1    3    3    0    0  0.84205453906E+01 -0.43454003345E+02  0.32009315316E+02  0.54623835662E+02  0.10566000000E+00 0.  1.
         22    1    1    0    0    0 -0.21894589692E+02  0.17809831487E+02 -0.14384163534E+01  0.28260081334E+02  0.00000000000E+00 0.  1.
</event>
<event>
 5    1  0.1320187E-009  0.9118800E+02  0.7818608E-02  0.1130116E+00
         25   -1    0    0    0    0  0.00000000000E+00  0.00000000000E+00  0.99999998245E-14  0.12500000000E+03  0.12500000000E+03 0.  0.
        -13    1    3    3    0    0 -0.20000848123E+02 -0.11848019115E+02  0.27401993940E+02  0.35934522656E+02  0.10566000000E+00 0. -1.
         23    2    1    0    0    0  0.25572408239E+02  0.16204735859E+02  0.35725860157E+01  0.94515497409E+02  0.89464374766E+02 0.  0.
         13    1    3    3    0    0  0.45573256361E+02  0.28052754973E+02 -0.23829407924E+02  0.58580974753E+02  0.10566000000E+00 0.  1.
         22    1    1    0    0    0 -0.25572408239E+02 -0.16204735859E+02 -0.35725860157E+01  0.30484502591E+02  0.00000000000E+00 0.  1.
</event>
<event>
 5    1  0.1320187E-009  0.9118800E+02  0.7818608E-02  0.1130116E+00
         25   -1    0    0    0    0  0.00000000000E+00  0.00000000000E+00  0.99999998245E-14  0.12500000000E+03  0.12500000000E+03 0.  0.
        -13    1    3    3    0    0 -0.37418650471E+02 -0.15442458332E+02 -0.85008204700E+01  0.41363027393E+02  0.10566000000E+00 0.  1.
         23    2    1    0    0    0 -0.74681564291E+01  0.21292934201E+02 -0.24786885232E+02  0.91480571501E+02  0.85118405033E+02 0.  0.
         13    1    3    3    0    0  0.29950494042E+02  0.36735392534E+02 -0.16286064762E+02  0.50117544108E+02  0.10566000000E+00 0. -1.
         22    1    1    0    0    0  0.74681564291E+01 -0.21292934201E+02  0.24786885232E+02  0.33519428499E+02  0.00000000000E+00 0.  1.
</event>
<event>
 5    1  0.1320187E-009  0.9118800E+02  0.7818608E-02  0.1130116E+00
         25   -1    0    0    0    0  0.00000000000E+00  0.00000000000E+00  0.99999998245E-14  0.12500000000E+03  0.12500000000E+03 0.  0.
        -13    1    3    3    0    0 -0.44563601130E+02 -0.30546143866E+02  0.22545231618E+02  0.58542976381E+02  0.10566000000E+00 0. -1.
         23    2    1    0    0    0 -0.13121059528E+02 -0.11995927680E+02  0.24063558504E+02  0.95081455050E+02  0.90251669028E+02 0.  0.
         13    1    3    3    0    0  0.31442541601E+02  0.18550216185E+02  0.15183268858E+01  0.36538478669E+02  0.10566000000E+00 0.  1.
         22    1    1    0    0    0  0.13121059528E+02  0.11995927680E+02 -0.24063558504E+02  0.29918544950E+02  0.00000000000E+00 0. -1.
</event>
<event>
 5    1  0.1320187E-009  0.9118800E+02  0.7818608E-02  0.1130116E+00
         25   -1    0    0    0    0  0.00000000000E+00  0.00000000000E+00  0.99999998245E-14  0.12500000000E+03  0.12500000000E+03 0.  0.
        -13    1    3    3    0    0 -0.13387525388E+02 -0.33320232986E+02 -0.18068123752E+02  0.40198656970E+02  0.10566000000E+00 0. -1.
         23    2    1    0    0    0 -0.13061896357E+02  0.22182798795E+02 -0.13608468431E+02  0.95881619003E+02  0.91353186867E+02 0.  0.
         13    1    3    3    0    0  0.32562903037E+00  0.55503031781E+02  0.44596553212E+01  0.55682962033E+02  0.10566000000E+00 0.  1.
         22    1    1    0    0    0  0.13061896357E+02 -0.22182798795E+02  0.13608468431E+02  0.29118380997E+02  0.00000000000E+00 0.  1.
</event>
<event>
 5    1  0.1320187E-009  0.9118800E+02  0.7818608E-02  0.1130116E+00
         25   -1    0    0    0    0  0.00000000000E+00  0.00000000000E+00  0.99999998245E-14  0.12500000000E+03  0.12500000000E+03 0.  0.
        -13    1    3    3    0    0 -0.25901323269E+02  0.18236975303E+02 -0.53779749625E+02  0.62415850945E+02  0.10566000000E+00 0.  1.
         23    2    1    0    0    0 -0.17018303126E+02  0.95657287100E+01 -0.34886396130E+02  0.85022675903E+02  0.75037783654E+02 0.  0.
         13    1    3    3    0    0  0.88830201436E+01 -0.86712465934E+01  0.18893353495E+02  0.22606824958E+02  0.10566000000E+00 0. -1.
         22    1    1    0    0    0  0.17018303126E+02 -0.95657287100E+01  0.34886396130E+02  0.39977324097E+02  0.00000000000E+00 0.  1.
</event>
<event>
 5    1  0.1320187E-009  0.9118800E+02  0.7818608E-02  0.1130116E+00
         25   -1    0    0    0    0  0.00000000000E+00  0.00000000000E+00  0.99999998245E-14  0.12500000000E+03  0.12500000000E+03 0.  0.
        -13    1    3    3    0    0  0.22265005496E+02 -0.24704142078E+02  0.13742229200E+02  0.35984512404E+02  0.10566000000E+00 0. -1.
         23    2    1    0    0    0 -0.90145674137E+00  0.24610786318E+02 -0.13515534106E+02  0.96907775282E+02  0.92746664740E+02 0.  0.
         13    1    3    3    0    0 -0.23166462237E+02  0.49314928396E+02 -0.27257763306E+02  0.60923262878E+02  0.10566000000E+00 0.  1.
         22    1    1    0    0    0  0.90145674137E+00 -0.24610786318E+02  0.13515534106E+02  0.28092224718E+02  0.00000000000E+00 0.  1.
</event>
<event>
 5    1  0.1320187E-009  0.9118800E+02  0.7818608E-02  0.1130116E+00
         25   -1    0    0    0    0  0.00000000000E+00  0.00000000000E+00  0.99999998245E-14  0.12500000000E+03  0.12500000000E+03 0.  0.
        -13    1    3    3    0    0 -0.38578531457E+02  0.11218493638E+01 -0.43700636969E+01  0.38841604706E+02  0.10566000000E+00 0.  1.
         23    2    1    0    0    0  0.14465951941E+02 -0.32698823111E+01 -0.25004940259E+02  0.95927625944E+02  0.91416117212E+02 0.  0.
         13    1    3    3    0    0  0.53044483398E+02 -0.43917316749E+01 -0.20634876562E+02  0.57086021239E+02  0.10566000000E+00 0. -1.
         22    1    1    0    0    0 -0.14465951941E+02  0.32698823111E+01  0.25004940259E+02  0.29072374056E+02  0.00000000000E+00 0. -1.
</event>
<event>
 5    1  0.1320187E-009  0.9118800E+02  0.7818608E-02  0.1130116E+00
         25   -1    0    0    0    0  0.00000000000E+00  0.00000000000E+00  0.99999998245E-14  0.12500000000E+03  0.12500000000E+03 0.  0.
        -13    1    3    3    0    0 -0.20496318954E+02  0.41488192993E+02 -0.93656127802E+01  0.47213293840E+02  0.10566000000E+00 0. -1.
         23    2    1    0    0    0 -0.23382278606E+02 -0.64027220641E+01 -0.16437755811E+02  0.95709632662E+02  0.91117551359E+02 0.  0.
         13    1    3    3    0    0 -0.28859596526E+01 -0.47890915057E+02 -0.70721430312E+01  0.48496338822E+02  0.10566000000E+00 0.  1.
         22    1    1    0    0    0  0.23382278606E+02  0.64027220641E+01  0.16437755811E+02  0.29290367338E+02  0.00000000000E+00 0.  1.
</event>
<event>
 5    1  0.1320187E-009  0.9118800E+02  0.7818608E-02  0.1130116E+00
         25   -1    0    0    0    0  0.00000000000E+00  0.00000000000E+00  0.99999998245E-14  0.12500000000E+03  0.12500000000E+03 0.  0.
        -13    1    3    3    0    0 -0.23237624542E+02 -0.32670795917E+02  0.45112121616E+02  0.60352984855E+02  0.10566000000E+00 0. -1.
         23    2    1    0    0    0 -0.15898445805E+02 -0.52407827894E+01  0.24009069452E+02  0.95731214593E+02  0.91147153814E+02 0.  0.
         13    1    3    3    0    0  0.73391787367E+01  0.27430013127E+02 -0.21103052165E+02  0.35378229738E+02  0.10566000000E+00 0.  1.
         22    1    1    0    0    0  0.15898445805E+02  0.52407827894E+01 -0.24009069452E+02  0.29268785407E+02  0.00000000000E+00 0. -1.
</event>
<event>
 5    1  0.1320187E-009  0.9118800E+02  0.7818608E-02  0.1130116E+00
         25   -1    0    0    0    0  0.00000000000E+00  0.00000000000E+00  0.99999998245E-14  0.12500000000E+03  0.12500000000E+03 0.  0.
        -13    1    3    3    0    0 -0.27687447577E+01 -0.37371319669E+02 -0.69207527529E+01  0.38107603756E+02  0.10566000000E+00 0.  1.
         23    2    1    0    0    0  0.25827937266E+02  0.12404821385E+02 -0.69632147687E+01  0.95513591319E+02  0.90848213134E+02 0.  0.
         13    1    3    3    0    0  0.28596682024E+02  0.49776141054E+02 -0.42462015832E-01  0.57405987563E+02  0.10566000000E+00 0. -1.
         22    1    1    0    0    0 -0.25827937266E+02 -0.12404821385E+02  0.69632147687E+01  0.29486408681E+02  0.00000000000E+00 0. -1.
</event>
<event>
 5    1  0.1320187E-009  0.9118800E+02  0.7818608E-02  0.1130116E+00
         25   -1    0    0    0    0  0.00000000000E+00  0.00000000000E+00  0.99999998245E-14  0.12500000000E+03  0.12500000000E+03 0.  0.
        -13    1    3    3    0    0  0.16383038213E+02 -0.32012076653E+02  0.41586163752E+02  0.54978151773E+02  0.10566000000E+00 0. -1.
         23    2    1    0    0    0  0.24802335730E+02 -0.22652466385E+01  0.13903036312E+02  0.96476647836E+02  0.92163777912E+02 0.  0.
         13    1    3    3    0    0  0.84192975167E+01  0.29746830014E+02 -0.27683127440E+02  0.41498496063E+02  0.10566000000E+00 0.  1.
         22    1    1    0    0    0 -0.24802335730E+02  0.22652466385E+01 -0.13903036312E+02  0.28523352164E+02  0.00000000000E+00 0. -1.
</event>
<event>
 5    1  0.1320187E-009  0.9118800E+02  0.7818608E-02  0.1130116E+00
         25   -1    0    0    0    0  0.00000000000E+00  0.00000000000E+00  0.99999998245E-14  0.12500000000E+03  0.12500000000E+03 0.  0.
        -13    1    3    3    0    0  0.41898415484E+02  0.16754287620E+02  0.13845064743E+02  0.47200427493E+02  0.10566000000E+00 0. -1.
         23    2    1    0    0    0  0.58146928324E+01 -0.13620024089E+02  0.25251510752E+02  0.95726214728E+02  0.91140296696E+02 0.  0.
         13    1    3    3    0    0 -0.36083722652E+02 -0.30374311709E+02  0.11406446009E+02  0.48525787235E+02  0.10566000000E+00 0.  1.
         22    1    1    0    0    0 -0.58146928324E+01  0.13620024089E+02 -0.25251510752E+02  0.29273785272E+02  0.00000000000E+00 0. -1.
</event>
<event>
 5    1  0.1320187E-009  0.9118800E+02  0.7818608E-02  0.1130116E+00
         25   -1    0    0    0    0  0.00000000000E+00  0.00000000000E+00  0.99999998245E-14  0.12500000000E+03  0.12500000000E+03 0.  0.
        -13    1    3    3    0    0 -0.23488198651E+02 -0.54626636282E+02  0.11867699264E+02  0.60635124452E+02  0.10566000000E+00 0.  1.
         23    2    1    0    0    0 -0.19737433392E+02 -0.43675697893E+02  0.19974606431E+00  0.77071169826E+02  0.60355550338E+02 0.  0.
         13    1    3    3    0    0  0.37507652591E+01  0.10950938390E+02 -0.11667953200E+02  0.16436045375E+02  0.10566000000E+00 0. -1.
         22    1    1    0    0    0  0.19737433392E+02  0.43675697893E+02 -0.19974606431E+00  0.47928830174E+02  0.00000000000E+00 0.  1.
</event>
<event>
 5    1  0.1320187E-009  0.9118800E+02  0.7818608E-02  0.1130116E+00
         25   -1    0    0    0    0  0.00000000000E+00  0.00000000000E+00  0.99999998245E-14  0.12500000000E+03  0.12500000000E+03 0.  0.
        -13    1    3    3    0    0 -0.23485401892E+02 -0.30977176786E+02  0.18181551092E+02  0.42915376590E+02  0.10566000000E+00 0.  1.
         23    2    1    0    0    0  0.11395903161E+02 -0.17392325584E+02 -0.19831650051E+02  0.96265805357E+02  0.91877371203E+02 0.  0.
         13    1    3    3    0    0  0.34881305053E+02  0.13584851203E+02 -0.38013201143E+02  0.53350428767E+02  0.10566000000E+00 0. -1.
         22    1    1    0    0    0 -0.11395903161E+02  0.17392325584E+02  0.19831650051E+02  0.28734194643E+02  0.00000000000E+00 0. -1.
</event>
<event>
 5    1  0.1320187E-009  0.9118800E+02  0.7818608E-02  0.1130116E+00
         25   -1    0    0    0    0  0.00000000000E+00  0.00000000000E+00  0.99999998245E-14  0.12500000000E+03  0.12500000000E+03 0.  0.
        -13    1    3    3    0    0 -0.30363955776E+02  0.38230436056E+02 -0.86343302117E+01  0.49579218163E+02  0.10566000000E+00 0. -1.
         23    2    1    0    0    0 -0.93717559615E+01  0.34052298386E+01 -0.28478751388E+02  0.94826092718E+02  0.89897292392E+02 0.  0.
         13    1    3    3    0    0  0.20992199814E+02 -0.34825206218E+02 -0.19844421176E+02  0.45246874555E+02  0.10566000000E+00 0.  1.
         22    1    1    0    0    0  0.93717559615E+01 -0.34052298386E+01  0.28478751388E+02  0.30173907282E+02  0.00000000000E+00 0. -1.
</event>
<event>
 5    1  0.1320187E-009  0.9118800E+02  0.7818608E-02  0.1130116E+00
         25   -1    0    0    0    0  0.00000000000E+00  0.00000000000E+00  0.99999998245E-14  0.12500000000E+03  0.12500000000E+03 0.  0.
        -13    1    3    3    0    0 -0.29805458855E+02  0.37789586737E+02 -0.38719030443E+02  0.61770484261E+02  0.10566000000E+00 0.  1.
         23    2    1    0    0    0 -0.71701563364E+01  0.19021758233E+02 -0.19003383896E+02  0.97172549027E+02  0.93102831626E+02 0.  0.
         13    1    3    3    0    0  0.22635302519E+02 -0.18767828504E+02  0.19715646547E+02  0.35402064766E+02  0.10566000000E+00 0. -1.
         22    1    1    0    0    0  0.71701563364E+01 -0.19021758233E+02  0.19003383896E+02  0.27827450973E+02  0.00000000000E+00 0.  1.
</event>
<event>
 5    1  0.1320187E-009  0.9118800E+02  0.7818608E-02  0.1130116E+00
         25   -1    0    0    0    0  0.00000000000E+00  0.00000000000E+00  0.99999998245E-14  0.12500000000E+03  0.12500000000E+03 0.  0.
        -13    1    3    3    0    0  0.29094666999E+02  0.71265570516E+01  0.34319580667E+01  0.30150903194E+02  0.10566000000E+00 0.  1.
         23    2    1    0    0    0 -0.29705986818E+02 -0.10835778694E+02 -0.72598508644E+01  0.92556738954E+02  0.86684397319E+02 0.  0.
         13    1    3    3    0    0 -0.58800653817E+02 -0.17962335745E+02 -0.10691808931E+02  0.62405835760E+02  0.10566000000E+00 0. -1.
         22    1    1    0    0    0  0.29705986818E+02  0.10835778694E+02  0.72598508644E+01  0.32443261046E+02  0.00000000000E+00 0. -1.
</event>
<event>
 5    1  0.1320187E-009  0.9118800E+02  0.7818608E-02  0.1130116E+00
         25   -1    0    0    0    0  0.00000000000E+00  0.00000000000E+00  0.99999998245E-14  0.12500000000E+03  0.12500000000E+03 0.  0.
        -13    1    3    3    0    0  0.48952953823E+02 -0.34782218899E+02  0.94872885897E+01  0.60796498652E+02  0.10566000000E+00 0.  1.
         23    2    1    0    0    0  0.28733449110E+02 -0.77888860085E+01  0.46831797352E+01  0.94863477052E+02  0.89949259379E+02 0.  0.
         13    1    3    3    0    0 -0.20219504713E+02  0.26993332891E+02 -0.48041088544E+01  0.34066978400E+02  0.10566000000E+00 0. -1.
         22    1    1    0    0    0 -0.28733449110E+02  0.77888860085E+01 -0.46831797352E+01  0.30136522948E+02  0.00000000000E+00 0.  1.
</event>
<event>
 5    1  0.1320187E-009  0.9118800E+02  0.7818608E-02  0.1130116E+00
         25   -1    0    0    0    0  0.00000000000E+00  0.00000000000E+00  0.99999998245E-14  0.12500000000E+03  0.12500000000E+03 0.  0.
        -13    1    3    3    0    0 -0.36434428560E+02 -0.51834726068E+01 -0.44025860406E+01  0.37063862463E+02  0.10566000000E+00 0.  1.
         23    2    1    0    0    0  0.12831290444E+02 -0.14800898262E+01  0.26627498632E+02  0.95405129435E+02  0.90698855333E+02 0.  0.
         13    1    3    3    0    0  0.49265719004E+02  0.37033827807E+01  0.31030084673E+02  0.58341266972E+02  0.10566000000E+00 0. -1.
         22    1    1    0    0    0 -0.12831290444E+02  0.14800898262E+01 -0.26627498632E+02  0.29594870565E+02  0.00000000000E+00 0. -1.
</event>
<event>
 5    1  0.1320187E-009  0.9118800E+02  0.7818608E-02  0.1130116E+00
         25   -1    0    0    0    0  0.00000000000E+00  0.00000000000E+00  0.99999998245E-14  0.12500000000E+03  0.12500000000E+03 0.  0.
        -13    1    3    3    0    0  0.22288956794E+02 -0.28098980792E+02 -0.49821555520E+01  0.36210265872E+02  0.10566000000E+00 0.  1.
         23    2    1    0    0    0 -0.35606919252E+01  0.13943728611E+02  0.26566473241E+02  0.94786036423E+02  0.89841577823E+02 0.  0.
         13    1    3    3    0    0 -0.25849648719E+02  0.42042709403E+02  0.31548628793E+02  0.58575770551E+02  0.10566000000E+00 0. -1.
         22    1    1    0    0    0  0.35606919252E+01 -0.13943728611E+02 -0.26566473241E+02  0.30213963577E+02  0.00000000000E+00 0. -1.
</event>
<event>
 5    1  0.1320187E-009  0.9118800E+02  0.7818608E-02  0.1130116E+00
         25   -1    0    0    0    0  0.00000000000E+00  0.00000000000E+00  0.99999998245E-14  0.12500000000E+03  0.12500000000E+03 0.  0.
        -13    1    3    3    0    0  0.28547573764E+02  0.56996446153E+00  0.48009022543E+02  0.55858448214E+02  0.10566000000E+00 0.  1.
         23    2    1    0    0    0  0.29159066538E+02  0.85373040459E+01  0.12685020753E+02  0.92075138979E+02  0.85987119645E+02 0.  0.
         13    1    3    3    0    0  0.61149277456E+00  0.79673395843E+01 -0.35324001790E+02  0.36216690765E+02  0.10566000000E+00 0. -1.
         22    1    1    0    0    0 -0.29159066538E+02 -0.85373040459E+01 -0.12685020753E+02  0.32924861021E+02  0.00000000000E+00 0.  1.
</event>
<event>
 5    1  0.1320187E-009  0.9118800E+02  0.7818608E-02  0.1130116E+00
         25   -1    0    0    0    0  0.00000000000E+00  0.00000000000E+00  0.99999998245E-14  0.12500000000E+03  0.12500000000E+03 0.  0.
        -13    1    3    3    0    0 -0.82437829268E+01 -0.59336787068E+02 -0.51970240393E+01  0.60131809215E+02  0.10566000000E+00 0. -1.
         23    2    1    0    0    0 -0.75887866318E+01 -0.34806032300E+02 -0.14720452492E+02  0.86454685258E+02  0.77386506023E+02 0.  0.
         13    1    3    3    0    0  0.65499629497E+00  0.24530754769E+02 -0.95234284522E+01  0.26322876043E+02  0.10566000000E+00 0.  1.
         22    1    1    0    0    0  0.75887866318E+01  0.34806032300E+02  0.14720452492E+02  0.38545314742E+02  0.00000000000E+00 0. -1.
</event>
<event>
 5    1  0.1320187E-009  0.9118800E+02  0.7818608E-02  0.1130116E+00
         25   -1    0    0    0    0  0.00000000000E+00  0.00000000000E+00  0.99999998245E-14  0.12500000000E+03  0.12500000000E+03 0.  0.
        -13    1    3    3    0    0 -0.37366273208E+02  0.21089148848E+01 -0.35497084003E+02  0.51582361639E+02  0.10566000000E+00 0.  1.
         23    2    1    0    0    0 -0.80871666455E+01  0.24151968343E+02 -0.54993285822E+01  0.98943092009E+02  0.95450369314E+02 0.  0.
         13    1    3    3    0    0  0.29279106563E+02  0.22043053459E+02  0.29997755421E+02  0.47360730370E+02  0.10566000000E+00 0. -1.
         22    1    1    0    0    0  0.80871666455E+01 -0.24151968343E+02  0.54993285822E+01  0.26056907991E+02  0.00000000000E+00 0.  1.
</event>
<event>
 5    1  0.1320187E-009  0.9118800E+02  0.7818608E-02  0.1130116E+00
         25   -1    0    0    0    0  0.00000000000E+00  0.00000000000E+00  0.99999998245E-14  0.12500000000E+03  0.12500000000E+03 0.  0.
        -13    1    3    3    0    0  0.46436436257E+02 -0.60456533109E+01  0.24361967620E+02  0.52786448702E+02  0.10566000000E+00 0. -1.
         23    2    1    0    0    0  0.31927409179E+02  0.17495045232E+01 -0.10501116866E+02  0.91344485171E+02  0.84918321303E+02 0.  0.
         13    1    3    3    0    0 -0.14509027078E+02  0.77951578341E+01 -0.34863084486E+02  0.38558036469E+02  0.10566000000E+00 0.  1.
         22    1    1    0    0    0 -0.31927409179E+02 -0.17495045232E+01  0.10501116866E+02  0.33655514829E+02  0.00000000000E+00 0.  1.
</event>
<event>
 5    1  0.1320187E-009  0.9118800E+02  0.7818608E-02  0.1130116E+00
         25   -1    0    0    0    0  0.00000000000E+00  0.00000000000E+00  0.99999998245E-14  0.12500000000E+03  0.12500000000E+03 0.  0.
        -13    1    3    3    0    0  0.23192446949E+01  0.14583982296E+02 -0.44643316001E+02  0.47022422983E+02  0.10566000000E+00 0. -1.
         23    2    1    0    0    0  0.23747108845E+02 -0.13935183274E+02 -0.13696153582E+02  0.94247778384E+02  0.89089531349E+02 0.  0.
         13    1    3    3    0    0  0.21427864150E+02 -0.28519165570E+02  0.30947162419E+02  0.47225355401E+02  0.10566000000E+00 0.  1.
         22    1    1    0    0    0 -0.23747108845E+02  0.13935183274E+02  0.13696153582E+02  0.30752221616E+02  0.00000000000E+00 0. -1.
</event>
<event>
 5    1  0.1320187E-009  0.9118800E+02  0.7818608E-02  0.1130116E+00
         25   -1    0    0    0    0  0.00000000000E+00  0.00000000000E+00  0.99999998245E-14  0.12500000000E+03  0.12500000000E+03 0.  0.
        -13    1    3    3    0    0 -0.12572086236E+02 -0.29745438441E+02 -0.36594354124E+02  0.48805802710E+02  0.10566000000E+00 0. -1.
         23    2    1    0    0    0 -0.98601394757E+01 -0.31920986187E+02  0.55840563983E+01  0.91127394616E+02  0.84598159873E+02 0.  0.
         13    1    3    3    0    0  0.27119467607E+01 -0.21755477467E+01  0.42178410522E+02  0.42321591906E+02  0.10566000000E+00 0.  1.
         22    1    1    0    0    0  0.98601394757E+01  0.31920986187E+02 -0.55840563983E+01  0.33872605384E+02  0.00000000000E+00 0. -1.
</event>
<event>
 5    1  0.1320187E-009  0.9118800E+02  0.7818608E-02  0.1130116E+00
         25   -1    0    0    0    0  0.00000000000E+00  0.00000000000E+00  0.99999998245E-14  0.12500000000E+03  0.12500000000E+03 0.  0.
        -13    1    3    3    0    0 -0.18225775919E+02  0.20994397332E+02  0.37658922159E+02  0.46809712768E+02  0.10566000000E+00 0.  1.
         23    2    1    0    0    0  0.20869400204E+02  0.18272081513E+02  0.74856701956E+01  0.96269596488E+02  0.91882528926E+02 0.  0.
         13    1    3    3    0    0  0.39095176123E+02 -0.27223158185E+01 -0.30173251963E+02  0.49459883720E+02  0.10566000000E+00 0. -1.
         22    1    1    0    0    0 -0.20869400204E+02 -0.18272081513E+02 -0.74856701956E+01  0.28730403512E+02  0.00000000000E+00 0.  1.
</event>
<event>
 5    1  0.1320187E-009  0.9118800E+02  0.7818608E-02  0.1130116E+00
         25   -1    0    0    0    0  0.00000000000E+00  0.00000000000E+00  0.99999998245E-14  0.12500000000E+03  0.12500000000E+03 0.  0.
        -13    1    3    3    0    0 -0.40757729962E+02 -0.42843120751E+01  0.41927409749E+02  0.58629913303E+02  0.10566000000E+00 0. -1.
         23    2    1    0    0    0 -0.21610486673E+02 -0.16037952053E+02  0.13415848338E+02  0.94929848239E+02  0.90041446344E+02 0.  0.
         13    1    3    3    0    0  0.19147243289E+02 -0.11753639978E+02 -0.28511561410E+02  0.36299934936E+02  0.10566000000E+00 0.  1.
         22    1    1    0    0    0  0.21610486673E+02  0.16037952053E+02 -0.13415848338E+02  0.30070151761E+02  0.00000000000E+00 0. -1.
</event>
<event>
 5    1  0.1320187E-009  0.9118800E+02  0.7818608E-02  0.1130116E+00
         25   -1    0    0    0    0  0.00000000000E+00  0.00000000000E+00  0.99999998245E-14  0.12500000000E+03  0.12500000000E+03 0.  0.
        -13    1    3    3    0    0  0.10605832037E+01 -0.91464968071E+01 -0.42424436421E+02  0.43412293308E+02  0.10566000000E+00 0. -1.
         23    2    1    0    0    0 -0.20630903270E+02 -0.15926447118E+02  0.71722369028E+01  0.97968039847E+02  0.94164802138E+02 0.  0.
         13    1    3    3    0    0 -0.21691486474E+02 -0.67799503106E+01  0.49596673324E+02  0.54555746539E+02  0.10566000000E+00 0.  1.
         22    1    1    0    0    0  0.20630903270E+02  0.15926447118E+02 -0.71722369028E+01  0.27031960153E+02  0.00000000000E+00 0.  1.
</event>
<event>
 5    1  0.1320187E-009  0.9118800E+02  0.7818608E-02  0.1130116E+00
         25   -1    0    0    0    0  0.00000000000E+00  0.00000000000E+00  0.99999998245E-14  0.12500000000E+03  0.12500000000E+03 0.  0.
        -13    1    3    3    0    0  0.15042249345E+02 -0.31336196623E+02 -0.28766492632E+02  0.45119272451E+02  0.10566000000E+00 0. -1.
         23    2    1    0    0    0  0.17918886760E+02 -0.15326235197E+02  0.18450700293E+02  0.95059921020E+02  0.90221839125E+02 0.  0.
         13    1    3    3    0    0  0.28766374145E+01  0.16009961426E+02  0.47217192925E+02  0.49940648569E+02  0.10566000000E+00 0.  1.
         22    1    1    0    0    0 -0.17918886760E+02  0.15326235197E+02 -0.18450700293E+02  0.29940078980E+02  0.00000000000E+00 0. -1.
</event>
<event>
 5    1  0.1320187E-009  0.9118800E+02  0.7818608E-02  0.1130116E+00
         25   -1    0    0    0    0  0.00000000000E+00  0.00000000000E+00  0.99999998245E-14  0.12500000000E+03  0.12500000000E+03 0.  0.
        -13    1    3    3    0    0  0.31489297901E+02 -0.34783734920E+02  0.33266562240E+02  0.57516601296E+02  0.10566000000E+00 0.  1.
         23    2    1    0    0    0  0.24598267950E+02 -0.17851573287E+02  0.10140476376E+01  0.94589775608E+02  0.89568096451E+02 0.  0.
         13    1    3    3    0    0 -0.68910299509E+01  0.16932161633E+02 -0.32252514603E+02  0.37073174312E+02  0.10566000000E+00 0. -1.
         22    1    1    0    0    0 -0.24598267950E+02  0.17851573287E+02 -0.10140476376E+01  0.30410224392E+02  0.00000000000E+00 0.  1.
</event>
<event>
 5    1  0.1320187E-009  0.9118800E+02  0.7818608E-02  0.1130116E+00
         25   -1    0    0    0    0  0.00000000000E+00  0.00000000000E+00  0.99999998245E-14  0.12500000000E+03  0.12500000000E+03 0.  0.
        -13    1    3    3    0    0 -0.48216019306E+02  0.15616605015E+02 -0.96723566480E+01  0.51596787856E+02  0.10566000000E+00 0. -1.
         23    2    1    0    0    0 -0.45399853787E+01  0.25707744034E+02 -0.11529049966E+02  0.96461980382E+02  0.92143882573E+02 0.  0.
         13    1    3    3    0    0  0.43676033927E+02  0.10091139020E+02 -0.18566933178E+01  0.44865192526E+02  0.10566000000E+00 0.  1.
         22    1    1    0    0    0  0.45399853787E+01 -0.25707744034E+02  0.11529049966E+02  0.28538019618E+02  0.00000000000E+00 0. -1.
</event>
<event>
 5    1  0.1320187E-009  0.9118800E+02  0.7818608E-02  0.1130116E+00
         25   -1    0    0    0    0  0.00000000000E+00  0.00000000000E+00  0.99999998245E-14  0.12500000000E+03  0.12500000000E+03 0.  0.
        -13    1    3    3    0    0  0.19232375745E+02 -0.11777728107E+02 -0.20056755580E+02  0.30180850959E+02  0.10566000000E+00 0. -1.
         23    2    1    0    0    0 -0.18767444800E+02  0.16361778571E+02  0.20711157870E+02  0.92613631840E+02  0.86766398796E+02 0.  0.
         13    1    3    3    0    0 -0.37999820545E+02  0.28139506678E+02  0.40767913449E+02  0.62432780881E+02  0.10566000000E+00 0.  1.
         22    1    1    0    0    0  0.18767444800E+02 -0.16361778571E+02 -0.20711157870E+02  0.32386368160E+02  0.00000000000E+00 0.  1.
</event>
<event>
 5    1  0.1320187E-009  0.9118800E+02  0.7818608E-02  0.1130116E+00
         25   -1    0    0    0    0  0.00000000000E+00  0.00000000000E+00  0.99999998245E-14  0.12500000000E+03  0.12500000000E+03 0.  0.
        -13    1    3    3    0    0  0.31487189226E+02  0.18478713005E+02  0.38306381885E+02  0.52917822865E+02  0.10566000000E+00 0. -1.
         23    2    1    0    0    0 -0.69063599659E+01  0.10037310490E+02  0.29329533881E+02  0.93240482253E+02  0.87664819416E+02 0.  0.
         13    1    3    3    0    0 -0.38393549192E+02 -0.84414025148E+01 -0.89768480033E+01  0.40322659387E+02  0.10566000000E+00 0.  1.
         22    1    1    0    0    0  0.69063599659E+01 -0.10037310490E+02 -0.29329533881E+02  0.31759517747E+02  0.00000000000E+00 0. -1.
</event>
<event>
 5    1  0.1320187E-009  0.9118800E+02  0.7818608E-02  0.1130116E+00
         25   -1    0    0    0    0  0.00000000000E+00  0.00000000000E+00  0.99999998245E-14  0.12500000000E+03  0.12500000000E+03 0.  0.
        -13    1    3    3    0    0 -0.36227298388E+02 -0.33756193302E+02  0.58829477769E+00  0.49520248278E+02  0.10566000000E+00 0. -1.
         23    2    1    0    0    0 -0.25350101978E+02  0.12107132890E+02  0.31836463348E+01  0.96727293354E+02  0.92503099075E+02 0.  0.
         13    1    3    3    0    0  0.10877196410E+02  0.45863326192E+02  0.25953515571E+01  0.47207045076E+02  0.10566000000E+00 0.  1.
         22    1    1    0    0    0  0.25350101978E+02 -0.12107132890E+02 -0.31836463348E+01  0.28272706646E+02  0.00000000000E+00 0. -1.
</event>
<event>
 5    1  0.1320187E-009  0.9118800E+02  0.7818608E-02  0.1130116E+00
         25   -1    0    0    0    0  0.00000000000E+00  0.00000000000E+00  0.99999998245E-14  0.12500000000E+03  0.12500000000E+03 0.  0.
        -13    1    3    3    0    0  0.20612533847E+02  0.34577127616E+02 -0.21951502409E+01  0.40314813089E+02  0.10566000000E+00 0.  1.
         23    2    1    0    0    0 -0.20435438623E+02  0.32014596968E+01 -0.21214546029E+02  0.95370395562E+02  0.90650972916E+02 0.  0.
         13    1    3    3    0    0 -0.41047972470E+02 -0.31375667920E+02 -0.19019395789E+02  0.55055582473E+02  0.10566000000E+00 0. -1.
         22    1    1    0    0    0  0.20435438623E+02 -0.32014596968E+01  0.21214546029E+02  0.29629604438E+02  0.00000000000E+00 0. -1.
</event>
<event>
 5    1  0.1320187E-009  0.9118800E+02  0.7818608E-02  0.1130116E+00
         25   -1    0    0    0    0  0.00000000000E+00  0.00000000000E+00  0.99999998245E-14  0.12500000000E+03  0.12500000000E+03 0.  0.
        -13    1    3    3    0    0 -0.48143267431E+01  0.27921211644E+02 -0.15801800005E+02  0.32441945828E+02  0.10566000000E+00 0.  1.
         23    2    1    0    0    0 -0.67057530072E+00 -0.24068386886E+02  0.18301100210E+02  0.94756534797E+02  0.89800521710E+02 0.  0.
         13    1    3    3    0    0  0.41437514423E+01 -0.51989598530E+02  0.34102900216E+02  0.62314588970E+02  0.10566000000E+00 0. -1.
         22    1    1    0    0    0  0.67057530072E+00  0.24068386886E+02 -0.18301100210E+02  0.30243465203E+02  0.00000000000E+00 0. -1.
</event>
<event>
 5    1  0.1320187E-009  0.9118800E+02  0.7818608E-02  0.1130116E+00
         25   -1    0    0    0    0  0.00000000000E+00  0.00000000000E+00  0.99999998245E-14  0.12500000000E+03  0.12500000000E+03 0.  0.
        -13    1    3    3    0    0  0.83082390026E+01  0.54884043303E+02 -0.25993159255E+02  0.61293886617E+02  0.10566000000E+00 0. -1.
         23    2    1    0    0    0  0.48318642693E+01  0.27765517782E+02 -0.36919327069E+01  0.96576396127E+02  0.92298965497E+02 0.  0.
         13    1    3    3    0    0 -0.34763747334E+01 -0.27118525521E+02  0.22301226548E+02  0.35282509510E+02  0.10566000000E+00 0.  1.
         22    1    1    0    0    0 -0.48318642693E+01 -0.27765517782E+02  0.36919327069E+01  0.28423603873E+02  0.00000000000E+00 0. -1.
</event>
<event>
 5    1  0.1320187E-009  0.9118800E+02  0.7818608E-02  0.1130116E+00
         25   -1    0    0    0    0  0.00000000000E+00  0.00000000000E+00  0.99999998245E-14  0.12500000000E+03  0.12500000000E+03 0.  0.
        -13    1    3    3    0    0 -0.46026818358E+02  0.32244933771E+02 -0.35215058209E+01  0.56308222573E+02  0.10566000000E+00 0.  1.
         23    2    1    0    0    0 -0.11068430904E+02 -0.60351334163E+01  0.88402895398E+01  0.10960247691E+03  0.10851552529E+03 0.  0.
         13    1    3    3    0    0  0.34958387454E+02 -0.38280067187E+02  0.12361795361E+02  0.53294254341E+02  0.10566000000E+00 0. -1.
         22    1    1    0    0    0  0.11068430904E+02  0.60351334163E+01 -0.88402895398E+01  0.15397523086E+02  0.00000000000E+00 0. -1.
</event>
<event>
 5    1  0.1320187E-009  0.9118800E+02  0.7818608E-02  0.1130116E+00
         25   -1    0    0    0    0  0.00000000000E+00  0.00000000000E+00  0.99999998245E-14  0.12500000000E+03  0.12500000000E+03 0.  0.
        -13    1    3    3    0    0  0.56216440094E+02  0.52013985035E+01 -0.10434796328E+02  0.57412880277E+02  0.10566000000E+00 0.  1.
         23    2    1    0    0    0  0.21609762884E+02  0.18197006436E+02  0.26460151163E+01  0.96625464036E+02  0.92365394002E+02 0.  0.
         13    1    3    3    0    0 -0.34606677210E+02  0.12995607933E+02  0.13080811444E+02  0.39212583760E+02  0.10566000000E+00 0. -1.
         22    1    1    0    0    0 -0.21609762884E+02 -0.18197006436E+02 -0.26460151163E+01  0.28374535964E+02  0.00000000000E+00 0.  1.
</event>
<event>
 5    1  0.1320187E-009  0.9118800E+02  0.7818608E-02  0.1130116E+00
         25   -1    0    0    0    0  0.00000000000E+00  0.00000000000E+00  0.99999998245E-14  0.12500000000E+03  0.12500000000E+03 0.  0.
        -13    1    3    3    0    0  0.22258835649E+02  0.26386265775E+02  0.83502001856E+01  0.35516584762E+02  0.10566000000E+00 0.  1.
         23    2    1    0    0    0 -0.22412000763E+02 -0.37433369775E+01 -0.18482091730E+02  0.95710103028E+02  0.91118196629E+02 0.  0.
         13    1    3    3    0    0 -0.44670836412E+02 -0.30129602752E+02 -0.26832291915E+02  0.60193518266E+02  0.10566000000E+00 0. -1.
         22    1    1    0    0    0  0.22412000763E+02  0.37433369775E+01  0.18482091730E+02  0.29289896972E+02  0.00000000000E+00 0. -1.
</event>
<event>
 5    1  0.1320187E-009  0.9118800E+02  0.7818608E-02  0.1130116E+00
         25   -1    0    0    0    0  0.00000000000E+00  0.00000000000E+00  0.99999998245E-14  0.12500000000E+03  0.12500000000E+03 0.  0.
        -13    1    3    3    0    0 -0.20528188512E+02  0.28144255722E+02  0.58454240724E+01  0.35322596172E+02  0.10566000000E+00 0.  1.
         23    2    1    0    0    0  0.22489054109E+01 -0.20878041692E+02 -0.20673248643E+02  0.95532502483E+02  0.90874229685E+02 0.  0.
         13    1    3    3    0    0  0.22777093923E+02 -0.49022297414E+02 -0.26518672715E+02  0.60209906311E+02  0.10566000000E+00 0. -1.
         22    1    1    0    0    0 -0.22489054109E+01  0.20878041692E+02  0.20673248643E+02  0.29467497517E+02  0.00000000000E+00 0. -1.
</event>
<event>
 5    1  0.1320187E-009  0.9118800E+02  0.7818608E-02  0.1130116E+00
         25   -1    0    0    0    0  0.00000000000E+00  0.00000000000E+00  0.99999998245E-14  0.12500000000E+03  0.12500000000E+03 0.  0.
        -13    1    3    3    0    0  0.27279894423E+02  0.27979455937E+02  0.37252915984E+02  0.53989198064E+02  0.10566000000E+00 0. -1.
         23    2    1    0    0    0 -0.68385690706E+01  0.62754186256E+01  0.28041937518E+02  0.95461937003E+02  0.90777113034E+02 0.  0.
         13    1    3    3    0    0 -0.34118463494E+02 -0.21704037311E+02 -0.92109784660E+01  0.41472738939E+02  0.10566000000E+00 0.  1.
         22    1    1    0    0    0  0.68385690706E+01 -0.62754186256E+01 -0.28041937518E+02  0.29538062997E+02  0.00000000000E+00 0. -1.
</event>
<event>
 5    1  0.1320187E-009  0.9118800E+02  0.7818608E-02  0.1130116E+00
         25   -1    0    0    0    0  0.00000000000E+00  0.00000000000E+00  0.99999998245E-14  0.12500000000E+03  0.12500000000E+03 0.  0.
        -13    1    3    3    0    0  0.51883575947E+01  0.32716124253E+02 -0.30387208583E+02  0.44951723551E+02  0.10566000000E+00 0. -1.
         23    2    1    0    0    0  0.10358060150E+02  0.19462814522E+02  0.18719441225E+02  0.96077551297E+02  0.91620891855E+02 0.  0.
         13    1    3    3    0    0  0.51697025548E+01 -0.13253309731E+02  0.49106649808E+02  0.51125827746E+02  0.10566000000E+00 0.  1.
         22    1    1    0    0    0 -0.10358060150E+02 -0.19462814522E+02 -0.18719441225E+02  0.28922448703E+02  0.00000000000E+00 0.  1.
</event>
<event>
 5    1  0.1320187E-009  0.9118800E+02  0.7818608E-02  0.1130116E+00
         25   -1    0    0    0    0  0.00000000000E+00  0.00000000000E+00  0.99999998245E-14  0.12500000000E+03  0.12500000000E+03 0.  0.
        -13    1    3    3    0    0  0.36002194730E+02  0.45265783183E+02  0.13640292104E+02  0.59424051404E+02  0.10566000000E+00 0. -1.
         23    2    1    0    0    0  0.13664450168E+02  0.17512855540E+02  0.19394355286E+02  0.95511725644E+02  0.90845646076E+02 0.  0.
         13    1    3    3    0    0 -0.22337744562E+02 -0.27752927643E+02  0.57540631820E+01  0.36087674240E+02  0.10566000000E+00 0.  1.
         22    1    1    0    0    0 -0.13664450168E+02 -0.17512855540E+02 -0.19394355286E+02  0.29488274356E+02  0.00000000000E+00 0. -1.
</event>
<event>
 5    1  0.1320187E-009  0.9118800E+02  0.7818608E-02  0.1130116E+00
         25   -1    0    0    0    0  0.00000000000E+00  0.00000000000E+00  0.99999998245E-14  0.12500000000E+03  0.12500000000E+03 0.  0.
        -13    1    3    3    0    0 -0.55212873253E+02 -0.23152697742E+02  0.93140230939E+00  0.59878105012E+02  0.10566000000E+00 0. -1.
         23    2    1    0    0    0 -0.20756057553E+02 -0.20401720532E+02  0.72240338849E+01  0.95012822885E+02  0.90156562275E+02 0.  0.
         13    1    3    3    0    0  0.34456815700E+02  0.27509772100E+01  0.62926315755E+01  0.35134717873E+02  0.10566000000E+00 0.  1.
         22    1    1    0    0    0  0.20756057553E+02  0.20401720532E+02 -0.72240338849E+01  0.29987177115E+02  0.00000000000E+00 0. -1.
</event>
<event>
 5    1  0.1320187E-009  0.9118800E+02  0.7818608E-02  0.1130116E+00
         25   -1    0    0    0    0  0.00000000000E+00  0.00000000000E+00  0.99999998245E-14  0.12500000000E+03  0.12500000000E+03 0.  0.
        -13    1    3    3    0    0 -0.97859483367E+01  0.15989802081E+02 -0.49097920425E+02  0.52555261483E+02  0.10566000000E+00 0. -1.
         23    2    1    0    0    0  0.95493140011E+01  0.25339181340E+02 -0.12087879816E+02  0.95345652134E+02  0.90616847405E+02 0.  0.
         13    1    3    3    0    0  0.19335262338E+02  0.93493792599E+01  0.37010040609E+02  0.42790390652E+02  0.10566000000E+00 0.  1.
         22    1    1    0    0    0 -0.95493140011E+01 -0.25339181340E+02  0.12087879816E+02  0.29654347866E+02  0.00000000000E+00 0.  1.
</event>
<event>
 4    1  0.1320187E-009  0.9118800E+02  0.7818608E-02  0.1130116E+00
         25   -1    0    0    0    0  0.00000000000E+00  0.00000000000E+00  0.99999998245E-14  0.12500000000E+03  0.12500000000E+03 0.  0.
        -13    1    1    0    0    0  0.13240466890E+02 -0.12940176959E+02  0.15917292809E+02  0.24415763711E+02  0.10566000000E+00 0.  1.
         13    1    1    0    0    0 -0.12126927144E+02 -0.41637388552E+02 -0.15313927601E+02  0.45991977888E+02  0.10566000000E+00 0. -1.
         22    1    1    0    0    0 -0.11135397451E+01  0.54577565511E+02 -0.60336520814E+00  0.54592258402E+02  0.00000000000E+00 0. -1.
</event>
<event>
 5    1  0.1320187E-009  0.9118800E+02  0.7818608E-02  0.1130116E+00
         25   -1    0    0    0    0  0.00000000000E+00  0.00000000000E+00  0.99999998245E-14  0.12500000000E+03  0.12500000000E+03 0.  0.
        -13    1    3    3    0    0  0.21706344426E+02  0.34700108246E+02  0.40606932286E+02  0.57655849784E+02  0.10566000000E+00 0.  1.
         23    2    1    0    0    0  0.11857052929E+00  0.27969190127E+02  0.10919609591E+02  0.94974551977E+02  0.90103484917E+02 0.  0.
         13    1    3    3    0    0 -0.21587773896E+02 -0.67309181187E+01 -0.29687322695E+02  0.37318702193E+02  0.10566000000E+00 0. -1.
         22    1    1    0    0    0 -0.11857052929E+00 -0.27969190127E+02 -0.10919609591E+02  0.30025448023E+02  0.00000000000E+00 0.  1.
</event>
<event>
 5    1  0.1320187E-009  0.9118800E+02  0.7818608E-02  0.1130116E+00
         25   -1    0    0    0    0  0.00000000000E+00  0.00000000000E+00  0.99999998245E-14  0.12500000000E+03  0.12500000000E+03 0.  0.
        -13    1    3    3    0    0  0.27230479061E+01  0.37886339203E+02  0.37377059099E+02  0.53290199840E+02  0.10566000000E+00 0.  1.
         23    2    1    0    0    0  0.23839394846E+02  0.11940040036E+02  0.99779712003E+01  0.96531750810E+02  0.92238482763E+02 0.  0.
         13    1    3    3    0    0  0.21116346940E+02 -0.25946299167E+02 -0.27399087899E+02  0.43241550970E+02  0.10566000000E+00 0. -1.
         22    1    1    0    0    0 -0.23839394846E+02 -0.11940040036E+02 -0.99779712003E+01  0.28468249190E+02  0.00000000000E+00 0. -1.
</event>
<event>
 5    1  0.1320187E-009  0.9118800E+02  0.7818608E-02  0.1130116E+00
         25   -1    0    0    0    0  0.00000000000E+00  0.00000000000E+00  0.99999998245E-14  0.12500000000E+03  0.12500000000E+03 0.  0.
        -13    1    3    3    0    0 -0.22287444572E+02 -0.20640885677E+02  0.27948732294E+02  0.41278555546E+02  0.10566000000E+00 0.  1.
         23    2    1    0    0    0 -0.17394084011E+02  0.22755503713E+02 -0.49217576902E+01  0.95938155485E+02  0.91430513896E+02 0.  0.
         13    1    3    3    0    0  0.48933605607E+01  0.43396389390E+02 -0.32870489984E+02  0.54659599939E+02  0.10566000000E+00 0. -1.
         22    1    1    0    0    0  0.17394084011E+02 -0.22755503713E+02  0.49217576902E+01  0.29061844515E+02  0.00000000000E+00 0. -1.
</event>
<event>
 5    1  0.1320187E-009  0.9118800E+02  0.7818608E-02  0.1130116E+00
         25   -1    0    0    0    0  0.00000000000E+00  0.00000000000E+00  0.99999998245E-14  0.12500000000E+03  0.12500000000E+03 0.  0.
        -13    1    3    3    0    0  0.25050109199E+02 -0.28593591540E+02 -0.75167145038E+01  0.38750659465E+02  0.10566000000E+00 0.  1.
         23    2    1    0    0    0 -0.21223782076E+02  0.67633553414E+01 -0.15962671818E+02  0.97595642816E+02  0.93669155564E+02 0.  0.
         13    1    3    3    0    0 -0.46273891275E+02  0.35356946882E+02 -0.84459573146E+01  0.58844983350E+02  0.10566000000E+00 0. -1.
         22    1    1    0    0    0  0.21223782076E+02 -0.67633553414E+01  0.15962671818E+02  0.27404357184E+02  0.00000000000E+00 0. -1.
</event>
<event>
 5    1  0.1320187E-009  0.9118800E+02  0.7818608E-02  0.1130116E+00
         25   -1    0    0    0    0  0.00000000000E+00  0.00000000000E+00  0.99999998245E-14  0.12500000000E+03  0.12500000000E+03 0.  0.
        -13    1    3    3    0    0 -0.20472964827E+02  0.23192102665E+02  0.35363345756E+02  0.46985032743E+02  0.10566000000E+00 0. -1.
         23    2    1    0    0    0 -0.27674936111E+02 -0.10604967347E+02  0.15656552809E+01  0.95321410113E+02  0.90583400954E+02 0.  0.
         13    1    3    3    0    0 -0.72019712842E+01 -0.33797070012E+02 -0.33797690475E+02  0.48336377370E+02  0.10566000000E+00 0.  1.
         22    1    1    0    0    0  0.27674936111E+02  0.10604967347E+02 -0.15656552809E+01  0.29678589887E+02  0.00000000000E+00 0.  1.
</event>
<event>
 5    1  0.1320187E-009  0.9118800E+02  0.7818608E-02  0.1130116E+00
         25   -1    0    0    0    0  0.00000000000E+00  0.00000000000E+00  0.99999998245E-14  0.12500000000E+03  0.12500000000E+03 0.  0.
        -13    1    3    3    0    0  0.33408151217E+02  0.42106649747E+02 -0.11933927388E+02  0.55059098318E+02  0.10566000000E+00 0. -1.
         23    2    1    0    0    0  0.20031705734E+02  0.68439249062E+01 -0.22380855108E+02  0.94193974321E+02  0.89014007776E+02 0.  0.
         13    1    3    3    0    0 -0.13376445483E+02 -0.35262724841E+02 -0.10446927720E+02  0.39134876003E+02  0.10566000000E+00 0.  1.
         22    1    1    0    0    0 -0.20031705734E+02 -0.68439249062E+01  0.22380855108E+02  0.30806025679E+02  0.00000000000E+00 0. -1.
</event>
<event>
 5    1  0.1320187E-009  0.9118800E+02  0.7818608E-02  0.1130116E+00
         25   -1    0    0    0    0  0.00000000000E+00  0.00000000000E+00  0.99999998245E-14  0.12500000000E+03  0.12500000000E+03 0.  0.
        -13    1    3    3    0    0  0.33755931452E+02  0.60143310941E+00  0.39905522556E+02  0.52271278198E+02  0.10566000000E+00 0.  1.
         23    2    1    0    0    0  0.42359132503E+01 -0.22298028686E+02  0.20709145274E+02  0.94275193372E+02  0.89127988550E+02 0.  0.
         13    1    3    3    0    0 -0.29520018201E+02 -0.22899461795E+02 -0.19196377282E+02  0.42003915174E+02  0.10566000000E+00 0. -1.
         22    1    1    0    0    0 -0.42359132503E+01  0.22298028686E+02 -0.20709145274E+02  0.30724806628E+02  0.00000000000E+00 0.  1.
</event>
<event>
 5    1  0.1320187E-009  0.9118800E+02  0.7818608E-02  0.1130116E+00
         25   -1    0    0    0    0  0.00000000000E+00  0.00000000000E+00  0.99999998245E-14  0.12500000000E+03  0.12500000000E+03 0.  0.
        -13    1    3    3    0    0  0.19679418054E+01 -0.20374815420E+02 -0.36299334005E+02  0.41673237355E+02  0.10566000000E+00 0.  1.
         23    2    1    0    0    0  0.10928262881E+02 -0.20317220586E+02  0.17393015990E+02  0.96108247073E+02  0.91662761077E+02 0.  0.
         13    1    3    3    0    0  0.89603210755E+01  0.57594834039E-01  0.53692349996E+02  0.54435009718E+02  0.10566000000E+00 0. -1.
         22    1    1    0    0    0 -0.10928262881E+02  0.20317220586E+02 -0.17393015990E+02  0.28891752927E+02  0.00000000000E+00 0. -1.
</event>
<event>
 5    1  0.1320187E-009  0.9118800E+02  0.7818608E-02  0.1130116E+00
         25   -1    0    0    0    0  0.00000000000E+00  0.00000000000E+00  0.99999998245E-14  0.12500000000E+03  0.12500000000E+03 0.  0.
        -13    1    3    3    0    0  0.24048128625E+02 -0.38901441771E+02  0.15378814881E+02  0.48250945829E+02  0.10566000000E+00 0. -1.
         23    2    1    0    0    0  0.55417741646E+01  0.43384644187E+01  0.27329073427E+02  0.96779231251E+02  0.92573256467E+02 0.  0.
         13    1    3    3    0    0 -0.18506354460E+02  0.43239906190E+02  0.11950258546E+02  0.48528285423E+02  0.10566000000E+00 0.  1.
         22    1    1    0    0    0 -0.55417741646E+01 -0.43384644187E+01 -0.27329073427E+02  0.28220768749E+02  0.00000000000E+00 0.  1.
</event>
<event>
 5    1  0.1320187E-009  0.9118800E+02  0.7818608E-02  0.1130116E+00
         25   -1    0    0    0    0  0.00000000000E+00  0.00000000000E+00  0.99999998245E-14  0.12500000000E+03  0.12500000000E+03 0.  0.
        -13    1    3    3    0    0  0.11002810039E+01 -0.35475967060E+02 -0.49087159421E+02  0.60574873018E+02  0.10566000000E+00 0.  1.
         23    2    1    0    0    0  0.90766261269E+01 -0.25583846069E+02 -0.23704801289E+02  0.88960633667E+02  0.81333624146E+02 0.  0.
         13    1    3    3    0    0  0.79763451230E+01  0.98921209909E+01  0.25382358132E+02  0.28385760649E+02  0.10566000000E+00 0. -1.
         22    1    1    0    0    0 -0.90766261269E+01  0.25583846069E+02  0.23704801289E+02  0.36039366333E+02  0.00000000000E+00 0.  1.
</event>
<event>
 4    1  0.1320187E-009  0.9118800E+02  0.7818608E-02  0.1130116E+00
         25   -1    0    0    0    0  0.00000000000E+00  0.00000000000E+00  0.99999998245E-14  0.12500000000E+03  0.12500000000E+03 0.  0.
        -13    1    1    0    0    0  0.21689120803E+02 -0.47321040474E+02  0.22800232452E+02  0.56829223087E+02  0.10566000000E+00 0. -1.
         13    1    1    0    0    0  0.34073583417E+01  0.72106737012E+00 -0.14110082924E+02  0.14533947611E+02  0.10566000000E+00 0.  1.
         22    1    1    0    0    0 -0.25096479145E+02  0.46599973104E+02 -0.86901495282E+01  0.53636829302E+02  0.00000000000E+00 0. -1.
</event>
<event>
 5    1  0.1320187E-009  0.9118800E+02  0.7818608E-02  0.1130116E+00
         25   -1    0    0    0    0  0.00000000000E+00  0.00000000000E+00  0.99999998245E-14  0.12500000000E+03  0.12500000000E+03 0.  0.
        -13    1    3    3    0    0 -0.96438739266E+01  0.36442012413E+02 -0.30774797729E+01  0.37822038798E+02  0.10566000000E+00 0.  1.
         23    2    1    0    0    0 -0.12109363307E+02 -0.19033202405E+02 -0.18908654085E+02  0.95564703623E+02  0.90918512448E+02 0.  0.
         13    1    3    3    0    0 -0.24654893806E+01 -0.55475214818E+02 -0.15831174312E+02  0.57742664825E+02  0.10566000000E+00 0. -1.
         22    1    1    0    0    0  0.12109363307E+02  0.19033202405E+02  0.18908654085E+02  0.29435296377E+02  0.00000000000E+00 0. -1.
</event>
<event>
 5    1  0.1320187E-009  0.9118800E+02  0.7818608E-02  0.1130116E+00
         25   -1    0    0    0    0  0.00000000000E+00  0.00000000000E+00  0.99999998245E-14  0.12500000000E+03  0.12500000000E+03 0.  0.
        -13    1    3    3    0    0 -0.27400691657E+01  0.44108496827E+02  0.15369378003E+02  0.46789917884E+02  0.10566000000E+00 0. -1.
         23    2    1    0    0    0  0.20978849749E+02  0.15364092789E+02 -0.15102647554E+02  0.94929126265E+02  0.90040444058E+02 0.  0.
         13    1    3    3    0    0  0.23718918915E+02 -0.28744404038E+02 -0.30472025557E+02  0.48139208381E+02  0.10566000000E+00 0.  1.
         22    1    1    0    0    0 -0.20978849749E+02 -0.15364092789E+02  0.15102647554E+02  0.30070873735E+02  0.00000000000E+00 0.  1.
</event>
<event>
 5    1  0.1320187E-009  0.9118800E+02  0.7818608E-02  0.1130116E+00
         25   -1    0    0    0    0  0.00000000000E+00  0.00000000000E+00  0.99999998245E-14  0.12500000000E+03  0.12500000000E+03 0.  0.
        -13    1    3    3    0    0 -0.32210902320E+02 -0.26296086778E+02 -0.79400815047E+01  0.42332995009E+02  0.10566000000E+00 0.  1.
         23    2    1    0    0    0  0.20098913013E+02 -0.15387993335E+02 -0.13937162596E+02  0.96103613645E+02  0.91656442278E+02 0.  0.
         13    1    3    3    0    0  0.52309815333E+02  0.10908093443E+02 -0.59970810913E+01  0.53770618635E+02  0.10566000000E+00 0. -1.
         22    1    1    0    0    0 -0.20098913013E+02  0.15387993335E+02  0.13937162596E+02  0.28896386355E+02  0.00000000000E+00 0. -1.
</event>
<event>
 5    1  0.1320187E-009  0.9118800E+02  0.7818608E-02  0.1130116E+00
         25   -1    0    0    0    0  0.00000000000E+00  0.00000000000E+00  0.99999998245E-14  0.12500000000E+03  0.12500000000E+03 0.  0.
        -13    1    3    3    0    0 -0.43549886936E+02 -0.37847744813E+01  0.24294614383E+02  0.50011564883E+02  0.10566000000E+00 0.  1.
         23    2    1    0    0    0  0.17308378072E+01 -0.18520925564E+02  0.19786046830E+02  0.97842899042E+02  0.93998535949E+02 0.  0.
         13    1    3    3    0    0  0.45280724743E+02 -0.14736151083E+02 -0.45085675534E+01  0.47831334159E+02  0.10566000000E+00 0. -1.
         22    1    1    0    0    0 -0.17308378072E+01  0.18520925564E+02 -0.19786046830E+02  0.27157100958E+02  0.00000000000E+00 0.  1.
</event>
<event>
 5    1  0.1320187E-009  0.9118800E+02  0.7818608E-02  0.1130116E+00
         25   -1    0    0    0    0  0.00000000000E+00  0.00000000000E+00  0.99999998245E-14  0.12500000000E+03  0.12500000000E+03 0.  0.
        -13    1    3    3    0    0  0.44698663293E+02 -0.12137878355E+01 -0.71353477157E+01  0.45280990847E+02  0.10566000000E+00 0.  1.
         23    2    1    0    0    0 -0.18676962386E+01 -0.84612464607E+01 -0.27163962322E+02  0.96487514490E+02  0.92178514973E+02 0.  0.
         13    1    3    3    0    0 -0.46566359531E+02 -0.72474586252E+01 -0.20028614606E+02  0.51206523643E+02  0.10566000000E+00 0. -1.
         22    1    1    0    0    0  0.18676962386E+01  0.84612464607E+01  0.27163962322E+02  0.28512485510E+02  0.00000000000E+00 0.  1.
</event>
<event>
 5    1  0.1320187E-009  0.9118800E+02  0.7818608E-02  0.1130116E+00
         25   -1    0    0    0    0  0.00000000000E+00  0.00000000000E+00  0.99999998245E-14  0.12500000000E+03  0.12500000000E+03 0.  0.
        -13    1    3    3    0    0 -0.22673447526E+02 -0.56568917121E+02 -0.86945357646E+01  0.61560813211E+02  0.10566000000E+00 0. -1.
         23    2    1    0    0    0 -0.90552978784E+01 -0.28158024174E+02  0.32251029901E+01  0.95246445013E+02  0.90479894194E+02 0.  0.
         13    1    3    3    0    0  0.13618149647E+02  0.28410892947E+02  0.11919638755E+02  0.33685631803E+02  0.10566000000E+00 0.  1.
         22    1    1    0    0    0  0.90552978784E+01  0.28158024174E+02 -0.32251029901E+01  0.29753554987E+02  0.00000000000E+00 0. -1.
</event>
<event>
 5    1  0.1320187E-009  0.9118800E+02  0.7818608E-02  0.1130116E+00
         25   -1    0    0    0    0  0.00000000000E+00  0.00000000000E+00  0.99999998245E-14  0.12500000000E+03  0.12500000000E+03 0.  0.
        -13    1    3    3    0    0 -0.92843388646E+01  0.39428361034E+02  0.23834474544E+02  0.46998807887E+02  0.10566000000E+00 0. -1.
         23    2    1    0    0    0 -0.25854405651E+01 -0.80567934343E+01  0.28584961678E+02  0.95188987648E+02  0.90400480706E+02 0.  0.
         13    1    3    3    0    0  0.66988982995E+01 -0.47485154468E+02  0.47504871340E+01  0.48190179761E+02  0.10566000000E+00 0.  1.
         22    1    1    0    0    0  0.25854405651E+01  0.80567934343E+01 -0.28584961678E+02  0.29811012352E+02  0.00000000000E+00 0. -1.
</event>
<event>
 5    1  0.1320187E-009  0.9118800E+02  0.7818608E-02  0.1130116E+00
         25   -1    0    0    0    0  0.00000000000E+00  0.00000000000E+00  0.99999998245E-14  0.12500000000E+03  0.12500000000E+03 0.  0.
        -13    1    3    3    0    0  0.21486217361E+02  0.26462738062E+02 -0.38783049327E+02  0.51634001601E+02  0.10566000000E+00 0.  1.
         23    2    1    0    0    0 -0.28162731972E+01 -0.47921247921E+01 -0.32868439786E+02  0.91664880550E+02  0.85388641736E+02 0.  0.
         13    1    3    3    0    0 -0.24302490558E+02 -0.31254862854E+02  0.59146095403E+01  0.40030878949E+02  0.10566000000E+00 0. -1.
         22    1    1    0    0    0  0.28162731972E+01  0.47921247921E+01  0.32868439786E+02  0.33335119450E+02  0.00000000000E+00 0.  1.
</event>
<event>
 5    1  0.1320187E-009  0.9118800E+02  0.7818608E-02  0.1130116E+00
         25   -1    0    0    0    0  0.00000000000E+00  0.00000000000E+00  0.99999998245E-14  0.12500000000E+03  0.12500000000E+03 0.  0.
        -13    1    3    3    0    0 -0.38783111588E+02 -0.88765554408E+01 -0.27195920628E+02  0.48192865072E+02  0.10566000000E+00 0.  1.
         23    2    1    0    0    0 -0.15326537125E+02 -0.34019299639E+02 -0.16485143156E+02  0.84208145016E+02  0.73668421009E+02 0.  0.
         13    1    3    3    0    0  0.23456574464E+02 -0.25142744198E+02  0.10710777472E+02  0.36015279944E+02  0.10566000000E+00 0. -1.
         22    1    1    0    0    0  0.15326537125E+02  0.34019299639E+02  0.16485143156E+02  0.40791854984E+02  0.00000000000E+00 0.  1.
</event>
<event>
 5    1  0.1320187E-009  0.9118800E+02  0.7818608E-02  0.1130116E+00
         25   -1    0    0    0    0  0.00000000000E+00  0.00000000000E+00  0.99999998245E-14  0.12500000000E+03  0.12500000000E+03 0.  0.
        -13    1    3    3    0    0 -0.19781851362E+02  0.73819510323E+01  0.53809794166E+02  0.57804151724E+02  0.10566000000E+00 0. -1.
         23    2    1    0    0    0 -0.49471141887E+01  0.19394210804E+02  0.19559460790E+02  0.97014613494E+02  0.92890545124E+02 0.  0.
         13    1    3    3    0    0  0.14834737173E+02  0.12012259771E+02 -0.34250333375E+02  0.39210461769E+02  0.10566000000E+00 0.  1.
         22    1    1    0    0    0  0.49471141887E+01 -0.19394210804E+02 -0.19559460790E+02  0.27985386506E+02  0.00000000000E+00 0. -1.
</event>
<event>
 5    1  0.1320187E-009  0.9118800E+02  0.7818608E-02  0.1130116E+00
         25   -1    0    0    0    0  0.00000000000E+00  0.00000000000E+00  0.99999998245E-14  0.12500000000E+03  0.12500000000E+03 0.  0.
        -13    1    3    3    0    0  0.37503049593E+02 -0.71610566494E+01  0.23406480664E+02  0.44784304865E+02  0.10566000000E+00 0.  1.
         23    2    1    0    0    0  0.34065458889E-01  0.25901183849E+02  0.13736025089E+02  0.95681901997E+02  0.91079500983E+02 0.  0.
         13    1    3    3    0    0 -0.37468984134E+02  0.33062240499E+02 -0.96704555753E+01  0.50897597133E+02  0.10566000000E+00 0. -1.
         22    1    1    0    0    0 -0.34065458889E-01 -0.25901183849E+02 -0.13736025089E+02  0.29318098003E+02  0.00000000000E+00 0. -1.
</event>
<event>
 5    1  0.1320187E-009  0.9118800E+02  0.7818608E-02  0.1130116E+00
         25   -1    0    0    0    0  0.00000000000E+00  0.00000000000E+00  0.99999998245E-14  0.12500000000E+03  0.12500000000E+03 0.  0.
        -13    1    3    3    0    0 -0.11931886082E+02  0.21391760169E+01  0.36599989324E+02  0.38555367487E+02  0.10566000000E+00 0. -1.
         23    2    1    0    0    0 -0.18972576473E+02  0.54557910883E+01 -0.20708148286E+02  0.96389657117E+02  0.92045718419E+02 0.  0.
         13    1    3    3    0    0 -0.70406903911E+01  0.33166150714E+01 -0.57308137610E+02  0.57834289631E+02  0.10566000000E+00 0.  1.
         22    1    1    0    0    0  0.18972576473E+02 -0.54557910883E+01  0.20708148286E+02  0.28610342883E+02  0.00000000000E+00 0.  1.
</event>
<event>
 5    1  0.1320187E-009  0.9118800E+02  0.7818608E-02  0.1130116E+00
         25   -1    0    0    0    0  0.00000000000E+00  0.00000000000E+00  0.99999998245E-14  0.12500000000E+03  0.12500000000E+03 0.  0.
        -13    1    3    3    0    0  0.46980045360E+02  0.47515043691E+01  0.57306829392E+01  0.47566304742E+02  0.10566000000E+00 0.  1.
         23    2    1    0    0    0  0.14961217007E+02 -0.27788622664E+02  0.29387385288E+01  0.93303284901E+02  0.87754323115E+02 0.  0.
         13    1    3    3    0    0 -0.32018828353E+02 -0.32540127034E+02 -0.27919444104E+01  0.45736980160E+02  0.10566000000E+00 0. -1.
         22    1    1    0    0    0 -0.14961217007E+02  0.27788622664E+02 -0.29387385288E+01  0.31696715099E+02  0.00000000000E+00 0.  1.
</event>
<event>
 5    1  0.1320187E-009  0.9118800E+02  0.7818608E-02  0.1130116E+00
         25   -1    0    0    0    0  0.00000000000E+00  0.00000000000E+00  0.99999998245E-14  0.12500000000E+03  0.12500000000E+03 0.  0.
        -13    1    3    3    0    0 -0.25470431660E+02 -0.37562907913E+02  0.89127378216E+01  0.46251086467E+02  0.10566000000E+00 0. -1.
         23    2    1    0    0    0  0.19105568533E+02 -0.25685234339E+02  0.16987699177E+01  0.92943178085E+02  0.87239867728E+02 0.  0.
         13    1    3    3    0    0  0.44576000193E+02  0.11877673574E+02 -0.72139679039E+01  0.46692091618E+02  0.10566000000E+00 0.  1.
         22    1    1    0    0    0 -0.19105568533E+02  0.25685234339E+02 -0.16987699177E+01  0.32056821915E+02  0.00000000000E+00 0. -1.
</event>
<event>
 5    1  0.1320187E-009  0.9118800E+02  0.7818608E-02  0.1130116E+00
         25   -1    0    0    0    0  0.00000000000E+00  0.00000000000E+00  0.99999998245E-14  0.12500000000E+03  0.12500000000E+03 0.  0.
        -13    1    3    3    0    0  0.19656329857E+02  0.36616116588E+02 -0.40002729476E+02  0.57683106947E+02  0.10566000000E+00 0. -1.
         23    2    1    0    0    0  0.65170570362E+01  0.61154945985E+01 -0.31905421766E+02  0.91866523806E+02  0.85683317814E+02 0.  0.
         13    1    3    3    0    0 -0.13139272821E+02 -0.30500621990E+02  0.80973077098E+01  0.34183416860E+02  0.10566000000E+00 0.  1.
         22    1    1    0    0    0 -0.65170570362E+01 -0.61154945985E+01  0.31905421766E+02  0.33133476194E+02  0.00000000000E+00 0. -1.
</event>
<event>
 5    1  0.1320187E-009  0.9118800E+02  0.7818608E-02  0.1130116E+00
         25   -1    0    0    0    0  0.00000000000E+00  0.00000000000E+00  0.99999998245E-14  0.12500000000E+03  0.12500000000E+03 0.  0.
        -13    1    3    3    0    0  0.10511323244E+02 -0.94415807723E+01 -0.37640761419E+02  0.40205341039E+02  0.10566000000E+00 0.  1.
         23    2    1    0    0    0 -0.29027436547E+02 -0.43458420958E+01  0.87255616323E+00  0.95636080468E+02  0.91016592537E+02 0.  0.
         13    1    3    3    0    0 -0.39538759791E+02  0.50957386765E+01  0.38513317582E+02  0.55430739429E+02  0.10566000000E+00 0. -1.
         22    1    1    0    0    0  0.29027436547E+02  0.43458420958E+01 -0.87255616323E+00  0.29363919532E+02  0.00000000000E+00 0. -1.
</event>
<event>
 5    1  0.1320187E-009  0.9118800E+02  0.7818608E-02  0.1130116E+00
         25   -1    0    0    0    0  0.00000000000E+00  0.00000000000E+00  0.99999998245E-14  0.12500000000E+03  0.12500000000E+03 0.  0.
        -13    1    3    3    0    0  0.56590122842E+01  0.19040070233E+01  0.33048473492E+02  0.33583663096E+02  0.10566000000E+00 0.  1.
         23    2    1    0    0    0 -0.12471671944E+01 -0.32109826095E+02 -0.12215122272E+02  0.90622600884E+02  0.83848972689E+02 0.  0.
         13    1    3    3    0    0 -0.69061794786E+01 -0.34013833118E+02 -0.45263595764E+02  0.57038937788E+02  0.10566000000E+00 0. -1.
         22    1    1    0    0    0  0.12471671944E+01  0.32109826095E+02  0.12215122272E+02  0.34377399116E+02  0.00000000000E+00 0. -1.
</event>
<event>
 5    1  0.1320187E-009  0.9118800E+02  0.7818608E-02  0.1130116E+00
         25   -1    0    0    0    0  0.00000000000E+00  0.00000000000E+00  0.99999998245E-14  0.12500000000E+03  0.12500000000E+03 0.  0.
        -13    1    3    3    0    0 -0.29169914918E+02 -0.44665113022E+02 -0.15905194283E+02  0.55667249140E+02  0.10566000000E+00 0.  1.
         23    2    1    0    0    0 -0.25470816358E+02 -0.15010195646E+02  0.84851394450E+01  0.94241813274E+02  0.89081161411E+02 0.  0.
         13    1    3    3    0    0  0.36990985600E+01  0.29654917376E+02  0.24390333728E+02  0.38574564134E+02  0.10566000000E+00 0. -1.
         22    1    1    0    0    0  0.25470816358E+02  0.15010195646E+02 -0.84851394450E+01  0.30758186726E+02  0.00000000000E+00 0.  1.
</event>
<event>
 5    1  0.1320187E-009  0.9118800E+02  0.7818608E-02  0.1130116E+00
         25   -1    0    0    0    0  0.00000000000E+00  0.00000000000E+00  0.99999998245E-14  0.12500000000E+03  0.12500000000E+03 0.  0.
        -13    1    3    3    0    0 -0.36667502243E+02  0.43518753172E+02 -0.55774021763E+01  0.57179595814E+02  0.10566000000E+00 0.  1.
         23    2    1    0    0    0 -0.25450364610E+02  0.10480863349E+02  0.10429143716E+02  0.95566403652E+02  0.90920849716E+02 0.  0.
         13    1    3    3    0    0  0.11217137633E+02 -0.33037889822E+02  0.16006545893E+02  0.38386807839E+02  0.10566000000E+00 0. -1.
         22    1    1    0    0    0  0.25450364610E+02 -0.10480863349E+02 -0.10429143716E+02  0.29433596348E+02  0.00000000000E+00 0.  1.
</event>
<event>
 5    1  0.1320187E-009  0.9118800E+02  0.7818608E-02  0.1130116E+00
         25   -1    0    0    0    0  0.00000000000E+00  0.00000000000E+00  0.99999998245E-14  0.12500000000E+03  0.12500000000E+03 0.  0.
        -13    1    3    3    0    0 -0.36206637270E+02 -0.32217381933E+01 -0.10946117272E+02  0.37962202607E+02  0.10566000000E+00 0. -1.
         23    2    1    0    0    0  0.25144680252E+01  0.31472972680E+02  0.64274431956E+01  0.92779159155E+02  0.87004538897E+02 0.  0.
         13    1    3    3    0    0  0.38721105295E+02  0.34694710873E+02  0.17373560468E+02  0.54816956548E+02  0.10566000000E+00 0.  1.
         22    1    1    0    0    0 -0.25144680252E+01 -0.31472972680E+02 -0.64274431956E+01  0.32220840845E+02  0.00000000000E+00 0.  1.
</event>
<event>
 5    1  0.1320187E-009  0.9118800E+02  0.7818608E-02  0.1130116E+00
         25   -1    0    0    0    0  0.00000000000E+00  0.00000000000E+00  0.99999998245E-14  0.12500000000E+03  0.12500000000E+03 0.  0.
        -13    1    3    3    0    0 -0.37022541877E+02 -0.18679586915E+02 -0.43384744869E+02  0.60015354916E+02  0.10566000000E+00 0.  1.
         23    2    1    0    0    0 -0.23997274444E+02 -0.88720932795E+01 -0.93392095021E+01  0.97763919996E+02  0.93893450245E+02 0.  0.
         13    1    3    3    0    0  0.13025267433E+02  0.98074936357E+01  0.34045535367E+02  0.37748565079E+02  0.10566000000E+00 0. -1.
         22    1    1    0    0    0  0.23997274444E+02  0.88720932795E+01  0.93392095021E+01  0.27236080004E+02  0.00000000000E+00 0.  1.
</event>
<event>
 5    1  0.1320187E-009  0.9118800E+02  0.7818608E-02  0.1130116E+00
         25   -1    0    0    0    0  0.00000000000E+00  0.00000000000E+00  0.99999998245E-14  0.12500000000E+03  0.12500000000E+03 0.  0.
        -13    1    3    3    0    0  0.23288926159E+02 -0.18442784556E+02 -0.17954559726E+01  0.29761471906E+02  0.10566000000E+00 0. -1.
         23    2    1    0    0    0  0.19471137284E+01  0.99942409719E+01 -0.41039298918E+02  0.82716431559E+02  0.71092249153E+02 0.  0.
         13    1    3    3    0    0 -0.21341812431E+02  0.28437025527E+02 -0.39243842945E+02  0.52954959653E+02  0.10566000000E+00 0.  1.
         22    1    1    0    0    0 -0.19471137284E+01 -0.99942409719E+01  0.41039298918E+02  0.42283568441E+02  0.00000000000E+00 0.  1.
</event>
<event>
 5    1  0.1320187E-009  0.9118800E+02  0.7818608E-02  0.1130116E+00
         25   -1    0    0    0    0  0.00000000000E+00  0.00000000000E+00  0.99999998245E-14  0.12500000000E+03  0.12500000000E+03 0.  0.
        -13    1    3    3    0    0  0.30544816787E+01  0.12046917254E+02  0.31109075404E+02  0.33499907615E+02  0.10566000000E+00 0.  1.
         23    2    1    0    0    0 -0.21347687020E+01  0.55350612074E+01 -0.29617207756E+02  0.94794485019E+02  0.89853331907E+02 0.  0.
         13    1    3    3    0    0 -0.51892503807E+01 -0.65118560467E+01 -0.60726283160E+02  0.61294577405E+02  0.10566000000E+00 0. -1.
         22    1    1    0    0    0  0.21347687020E+01 -0.55350612074E+01  0.29617207756E+02  0.30205514981E+02  0.00000000000E+00 0. -1.
</event>
<event>
 5    1  0.1320187E-009  0.9118800E+02  0.7818608E-02  0.1130116E+00
         25   -1    0    0    0    0  0.00000000000E+00  0.00000000000E+00  0.99999998245E-14  0.12500000000E+03  0.12500000000E+03 0.  0.
        -13    1    3    3    0    0  0.22218981195E+02 -0.45740825153E+02 -0.30875194023E+02  0.59491133634E+02  0.10566000000E+00 0.  1.
         23    2    1    0    0    0 -0.30195348191E+01 -0.24795521400E+02 -0.13379472861E+02  0.96663702323E+02  0.92417128178E+02 0.  0.
         13    1    3    3    0    0 -0.25238516014E+02  0.20945303753E+02  0.17495721162E+02  0.37172568689E+02  0.10566000000E+00 0. -1.
         22    1    1    0    0    0  0.30195348191E+01  0.24795521400E+02  0.13379472861E+02  0.28336297677E+02  0.00000000000E+00 0.  1.
</event>
<event>
 5    1  0.1320187E-009  0.9118800E+02  0.7818608E-02  0.1130116E+00
         25   -1    0    0    0    0  0.00000000000E+00  0.00000000000E+00  0.99999998245E-14  0.12500000000E+03  0.12500000000E+03 0.  0.
        -13    1    3    3    0    0 -0.37998584476E+02  0.15273698610E+02  0.37087575198E+02  0.55251042430E+02  0.10566000000E+00 0.  1.
         23    2    1    0    0    0 -0.21608018833E+02  0.21901851541E+02  0.24552785002E+01  0.94135360503E+02  0.88931659861E+02 0.  0.
         13    1    3    3    0    0  0.16390565643E+02  0.66281529307E+01 -0.34632296698E+02  0.38884318073E+02  0.10566000000E+00 0. -1.
         22    1    1    0    0    0  0.21608018833E+02 -0.21901851541E+02 -0.24552785002E+01  0.30864639497E+02  0.00000000000E+00 0.  1.
</event>
<event>
 5    1  0.1320187E-009  0.9118800E+02  0.7818608E-02  0.1130116E+00
         25   -1    0    0    0    0  0.00000000000E+00  0.00000000000E+00  0.99999998245E-14  0.12500000000E+03  0.12500000000E+03 0.  0.
        -13    1    3    3    0    0  0.33767906601E+02  0.14845627177E+01 -0.10868648968E+02  0.35505128321E+02  0.10566000000E+00 0. -1.
         23    2    1    0    0    0 -0.16146645560E+02  0.94101781839E+01  0.22259842867E+02  0.95935137696E+02  0.91426388008E+02 0.  0.
         13    1    3    3    0    0 -0.49914552160E+02  0.79256154663E+01  0.33128491835E+02  0.60430009376E+02  0.10566000000E+00 0.  1.
         22    1    1    0    0    0  0.16146645560E+02 -0.94101781839E+01 -0.22259842867E+02  0.29064862304E+02  0.00000000000E+00 0.  1.
</event>
<event>
 5    1  0.1320187E-009  0.9118800E+02  0.7818608E-02  0.1130116E+00
         25   -1    0    0    0    0  0.00000000000E+00  0.00000000000E+00  0.99999998245E-14  0.12500000000E+03  0.12500000000E+03 0.  0.
        -13    1    3    3    0    0  0.36783689538E+02  0.10211110875E+01  0.47503813246E+02  0.60089149776E+02  0.10566000000E+00 0.  1.
         23    2    1    0    0    0  0.12801384141E+02 -0.87794492251E+01  0.29585410530E+02  0.91589662067E+02  0.85278458691E+02 0.  0.
         13    1    3    3    0    0 -0.23982305397E+02 -0.98005603126E+01 -0.17918402717E+02  0.31500512290E+02  0.10566000000E+00 0. -1.
         22    1    1    0    0    0 -0.12801384141E+02  0.87794492251E+01 -0.29585410530E+02  0.33410337933E+02  0.00000000000E+00 0.  1.
</event>
<event>
 5    1  0.1320187E-009  0.9118800E+02  0.7818608E-02  0.1130116E+00
         25   -1    0    0    0    0  0.00000000000E+00  0.00000000000E+00  0.99999998245E-14  0.12500000000E+03  0.12500000000E+03 0.  0.
        -13    1    3    3    0    0  0.14725809611E+02 -0.16568734271E+02  0.24076694655E+02  0.32727218238E+02  0.10566000000E+00 0.  1.
         23    2    1    0    0    0 -0.85072912203E+01  0.33126366994E+02  0.83700232233E+01  0.89789383947E+02  0.82597493828E+02 0.  0.
         13    1    3    3    0    0 -0.23233100831E+02  0.49695101264E+02 -0.15706671432E+02  0.57062165709E+02  0.10566000000E+00 0. -1.
         22    1    1    0    0    0  0.85072912203E+01 -0.33126366994E+02 -0.83700232233E+01  0.35210616053E+02  0.00000000000E+00 0. -1.
</event>
<event>
 5    1  0.1320187E-009  0.9118800E+02  0.7818608E-02  0.1130116E+00
         25   -1    0    0    0    0  0.00000000000E+00  0.00000000000E+00  0.99999998245E-14  0.12500000000E+03  0.12500000000E+03 0.  0.
        -13    1    3    3    0    0  0.38610948194E+02  0.45481786531E+02 -0.28379030650E+01  0.59728243607E+02  0.10566000000E+00 0.  1.
         23    2    1    0    0    0  0.14978914248E+02  0.18988259945E+02 -0.14138489975E+02  0.96985382627E+02  0.92851201698E+02 0.  0.
         13    1    3    3    0    0 -0.23632033946E+02 -0.26493526587E+02 -0.11300586910E+02  0.37257139020E+02  0.10566000000E+00 0. -1.
         22    1    1    0    0    0 -0.14978914248E+02 -0.18988259945E+02  0.14138489975E+02  0.28014617373E+02  0.00000000000E+00 0.  1.
</event>
<event>
 5    1  0.1320187E-009  0.9118800E+02  0.7818608E-02  0.1130116E+00
         25   -1    0    0    0    0  0.00000000000E+00  0.00000000000E+00  0.99999998245E-14  0.12500000000E+03  0.12500000000E+03 0.  0.
        -13    1    3    3    0    0  0.15911126056E+02 -0.77035629887E+01  0.49570008655E+02  0.52627993855E+02  0.10566000000E+00 0.  1.
         23    2    1    0    0    0 -0.17778002184E+02 -0.28649118897E+01  0.22901723807E+02  0.95866616483E+02  0.91332656377E+02 0.  0.
         13    1    3    3    0    0 -0.33689128241E+02  0.48386510989E+01 -0.26668284848E+02  0.43238622629E+02  0.10566000000E+00 0. -1.
         22    1    1    0    0    0  0.17778002184E+02  0.28649118897E+01 -0.22901723807E+02  0.29133383517E+02  0.00000000000E+00 0.  1.
</event>
<event>
 5    1  0.1320187E-009  0.9118800E+02  0.7818608E-02  0.1130116E+00
         25   -1    0    0    0    0  0.00000000000E+00  0.00000000000E+00  0.99999998245E-14  0.12500000000E+03  0.12500000000E+03 0.  0.
        -13    1    3    3    0    0 -0.18254061471E+02 -0.25659235638E+02  0.26563313218E+02  0.41197425974E+02  0.10566000000E+00 0.  1.
         23    2    1    0    0    0 -0.25452211374E+02  0.20118172474E+02  0.16435728403E+02  0.88631207119E+02  0.80825749484E+02 0.  0.
         13    1    3    3    0    0 -0.71981499034E+01  0.45777408112E+02 -0.10127584816E+02  0.47433781145E+02  0.10566000000E+00 0. -1.
         22    1    1    0    0    0  0.25452211374E+02 -0.20118172474E+02 -0.16435728403E+02  0.36368792881E+02  0.00000000000E+00 0. -1.
</event>
<event>
 5    1  0.1320187E-009  0.9118800E+02  0.7818608E-02  0.1130116E+00
         25   -1    0    0    0    0  0.00000000000E+00  0.00000000000E+00  0.99999998245E-14  0.12500000000E+03  0.12500000000E+03 0.  0.
        -13    1    3    3    0    0 -0.18018558143E+02 -0.22933973668E+02 -0.33853883399E+02  0.44684809175E+02  0.10566000000E+00 0. -1.
         23    2    1    0    0    0 -0.62312334397E+01  0.23275902698E+02 -0.17939107290E+02  0.94959902015E+02  0.90083158824E+02 0.  0.
         13    1    3    3    0    0  0.11787324704E+02  0.46209876366E+02  0.15914776109E+02  0.50275092840E+02  0.10566000000E+00 0.  1.
         22    1    1    0    0    0  0.62312334397E+01 -0.23275902698E+02  0.17939107290E+02  0.30040097985E+02  0.00000000000E+00 0.  1.
</event>
<event>
 5    1  0.1320187E-009  0.9118800E+02  0.7818608E-02  0.1130116E+00
         25   -1    0    0    0    0  0.00000000000E+00  0.00000000000E+00  0.99999998245E-14  0.12500000000E+03  0.12500000000E+03 0.  0.
        -13    1    3    3    0    0 -0.19288194677E+02  0.10476648301E+02 -0.31410646049E+02  0.38320157395E+02  0.10566000000E+00 0.  1.
         23    2    1    0    0    0  0.73079690299E+01  0.22797960590E+02  0.17502601364E+02  0.95343727933E+02  0.90614193057E+02 0.  0.
         13    1    3    3    0    0  0.26596163707E+02  0.12321312289E+02  0.48913247413E+02  0.57023570538E+02  0.10566000000E+00 0. -1.
         22    1    1    0    0    0 -0.73079690299E+01 -0.22797960590E+02 -0.17502601364E+02  0.29656272067E+02  0.00000000000E+00 0. -1.
</event>
<event>
 5    1  0.1320187E-009  0.9118800E+02  0.7818608E-02  0.1130116E+00
         25   -1    0    0    0    0  0.00000000000E+00  0.00000000000E+00  0.99999998245E-14  0.12500000000E+03  0.12500000000E+03 0.  0.
        -13    1    3    3    0    0 -0.90693676273E+01  0.30047608319E+02  0.23072650792E+02  0.38954724661E+02  0.10566000000E+00 0. -1.
         23    2    1    0    0    0 -0.12531355843E+02 -0.24351300829E+02  0.15158072416E+01  0.97571576733E+02  0.93637034250E+02 0.  0.
         13    1    3    3    0    0 -0.34619882156E+01 -0.54398909148E+02 -0.21556843550E+02  0.58616852072E+02  0.10566000000E+00 0.  1.
         22    1    1    0    0    0  0.12531355843E+02  0.24351300829E+02 -0.15158072416E+01  0.27428423267E+02  0.00000000000E+00 0.  1.
</event>
<event>
 5    1  0.1320187E-009  0.9118800E+02  0.7818608E-02  0.1130116E+00
         25   -1    0    0    0    0  0.00000000000E+00  0.00000000000E+00  0.99999998245E-14  0.12500000000E+03  0.12500000000E+03 0.  0.
        -13    1    3    3    0    0 -0.52204320366E+02 -0.35671661662E+01  0.65274938783E+01  0.52731727448E+02  0.10566000000E+00 0. -1.
         23    2    1    0    0    0 -0.18451223990E+02 -0.20620883017E+02 -0.11995276958E+02  0.94841167920E+02  0.89918251652E+02 0.  0.
         13    1    3    3    0    0  0.33753096376E+02 -0.17053716850E+02 -0.18522770837E+02  0.42109440472E+02  0.10566000000E+00 0.  1.
         22    1    1    0    0    0  0.18451223990E+02  0.20620883017E+02  0.11995276958E+02  0.30158832080E+02  0.00000000000E+00 0. -1.
</event>
<event>
 5    1  0.1320187E-009  0.9118800E+02  0.7818608E-02  0.1130116E+00
         25   -1    0    0    0    0  0.00000000000E+00  0.00000000000E+00  0.99999998245E-14  0.12500000000E+03  0.12500000000E+03 0.  0.
        -13    1    3    3    0    0 -0.31622067423E+02  0.34751550337E+02  0.12836863382E+01  0.47003025579E+02  0.10566000000E+00 0. -1.
         23    2    1    0    0    0 -0.13478030430E+02  0.39778390930E+02  0.24093991201E+02  0.76579982432E+02  0.59329550884E+02 0.  0.
         13    1    3    3    0    0  0.18144036993E+02  0.50268405928E+01  0.22810304863E+02  0.29576956854E+02  0.10566000000E+00 0.  1.
         22    1    1    0    0    0  0.13478030430E+02 -0.39778390930E+02 -0.24093991201E+02  0.48420017568E+02  0.00000000000E+00 0. -1.
</event>
<event>
 5    1  0.1320187E-009  0.9118800E+02  0.7818608E-02  0.1130116E+00
         25   -1    0    0    0    0  0.00000000000E+00  0.00000000000E+00  0.99999998245E-14  0.12500000000E+03  0.12500000000E+03 0.  0.
        -13    1    3    3    0    0  0.58711701102E+02 -0.47192688576E+01 -0.63179339174E+01  0.59239031034E+02  0.10566000000E+00 0.  1.
         23    2    1    0    0    0  0.23785910341E+02 -0.15295503841E+02 -0.74744983202E+01  0.95749528318E+02  0.91172265956E+02 0.  0.
         13    1    3    3    0    0 -0.34925790761E+02 -0.10576234983E+02 -0.11565644029E+01  0.36510497284E+02  0.10566000000E+00 0. -1.
         22    1    1    0    0    0 -0.23785910341E+02  0.15295503841E+02  0.74744983202E+01  0.29250471682E+02  0.00000000000E+00 0.  1.
</event>
<event>
 5    1  0.1320187E-009  0.9118800E+02  0.7818608E-02  0.1130116E+00
         25   -1    0    0    0    0  0.00000000000E+00  0.00000000000E+00  0.99999998245E-14  0.12500000000E+03  0.12500000000E+03 0.  0.
        -13    1    3    3    0    0 -0.40426056005E+02 -0.16821348007E+01  0.16482711653E+02  0.43689661581E+02  0.10566000000E+00 0. -1.
         23    2    1    0    0    0 -0.76547212980E+01 -0.24905430337E+02 -0.15189370410E+02  0.94840553854E+02  0.89917398002E+02 0.  0.
         13    1    3    3    0    0  0.32771334707E+02 -0.23223295536E+02 -0.31672082062E+02  0.51150892272E+02  0.10566000000E+00 0.  1.
         22    1    1    0    0    0  0.76547212980E+01  0.24905430337E+02  0.15189370410E+02  0.30159446146E+02  0.00000000000E+00 0.  1.
</event>
<event>
 5    1  0.1320187E-009  0.9118800E+02  0.7818608E-02  0.1130116E+00
         25   -1    0    0    0    0  0.00000000000E+00  0.00000000000E+00  0.99999998245E-14  0.12500000000E+03  0.12500000000E+03 0.  0.
        -13    1    3    3    0    0  0.33607954746E+02 -0.14006375654E+02 -0.64256688811E+01  0.36972605613E+02  0.10566000000E+00 0. -1.
         23    2    1    0    0    0 -0.72656767473E+01  0.25999967114E+02  0.95640332780E+01  0.96359834479E+02  0.92005209742E+02 0.  0.
         13    1    3    3    0    0 -0.40873631494E+02  0.40006342768E+02  0.15989702159E+02  0.59387228866E+02  0.10566000000E+00 0.  1.
         22    1    1    0    0    0  0.72656767473E+01 -0.25999967114E+02 -0.95640332780E+01  0.28640165521E+02  0.00000000000E+00 0.  1.
</event>
<event>
 5    1  0.1320187E-009  0.9118800E+02  0.7818608E-02  0.1130116E+00
         25   -1    0    0    0    0  0.00000000000E+00  0.00000000000E+00  0.99999998245E-14  0.12500000000E+03  0.12500000000E+03 0.  0.
        -13    1    3    3    0    0 -0.33808980760E+02  0.48560250699E+01  0.14268194286E+02  0.37016492158E+02  0.10566000000E+00 0. -1.
         23    2    1    0    0    0  0.10699358124E+02  0.76464697383E+01 -0.25203678582E+02  0.96571665933E+02  0.92292559198E+02 0.  0.
         13    1    3    3    0    0  0.44508338884E+02  0.27904446684E+01 -0.39471872868E+02  0.59555173775E+02  0.10566000000E+00 0.  1.
         22    1    1    0    0    0 -0.10699358124E+02 -0.76464697383E+01  0.25203678582E+02  0.28428334067E+02  0.00000000000E+00 0.  1.
</event>
<event>
 5    1  0.1320187E-009  0.9118800E+02  0.7818608E-02  0.1130116E+00
         25   -1    0    0    0    0  0.00000000000E+00  0.00000000000E+00  0.99999998245E-14  0.12500000000E+03  0.12500000000E+03 0.  0.
        -13    1    3    3    0    0  0.48047731456E+02  0.37144685638E+02 -0.54396301273E+01  0.60974690726E+02  0.10566000000E+00 0. -1.
         23    2    1    0    0    0  0.24945376747E+02  0.12454803670E+02  0.56337384736E+01  0.96554737394E+02  0.92269628527E+02 0.  0.
         13    1    3    3    0    0 -0.23102354708E+02 -0.24689881968E+02  0.11073368601E+02  0.35580046668E+02  0.10566000000E+00 0.  1.
         22    1    1    0    0    0 -0.24945376747E+02 -0.12454803670E+02 -0.56337384736E+01  0.28445262606E+02  0.00000000000E+00 0. -1.
</event>
<event>
 5    1  0.1320187E-009  0.9118800E+02  0.7818608E-02  0.1130116E+00
         25   -1    0    0    0    0  0.00000000000E+00  0.00000000000E+00  0.99999998245E-14  0.12500000000E+03  0.12500000000E+03 0.  0.
        -13    1    3    3    0    0 -0.14024090366E+02 -0.48287779989E+02 -0.36732420629E+02  0.62270913725E+02  0.10566000000E+00 0. -1.
         23    2    1    0    0    0 -0.84874296833E+01 -0.20717090052E+02 -0.19906551950E+02  0.95041610635E+02  0.90196466996E+02 0.  0.
         13    1    3    3    0    0  0.55366606823E+01  0.27570689937E+02  0.16825868679E+02  0.32770696910E+02  0.10566000000E+00 0.  1.
         22    1    1    0    0    0  0.84874296833E+01  0.20717090052E+02  0.19906551950E+02  0.29958389365E+02  0.00000000000E+00 0. -1.
</event>
<event>
 5    1  0.1320187E-009  0.9118800E+02  0.7818608E-02  0.1130116E+00
         25   -1    0    0    0    0  0.00000000000E+00  0.00000000000E+00  0.99999998245E-14  0.12500000000E+03  0.12500000000E+03 0.  0.
        -13    1    3    3    0    0  0.96120465440E+01 -0.50079894386E+02  0.62627700419E+01  0.51377239252E+02  0.10566000000E+00 0.  1.
         23    2    1    0    0    0  0.10988513848E+02 -0.92017591808E+01  0.24857061754E+02  0.96306911501E+02  0.91933279476E+02 0.  0.
         13    1    3    3    0    0  0.13764673037E+01  0.40878135205E+02  0.18594291712E+02  0.44929672249E+02  0.10566000000E+00 0. -1.
         22    1    1    0    0    0 -0.10988513848E+02  0.92017591808E+01 -0.24857061754E+02  0.28693088499E+02  0.00000000000E+00 0. -1.
</event>
<event>
 5    1  0.1320187E-009  0.9118800E+02  0.7818608E-02  0.1130116E+00
         25   -1    0    0    0    0  0.00000000000E+00  0.00000000000E+00  0.99999998245E-14  0.12500000000E+03  0.12500000000E+03 0.  0.
        -13    1    3    3    0    0  0.27249980813E+02 -0.27577738104E+02 -0.38048076085E+01  0.38956139673E+02  0.10566000000E+00 0.  1.
         23    2    1    0    0    0  0.11001988997E+02  0.26065430769E+02  0.65620230717E+01  0.95956746225E+02  0.91455926851E+02 0.  0.
         13    1    3    3    0    0 -0.16247991816E+02  0.53643168874E+02  0.10366830680E+02  0.57000606552E+02  0.10566000000E+00 0. -1.
         22    1    1    0    0    0 -0.11001988997E+02 -0.26065430769E+02 -0.65620230717E+01  0.29043253775E+02  0.00000000000E+00 0. -1.
</event>
<event>
 5    1  0.1320187E-009  0.9118800E+02  0.7818608E-02  0.1130116E+00
         25   -1    0    0    0    0  0.00000000000E+00  0.00000000000E+00  0.99999998245E-14  0.12500000000E+03  0.12500000000E+03 0.  0.
        -13    1    3    3    0    0  0.71188799775E+01 -0.25336822507E+02  0.40611050403E+02  0.48393197929E+02  0.10566000000E+00 0. -1.
         23    2    1    0    0    0 -0.14165833768E-01  0.18101547990E+02  0.22819151717E+02  0.95873037827E+02  0.91341444355E+02 0.  0.
         13    1    3    3    0    0 -0.71330458113E+01  0.43438370496E+02 -0.17791898686E+02  0.47479839899E+02  0.10566000000E+00 0.  1.
         22    1    1    0    0    0  0.14165833768E-01 -0.18101547990E+02 -0.22819151717E+02  0.29126962173E+02  0.00000000000E+00 0. -1.
</event>
<event>
 5    1  0.1320187E-009  0.9118800E+02  0.7818608E-02  0.1130116E+00
         25   -1    0    0    0    0  0.00000000000E+00  0.00000000000E+00  0.99999998245E-14  0.12500000000E+03  0.12500000000E+03 0.  0.
        -13    1    3    3    0    0  0.28739525010E+02  0.28916570182E+02 -0.10517082736E+02  0.42104020262E+02  0.10566000000E+00 0.  1.
         23    2    1    0    0    0 -0.14966727881E+02  0.34973127581E+02 -0.64620408900E+01  0.86413984803E+02  0.77320735905E+02 0.  0.
         13    1    3    3    0    0 -0.43706252891E+02  0.60565573994E+01  0.40550418455E+01  0.44309964542E+02  0.10566000000E+00 0. -1.
         22    1    1    0    0    0  0.14966727881E+02 -0.34973127581E+02  0.64620408900E+01  0.38586015197E+02  0.00000000000E+00 0.  1.
</event>
<event>
 5    1  0.1320187E-009  0.9118800E+02  0.7818608E-02  0.1130116E+00
         25   -1    0    0    0    0  0.00000000000E+00  0.00000000000E+00  0.99999998245E-14  0.12500000000E+03  0.12500000000E+03 0.  0.
        -13    1    3    3    0    0 -0.53027533183E+01  0.25781146694E+01 -0.34007539630E+02  0.34515066040E+02  0.10566000000E+00 0. -1.
         23    2    1    0    0    0  0.14722903266E+02  0.27155128563E+01  0.24462621928E+02  0.96319732179E+02  0.91950709866E+02 0.  0.
         13    1    3    3    0    0  0.20025656584E+02  0.13739818696E+00  0.58470161559E+02  0.61804666139E+02  0.10566000000E+00 0.  1.
         22    1    1    0    0    0 -0.14722903266E+02 -0.27155128563E+01 -0.24462621928E+02  0.28680267821E+02  0.00000000000E+00 0.  1.
</event>
<event>
 5    1  0.1320187E-009  0.9118800E+02  0.7818608E-02  0.1130116E+00
         25   -1    0    0    0    0  0.00000000000E+00  0.00000000000E+00  0.99999998245E-14  0.12500000000E+03  0.12500000000E+03 0.  0.
        -13    1    3    3    0    0  0.13523537293E+02  0.12865260817E+02 -0.52874278266E+02  0.56072287834E+02  0.10566000000E+00 0.  1.
         23    2    1    0    0    0  0.15945255011E+02 -0.11538386079E+02 -0.24385921688E+02  0.93662184390E+02  0.88264070252E+02 0.  0.
         13    1    3    3    0    0  0.24217177177E+01 -0.24403646895E+02  0.28488356578E+02  0.37589896556E+02  0.10566000000E+00 0. -1.
         22    1    1    0    0    0 -0.15945255011E+02  0.11538386079E+02  0.24385921688E+02  0.31337815610E+02  0.00000000000E+00 0.  1.
</event>
<event>
 5    1  0.1320187E-009  0.9118800E+02  0.7818608E-02  0.1130116E+00
         25   -1    0    0    0    0  0.00000000000E+00  0.00000000000E+00  0.99999998245E-14  0.12500000000E+03  0.12500000000E+03 0.  0.
        -13    1    3    3    0    0 -0.49780497451E+02 -0.19037979973E+01  0.18271732645E+02  0.53062131046E+02  0.10566000000E+00 0.  1.
         23    2    1    0    0    0 -0.22764936268E+02 -0.16026174832E+02 -0.10754181467E+02  0.95154849271E+02  0.90353264013E+02 0.  0.
         13    1    3    3    0    0  0.27015561183E+02 -0.14122376835E+02 -0.29025914112E+02  0.42092718225E+02  0.10566000000E+00 0. -1.
         22    1    1    0    0    0  0.22764936268E+02  0.16026174832E+02  0.10754181467E+02  0.29845150729E+02  0.00000000000E+00 0.  1.
</event>
<event>
 5    1  0.1320187E-009  0.9118800E+02  0.7818608E-02  0.1130116E+00
         25   -1    0    0    0    0  0.00000000000E+00  0.00000000000E+00  0.99999998245E-14  0.12500000000E+03  0.12500000000E+03 0.  0.
        -13    1    3    3    0    0  0.38061495780E+02  0.40643953128E+02  0.13543313637E+02  0.57306551939E+02  0.10566000000E+00 0.  1.
         23    2    1    0    0    0  0.88388993142E+01  0.25156282767E+02  0.20819564985E+02  0.91170737668E+02  0.84662178197E+02 0.  0.
         13    1    3    3    0    0 -0.29222596465E+02 -0.15487670361E+02  0.72762513482E+01  0.33864185729E+02  0.10566000000E+00 0. -1.
         22    1    1    0    0    0 -0.88388993142E+01 -0.25156282767E+02 -0.20819564985E+02  0.33829262332E+02  0.00000000000E+00 0.  1.
</event>
<event>
 5    1  0.1320187E-009  0.9118800E+02  0.7818608E-02  0.1130116E+00
         25   -1    0    0    0    0  0.00000000000E+00  0.00000000000E+00  0.99999998245E-14  0.12500000000E+03  0.12500000000E+03 0.  0.
        -13    1    3    3    0    0  0.49566756437E+00  0.28631444938E+02  0.20818756003E+02  0.35403913500E+02  0.10566000000E+00 0. -1.
         23    2    1    0    0    0 -0.14894002569E+02 -0.16920860271E+02 -0.17154878675E+02  0.96672686552E+02  0.92429279117E+02 0.  0.
         13    1    3    3    0    0 -0.15389670133E+02 -0.45552305209E+02 -0.37973634678E+02  0.61268773052E+02  0.10566000000E+00 0.  1.
         22    1    1    0    0    0  0.14894002569E+02  0.16920860271E+02  0.17154878675E+02  0.28327313448E+02  0.00000000000E+00 0.  1.
</event>
<event>
 5    1  0.1320187E-009  0.9118800E+02  0.7818608E-02  0.1130116E+00
         25   -1    0    0    0    0  0.00000000000E+00  0.00000000000E+00  0.99999998245E-14  0.12500000000E+03  0.12500000000E+03 0.  0.
        -13    1    3    3    0    0  0.37430846431E+02  0.18687703374E+01  0.63252214007E+01  0.38007632877E+02  0.10566000000E+00 0.  1.
         23    2    1    0    0    0 -0.48693084925E+01 -0.21997782708E+02 -0.21394615913E+02  0.93930043461E+02  0.88642601864E+02 0.  0.
         13    1    3    3    0    0 -0.42300154923E+02 -0.23866553045E+02 -0.27719837314E+02  0.55922410584E+02  0.10566000000E+00 0. -1.
         22    1    1    0    0    0  0.48693084925E+01  0.21997782708E+02  0.21394615913E+02  0.31069956539E+02  0.00000000000E+00 0. -1.
</event>
<event>
 5    1  0.1320187E-009  0.9118800E+02  0.7818608E-02  0.1130116E+00
         25   -1    0    0    0    0  0.00000000000E+00  0.00000000000E+00  0.99999998245E-14  0.12500000000E+03  0.12500000000E+03 0.  0.
        -13    1    3    3    0    0  0.10120051083E+02  0.28703456498E+01 -0.58771928578E+02  0.59705988568E+02  0.10566000000E+00 0. -1.
         23    2    1    0    0    0 -0.64793725953E+01 -0.61258223359E+01 -0.25818935435E+02  0.97684704001E+02  0.93787930995E+02 0.  0.
         13    1    3    3    0    0 -0.16599423678E+02 -0.89961679857E+01  0.32952993143E+02  0.37978715434E+02  0.10566000000E+00 0.  1.
         22    1    1    0    0    0  0.64793725953E+01  0.61258223359E+01  0.25818935435E+02  0.27315295999E+02  0.00000000000E+00 0. -1.
</event>
<event>
 5    1  0.1320187E-009  0.9118800E+02  0.7818608E-02  0.1130116E+00
         25   -1    0    0    0    0  0.00000000000E+00  0.00000000000E+00  0.99999998245E-14  0.12500000000E+03  0.12500000000E+03 0.  0.
        -13    1    3    3    0    0  0.34664779063E+02  0.44117581289E+02  0.83173500518E+01  0.56720343460E+02  0.10566000000E+00 0.  1.
         23    2    1    0    0    0  0.27429509593E+02  0.49716074080E+01  0.17385973404E+01  0.97069414659E+02  0.92964260148E+02 0.  0.
         13    1    3    3    0    0 -0.72352694701E+01 -0.39145973881E+02 -0.65787527113E+01  0.40349071199E+02  0.10566000000E+00 0. -1.
         22    1    1    0    0    0 -0.27429509593E+02 -0.49716074080E+01 -0.17385973404E+01  0.27930585341E+02  0.00000000000E+00 0.  1.
</event>
<event>
 5    1  0.1320187E-009  0.9118800E+02  0.7818608E-02  0.1130116E+00
         25   -1    0    0    0    0  0.00000000000E+00  0.00000000000E+00  0.99999998245E-14  0.12500000000E+03  0.12500000000E+03 0.  0.
        -13    1    3    3    0    0  0.26354943451E+02  0.52438428819E+02 -0.62628400765E+01  0.59022082234E+02  0.10566000000E+00 0. -1.
         23    2    1    0    0    0  0.29699375174E+02  0.28726269365E+02 -0.75209308956E+01  0.83002192451E+02  0.71592933400E+02 0.  0.
         13    1    3    3    0    0  0.33444317226E+01 -0.23712159454E+02 -0.12580908191E+01  0.23980110218E+02  0.10566000000E+00 0.  1.
         22    1    1    0    0    0 -0.29699375174E+02 -0.28726269365E+02  0.75209308956E+01  0.41997807549E+02  0.00000000000E+00 0. -1.
</event>
<event>
 5    1  0.1320187E-009  0.9118800E+02  0.7818608E-02  0.1130116E+00
         25   -1    0    0    0    0  0.00000000000E+00  0.00000000000E+00  0.99999998245E-14  0.12500000000E+03  0.12500000000E+03 0.  0.
        -13    1    3    3    0    0  0.20378523820E+02  0.30064283883E+02 -0.69139580180E+01  0.36972413743E+02  0.10566000000E+00 0. -1.
         23    2    1    0    0    0  0.17939123638E+02 -0.25061442023E+02 -0.10932204137E+02  0.92298300955E+02  0.86310921897E+02 0.  0.
         13    1    3    3    0    0 -0.24394001825E+01 -0.55125725906E+02 -0.40182461187E+01  0.55325887212E+02  0.10566000000E+00 0.  1.
         22    1    1    0    0    0 -0.17939123638E+02  0.25061442023E+02  0.10932204137E+02  0.32701699045E+02  0.00000000000E+00 0.  1.
</event>
<event>
 5    1  0.1320187E-009  0.9118800E+02  0.7818608E-02  0.1130116E+00
         25   -1    0    0    0    0  0.00000000000E+00  0.00000000000E+00  0.99999998245E-14  0.12500000000E+03  0.12500000000E+03 0.  0.
        -13    1    3    3    0    0  0.35321225345E+01  0.34717045844E+02  0.36123201414E+02  0.50225949530E+02  0.10566000000E+00 0.  1.
         23    2    1    0    0    0  0.26590398032E+02  0.10161768730E+02  0.49793660513E+01  0.96101818440E+02  0.91653993967E+02 0.  0.
         13    1    3    3    0    0  0.23058275497E+02 -0.24555277115E+02 -0.31143835363E+02  0.45875868910E+02  0.10566000000E+00 0. -1.
         22    1    1    0    0    0 -0.26590398032E+02 -0.10161768730E+02 -0.49793660513E+01  0.28898181560E+02  0.00000000000E+00 0. -1.
</event>
<event>
 5    1  0.1320187E-009  0.9118800E+02  0.7818608E-02  0.1130116E+00
         25   -1    0    0    0    0  0.00000000000E+00  0.00000000000E+00  0.99999998245E-14  0.12500000000E+03  0.12500000000E+03 0.  0.
        -13    1    3    3    0    0 -0.10018604182E+02 -0.21678723453E+02  0.35764061653E+02  0.43004868913E+02  0.10566000000E+00 0. -1.
         23    2    1    0    0    0 -0.14856323495E+02 -0.17555089124E+02 -0.17157723533E+02  0.96307161542E+02  0.91933619452E+02 0.  0.
         13    1    3    3    0    0 -0.48377193136E+01  0.41236343296E+01 -0.52921785186E+02  0.53302292629E+02  0.10566000000E+00 0.  1.
         22    1    1    0    0    0  0.14856323495E+02  0.17555089124E+02  0.17157723533E+02  0.28692838458E+02  0.00000000000E+00 0. -1.
</event>
<event>
 5    1  0.1320187E-009  0.9118800E+02  0.7818608E-02  0.1130116E+00
         25   -1    0    0    0    0  0.00000000000E+00  0.00000000000E+00  0.99999998245E-14  0.12500000000E+03  0.12500000000E+03 0.  0.
        -13    1    3    3    0    0 -0.23932672298E+02 -0.98992200024E+01 -0.22341562461E+02  0.34204150877E+02  0.10566000000E+00 0.  1.
         23    2    1    0    0    0  0.28029448712E+02  0.13039606646E+02 -0.43767354132E+01  0.93777617813E+02  0.88427396508E+02 0.  0.
         13    1    3    3    0    0  0.51962121010E+02  0.22938826648E+02  0.17964827048E+02  0.59573466936E+02  0.10566000000E+00 0. -1.
         22    1    1    0    0    0 -0.28029448712E+02 -0.13039606646E+02  0.43767354132E+01  0.31222382187E+02  0.00000000000E+00 0. -1.
</event>
<event>
 5    1  0.1320187E-009  0.9118800E+02  0.7818608E-02  0.1130116E+00
         25   -1    0    0    0    0  0.00000000000E+00  0.00000000000E+00  0.99999998245E-14  0.12500000000E+03  0.12500000000E+03 0.  0.
        -13    1    3    3    0    0  0.23041089336E+02 -0.33862578228E+01  0.51608210076E+02  0.56619581870E+02  0.10566000000E+00 0.  1.
         23    2    1    0    0    0  0.22633172256E+02  0.12048524404E+02  0.17800288666E+02  0.93786578155E+02  0.88440061842E+02 0.  0.
         13    1    3    3    0    0 -0.40791707955E+00  0.15434782227E+02 -0.33807921410E+02  0.37166996285E+02  0.10566000000E+00 0. -1.
         22    1    1    0    0    0 -0.22633172256E+02 -0.12048524404E+02 -0.17800288666E+02  0.31213421845E+02  0.00000000000E+00 0.  1.
</event>
<event>
 5    1  0.1320187E-009  0.9118800E+02  0.7818608E-02  0.1130116E+00
         25   -1    0    0    0    0  0.00000000000E+00  0.00000000000E+00  0.99999998245E-14  0.12500000000E+03  0.12500000000E+03 0.  0.
        -13    1    3    3    0    0 -0.22267570430E+02 -0.25721426910E+02  0.11671162776E+01  0.34041295798E+02  0.10566000000E+00 0. -1.
         23    2    1    0    0    0  0.10559805301E+02  0.24027240318E+02  0.14353631262E+02  0.95086048478E+02  0.90258030775E+02 0.  0.
         13    1    3    3    0    0  0.32827375731E+02  0.49748667228E+02  0.13186514984E+02  0.61044752680E+02  0.10566000000E+00 0.  1.
         22    1    1    0    0    0 -0.10559805301E+02 -0.24027240318E+02 -0.14353631262E+02  0.29913951522E+02  0.00000000000E+00 0.  1.
</event>
<event>
 5    1  0.1320187E-009  0.9118800E+02  0.7818608E-02  0.1130116E+00
         25   -1    0    0    0    0  0.00000000000E+00  0.00000000000E+00  0.99999998245E-14  0.12500000000E+03  0.12500000000E+03 0.  0.
        -13    1    3    3    0    0 -0.37103313935E+02 -0.11114415677E+02 -0.41459803098E+02  0.56737223917E+02  0.10566000000E+00 0. -1.
         23    2    1    0    0    0 -0.28280522185E+02 -0.10206932323E+02 -0.46795267520E+01  0.94571931163E+02  0.89543189528E+02 0.  0.
         13    1    3    3    0    0  0.88227917498E+01  0.90748335326E+00  0.36780276346E+02  0.37834707247E+02  0.10566000000E+00 0.  1.
         22    1    1    0    0    0  0.28280522185E+02  0.10206932323E+02  0.46795267520E+01  0.30428068837E+02  0.00000000000E+00 0. -1.
</event>
<event>
 5    1  0.1320187E-009  0.9118800E+02  0.7818608E-02  0.1130116E+00
         25   -1    0    0    0    0  0.00000000000E+00  0.00000000000E+00  0.99999998245E-14  0.12500000000E+03  0.12500000000E+03 0.  0.
        -13    1    3    3    0    0 -0.24969443523E+02  0.28836753798E+01 -0.52775862813E+02  0.58455894085E+02  0.10566000000E+00 0. -1.
         23    2    1    0    0    0 -0.24171140251E+02  0.55437204624E+01 -0.15670896655E+02  0.95664801695E+02  0.91056029036E+02 0.  0.
         13    1    3    3    0    0  0.79830327185E+00  0.26600450826E+01  0.37104966158E+02  0.37208907610E+02  0.10566000000E+00 0.  1.
         22    1    1    0    0    0  0.24171140251E+02 -0.55437204624E+01  0.15670896655E+02  0.29335198305E+02  0.00000000000E+00 0. -1.
</event>
<event>
 5    1  0.1320187E-009  0.9118800E+02  0.7818608E-02  0.1130116E+00
         25   -1    0    0    0    0  0.00000000000E+00  0.00000000000E+00  0.99999998245E-14  0.12500000000E+03  0.12500000000E+03 0.  0.
        -13    1    3    3    0    0  0.31418158358E+02  0.52868655338E+02  0.28521979736E+01  0.61565750131E+02  0.10566000000E+00 0.  1.
         23    2    1    0    0    0  0.21370614668E+02  0.21404956747E+02 -0.36148757684E+00  0.94750933603E+02  0.89792724654E+02 0.  0.
         13    1    3    3    0    0 -0.10047543690E+02 -0.31463698591E+02 -0.32136855504E+01  0.33185183472E+02  0.10566000000E+00 0. -1.
         22    1    1    0    0    0 -0.21370614668E+02 -0.21404956747E+02  0.36148757684E+00  0.30249066397E+02  0.00000000000E+00 0.  1.
</event>
<event>
 5    1  0.1320187E-009  0.9118800E+02  0.7818608E-02  0.1130116E+00
         25   -1    0    0    0    0  0.00000000000E+00  0.00000000000E+00  0.99999998245E-14  0.12500000000E+03  0.12500000000E+03 0.  0.
        -13    1    3    3    0    0  0.24170025422E+02 -0.31912475202E+02  0.40310597473E+02  0.56811544910E+02  0.10566000000E+00 0. -1.
         23    2    1    0    0    0  0.26109683166E+02 -0.48886796232E+01  0.12484403935E+02  0.95649104186E+02  0.91034477240E+02 0.  0.
         13    1    3    3    0    0  0.19396577444E+01  0.27023795579E+02 -0.27826193538E+02  0.38837559276E+02  0.10566000000E+00 0.  1.
         22    1    1    0    0    0 -0.26109683166E+02  0.48886796232E+01 -0.12484403935E+02  0.29350895814E+02  0.00000000000E+00 0. -1.
</event>
<event>
 5    1  0.1320187E-009  0.9118800E+02  0.7818608E-02  0.1130116E+00
         25   -1    0    0    0    0  0.00000000000E+00  0.00000000000E+00  0.99999998245E-14  0.12500000000E+03  0.12500000000E+03 0.  0.
        -13    1    3    3    0    0 -0.21417090469E+02 -0.21292259055E+02 -0.20437287001E+02  0.36465681453E+02  0.10566000000E+00 0. -1.
         23    2    1    0    0    0  0.21631734143E+02  0.17558294778E+02 -0.10083913195E+02  0.95370438024E+02  0.90651031467E+02 0.  0.
         13    1    3    3    0    0  0.43048824612E+02  0.38850553833E+02  0.10353373806E+02  0.58904756572E+02  0.10566000000E+00 0.  1.
         22    1    1    0    0    0 -0.21631734143E+02 -0.17558294778E+02  0.10083913195E+02  0.29629561976E+02  0.00000000000E+00 0.  1.
</event>
<event>
 5    1  0.1320187E-009  0.9118800E+02  0.7818608E-02  0.1130116E+00
         25   -1    0    0    0    0  0.00000000000E+00  0.00000000000E+00  0.99999998245E-14  0.12500000000E+03  0.12500000000E+03 0.  0.
        -13    1    3    3    0    0  0.17057431548E+02  0.34635545752E+02 -0.39113563421E+02  0.54958702751E+02  0.10566000000E+00 0.  1.
         23    2    1    0    0    0  0.61118367532E+01  0.30137489745E+02 -0.16969222168E+01  0.94202234145E+02  0.89025606071E+02 0.  0.
         13    1    3    3    0    0 -0.10945594794E+02 -0.44980560074E+01  0.37416641204E+02  0.39243531394E+02  0.10566000000E+00 0. -1.
         22    1    1    0    0    0 -0.61118367532E+01 -0.30137489745E+02  0.16969222168E+01  0.30797765855E+02  0.00000000000E+00 0.  1.
</event>
<event>
 5    1  0.1320187E-009  0.9118800E+02  0.7818608E-02  0.1130116E+00
         25   -1    0    0    0    0  0.00000000000E+00  0.00000000000E+00  0.99999998245E-14  0.12500000000E+03  0.12500000000E+03 0.  0.
        -13    1    3    3    0    0 -0.15594810173E+02 -0.14648295870E+02 -0.45210904836E+02  0.50018074296E+02  0.10566000000E+00 0.  1.
         23    2    1    0    0    0 -0.23862469450E+02 -0.94142745450E+00  0.31061650769E+01  0.10091780750E+03  0.98002305463E+02 0.  0.
         13    1    3    3    0    0 -0.82676592777E+01  0.13706868415E+02  0.48317069912E+02  0.50899733208E+02  0.10566000000E+00 0. -1.
         22    1    1    0    0    0  0.23862469450E+02  0.94142745450E+00 -0.31061650769E+01  0.24082192496E+02  0.00000000000E+00 0. -1.
</event>
<event>
 5    1  0.1320187E-009  0.9118800E+02  0.7818608E-02  0.1130116E+00
         25   -1    0    0    0    0  0.00000000000E+00  0.00000000000E+00  0.99999998245E-14  0.12500000000E+03  0.12500000000E+03 0.  0.
        -13    1    3    3    0    0  0.33115158834E+02 -0.95386418596E+00 -0.63111683359E+01  0.33724851538E+02  0.10566000000E+00 0. -1.
         23    2    1    0    0    0 -0.23322440288E+02  0.17423134205E+02  0.80576394165E+01  0.94793587113E+02  0.89852082771E+02 0.  0.
         13    1    3    3    0    0 -0.56437599122E+02  0.18376998391E+02  0.14368807752E+02  0.61068735575E+02  0.10566000000E+00 0.  1.
         22    1    1    0    0    0  0.23322440288E+02 -0.17423134205E+02 -0.80576394165E+01  0.30206412887E+02  0.00000000000E+00 0.  1.
</event>
<event>
 5    1  0.1320187E-009  0.9118800E+02  0.7818608E-02  0.1130116E+00
         25   -1    0    0    0    0  0.00000000000E+00  0.00000000000E+00  0.99999998245E-14  0.12500000000E+03  0.12500000000E+03 0.  0.
        -13    1    3    3    0    0 -0.32124525327E+02  0.17785539160E+02  0.11155135888E+02  0.38376539076E+02  0.10566000000E+00 0. -1.
         23    2    1    0    0    0  0.18263798282E+02  0.20428535987E+02 -0.13405464093E+02  0.94494297618E+02  0.89434749424E+02 0.  0.
         13    1    3    3    0    0  0.50388323609E+02  0.26429968266E+01 -0.24560599981E+02  0.56117758543E+02  0.10566000000E+00 0.  1.
         22    1    1    0    0    0 -0.18263798282E+02 -0.20428535987E+02  0.13405464093E+02  0.30505702382E+02  0.00000000000E+00 0.  1.
</event>
<event>
 5    1  0.1320187E-009  0.9118800E+02  0.7818608E-02  0.1130116E+00
         25   -1    0    0    0    0  0.00000000000E+00  0.00000000000E+00  0.99999998245E-14  0.12500000000E+03  0.12500000000E+03 0.  0.
        -13    1    3    3    0    0 -0.19012525972E+01  0.58570653614E+02 -0.15773225482E+02  0.60687247691E+02  0.10566000000E+00 0.  1.
         23    2    1    0    0    0 -0.10226113723E+02  0.24023555110E+02 -0.11467207170E+02  0.96483312915E+02  0.92172817190E+02 0.  0.
         13    1    3    3    0    0 -0.83248611263E+01 -0.34547098504E+02  0.43060183123E+01  0.35796065224E+02  0.10566000000E+00 0. -1.
         22    1    1    0    0    0  0.10226113723E+02 -0.24023555110E+02  0.11467207170E+02  0.28516687085E+02  0.00000000000E+00 0.  1.
</event>
<event>
 5    1  0.1320187E-009  0.9118800E+02  0.7818608E-02  0.1130116E+00
         25   -1    0    0    0    0  0.00000000000E+00  0.00000000000E+00  0.99999998245E-14  0.12500000000E+03  0.12500000000E+03 0.  0.
        -13    1    3    3    0    0  0.49004160908E+02  0.12685725497E+02  0.19506053093E+01  0.50657195370E+02  0.10566000000E+00 0. -1.
         23    2    1    0    0    0  0.23449819582E+02 -0.10507149625E+02  0.22519775499E+02  0.90832259071E+02  0.84160945620E+02 0.  0.
         13    1    3    3    0    0 -0.25554341325E+02 -0.23192875122E+02  0.20569170190E+02  0.40175063701E+02  0.10566000000E+00 0.  1.
         22    1    1    0    0    0 -0.23449819582E+02  0.10507149625E+02 -0.22519775499E+02  0.34167740929E+02  0.00000000000E+00 0.  1.
</event>
<event>
 5    1  0.1320187E-009  0.9118800E+02  0.7818608E-02  0.1130116E+00
         25   -1    0    0    0    0  0.00000000000E+00  0.00000000000E+00  0.99999998245E-14  0.12500000000E+03  0.12500000000E+03 0.  0.
        -13    1    3    3    0    0  0.12185468818E+02 -0.52369501965E+01 -0.57856350808E+02  0.59357221890E+02  0.10566000000E+00 0.  1.
         23    2    1    0    0    0 -0.19904050544E+01 -0.14077437331E+02 -0.24183253612E+02  0.96947090893E+02  0.92799637517E+02 0.  0.
         13    1    3    3    0    0 -0.14175873873E+02 -0.88404871349E+01  0.33673097196E+02  0.37589869003E+02  0.10566000000E+00 0. -1.
         22    1    1    0    0    0  0.19904050544E+01  0.14077437331E+02  0.24183253612E+02  0.28052909107E+02  0.00000000000E+00 0.  1.
</event>
<event>
 5    1  0.1320187E-009  0.9118800E+02  0.7818608E-02  0.1130116E+00
         25   -1    0    0    0    0  0.00000000000E+00  0.00000000000E+00  0.99999998245E-14  0.12500000000E+03  0.12500000000E+03 0.  0.
        -13    1    3    3    0    0 -0.46800765696E+01 -0.51583958395E+02  0.12917027802E+02  0.53382287809E+02  0.10566000000E+00 0. -1.
         23    2    1    0    0    0 -0.15789978391E+02 -0.20879529843E+02 -0.13649615167E+02  0.95477293853E+02  0.90798256940E+02 0.  0.
         13    1    3    3    0    0 -0.11109901821E+02  0.30704428552E+02 -0.26566642969E+02  0.42095006044E+02  0.10566000000E+00 0.  1.
         22    1    1    0    0    0  0.15789978391E+02  0.20879529843E+02  0.13649615167E+02  0.29522706147E+02  0.00000000000E+00 0. -1.
</event>
<event>
 5    1  0.1320187E-009  0.9118800E+02  0.7818608E-02  0.1130116E+00
         25   -1    0    0    0    0  0.00000000000E+00  0.00000000000E+00  0.99999998245E-14  0.12500000000E+03  0.12500000000E+03 0.  0.
        -13    1    3    3    0    0  0.91201848997E+01  0.29397442527E+02  0.51907735532E+02  0.60347423903E+02  0.10566000000E+00 0. -1.
         23    2    1    0    0    0 -0.42391446745E+01  0.48568619110E+01  0.25158259962E+02  0.99028910314E+02  0.95562689259E+02 0.  0.
         13    1    3    3    0    0 -0.13359329574E+02 -0.24540580616E+02 -0.26749475570E+02  0.38681486410E+02  0.10566000000E+00 0.  1.
         22    1    1    0    0    0  0.42391446745E+01 -0.48568619110E+01 -0.25158259962E+02  0.25971089686E+02  0.00000000000E+00 0. -1.
</event>
<event>
 5    1  0.1320187E-009  0.9118800E+02  0.7818608E-02  0.1130116E+00
         25   -1    0    0    0    0  0.00000000000E+00  0.00000000000E+00  0.99999998245E-14  0.12500000000E+03  0.12500000000E+03 0.  0.
        -13    1    3    3    0    0  0.11125598411E+02  0.21322428688E+02 -0.51023838516E+02  0.56408050543E+02  0.10566000000E+00 0. -1.
         23    2    1    0    0    0  0.16735307137E+02 -0.59553685723E+01 -0.23267585007E+02  0.95726847934E+02  0.91141165142E+02 0.  0.
         13    1    3    3    0    0  0.56097087265E+01 -0.27277797260E+02  0.27756253509E+02  0.39318797391E+02  0.10566000000E+00 0.  1.
         22    1    1    0    0    0 -0.16735307137E+02  0.59553685723E+01  0.23267585007E+02  0.29273152066E+02  0.00000000000E+00 0. -1.
</event>
<event>
 5    1  0.1320187E-009  0.9118800E+02  0.7818608E-02  0.1130116E+00
         25   -1    0    0    0    0  0.00000000000E+00  0.00000000000E+00  0.99999998245E-14  0.12500000000E+03  0.12500000000E+03 0.  0.
        -13    1    3    3    0    0  0.33285430037E+02 -0.19483814629E+02  0.42625300746E+02  0.57484487586E+02  0.10566000000E+00 0. -1.
         23    2    1    0    0    0  0.28293976050E+01 -0.21496183370E+02  0.20278161276E+02  0.95313383234E+02  0.90572323634E+02 0.  0.
         13    1    3    3    0    0 -0.30456032432E+02 -0.20123687405E+01 -0.22347139469E+02  0.37828895648E+02  0.10566000000E+00 0.  1.
         22    1    1    0    0    0 -0.28293976050E+01  0.21496183370E+02 -0.20278161276E+02  0.29686616766E+02  0.00000000000E+00 0.  1.
</event>
<event>
 5    1  0.1320187E-009  0.9118800E+02  0.7818608E-02  0.1130116E+00
         25   -1    0    0    0    0  0.00000000000E+00  0.00000000000E+00  0.99999998245E-14  0.12500000000E+03  0.12500000000E+03 0.  0.
        -13    1    3    3    0    0  0.60538632612E+02 -0.69486286193E+01 -0.34612631745E+01  0.61034424590E+02  0.10566000000E+00 0. -1.
         23    2    1    0    0    0  0.27704955398E+02 -0.18484540145E+00 -0.10646797994E+02  0.95319147099E+02  0.90580278067E+02 0.  0.
         13    1    3    3    0    0 -0.32833677214E+02  0.67637832179E+01 -0.71855348200E+01  0.34284722509E+02  0.10566000000E+00 0.  1.
         22    1    1    0    0    0 -0.27704955398E+02  0.18484540145E+00  0.10646797994E+02  0.29680852901E+02  0.00000000000E+00 0. -1.
</event>
<event>
 5    1  0.1320187E-009  0.9118800E+02  0.7818608E-02  0.1130116E+00
         25   -1    0    0    0    0  0.00000000000E+00  0.00000000000E+00  0.99999998245E-14  0.12500000000E+03  0.12500000000E+03 0.  0.
        -13    1    3    3    0    0  0.28721689985E+02 -0.32053662983E+02  0.32212448400E+02  0.53758960018E+02  0.10566000000E+00 0. -1.
         23    2    1    0    0    0  0.31003260960E+02 -0.54335306562E+01  0.29463899524E+01  0.93386606331E+02  0.87872928611E+02 0.  0.
         13    1    3    3    0    0  0.22815709745E+01  0.26620132327E+02 -0.29266058448E+02  0.39627646313E+02  0.10566000000E+00 0.  1.
         22    1    1    0    0    0 -0.31003260960E+02  0.54335306562E+01 -0.29463899524E+01  0.31613393669E+02  0.00000000000E+00 0. -1.
</event>
<event>
 5    1  0.1320187E-009  0.9118800E+02  0.7818608E-02  0.1130116E+00
         25   -1    0    0    0    0  0.00000000000E+00  0.00000000000E+00  0.99999998245E-14  0.12500000000E+03  0.12500000000E+03 0.  0.
        -13    1    3    3    0    0  0.81832325847E+01 -0.28476881736E+02  0.54902225870E+02  0.62387207490E+02  0.10566000000E+00 0. -1.
         23    2    1    0    0    0  0.37878031686E+01 -0.12867974790E+02  0.30430353318E+02  0.91744344374E+02  0.85504889296E+02 0.  0.
         13    1    3    3    0    0 -0.43954294161E+01  0.15608906945E+02 -0.24471872552E+02  0.29357136884E+02  0.10566000000E+00 0.  1.
         22    1    1    0    0    0 -0.37878031686E+01  0.12867974790E+02 -0.30430353318E+02  0.33255655626E+02  0.00000000000E+00 0. -1.
</event>
<event>
 5    1  0.1320187E-009  0.9118800E+02  0.7818608E-02  0.1130116E+00
         25   -1    0    0    0    0  0.00000000000E+00  0.00000000000E+00  0.99999998245E-14  0.12500000000E+03  0.12500000000E+03 0.  0.
        -13    1    3    3    0    0  0.20285203487E+02  0.26194301399E+02 -0.12338266701E+02  0.35353569770E+02  0.10566000000E+00 0. -1.
         23    2    1    0    0    0 -0.27619388129E+02 -0.92139598749E+01 -0.19859629684E+01  0.95816585085E+02  0.91264156552E+02 0.  0.
         13    1    3    3    0    0 -0.47904591616E+02 -0.35408261274E+02  0.10352303733E+02  0.60463015315E+02  0.10566000000E+00 0.  1.
         22    1    1    0    0    0  0.27619388129E+02  0.92139598749E+01  0.19859629684E+01  0.29183414915E+02  0.00000000000E+00 0.  1.
</event>
<event>
 5    1  0.1320187E-009  0.9118800E+02  0.7818608E-02  0.1130116E+00
         25   -1    0    0    0    0  0.00000000000E+00  0.00000000000E+00  0.99999998245E-14  0.12500000000E+03  0.12500000000E+03 0.  0.
        -13    1    3    3    0    0 -0.62076851169E+01 -0.48136025400E+02  0.32598124913E+02  0.58465897818E+02  0.10566000000E+00 0.  1.
         23    2    1    0    0    0 -0.14104464155E+02 -0.12915521202E+02  0.21492183477E+02  0.96230909857E+02  0.91829883286E+02 0.  0.
         13    1    3    3    0    0 -0.78967790382E+01  0.35220504198E+02 -0.11105941436E+02  0.37765012039E+02  0.10566000000E+00 0. -1.
         22    1    1    0    0    0  0.14104464155E+02  0.12915521202E+02 -0.21492183477E+02  0.28769090143E+02  0.00000000000E+00 0.  1.
</event>
<event>
 5    1  0.1320187E-009  0.9118800E+02  0.7818608E-02  0.1130116E+00
         25   -1    0    0    0    0  0.00000000000E+00  0.00000000000E+00  0.99999998245E-14  0.12500000000E+03  0.12500000000E+03 0.  0.
        -13    1    3    3    0    0 -0.54145592743E+02 -0.16424442400E+02 -0.24049780201E+02  0.61480977654E+02  0.10566000000E+00 0.  1.
         23    2    1    0    0    0 -0.21002554026E+02 -0.13036725434E+02 -0.15306537727E+02  0.95925035118E+02  0.91412574516E+02 0.  0.
         13    1    3    3    0    0  0.33143038716E+02  0.33877169655E+01  0.87432424737E+01  0.34444057464E+02  0.10566000000E+00 0. -1.
         22    1    1    0    0    0  0.21002554026E+02  0.13036725434E+02  0.15306537727E+02  0.29074964882E+02  0.00000000000E+00 0.  1.
</event>
<event>
 5    1  0.1320187E-009  0.9118800E+02  0.7818608E-02  0.1130116E+00
         25   -1    0    0    0    0  0.00000000000E+00  0.00000000000E+00  0.99999998245E-14  0.12500000000E+03  0.12500000000E+03 0.  0.
        -13    1    3    3    0    0 -0.31643037059E+02  0.31238664260E+02  0.12617661518E+02  0.46220693258E+02  0.10566000000E+00 0.  1.
         23    2    1    0    0    0  0.13418695694E+02  0.10910974225E+02  0.22487525313E+02  0.96631010815E+02  0.92372900267E+02 0.  0.
         13    1    3    3    0    0  0.45061732752E+02 -0.20327690035E+02  0.98698637953E+01  0.50410317557E+02  0.10566000000E+00 0. -1.
         22    1    1    0    0    0 -0.13418695694E+02 -0.10910974225E+02 -0.22487525313E+02  0.28368989185E+02  0.00000000000E+00 0. -1.
</event>
<event>
 5    1  0.1320187E-009  0.9118800E+02  0.7818608E-02  0.1130116E+00
         25   -1    0    0    0    0  0.00000000000E+00  0.00000000000E+00  0.99999998245E-14  0.12500000000E+03  0.12500000000E+03 0.  0.
        -13    1    3    3    0    0  0.33428482403E+02  0.25420586063E+02  0.15165122112E+00  0.41996473586E+02  0.10566000000E+00 0.  1.
         23    2    1    0    0    0 -0.80068891914E+01  0.12803855838E+02 -0.27671044934E+02  0.93476425860E+02  0.88000604912E+02 0.  0.
         13    1    3    3    0    0 -0.41435371594E+02 -0.12616730225E+02 -0.27822696155E+02  0.51479952274E+02  0.10566000000E+00 0. -1.
         22    1    1    0    0    0  0.80068891914E+01 -0.12803855838E+02  0.27671044934E+02  0.31523574140E+02  0.00000000000E+00 0. -1.
</event>
<event>
 5    1  0.1320187E-009  0.9118800E+02  0.7818608E-02  0.1130116E+00
         25   -1    0    0    0    0  0.00000000000E+00  0.00000000000E+00  0.99999998245E-14  0.12500000000E+03  0.12500000000E+03 0.  0.
        -13    1    3    3    0    0 -0.20562080715E+01 -0.53637320704E+02 -0.11837525575E+02  0.54966611135E+02  0.10566000000E+00 0. -1.
         23    2    1    0    0    0  0.18752053758E+02 -0.16930663999E+02 -0.11692063985E+02  0.97161335093E+02  0.93087774564E+02 0.  0.
         13    1    3    3    0    0  0.20808261829E+02  0.36706656704E+02  0.14546159023E+00  0.42194723958E+02  0.10566000000E+00 0.  1.
         22    1    1    0    0    0 -0.18752053758E+02  0.16930663999E+02  0.11692063985E+02  0.27838664907E+02  0.00000000000E+00 0.  1.
</event>
<event>
 5    1  0.1320187E-009  0.9118800E+02  0.7818608E-02  0.1130116E+00
         25   -1    0    0    0    0  0.00000000000E+00  0.00000000000E+00  0.99999998245E-14  0.12500000000E+03  0.12500000000E+03 0.  0.
        -13    1    3    3    0    0  0.58394109766E+02  0.98312621683E+01  0.16668876570E+02  0.61517382757E+02  0.10566000000E+00 0.  1.
         23    2    1    0    0    0  0.28843218966E+02 -0.25606325853E+01  0.50301628735E+01  0.95609684281E+02  0.90980333426E+02 0.  0.
         13    1    3    3    0    0 -0.29550890800E+02 -0.12391894754E+02 -0.11638713696E+02  0.34092301524E+02  0.10566000000E+00 0. -1.
         22    1    1    0    0    0 -0.28843218966E+02  0.25606325853E+01 -0.50301628735E+01  0.29390315719E+02  0.00000000000E+00 0.  1.
</event>
<event>
 5    1  0.1320187E-009  0.9118800E+02  0.7818608E-02  0.1130116E+00
         25   -1    0    0    0    0  0.00000000000E+00  0.00000000000E+00  0.99999998245E-14  0.12500000000E+03  0.12500000000E+03 0.  0.
        -13    1    3    3    0    0 -0.18702771770E+02 -0.40124156545E+02  0.42434202404E+02  0.61322217084E+02  0.10566000000E+00 0.  1.
         23    2    1    0    0    0 -0.78493700286E+00 -0.21752862775E+02  0.20917443323E+02  0.94811548563E+02  0.89877066824E+02 0.  0.
         13    1    3    3    0    0  0.17917834767E+02  0.18371293770E+02 -0.21516759081E+02  0.33489331480E+02  0.10566000000E+00 0. -1.
         22    1    1    0    0    0  0.78493700286E+00  0.21752862775E+02 -0.20917443323E+02  0.30188451437E+02  0.00000000000E+00 0.  1.
</event>
<event>
 4    1  0.1320187E-009  0.9118800E+02  0.7818608E-02  0.1130116E+00
         25   -1    0    0    0    0  0.00000000000E+00  0.00000000000E+00  0.99999998245E-14  0.12500000000E+03  0.12500000000E+03 0.  0.
        -13    1    1    0    0    0 -0.14037786057E+02 -0.14481706426E+02 -0.23446721662E+02  0.30927967588E+02  0.10566000000E+00 0. -1.
         13    1    1    0    0    0 -0.26208529912E+02 -0.19531397935E+02  0.25318360827E+02  0.41344807466E+02  0.10566000000E+00 0.  1.
         22    1    1    0    0    0  0.40246315969E+02  0.34013104360E+02 -0.18716391653E+01  0.52727224946E+02  0.00000000000E+00 0.  1.
</event>
<event>
 5    1  0.1320187E-009  0.9118800E+02  0.7818608E-02  0.1130116E+00
         25   -1    0    0    0    0  0.00000000000E+00  0.00000000000E+00  0.99999998245E-14  0.12500000000E+03  0.12500000000E+03 0.  0.
        -13    1    3    3    0    0  0.34288883973E+02  0.85130591181E+01  0.50515183206E+02  0.61644096538E+02  0.10566000000E+00 0. -1.
         23    2    1    0    0    0  0.13271056540E+02 -0.16492432273E+01  0.27467254097E+02  0.94450188339E+02  0.89373078075E+02 0.  0.
         13    1    3    3    0    0 -0.21017827433E+02 -0.10162302345E+02 -0.23047929109E+02  0.32806091800E+02  0.10566000000E+00 0.  1.
         22    1    1    0    0    0 -0.13271056540E+02  0.16492432273E+01 -0.27467254097E+02  0.30549811661E+02  0.00000000000E+00 0. -1.
</event>
<event>
 5    1  0.1320187E-009  0.9118800E+02  0.7818608E-02  0.1130116E+00
         25   -1    0    0    0    0  0.00000000000E+00  0.00000000000E+00  0.99999998245E-14  0.12500000000E+03  0.12500000000E+03 0.  0.
        -13    1    3    3    0    0 -0.18836534565E+02  0.49309392458E+02  0.22825002404E+02  0.57508461271E+02  0.10566000000E+00 0.  1.
         23    2    1    0    0    0 -0.15221607107E+02  0.23181919155E+02 -0.60478709074E+01  0.96615577491E+02  0.92352013367E+02 0.  0.
         13    1    3    3    0    0  0.36149274580E+01 -0.26127473303E+02 -0.28872873312E+02  0.39107116220E+02  0.10566000000E+00 0. -1.
         22    1    1    0    0    0  0.15221607107E+02 -0.23181919155E+02  0.60478709074E+01  0.28384422509E+02  0.00000000000E+00 0.  1.
</event>
<event>
 5    1  0.1320187E-009  0.9118800E+02  0.7818608E-02  0.1130116E+00
         25   -1    0    0    0    0  0.00000000000E+00  0.00000000000E+00  0.99999998245E-14  0.12500000000E+03  0.12500000000E+03 0.  0.
        -13    1    3    3    0    0 -0.16134912363E+02 -0.26531043772E+02  0.15031810962E+02  0.34499249056E+02  0.10566000000E+00 0.  1.
         23    2    1    0    0    0  0.67946138698E+00  0.29526329270E+02 -0.18430665391E+01  0.95408401831E+02  0.90703365195E+02 0.  0.
         13    1    3    3    0    0  0.16814373750E+02  0.56057373042E+02 -0.16874877501E+02  0.60909152775E+02  0.10566000000E+00 0. -1.
         22    1    1    0    0    0 -0.67946138698E+00 -0.29526329270E+02  0.18430665391E+01  0.29591598169E+02  0.00000000000E+00 0. -1.
</event>
<event>
 5    1  0.1320187E-009  0.9118800E+02  0.7818608E-02  0.1130116E+00
         25   -1    0    0    0    0  0.00000000000E+00  0.00000000000E+00  0.99999998245E-14  0.12500000000E+03  0.12500000000E+03 0.  0.
        -13    1    3    3    0    0 -0.42098846879E+02  0.25449365062E+02 -0.32259543873E+02  0.58827480190E+02  0.10566000000E+00 0. -1.
         23    2    1    0    0    0 -0.23670489876E+02  0.19963472946E+02 -0.29316274735E+01  0.93896514943E+02  0.88595308768E+02 0.  0.
         13    1    3    3    0    0  0.18428357003E+02 -0.54858921154E+01  0.29327916400E+02  0.35069034753E+02  0.10566000000E+00 0.  1.
         22    1    1    0    0    0  0.23670489876E+02 -0.19963472946E+02  0.29316274735E+01  0.31103485057E+02  0.00000000000E+00 0. -1.
</event>
<event>
 5    1  0.1320187E-009  0.9118800E+02  0.7818608E-02  0.1130116E+00
         25   -1    0    0    0    0  0.00000000000E+00  0.00000000000E+00  0.99999998245E-14  0.12500000000E+03  0.12500000000E+03 0.  0.
        -13    1    3    3    0    0  0.28930834504E+02 -0.43422718425E+02  0.25639270239E+02  0.58136984811E+02  0.10566000000E+00 0.  1.
         23    2    1    0    0    0 -0.29484090290E+01 -0.23684024365E+02  0.13664694007E+02  0.97498182092E+02  0.93539005356E+02 0.  0.
         13    1    3    3    0    0 -0.31879243533E+02  0.19738694059E+02 -0.11974576232E+02  0.39361197281E+02  0.10566000000E+00 0. -1.
         22    1    1    0    0    0  0.29484090290E+01  0.23684024365E+02 -0.13664694007E+02  0.27501817908E+02  0.00000000000E+00 0.  1.
</event>
<event>
 5    1  0.1320187E-009  0.9118800E+02  0.7818608E-02  0.1130116E+00
         25   -1    0    0    0    0  0.00000000000E+00  0.00000000000E+00  0.99999998245E-14  0.12500000000E+03  0.12500000000E+03 0.  0.
        -13    1    3    3    0    0  0.84465369903E+01  0.41206495203E+02 -0.25803541307E+01  0.42142480059E+02  0.10566000000E+00 0.  1.
         23    2    1    0    0    0  0.23735707636E+02 -0.42330840902E+01  0.18593528946E+02  0.94552961777E+02  0.89516704834E+02 0.  0.
         13    1    3    3    0    0  0.15289170645E+02 -0.45439579293E+02  0.21173883077E+02  0.52410481718E+02  0.10566000000E+00 0. -1.
         22    1    1    0    0    0 -0.23735707636E+02  0.42330840902E+01 -0.18593528946E+02  0.30447038223E+02  0.00000000000E+00 0.  1.
</event>
<event>
 5    1  0.1320187E-009  0.9118800E+02  0.7818608E-02  0.1130116E+00
         25   -1    0    0    0    0  0.00000000000E+00  0.00000000000E+00  0.99999998245E-14  0.12500000000E+03  0.12500000000E+03 0.  0.
        -13    1    3    3    0    0  0.21721168709E+02  0.23255723782E+02 -0.13009216017E+02  0.34378608525E+02  0.10566000000E+00 0.  1.
         23    2    1    0    0    0 -0.52970304575E+01 -0.27943844036E+02  0.71398601309E+01  0.95676041299E+02  0.91071457245E+02 0.  0.
         13    1    3    3    0    0 -0.27018199167E+02 -0.51199567818E+02  0.20149076148E+02  0.61297432774E+02  0.10566000000E+00 0. -1.
         22    1    1    0    0    0  0.52970304575E+01  0.27943844036E+02 -0.71398601309E+01  0.29323958701E+02  0.00000000000E+00 0. -1.
</event>
<event>
 5    1  0.1320187E-009  0.9118800E+02  0.7818608E-02  0.1130116E+00
         25   -1    0    0    0    0  0.00000000000E+00  0.00000000000E+00  0.99999998245E-14  0.12500000000E+03  0.12500000000E+03 0.  0.
        -13    1    3    3    0    0  0.32142549200E+01  0.28476808170E+02  0.28318359664E+02  0.40288964945E+02  0.10566000000E+00 0. -1.
         23    2    1    0    0    0  0.21912256767E+02  0.11013812818E+02 -0.18929827068E+02  0.94019531601E+02  0.88768704509E+02 0.  0.
         13    1    3    3    0    0  0.18698001847E+02 -0.17462995351E+02 -0.47248186732E+02  0.53730566656E+02  0.10566000000E+00 0.  1.
         22    1    1    0    0    0 -0.21912256767E+02 -0.11013812818E+02  0.18929827068E+02  0.30980468399E+02  0.00000000000E+00 0.  1.
</event>
<event>
 5    1  0.1320187E-009  0.9118800E+02  0.7818608E-02  0.1130116E+00
         25   -1    0    0    0    0  0.00000000000E+00  0.00000000000E+00  0.99999998245E-14  0.12500000000E+03  0.12500000000E+03 0.  0.
        -13    1    3    3    0    0 -0.14090733216E+02 -0.91798429826E+01 -0.42198724797E+02  0.45426444042E+02  0.10566000000E+00 0.  1.
         23    2    1    0    0    0 -0.16685653477E+02  0.25240283739E+02 -0.87233676472E+01  0.93510635156E+02  0.88049183920E+02 0.  0.
         13    1    3    3    0    0 -0.25949202612E+01  0.34420126721E+02  0.33475357150E+02  0.48084191114E+02  0.10566000000E+00 0. -1.
         22    1    1    0    0    0  0.16685653477E+02 -0.25240283739E+02  0.87233676472E+01  0.31489364844E+02  0.00000000000E+00 0.  1.
</event>
<event>
 5    1  0.1320187E-009  0.9118800E+02  0.7818608E-02  0.1130116E+00
         25   -1    0    0    0    0  0.00000000000E+00  0.00000000000E+00  0.99999998245E-14  0.12500000000E+03  0.12500000000E+03 0.  0.
        -13    1    3    3    0    0 -0.21564222085E+02  0.24969046953E+02 -0.24365657750E+02  0.41014209995E+02  0.10566000000E+00 0.  1.
         23    2    1    0    0    0 -0.42625425961E+01  0.15254880233E+02  0.25667706452E+02  0.94838571075E+02  0.89914641570E+02 0.  0.
         13    1    3    3    0    0  0.17301679489E+02 -0.97141667198E+01  0.50033364202E+02  0.53824361080E+02  0.10566000000E+00 0. -1.
         22    1    1    0    0    0  0.42625425961E+01 -0.15254880233E+02 -0.25667706452E+02  0.30161428925E+02  0.00000000000E+00 0. -1.
</event>
<event>
 5    1  0.1320187E-009  0.9118800E+02  0.7818608E-02  0.1130116E+00
         25   -1    0    0    0    0  0.00000000000E+00  0.00000000000E+00  0.99999998245E-14  0.12500000000E+03  0.12500000000E+03 0.  0.
        -13    1    3    3    0    0  0.10865560804E+02 -0.30872098780E+02  0.22409343146E+02  0.39665308759E+02  0.10566000000E+00 0.  1.
         23    2    1    0    0    0  0.19905558051E+02  0.21225294051E+02  0.41421360446E+01  0.95607796274E+02  0.90977739411E+02 0.  0.
         13    1    3    3    0    0  0.90399972468E+01  0.52097392831E+02 -0.18267207101E+02  0.55942487515E+02  0.10566000000E+00 0. -1.
         22    1    1    0    0    0 -0.19905558051E+02 -0.21225294051E+02 -0.41421360446E+01  0.29392203726E+02  0.00000000000E+00 0. -1.
</event>
<event>
 5    1  0.1320187E-009  0.9118800E+02  0.7818608E-02  0.1130116E+00
         25   -1    0    0    0    0  0.00000000000E+00  0.00000000000E+00  0.99999998245E-14  0.12500000000E+03  0.12500000000E+03 0.  0.
        -13    1    3    3    0    0  0.40571715064E+02 -0.19943644858E+02 -0.16115158602E+02  0.47995026141E+02  0.10566000000E+00 0. -1.
         23    2    1    0    0    0  0.91320754522E+01 -0.19732829481E+02  0.19704886000E+02  0.95656143851E+02  0.91044142935E+02 0.  0.
         13    1    3    3    0    0 -0.31439639612E+02  0.21081537692E+00  0.35820044602E+02  0.47661117710E+02  0.10566000000E+00 0.  1.
         22    1    1    0    0    0 -0.91320754522E+01  0.19732829481E+02 -0.19704886000E+02  0.29343856149E+02  0.00000000000E+00 0.  1.
</event>
<event>
 5    1  0.1320187E-009  0.9118800E+02  0.7818608E-02  0.1130116E+00
         25   -1    0    0    0    0  0.00000000000E+00  0.00000000000E+00  0.99999998245E-14  0.12500000000E+03  0.12500000000E+03 0.  0.
        -13    1    3    3    0    0  0.33540648169E+02 -0.34359443394E+01 -0.15986185073E+02  0.37314207352E+02  0.10566000000E+00 0.  1.
         23    2    1    0    0    0 -0.13047519838E+02  0.27293195639E+02 -0.31201290845E+01  0.94587971004E+02  0.89565577936E+02 0.  0.
         13    1    3    3    0    0 -0.46588168007E+02  0.30729139979E+02  0.12866055989E+02  0.57273763652E+02  0.10566000000E+00 0. -1.
         22    1    1    0    0    0  0.13047519838E+02 -0.27293195639E+02  0.31201290845E+01  0.30412028996E+02  0.00000000000E+00 0. -1.
</event>
<event>
 5    1  0.1320187E-009  0.9118800E+02  0.7818608E-02  0.1130116E+00
         25   -1    0    0    0    0  0.00000000000E+00  0.00000000000E+00  0.99999998245E-14  0.12500000000E+03  0.12500000000E+03 0.  0.
        -13    1    3    3    0    0  0.22851298961E+02 -0.47599704315E+02 -0.26781935407E+02  0.59204703726E+02  0.10566000000E+00 0.  1.
         23    2    1    0    0    0  0.13289769777E+02 -0.26259960728E+02  0.10421173428E+01  0.95550220261E+02  0.90898597707E+02 0.  0.
         13    1    3    3    0    0 -0.95615291840E+01  0.21339743587E+02  0.27824052750E+02  0.36345516535E+02  0.10566000000E+00 0. -1.
         22    1    1    0    0    0 -0.13289769777E+02  0.26259960728E+02 -0.10421173428E+01  0.29449779739E+02  0.00000000000E+00 0.  1.
</event>
<event>
 5    1  0.1320187E-009  0.9118800E+02  0.7818608E-02  0.1130116E+00
         25   -1    0    0    0    0  0.00000000000E+00  0.00000000000E+00  0.99999998245E-14  0.12500000000E+03  0.12500000000E+03 0.  0.
        -13    1    3    3    0    0  0.30334944172E+02  0.17267388875E+02  0.13797618442E+02  0.37533411718E+02  0.10566000000E+00 0. -1.
         23    2    1    0    0    0 -0.24973225366E+02 -0.28839404517E+01  0.13640503704E+02  0.96398558795E+02  0.92057806289E+02 0.  0.
         13    1    3    3    0    0 -0.55308169538E+02 -0.20151329327E+02 -0.15711473765E+00  0.58865147077E+02  0.10566000000E+00 0.  1.
         22    1    1    0    0    0  0.24973225366E+02  0.28839404517E+01 -0.13640503704E+02  0.28601441205E+02  0.00000000000E+00 0.  1.
</event>
<event>
 5    1  0.1320187E-009  0.9118800E+02  0.7818608E-02  0.1130116E+00
         25   -1    0    0    0    0  0.00000000000E+00  0.00000000000E+00  0.99999998245E-14  0.12500000000E+03  0.12500000000E+03 0.  0.
        -13    1    3    3    0    0 -0.36480409623E+02 -0.14235288994E+02  0.20912872634E+02  0.44393953922E+02  0.10566000000E+00 0. -1.
         23    2    1    0    0    0 -0.15249483187E+02  0.10027898729E+02 -0.20938331491E+02  0.97223765266E+02  0.93171569249E+02 0.  0.
         13    1    3    3    0    0  0.21230926437E+02  0.24263187722E+02 -0.41851204125E+02  0.52829811343E+02  0.10566000000E+00 0.  1.
         22    1    1    0    0    0  0.15249483187E+02 -0.10027898729E+02  0.20938331491E+02  0.27776234734E+02  0.00000000000E+00 0.  1.
</event>
<event>
 5    1  0.1320187E-009  0.9118800E+02  0.7818608E-02  0.1130116E+00
         25   -1    0    0    0    0  0.00000000000E+00  0.00000000000E+00  0.99999998245E-14  0.12500000000E+03  0.12500000000E+03 0.  0.
        -13    1    3    3    0    0 -0.15638753220E+02  0.27211575675E+02 -0.46444309741E+02  0.56054665500E+02  0.10566000000E+00 0.  1.
         23    2    1    0    0    0 -0.13049167530E+01 -0.54237694001E+01 -0.28496113215E+02  0.95962979654E+02  0.91464446172E+02 0.  0.
         13    1    3    3    0    0  0.14333836467E+02 -0.32635345075E+02  0.17948196527E+02  0.39908314154E+02  0.10566000000E+00 0. -1.
         22    1    1    0    0    0  0.13049167530E+01  0.54237694001E+01  0.28496113215E+02  0.29037020346E+02  0.00000000000E+00 0.  1.
</event>
<event>
 5    1  0.1320187E-009  0.9118800E+02  0.7818608E-02  0.1130116E+00
         25   -1    0    0    0    0  0.00000000000E+00  0.00000000000E+00  0.99999998245E-14  0.12500000000E+03  0.12500000000E+03 0.  0.
        -13    1    3    3    0    0 -0.89958996047E+01 -0.47111050346E+02 -0.34719512537E+02  0.59210075065E+02  0.10566000000E+00 0.  1.
         23    2    1    0    0    0  0.84490755231E+01 -0.16321039782E+02 -0.20815524535E+02  0.97232225901E+02  0.93182919439E+02 0.  0.
         13    1    3    3    0    0  0.17444975128E+02  0.30790010564E+02  0.13903988002E+02  0.38022150835E+02  0.10566000000E+00 0. -1.
         22    1    1    0    0    0 -0.84490755231E+01  0.16321039782E+02  0.20815524535E+02  0.27767774099E+02  0.00000000000E+00 0.  1.
</event>
<event>
 5    1  0.1320187E-009  0.9118800E+02  0.7818608E-02  0.1130116E+00
         25   -1    0    0    0    0  0.00000000000E+00  0.00000000000E+00  0.99999998245E-14  0.12500000000E+03  0.12500000000E+03 0.  0.
        -13    1    3    3    0    0 -0.30738287822E+02 -0.17562349073E+02  0.36070453095E+01  0.35585114628E+02  0.10566000000E+00 0.  1.
         23    2    1    0    0    0  0.23920297093E+02 -0.21902372067E+02 -0.79192384915E+01  0.91614241756E+02  0.85314479657E+02 0.  0.
         13    1    3    3    0    0  0.54658584915E+02 -0.43400229943E+01 -0.11526283801E+02  0.56029127129E+02  0.10566000000E+00 0. -1.
         22    1    1    0    0    0 -0.23920297093E+02  0.21902372067E+02  0.79192384915E+01  0.33385758244E+02  0.00000000000E+00 0. -1.
</event>
<event>
 5    1  0.1320187E-009  0.9118800E+02  0.7818608E-02  0.1130116E+00
         25   -1    0    0    0    0  0.00000000000E+00  0.00000000000E+00  0.99999998245E-14  0.12500000000E+03  0.12500000000E+03 0.  0.
        -13    1    3    3    0    0 -0.35508090836E+02 -0.19483765335E+02  0.32782493170E+02  0.52107049896E+02  0.10566000000E+00 0.  1.
         23    2    1    0    0    0 -0.20727199324E+02 -0.20455911461E+02 -0.74168782254E+01  0.94948857124E+02  0.90067831555E+02 0.  0.
         13    1    3    3    0    0  0.14780891512E+02 -0.97214612592E+00 -0.40199371395E+02  0.42841807228E+02  0.10566000000E+00 0. -1.
         22    1    1    0    0    0  0.20727199324E+02  0.20455911461E+02  0.74168782254E+01  0.30051142876E+02  0.00000000000E+00 0.  1.
</event>
<event>
 5    1  0.1320187E-009  0.9118800E+02  0.7818608E-02  0.1130116E+00
         25   -1    0    0    0    0  0.00000000000E+00  0.00000000000E+00  0.99999998245E-14  0.12500000000E+03  0.12500000000E+03 0.  0.
        -13    1    3    3    0    0 -0.19433348025E+02 -0.21492424282E+02 -0.53103255925E+02  0.60494183777E+02  0.10566000000E+00 0.  1.
         23    2    1    0    0    0 -0.54499164344E+01  0.37115536578E+00 -0.27542456752E+02  0.96921070722E+02  0.92764582037E+02 0.  0.
         13    1    3    3    0    0  0.13983431591E+02  0.21863579648E+02  0.25560799173E+02  0.36426886945E+02  0.10566000000E+00 0. -1.
         22    1    1    0    0    0  0.54499164344E+01 -0.37115536578E+00  0.27542456752E+02  0.28078929278E+02  0.00000000000E+00 0.  1.
</event>
<event>
 5    1  0.1320187E-009  0.9118800E+02  0.7818608E-02  0.1130116E+00
         25   -1    0    0    0    0  0.00000000000E+00  0.00000000000E+00  0.99999998245E-14  0.12500000000E+03  0.12500000000E+03 0.  0.
        -13    1    3    3    0    0  0.64794639656E+01  0.32821980806E+02 -0.25086544991E+02  0.41816405643E+02  0.10566000000E+00 0. -1.
         23    2    1    0    0    0 -0.18065326943E+02 -0.16313579451E+02 -0.64239502982E+01  0.99825488098E+02  0.96599027037E+02 0.  0.
         13    1    3    3    0    0 -0.24544790909E+02 -0.49135560257E+02  0.18662594692E+02  0.58009082455E+02  0.10566000000E+00 0.  1.
         22    1    1    0    0    0  0.18065326943E+02  0.16313579451E+02  0.64239502982E+01  0.25174511902E+02  0.00000000000E+00 0.  1.
</event>
<event>
 5    1  0.1320187E-009  0.9118800E+02  0.7818608E-02  0.1130116E+00
         25   -1    0    0    0    0  0.00000000000E+00  0.00000000000E+00  0.99999998245E-14  0.12500000000E+03  0.12500000000E+03 0.  0.
        -13    1    3    3    0    0  0.16435054039E+01 -0.39168658614E+02 -0.63704307822E+01  0.39717483304E+02  0.10566000000E+00 0.  1.
         23    2    1    0    0    0 -0.25649750127E+02 -0.46845053287E+01  0.21002984236E+02  0.91518966286E+02  0.85174770745E+02 0.  0.
         13    1    3    3    0    0 -0.27293255531E+02  0.34484153286E+02  0.27373415018E+02  0.51801482981E+02  0.10566000000E+00 0. -1.
         22    1    1    0    0    0  0.25649750127E+02  0.46845053287E+01 -0.21002984236E+02  0.33481033714E+02  0.00000000000E+00 0. -1.
</event>
<event>
 5    1  0.1320187E-009  0.9118800E+02  0.7818608E-02  0.1130116E+00
         25   -1    0    0    0    0  0.00000000000E+00  0.00000000000E+00  0.99999998245E-14  0.12500000000E+03  0.12500000000E+03 0.  0.
        -13    1    3    3    0    0 -0.43164013655E+02  0.19814638468E+02  0.27248276025E+02  0.54756110917E+02  0.10566000000E+00 0.  1.
         23    2    1    0    0    0 -0.13553345647E+02 -0.82066062746E+01  0.24766284165E+02  0.95599142936E+02  0.90965849273E+02 0.  0.
         13    1    3    3    0    0  0.29610668008E+02 -0.28021244743E+02 -0.24819918595E+01  0.40843032018E+02  0.10566000000E+00 0. -1.
         22    1    1    0    0    0  0.13553345647E+02  0.82066062746E+01 -0.24766284165E+02  0.29400857064E+02  0.00000000000E+00 0.  1.
</event>
<event>
 5    1  0.1320187E-009  0.9118800E+02  0.7818608E-02  0.1130116E+00
         25   -1    0    0    0    0  0.00000000000E+00  0.00000000000E+00  0.99999998245E-14  0.12500000000E+03  0.12500000000E+03 0.  0.
        -13    1    3    3    0    0  0.34563118964E+02 -0.25283373481E+01 -0.59742107971E+01  0.35166803109E+02  0.10566000000E+00 0. -1.
         23    2    1    0    0    0 -0.22072566071E+02 -0.17070424944E+02  0.92751106046E+01  0.95595489164E+02  0.90960828333E+02 0.  0.
         13    1    3    3    0    0 -0.56635685035E+02 -0.14542087596E+02  0.15249321402E+02  0.60428686055E+02  0.10566000000E+00 0.  1.
         22    1    1    0    0    0  0.22072566071E+02  0.17070424944E+02 -0.92751106046E+01  0.29404510836E+02  0.00000000000E+00 0.  1.
</event>
<event>
 5    1  0.1320187E-009  0.9118800E+02  0.7818608E-02  0.1130116E+00
         25   -1    0    0    0    0  0.00000000000E+00  0.00000000000E+00  0.99999998245E-14  0.12500000000E+03  0.12500000000E+03 0.  0.
        -13    1    3    3    0    0 -0.56901756532E+02  0.28673937819E+00 -0.63354530721E+01  0.57254181031E+02  0.10566000000E+00 0.  1.
         23    2    1    0    0    0 -0.21208607420E+02  0.14731235003E+02 -0.12602457470E+02  0.96266113252E+02  0.91877790096E+02 0.  0.
         13    1    3    3    0    0  0.35693149113E+02  0.14444495625E+02 -0.62670043977E+01  0.39011932220E+02  0.10566000000E+00 0. -1.
         22    1    1    0    0    0  0.21208607420E+02 -0.14731235003E+02  0.12602457470E+02  0.28733886748E+02  0.00000000000E+00 0.  1.
</event>
<event>
 5    1  0.1320187E-009  0.9118800E+02  0.7818608E-02  0.1130116E+00
         25   -1    0    0    0    0  0.00000000000E+00  0.00000000000E+00  0.99999998245E-14  0.12500000000E+03  0.12500000000E+03 0.  0.
        -13    1    3    3    0    0  0.32612376986E+02 -0.17828017507E+02  0.10696890126E+02  0.38676090332E+02  0.10566000000E+00 0.  1.
         23    2    1    0    0    0  0.53107180986E+01  0.94685362104E+01 -0.28990311878E+02  0.94043658364E+02  0.88802672207E+02 0.  0.
         13    1    3    3    0    0 -0.27301658888E+02  0.27296553717E+02 -0.39687202004E+02  0.55367568032E+02  0.10566000000E+00 0. -1.
         22    1    1    0    0    0 -0.53107180986E+01 -0.94685362104E+01  0.28990311878E+02  0.30956341636E+02  0.00000000000E+00 0.  1.
</event>
<event>
 5    1  0.1320187E-009  0.9118800E+02  0.7818608E-02  0.1130116E+00
         25   -1    0    0    0    0  0.00000000000E+00  0.00000000000E+00  0.99999998245E-14  0.12500000000E+03  0.12500000000E+03 0.  0.
        -13    1    3    3    0    0  0.23794762019E+01  0.38513449311E+02  0.43661940809E+02  0.58269408132E+02  0.10566000000E+00 0. -1.
         23    2    1    0    0    0 -0.15086343827E+02  0.17036142715E+02  0.18650826889E+02  0.95577537963E+02  0.90936156124E+02 0.  0.
         13    1    3    3    0    0 -0.17465820029E+02 -0.21477306596E+02 -0.25011113920E+02  0.37308129831E+02  0.10566000000E+00 0.  1.
         22    1    1    0    0    0  0.15086343827E+02 -0.17036142715E+02 -0.18650826889E+02  0.29422462037E+02  0.00000000000E+00 0. -1.
</event>
<event>
 5    1  0.1320187E-009  0.9118800E+02  0.7818608E-02  0.1130116E+00
         25   -1    0    0    0    0  0.00000000000E+00  0.00000000000E+00  0.99999998245E-14  0.12500000000E+03  0.12500000000E+03 0.  0.
        -13    1    3    3    0    0 -0.19519366771E+02  0.25951370807E+02  0.32921643895E+02  0.46242027710E+02  0.10566000000E+00 0.  1.
         23    2    1    0    0    0  0.90079394789E+01  0.23184398392E+02 -0.10279923966E+02  0.98086506373E+02  0.94321930606E+02 0.  0.
         13    1    3    3    0    0  0.28527306250E+02 -0.27669724149E+01 -0.43201567860E+02  0.51844478663E+02  0.10566000000E+00 0. -1.
         22    1    1    0    0    0 -0.90079394789E+01 -0.23184398392E+02  0.10279923966E+02  0.26913493627E+02  0.00000000000E+00 0. -1.
</event>
<event>
 5    1  0.1320187E-009  0.9118800E+02  0.7818608E-02  0.1130116E+00
         25   -1    0    0    0    0  0.00000000000E+00  0.00000000000E+00  0.99999998245E-14  0.12500000000E+03  0.12500000000E+03 0.  0.
        -13    1    3    3    0    0  0.25401941818E+02  0.31117591585E+01  0.26495170721E+02  0.36836760563E+02  0.10566000000E+00 0. -1.
         23    2    1    0    0    0 -0.28253325409E+02  0.66464163747E+01  0.20530288332E+01  0.95902918107E+02  0.91382326118E+02 0.  0.
         13    1    3    3    0    0 -0.53655267227E+02  0.35346572161E+01 -0.24442141888E+02  0.59066157544E+02  0.10566000000E+00 0.  1.
         22    1    1    0    0    0  0.28253325409E+02 -0.66464163747E+01 -0.20530288332E+01  0.29097081893E+02  0.00000000000E+00 0.  1.
</event>
<event>
 5    1  0.1320187E-009  0.9118800E+02  0.7818608E-02  0.1130116E+00
         25   -1    0    0    0    0  0.00000000000E+00  0.00000000000E+00  0.99999998245E-14  0.12500000000E+03  0.12500000000E+03 0.  0.
        -13    1    3    3    0    0  0.28252172898E+02  0.24464049278E+02  0.10179656597E+02  0.38733855385E+02  0.10566000000E+00 0. -1.
         23    2    1    0    0    0  0.11053535911E+02 -0.27706912440E+02 -0.23488949808E+01  0.95077250114E+02  0.90245844937E+02 0.  0.
         13    1    3    3    0    0 -0.17198636987E+02 -0.52170961718E+02 -0.12528551578E+02  0.56343394728E+02  0.10566000000E+00 0.  1.
         22    1    1    0    0    0 -0.11053535911E+02  0.27706912440E+02  0.23488949808E+01  0.29922749886E+02  0.00000000000E+00 0.  1.
</event>
<event>
 5    1  0.1320187E-009  0.9118800E+02  0.7818608E-02  0.1130116E+00
         25   -1    0    0    0    0  0.00000000000E+00  0.00000000000E+00  0.99999998245E-14  0.12500000000E+03  0.12500000000E+03 0.  0.
        -13    1    3    3    0    0 -0.20090906826E+02  0.24524050142E+02  0.36037077639E+02  0.47997455154E+02  0.10566000000E+00 0. -1.
         23    2    1    0    0    0 -0.18147150016E+01  0.28076751579E+02 -0.79503187254E+01  0.95762956073E+02  0.91190673966E+02 0.  0.
         13    1    3    3    0    0  0.18276191824E+02  0.35527014361E+01 -0.43987396364E+02  0.47765500919E+02  0.10566000000E+00 0.  1.
         22    1    1    0    0    0  0.18147150016E+01 -0.28076751579E+02  0.79503187254E+01  0.29237043927E+02  0.00000000000E+00 0. -1.
</event>
<event>
 5    1  0.1320187E-009  0.9118800E+02  0.7818608E-02  0.1130116E+00
         25   -1    0    0    0    0  0.00000000000E+00  0.00000000000E+00  0.99999998245E-14  0.12500000000E+03  0.12500000000E+03 0.  0.
        -13    1    3    3    0    0  0.37144657075E+02 -0.30064181563E+02 -0.11880297405E+02  0.49241579917E+02  0.10566000000E+00 0. -1.
         23    2    1    0    0    0  0.27686622102E+02  0.12033161573E+02  0.24658486425E+01  0.94710951973E+02  0.89737049167E+02 0.  0.
         13    1    3    3    0    0 -0.94580349728E+01  0.42097343136E+02  0.14346146048E+02  0.45469372056E+02  0.10566000000E+00 0.  1.
         22    1    1    0    0    0 -0.27686622102E+02 -0.12033161573E+02 -0.24658486425E+01  0.30289048027E+02  0.00000000000E+00 0.  1.
</event>
<event>
 5    1  0.1320187E-009  0.9118800E+02  0.7818608E-02  0.1130116E+00
         25   -1    0    0    0    0  0.00000000000E+00  0.00000000000E+00  0.99999998245E-14  0.12500000000E+03  0.12500000000E+03 0.  0.
        -13    1    3    3    0    0 -0.40592901587E+02 -0.36632288281E+02 -0.75343905293E+01  0.55194985358E+02  0.10566000000E+00 0. -1.
         23    2    1    0    0    0 -0.16905501724E+02 -0.69706594507E+01 -0.22507242786E+02  0.96000654153E+02  0.91515919589E+02 0.  0.
         13    1    3    3    0    0  0.23687399863E+02  0.29661628830E+02 -0.14972852257E+02  0.40805668796E+02  0.10566000000E+00 0.  1.
         22    1    1    0    0    0  0.16905501724E+02  0.69706594507E+01  0.22507242786E+02  0.28999345847E+02  0.00000000000E+00 0. -1.
</event>
<event>
 5    1  0.1320187E-009  0.9118800E+02  0.7818608E-02  0.1130116E+00
         25   -1    0    0    0    0  0.00000000000E+00  0.00000000000E+00  0.99999998245E-14  0.12500000000E+03  0.12500000000E+03 0.  0.
        -13    1    3    3    0    0 -0.25532502557E+02  0.31302177674E+02  0.13668175815E+02  0.42644638679E+02  0.10566000000E+00 0.  1.
         23    2    1    0    0    0  0.20547082517E+01 -0.72459832000E+01  0.30985997672E+02  0.93111786656E+02  0.87481121757E+02 0.  0.
         13    1    3    3    0    0  0.27587210809E+02 -0.38548160874E+02  0.17317821857E+02  0.50467147976E+02  0.10566000000E+00 0. -1.
         22    1    1    0    0    0 -0.20547082517E+01  0.72459832000E+01 -0.30985997672E+02  0.31888213344E+02  0.00000000000E+00 0.  1.
</event>
<event>
 5    1  0.1320187E-009  0.9118800E+02  0.7818608E-02  0.1130116E+00
         25   -1    0    0    0    0  0.00000000000E+00  0.00000000000E+00  0.99999998245E-14  0.12500000000E+03  0.12500000000E+03 0.  0.
        -13    1    3    3    0    0 -0.33266236699E+02 -0.11472201773E+02 -0.73734940207E+00  0.35196715270E+02  0.10566000000E+00 0. -1.
         23    2    1    0    0    0  0.26786603799E+02 -0.11673197999E+02  0.43209036127E+01  0.95462635482E+02  0.90778074834E+02 0.  0.
         13    1    3    3    0    0  0.60052840498E+02 -0.20099622540E+00  0.50582530148E+01  0.60265920212E+02  0.10566000000E+00 0.  1.
         22    1    1    0    0    0 -0.26786603799E+02  0.11673197999E+02 -0.43209036127E+01  0.29537364518E+02  0.00000000000E+00 0.  1.
</event>
<event>
 5    1  0.1320187E-009  0.9118800E+02  0.7818608E-02  0.1130116E+00
         25   -1    0    0    0    0  0.00000000000E+00  0.00000000000E+00  0.99999998245E-14  0.12500000000E+03  0.12500000000E+03 0.  0.
        -13    1    3    3    0    0  0.26703370611E+02  0.31820886714E+02 -0.37104003945E+02  0.55698807043E+02  0.10566000000E+00 0.  1.
         23    2    1    0    0    0  0.25918778967E+02  0.13796849631E+02 -0.15159177242E+01  0.95598738642E+02  0.90965293715E+02 0.  0.
         13    1    3    3    0    0 -0.78459164418E+00 -0.18024037082E+02  0.35588086220E+02  0.39899931600E+02  0.10566000000E+00 0. -1.
         22    1    1    0    0    0 -0.25918778967E+02 -0.13796849631E+02  0.15159177242E+01  0.29401261358E+02  0.00000000000E+00 0.  1.
</event>
<event>
 5    1  0.1320187E-009  0.9118800E+02  0.7818608E-02  0.1130116E+00
         25   -1    0    0    0    0  0.00000000000E+00  0.00000000000E+00  0.99999998245E-14  0.12500000000E+03  0.12500000000E+03 0.  0.
        -13    1    3    3    0    0  0.85512257022E+00 -0.41351646098E+02 -0.33245385741E+02  0.53065588725E+02  0.10566000000E+00 0.  1.
         23    2    1    0    0    0  0.60733749202E+01  0.79018486830E+00 -0.28564126122E+02  0.95786654143E+02  0.91223152410E+02 0.  0.
         13    1    3    3    0    0  0.52182523500E+01  0.42141830966E+02  0.46812596188E+01  0.42721065418E+02  0.10566000000E+00 0. -1.
         22    1    1    0    0    0 -0.60733749202E+01 -0.79018486830E+00  0.28564126122E+02  0.29213345857E+02  0.00000000000E+00 0. -1.
</event>
<event>
 5    1  0.1320187E-009  0.9118800E+02  0.7818608E-02  0.1130116E+00
         25   -1    0    0    0    0  0.00000000000E+00  0.00000000000E+00  0.99999998245E-14  0.12500000000E+03  0.12500000000E+03 0.  0.
        -13    1    3    3    0    0  0.28575380582E+02  0.15571751555E+02  0.12593433774E+02  0.34894663777E+02  0.10566000000E+00 0. -1.
         23    2    1    0    0    0 -0.13457872917E+02  0.42500809469E+01 -0.27508730492E+02  0.94082241595E+02  0.88856965955E+02 0.  0.
         13    1    3    3    0    0 -0.42033253498E+02 -0.11321670608E+02 -0.40102164266E+02  0.59187577817E+02  0.10566000000E+00 0.  1.
         22    1    1    0    0    0  0.13457872917E+02 -0.42500809469E+01  0.27508730492E+02  0.30917758405E+02  0.00000000000E+00 0.  1.
</event>
<event>
 5    1  0.1320187E-009  0.9118800E+02  0.7818608E-02  0.1130116E+00
         25   -1    0    0    0    0  0.00000000000E+00  0.00000000000E+00  0.99999998245E-14  0.12500000000E+03  0.12500000000E+03 0.  0.
        -13    1    3    3    0    0 -0.65585445276E+01  0.14695247149E+02  0.28343285202E+02  0.32593216705E+02  0.10566000000E+00 0. -1.
         23    2    1    0    0    0  0.20759571266E+02 -0.28578386640E+02  0.34275086864E+01  0.89511525844E+02  0.82175917768E+02 0.  0.
         13    1    3    3    0    0  0.27318115794E+02 -0.43273633790E+02 -0.24915776516E+02  0.56918309139E+02  0.10566000000E+00 0.  1.
         22    1    1    0    0    0 -0.20759571266E+02  0.28578386640E+02 -0.34275086864E+01  0.35488474156E+02  0.00000000000E+00 0.  1.
</event>
<event>
 5    1  0.1320187E-009  0.9118800E+02  0.7818608E-02  0.1130116E+00
         25   -1    0    0    0    0  0.00000000000E+00  0.00000000000E+00  0.99999998245E-14  0.12500000000E+03  0.12500000000E+03 0.  0.
        -13    1    3    3    0    0  0.12844761396E+02  0.13404883374E+02 -0.33870474028E+02  0.38625108006E+02  0.10566000000E+00 0.  1.
         23    2    1    0    0    0 -0.25239912907E+02  0.28534662946E+02 -0.20546386884E+02  0.81716813808E+02  0.69312361466E+02 0.  0.
         13    1    3    3    0    0 -0.38084674303E+02  0.15129779571E+02  0.13324087144E+02  0.43091705802E+02  0.10566000000E+00 0. -1.
         22    1    1    0    0    0  0.25239912907E+02 -0.28534662946E+02  0.20546386884E+02  0.43283186192E+02  0.00000000000E+00 0.  1.
</event>
<event>
 5    1  0.1320187E-009  0.9118800E+02  0.7818608E-02  0.1130116E+00
         25   -1    0    0    0    0  0.00000000000E+00  0.00000000000E+00  0.99999998245E-14  0.12500000000E+03  0.12500000000E+03 0.  0.
        -13    1    3    3    0    0 -0.25430732077E+02 -0.22366777981E+02 -0.46469798389E+02  0.57501723605E+02  0.10566000000E+00 0.  1.
         23    2    1    0    0    0 -0.17777835892E+02  0.63484506301E+01 -0.22110339909E+02  0.95927308255E+02  0.91415682811E+02 0.  0.
         13    1    3    3    0    0  0.76528961853E+01  0.28715228611E+02  0.24359458480E+02  0.38425584650E+02  0.10566000000E+00 0. -1.
         22    1    1    0    0    0  0.17777835892E+02 -0.63484506301E+01  0.22110339909E+02  0.29072691745E+02  0.00000000000E+00 0.  1.
</event>
<event>
 5    1  0.1320187E-009  0.9118800E+02  0.7818608E-02  0.1130116E+00
         25   -1    0    0    0    0  0.00000000000E+00  0.00000000000E+00  0.99999998245E-14  0.12500000000E+03  0.12500000000E+03 0.  0.
        -13    1    3    3    0    0  0.13431930799E+02  0.11719502718E+02 -0.31018283549E+02  0.35775810086E+02  0.10566000000E+00 0. -1.
         23    2    1    0    0    0 -0.24261559827E+02 -0.13999176864E+02  0.80587625380E+01  0.95853063767E+02  0.91314105930E+02 0.  0.
         13    1    3    3    0    0 -0.37693490626E+02 -0.25718679582E+02  0.39077046086E+02  0.60077253682E+02  0.10566000000E+00 0.  1.
         22    1    1    0    0    0  0.24261559827E+02  0.13999176864E+02 -0.80587625380E+01  0.29146936233E+02  0.00000000000E+00 0.  1.
</event>
<event>
 5    1  0.1320187E-009  0.9118800E+02  0.7818608E-02  0.1130116E+00
         25   -1    0    0    0    0  0.00000000000E+00  0.00000000000E+00  0.99999998245E-14  0.12500000000E+03  0.12500000000E+03 0.  0.
        -13    1    3    3    0    0 -0.23571287520E+02 -0.21349321695E+02  0.48976804057E+02  0.58396383722E+02  0.10566000000E+00 0.  1.
         23    2    1    0    0    0 -0.23937264154E+02 -0.11704096953E+02  0.13564694532E+02  0.95100511068E+02  0.90278058060E+02 0.  0.
         13    1    3    3    0    0 -0.36597663341E+00  0.96452247422E+01 -0.35412109525E+02  0.36704127346E+02  0.10566000000E+00 0. -1.
         22    1    1    0    0    0  0.23937264154E+02  0.11704096953E+02 -0.13564694532E+02  0.29899488932E+02  0.00000000000E+00 0.  1.
</event>
<event>
 5    1  0.1320187E-009  0.9118800E+02  0.7818608E-02  0.1130116E+00
         25   -1    0    0    0    0  0.00000000000E+00  0.00000000000E+00  0.99999998245E-14  0.12500000000E+03  0.12500000000E+03 0.  0.
        -13    1    3    3    0    0 -0.14257005631E+01 -0.56504589385E+02 -0.76496338796E+01  0.57037963728E+02  0.10566000000E+00 0. -1.
         23    2    1    0    0    0  0.11539276476E+02 -0.25639888760E+02  0.10339319312E+02  0.95042357886E+02  0.90197502579E+02 0.  0.
         13    1    3    3    0    0  0.12964977039E+02  0.30864700626E+02  0.17988953191E+02  0.38004394158E+02  0.10566000000E+00 0.  1.
         22    1    1    0    0    0 -0.11539276476E+02  0.25639888760E+02 -0.10339319312E+02  0.29957642114E+02  0.00000000000E+00 0. -1.
</event>
<event>
 5    1  0.1320187E-009  0.9118800E+02  0.7818608E-02  0.1130116E+00
         25   -1    0    0    0    0  0.00000000000E+00  0.00000000000E+00  0.99999998245E-14  0.12500000000E+03  0.12500000000E+03 0.  0.
        -13    1    3    3    0    0 -0.32896943295E+01 -0.34584999422E+02 -0.24601648248E+02  0.42569901742E+02  0.10566000000E+00 0.  1.
         23    2    1    0    0    0 -0.28250231856E+02  0.72401339739E+01 -0.35871385951E+01  0.95616965725E+02  0.90990337022E+02 0.  0.
         13    1    3    3    0    0 -0.24960537527E+02  0.41825133396E+02  0.21014509653E+02  0.53047063983E+02  0.10566000000E+00 0. -1.
         22    1    1    0    0    0  0.28250231856E+02 -0.72401339739E+01  0.35871385951E+01  0.29383034275E+02  0.00000000000E+00 0. -1.
</event>
<event>
 5    1  0.1320187E-009  0.9118800E+02  0.7818608E-02  0.1130116E+00
         25   -1    0    0    0    0  0.00000000000E+00  0.00000000000E+00  0.99999998245E-14  0.12500000000E+03  0.12500000000E+03 0.  0.
        -13    1    3    3    0    0 -0.32602508425E+02 -0.20228865767E+02  0.34772454585E+02  0.51780935949E+02  0.10566000000E+00 0.  1.
         23    2    1    0    0    0 -0.18915295102E+02 -0.30662030759E+02  0.18560105793E+01  0.88925170904E+02  0.81279103870E+02 0.  0.
         13    1    3    3    0    0  0.13687213323E+02 -0.10433164992E+02 -0.32916444006E+02  0.37144234955E+02  0.10566000000E+00 0. -1.
         22    1    1    0    0    0  0.18915295102E+02  0.30662030759E+02 -0.18560105793E+01  0.36074829096E+02  0.00000000000E+00 0.  1.
</event>
<event>
 5    1  0.1320187E-009  0.9118800E+02  0.7818608E-02  0.1130116E+00
         25   -1    0    0    0    0  0.00000000000E+00  0.00000000000E+00  0.99999998245E-14  0.12500000000E+03  0.12500000000E+03 0.  0.
        -13    1    3    3    0    0 -0.32267835585E+01  0.55049838534E+02 -0.27145217055E+02  0.61463573177E+02  0.10566000000E+00 0.  1.
         23    2    1    0    0    0 -0.72818234084E+01  0.27996151532E+02 -0.75814851179E+01  0.95095345356E+02  0.90270905274E+02 0.  0.
         13    1    3    3    0    0 -0.40550398499E+01 -0.27053687001E+02  0.19563731937E+02  0.33631772179E+02  0.10566000000E+00 0. -1.
         22    1    1    0    0    0  0.72818234084E+01 -0.27996151532E+02  0.75814851179E+01  0.29904654644E+02  0.00000000000E+00 0.  1.
</event>
<event>
 5    1  0.1320187E-009  0.9118800E+02  0.7818608E-02  0.1130116E+00
         25   -1    0    0    0    0  0.00000000000E+00  0.00000000000E+00  0.99999998245E-14  0.12500000000E+03  0.12500000000E+03 0.  0.
        -13    1    3    3    0    0  0.24111183879E+02 -0.80627121246E+01 -0.23712972562E+02  0.34765971101E+02  0.10566000000E+00 0.  1.
         23    2    1    0    0    0 -0.66364562545E+01  0.16613735758E+02  0.22979944432E+02  0.95877214873E+02  0.91347160428E+02 0.  0.
         13    1    3    3    0    0 -0.30747640133E+02  0.24676447882E+02  0.46692916994E+02  0.61111243772E+02  0.10566000000E+00 0. -1.
         22    1    1    0    0    0  0.66364562545E+01 -0.16613735758E+02 -0.22979944432E+02  0.29122785127E+02  0.00000000000E+00 0. -1.
</event>
<event>
 5    1  0.1320187E-009  0.9118800E+02  0.7818608E-02  0.1130116E+00
         25   -1    0    0    0    0  0.00000000000E+00  0.00000000000E+00  0.99999998245E-14  0.12500000000E+03  0.12500000000E+03 0.  0.
        -13    1    3    3    0    0  0.52921750113E+01  0.55287832312E+02 -0.18851549756E+02  0.58652737449E+02  0.10566000000E+00 0.  1.
         23    2    1    0    0    0 -0.12898678651E+02  0.24339960371E+02 -0.58036630061E+01  0.96848764040E+02  0.92667097774E+02 0.  0.
         13    1    3    3    0    0 -0.18190853662E+02 -0.30947871940E+02  0.13047886750E+02  0.38196026590E+02  0.10566000000E+00 0. -1.
         22    1    1    0    0    0  0.12898678651E+02 -0.24339960371E+02  0.58036630061E+01  0.28151235960E+02  0.00000000000E+00 0.  1.
</event>
<event>
 5    1  0.1320187E-009  0.9118800E+02  0.7818608E-02  0.1130116E+00
         25   -1    0    0    0    0  0.00000000000E+00  0.00000000000E+00  0.99999998245E-14  0.12500000000E+03  0.12500000000E+03 0.  0.
        -13    1    3    3    0    0  0.32322532429E+02  0.48351955834E+02  0.20142438217E+02  0.61549871787E+02  0.10566000000E+00 0. -1.
         23    2    1    0    0    0  0.17092049322E+02  0.18108554735E+02  0.15346249701E+02  0.95749952402E+02  0.91172847386E+02 0.  0.
         13    1    3    3    0    0 -0.15230483107E+02 -0.30243401099E+02 -0.47961885165E+01  0.34200080614E+02  0.10566000000E+00 0.  1.
         22    1    1    0    0    0 -0.17092049322E+02 -0.18108554735E+02 -0.15346249701E+02  0.29250047598E+02  0.00000000000E+00 0. -1.
</event>
<event>
 5    1  0.1320187E-009  0.9118800E+02  0.7818608E-02  0.1130116E+00
         25   -1    0    0    0    0  0.00000000000E+00  0.00000000000E+00  0.99999998245E-14  0.12500000000E+03  0.12500000000E+03 0.  0.
        -13    1    3    3    0    0  0.11131678428E+01  0.34790654315E+02 -0.48959635859E+02  0.60072338708E+02  0.10566000000E+00 0.  1.
         23    2    1    0    0    0 -0.11355930527E+02  0.11438844667E+02 -0.16966388411E+02  0.10159780649E+03  0.98865826361E+02 0.  0.
         13    1    3    3    0    0 -0.12469098370E+02 -0.23351809649E+02  0.31993247449E+02  0.41525467780E+02  0.10566000000E+00 0. -1.
         22    1    1    0    0    0  0.11355930527E+02 -0.11438844667E+02  0.16966388411E+02  0.23402193512E+02  0.00000000000E+00 0.  1.
</event>
<event>
 5    1  0.1320187E-009  0.9118800E+02  0.7818608E-02  0.1130116E+00
         25   -1    0    0    0    0  0.00000000000E+00  0.00000000000E+00  0.99999998245E-14  0.12500000000E+03  0.12500000000E+03 0.  0.
        -13    1    3    3    0    0  0.38849784898E+02  0.42436822013E+02 -0.44529845134E+01  0.57706411120E+02  0.10566000000E+00 0. -1.
         23    2    1    0    0    0  0.21919761304E+02  0.15064492910E+02  0.14141699323E+02  0.94876876955E+02  0.89967878927E+02 0.  0.
         13    1    3    3    0    0 -0.16930023593E+02 -0.27372329103E+02  0.18594683836E+02  0.37170465835E+02  0.10566000000E+00 0.  1.
         22    1    1    0    0    0 -0.21919761304E+02 -0.15064492910E+02 -0.14141699323E+02  0.30123123045E+02  0.00000000000E+00 0. -1.
</event>
<event>
 5    1  0.1320187E-009  0.9118800E+02  0.7818608E-02  0.1130116E+00
         25   -1    0    0    0    0  0.00000000000E+00  0.00000000000E+00  0.99999998245E-14  0.12500000000E+03  0.12500000000E+03 0.  0.
        -13    1    3    3    0    0  0.15361695126E+02  0.51883026216E+02 -0.10410174568E+02  0.55101841939E+02  0.10566000000E+00 0.  1.
         23    2    1    0    0    0 -0.13250883171E+01  0.16632414220E+02 -0.23445596254E+02  0.96223463628E+02  0.91819746825E+02 0.  0.
         13    1    3    3    0    0 -0.16686783444E+02 -0.35250611996E+02 -0.13035421686E+02  0.41121621689E+02  0.10566000000E+00 0. -1.
         22    1    1    0    0    0  0.13250883171E+01 -0.16632414220E+02  0.23445596254E+02  0.28776536372E+02  0.00000000000E+00 0.  1.
</event>
<event>
 5    1  0.1320187E-009  0.9118800E+02  0.7818608E-02  0.1130116E+00
         25   -1    0    0    0    0  0.00000000000E+00  0.00000000000E+00  0.99999998245E-14  0.12500000000E+03  0.12500000000E+03 0.  0.
        -13    1    3    3    0    0  0.13259761706E+02 -0.35446647683E+02  0.23757682895E+02  0.44684726395E+02  0.10566000000E+00 0. -1.
         23    2    1    0    0    0 -0.25905870772E+02 -0.13944405563E+02 -0.60124624764E+00  0.95573445937E+02  0.90930531089E+02 0.  0.
         13    1    3    3    0    0 -0.39165632478E+02  0.21502242119E+02 -0.24358929143E+02  0.50888719542E+02  0.10566000000E+00 0.  1.
         22    1    1    0    0    0  0.25905870772E+02  0.13944405563E+02  0.60124624764E+00  0.29426554063E+02  0.00000000000E+00 0.  1.
</event>
<event>
 5    1  0.1320187E-009  0.9118800E+02  0.7818608E-02  0.1130116E+00
         25   -1    0    0    0    0  0.00000000000E+00  0.00000000000E+00  0.99999998245E-14  0.12500000000E+03  0.12500000000E+03 0.  0.
        -13    1    3    3    0    0  0.43030795554E+02  0.33017988106E+02 -0.20120872859E+02  0.57850649031E+02  0.10566000000E+00 0. -1.
         23    2    1    0    0    0  0.28362140799E+02  0.16352583605E+02  0.55541369238E+01  0.91793578057E+02  0.85576833982E+02 0.  0.
         13    1    3    3    0    0 -0.14668654755E+02 -0.16665404502E+02  0.25675009783E+02  0.33942929027E+02  0.10566000000E+00 0.  1.
         22    1    1    0    0    0 -0.28362140799E+02 -0.16352583605E+02 -0.55541369238E+01  0.33206421943E+02  0.00000000000E+00 0. -1.
</event>
<event>
 5    1  0.1320187E-009  0.9118800E+02  0.7818608E-02  0.1130116E+00
         25   -1    0    0    0    0  0.00000000000E+00  0.00000000000E+00  0.99999998245E-14  0.12500000000E+03  0.12500000000E+03 0.  0.
        -13    1    3    3    0    0  0.62595778056E+01  0.39370655350E+02  0.44972196950E+02  0.60097757691E+02  0.10566000000E+00 0. -1.
         23    2    1    0    0    0 -0.87018708627E+01  0.17022562776E+02  0.24642845530E+02  0.93810898766E+02  0.88474429591E+02 0.  0.
         13    1    3    3    0    0 -0.14961448668E+02 -0.22348092573E+02 -0.20329351420E+02  0.33713141075E+02  0.10566000000E+00 0.  1.
         22    1    1    0    0    0  0.87018708627E+01 -0.17022562776E+02 -0.24642845530E+02  0.31189101234E+02  0.00000000000E+00 0. -1.
</event>
<event>
 5    1  0.1320187E-009  0.9118800E+02  0.7818608E-02  0.1130116E+00
         25   -1    0    0    0    0  0.00000000000E+00  0.00000000000E+00  0.99999998245E-14  0.12500000000E+03  0.12500000000E+03 0.  0.
        -13    1    3    3    0    0  0.46024745461E+02  0.20393691409E+02 -0.31841684654E+02  0.59565794628E+02  0.10566000000E+00 0.  1.
         23    2    1    0    0    0  0.13239454862E+02  0.76386790174E+01 -0.25437869194E+02  0.95323110485E+02  0.90585747340E+02 0.  0.
         13    1    3    3    0    0 -0.32785290599E+02 -0.12755012392E+02  0.64038154603E+01  0.35757315856E+02  0.10566000000E+00 0. -1.
         22    1    1    0    0    0 -0.13239454862E+02 -0.76386790174E+01  0.25437869194E+02  0.29676889515E+02  0.00000000000E+00 0.  1.
</event>
<event>
 5    1  0.1320187E-009  0.9118800E+02  0.7818608E-02  0.1130116E+00
         25   -1    0    0    0    0  0.00000000000E+00  0.00000000000E+00  0.99999998245E-14  0.12500000000E+03  0.12500000000E+03 0.  0.
        -13    1    3    3    0    0  0.35878782222E+02 -0.43277746643E+02 -0.13088914409E+02  0.57719851114E+02  0.10566000000E+00 0.  1.
         23    2    1    0    0    0  0.26830403593E+02 -0.60411202584E+01 -0.78702704317E+01  0.96393936873E+02  0.92051530234E+02 0.  0.
         13    1    3    3    0    0 -0.90483786291E+01  0.37236626384E+02  0.52186439776E+01  0.38674085759E+02  0.10566000000E+00 0. -1.
         22    1    1    0    0    0 -0.26830403593E+02  0.60411202584E+01  0.78702704317E+01  0.28606063127E+02  0.00000000000E+00 0.  1.
</event>
<event>
 5    1  0.1320187E-009  0.9118800E+02  0.7818608E-02  0.1130116E+00
         25   -1    0    0    0    0  0.00000000000E+00  0.00000000000E+00  0.99999998245E-14  0.12500000000E+03  0.12500000000E+03 0.  0.
        -13    1    3    3    0    0 -0.16840465273E+02 -0.45132850752E+01  0.32200926959E+02  0.36618053933E+02  0.10566000000E+00 0.  1.
         23    2    1    0    0    0 -0.25773755868E+02  0.46644745627E+01 -0.21055998114E+02  0.91393469815E+02  0.84990396245E+02 0.  0.
         13    1    3    3    0    0 -0.89332905946E+01  0.91777596379E+01 -0.53256925073E+02  0.54775415882E+02  0.10566000000E+00 0. -1.
         22    1    1    0    0    0  0.25773755868E+02 -0.46644745627E+01  0.21055998114E+02  0.33606530185E+02  0.00000000000E+00 0. -1.
</event>
<event>
 5    1  0.1320187E-009  0.9118800E+02  0.7818608E-02  0.1130116E+00
         25   -1    0    0    0    0  0.00000000000E+00  0.00000000000E+00  0.99999998245E-14  0.12500000000E+03  0.12500000000E+03 0.  0.
        -13    1    3    3    0    0 -0.20408548789E+01 -0.33802198050E+02 -0.10780034852E+02  0.35538345446E+02  0.10566000000E+00 0.  1.
         23    2    1    0    0    0  0.90845788154E+01  0.26227315354E+02 -0.36350464956E+01  0.97006872165E+02  0.92880127268E+02 0.  0.
         13    1    3    3    0    0  0.11125433694E+02  0.60029513404E+02  0.71449883564E+01  0.61468526719E+02  0.10566000000E+00 0. -1.
         22    1    1    0    0    0 -0.90845788154E+01 -0.26227315354E+02  0.36350464956E+01  0.27993127835E+02  0.00000000000E+00 0. -1.
</event>
<event>
 5    1  0.1320187E-009  0.9118800E+02  0.7818608E-02  0.1130116E+00
         25   -1    0    0    0    0  0.00000000000E+00  0.00000000000E+00  0.99999998245E-14  0.12500000000E+03  0.12500000000E+03 0.  0.
        -13    1    3    3    0    0  0.21443919459E+02  0.15902732431E+02 -0.22294844141E+02  0.34782320507E+02  0.10566000000E+00 0.  1.
         23    2    1    0    0    0 -0.18197167380E+02 -0.18720004262E+02  0.10571809515E+02  0.96833732646E+02  0.92646819490E+02 0.  0.
         13    1    3    3    0    0 -0.39641086839E+02 -0.34622736693E+02  0.32866653656E+02  0.62051412139E+02  0.10566000000E+00 0. -1.
         22    1    1    0    0    0  0.18197167380E+02  0.18720004262E+02 -0.10571809515E+02  0.28166267354E+02  0.00000000000E+00 0. -1.
</event>
<event>
 5    1  0.1320187E-009  0.9118800E+02  0.7818608E-02  0.1130116E+00
         25   -1    0    0    0    0  0.00000000000E+00  0.00000000000E+00  0.99999998245E-14  0.12500000000E+03  0.12500000000E+03 0.  0.
        -13    1    3    3    0    0  0.18745315797E+02  0.23897190141E+02  0.39485680189E+02  0.49815586567E+02  0.10566000000E+00 0. -1.
         23    2    1    0    0    0  0.21173235628E+02 -0.14399486917E+02  0.15536524619E+02  0.95049461980E+02  0.90207347234E+02 0.  0.
         13    1    3    3    0    0  0.24279198316E+01 -0.38296677058E+02 -0.23949155570E+02  0.45233875413E+02  0.10566000000E+00 0.  1.
         22    1    1    0    0    0 -0.21173235628E+02  0.14399486917E+02 -0.15536524619E+02  0.29950538020E+02  0.00000000000E+00 0.  1.
</event>
<event>
 5    1  0.1320187E-009  0.9118800E+02  0.7818608E-02  0.1130116E+00
         25   -1    0    0    0    0  0.00000000000E+00  0.00000000000E+00  0.99999998245E-14  0.12500000000E+03  0.12500000000E+03 0.  0.
        -13    1    3    3    0    0 -0.20918719714E+02  0.15070249297E+02  0.19020598439E+02  0.32039032092E+02  0.10566000000E+00 0. -1.
         23    2    1    0    0    0  0.27518061659E+02 -0.79615368382E+01 -0.11936590935E+02  0.93965954350E+02  0.88693227404E+02 0.  0.
         13    1    3    3    0    0  0.48436781373E+02 -0.23031786135E+02 -0.30957189374E+02  0.61926922258E+02  0.10566000000E+00 0.  1.
         22    1    1    0    0    0 -0.27518061659E+02  0.79615368382E+01  0.11936590935E+02  0.31034045650E+02  0.00000000000E+00 0.  1.
</event>
<event>
 5    1  0.1320187E-009  0.9118800E+02  0.7818608E-02  0.1130116E+00
         25   -1    0    0    0    0  0.00000000000E+00  0.00000000000E+00  0.99999998245E-14  0.12500000000E+03  0.12500000000E+03 0.  0.
        -13    1    3    3    0    0 -0.14589133472E+02  0.41687616392E+02 -0.42036912380E+01  0.44366455346E+02  0.10566000000E+00 0. -1.
         23    2    1    0    0    0  0.50028610567E+00 -0.43017991002E+01 -0.26849191424E+02  0.97803771551E+02  0.93946489492E+02 0.  0.
         13    1    3    3    0    0  0.15089419577E+02 -0.45989415492E+02 -0.22645500186E+02  0.53437316205E+02  0.10566000000E+00 0.  1.
         22    1    1    0    0    0 -0.50028610567E+00  0.43017991002E+01  0.26849191424E+02  0.27196228449E+02  0.00000000000E+00 0.  1.
</event>
<event>
 5    1  0.1320187E-009  0.9118800E+02  0.7818608E-02  0.1130116E+00
         25   -1    0    0    0    0  0.00000000000E+00  0.00000000000E+00  0.99999998245E-14  0.12500000000E+03  0.12500000000E+03 0.  0.
        -13    1    3    3    0    0  0.28560875838E+02 -0.74239628390E+01 -0.32342060212E+02  0.43781946915E+02  0.10566000000E+00 0. -1.
         23    2    1    0    0    0 -0.12659113281E+02  0.19706195036E+02 -0.18835069936E+02  0.94944266248E+02  0.90061459915E+02 0.  0.
         13    1    3    3    0    0 -0.41219989118E+02  0.27130157875E+02  0.13506990276E+02  0.51162319334E+02  0.10566000000E+00 0.  1.
         22    1    1    0    0    0  0.12659113281E+02 -0.19706195036E+02  0.18835069936E+02  0.30055733752E+02  0.00000000000E+00 0.  1.
</event>
<event>
 5    1  0.1320187E-009  0.9118800E+02  0.7818608E-02  0.1130116E+00
         25   -1    0    0    0    0  0.00000000000E+00  0.00000000000E+00  0.99999998245E-14  0.12500000000E+03  0.12500000000E+03 0.  0.
        -13    1    3    3    0    0 -0.35800687088E+02  0.37844327757E+02 -0.15475103399E+01  0.52118022714E+02  0.10566000000E+00 0.  1.
         23    2    1    0    0    0 -0.10968936555E+02  0.12513391668E+02  0.23973659992E+02  0.95817146925E+02  0.91264926074E+02 0.  0.
         13    1    3    3    0    0  0.24831750533E+02 -0.25330936090E+02  0.25521170332E+02  0.43699124211E+02  0.10566000000E+00 0. -1.
         22    1    1    0    0    0  0.10968936555E+02 -0.12513391668E+02 -0.23973659992E+02  0.29182853075E+02  0.00000000000E+00 0.  1.
</event>
<event>
 5    1  0.1320187E-009  0.9118800E+02  0.7818608E-02  0.1130116E+00
         25   -1    0    0    0    0  0.00000000000E+00  0.00000000000E+00  0.99999998245E-14  0.12500000000E+03  0.12500000000E+03 0.  0.
        -13    1    3    3    0    0  0.27512223823E+02 -0.28906211475E+02 -0.11724415643E+02  0.41592843227E+02  0.10566000000E+00 0.  1.
         23    2    1    0    0    0  0.18480717251E+02  0.19186110731E+02  0.11773082035E+02  0.95875281707E+02  0.91344515033E+02 0.  0.
         13    1    3    3    0    0 -0.90315065716E+01  0.48092322206E+02  0.23497497678E+02  0.54282438479E+02  0.10566000000E+00 0. -1.
         22    1    1    0    0    0 -0.18480717251E+02 -0.19186110731E+02 -0.11773082035E+02  0.29124718293E+02  0.00000000000E+00 0. -1.
</event>
<event>
 5    1  0.1320187E-009  0.9118800E+02  0.7818608E-02  0.1130116E+00
         25   -1    0    0    0    0  0.00000000000E+00  0.00000000000E+00  0.99999998245E-14  0.12500000000E+03  0.12500000000E+03 0.  0.
        -13    1    3    3    0    0  0.31118695433E+02 -0.32561264018E+02 -0.52140804136E+01  0.45341007030E+02  0.10566000000E+00 0. -1.
         23    2    1    0    0    0  0.14100615264E+02  0.10102502012E+02 -0.24352371648E+02  0.95101406344E+02  0.90279297660E+02 0.  0.
         13    1    3    3    0    0 -0.17018080169E+02  0.42663766030E+02 -0.19138291235E+02  0.49760399314E+02  0.10566000000E+00 0.  1.
         22    1    1    0    0    0 -0.14100615264E+02 -0.10102502012E+02  0.24352371648E+02  0.29898593656E+02  0.00000000000E+00 0. -1.
</event>
<event>
 5    1  0.1320187E-009  0.9118800E+02  0.7818608E-02  0.1130116E+00
         25   -1    0    0    0    0  0.00000000000E+00  0.00000000000E+00  0.99999998245E-14  0.12500000000E+03  0.12500000000E+03 0.  0.
        -13    1    3    3    0    0 -0.21426656257E+02  0.15641939811E+02 -0.23504833579E+02  0.35443761723E+02  0.10566000000E+00 0.  1.
         23    2    1    0    0    0  0.13074114226E+02  0.15426294747E+01  0.25078276395E+02  0.96676297639E+02  0.92434162568E+02 0.  0.
         13    1    3    3    0    0  0.34500770484E+02 -0.14099310336E+02  0.48583109974E+02  0.61232535916E+02  0.10566000000E+00 0. -1.
         22    1    1    0    0    0 -0.13074114226E+02 -0.15426294747E+01 -0.25078276395E+02  0.28323702361E+02  0.00000000000E+00 0. -1.
</event>
<event>
 5    1  0.1320187E-009  0.9118800E+02  0.7818608E-02  0.1130116E+00
         25   -1    0    0    0    0  0.00000000000E+00  0.00000000000E+00  0.99999998245E-14  0.12500000000E+03  0.12500000000E+03 0.  0.
        -13    1    3    3    0    0  0.64838395344E+01  0.45398269803E+01 -0.43527276558E+02  0.44241215769E+02  0.10566000000E+00 0.  1.
         23    2    1    0    0    0 -0.28585441336E+02  0.11351987075E+02 -0.11682282431E+02  0.92099076157E+02  0.86021910228E+02 0.  0.
         13    1    3    3    0    0 -0.35069280870E+02  0.68121600948E+01  0.31844994127E+02  0.47857860388E+02  0.10566000000E+00 0. -1.
         22    1    1    0    0    0  0.28585441336E+02 -0.11351987075E+02  0.11682282431E+02  0.32900923843E+02  0.00000000000E+00 0. -1.
</event>
<event>
 5    1  0.1320187E-009  0.9118800E+02  0.7818608E-02  0.1130116E+00
         25   -1    0    0    0    0  0.00000000000E+00  0.00000000000E+00  0.99999998245E-14  0.12500000000E+03  0.12500000000E+03 0.  0.
        -13    1    3    3    0    0 -0.26393670978E+02  0.35732970328E+02 -0.42039191696E+02  0.61161882236E+02  0.10566000000E+00 0.  1.
         23    2    1    0    0    0 -0.17212831378E+02  0.97028909334E+01 -0.22918934920E+02  0.94739378156E+02  0.89776636933E+02 0.  0.
         13    1    3    3    0    0  0.91808395998E+01 -0.26030079395E+02  0.19120256776E+02  0.33577495920E+02  0.10566000000E+00 0. -1.
         22    1    1    0    0    0  0.17212831378E+02 -0.97028909334E+01  0.22918934920E+02  0.30260621844E+02  0.00000000000E+00 0.  1.
</event>
<event>
 5    1  0.1320187E-009  0.9118800E+02  0.7818608E-02  0.1130116E+00
         25   -1    0    0    0    0  0.00000000000E+00  0.00000000000E+00  0.99999998245E-14  0.12500000000E+03  0.12500000000E+03 0.  0.
        -13    1    3    3    0    0 -0.42494809909E+02  0.21645562569E+02 -0.99711857759E+01  0.48721401437E+02  0.10566000000E+00 0.  1.
         23    2    1    0    0    0 -0.10281471953E+02 -0.66443568457E+01 -0.27391327987E+02  0.94997650221E+02  0.90135523270E+02 0.  0.
         13    1    3    3    0    0  0.32213337956E+02 -0.28289919415E+02 -0.17420142211E+02  0.46276248784E+02  0.10566000000E+00 0. -1.
         22    1    1    0    0    0  0.10281471953E+02  0.66443568457E+01  0.27391327987E+02  0.30002349779E+02  0.00000000000E+00 0.  1.
</event>
<event>
 5    1  0.1320187E-009  0.9118800E+02  0.7818608E-02  0.1130116E+00
         25   -1    0    0    0    0  0.00000000000E+00  0.00000000000E+00  0.99999998245E-14  0.12500000000E+03  0.12500000000E+03 0.  0.
        -13    1    3    3    0    0  0.29393606477E+02  0.21608275930E+02  0.13585333531E+02  0.38929091199E+02  0.10566000000E+00 0. -1.
         23    2    1    0    0    0  0.14922277154E+01 -0.55971000383E+01 -0.28284762975E+02  0.96128178288E+02  0.91689937136E+02 0.  0.
         13    1    3    3    0    0 -0.27901378762E+02 -0.27205375968E+02 -0.41870096506E+02  0.57199087089E+02  0.10566000000E+00 0.  1.
         22    1    1    0    0    0 -0.14922277154E+01  0.55971000383E+01  0.28284762975E+02  0.28871821712E+02  0.00000000000E+00 0.  1.
</event>
<event>
 5    1  0.1320187E-009  0.9118800E+02  0.7818608E-02  0.1130116E+00
         25   -1    0    0    0    0  0.00000000000E+00  0.00000000000E+00  0.99999998245E-14  0.12500000000E+03  0.12500000000E+03 0.  0.
        -13    1    3    3    0    0  0.44769529092E+02  0.12831965584E+02 -0.89356307886E+01  0.47421796017E+02  0.10566000000E+00 0. -1.
         23    2    1    0    0    0  0.56359298088E+01  0.19709163782E+02  0.19833248427E+02  0.96476806193E+02  0.92163992688E+02 0.  0.
         13    1    3    3    0    0 -0.39133599283E+02  0.68771981977E+01  0.28768879216E+02  0.49055010175E+02  0.10566000000E+00 0.  1.
         22    1    1    0    0    0 -0.56359298088E+01 -0.19709163782E+02 -0.19833248427E+02  0.28523193807E+02  0.00000000000E+00 0. -1.
</event>
<event>
 5    1  0.1320187E-009  0.9118800E+02  0.7818608E-02  0.1130116E+00
         25   -1    0    0    0    0  0.00000000000E+00  0.00000000000E+00  0.99999998245E-14  0.12500000000E+03  0.12500000000E+03 0.  0.
        -13    1    3    3    0    0 -0.21155135649E+02 -0.27290828071E+02  0.14988968093E+02  0.37643185169E+02  0.10566000000E+00 0.  1.
         23    2    1    0    0    0  0.24595537466E+02  0.85262996397E+01  0.13291977913E+02  0.95771333838E+02  0.91202157099E+02 0.  0.
         13    1    3    3    0    0  0.45750673115E+02  0.35817127711E+02 -0.16969901808E+01  0.58128148669E+02  0.10566000000E+00 0. -1.
         22    1    1    0    0    0 -0.24595537466E+02 -0.85262996397E+01 -0.13291977913E+02  0.29228666162E+02  0.00000000000E+00 0. -1.
</event>
<event>
 5    1  0.1320187E-009  0.9118800E+02  0.7818608E-02  0.1130116E+00
         25   -1    0    0    0    0  0.00000000000E+00  0.00000000000E+00  0.99999998245E-14  0.12500000000E+03  0.12500000000E+03 0.  0.
        -13    1    3    3    0    0  0.63005196854E+01 -0.39376524882E+01 -0.41125827766E+02  0.41791704068E+02  0.10566000000E+00 0.  1.
         23    2    1    0    0    0  0.15375353727E+02 -0.28979148331E+02  0.16175717661E+01  0.92154770839E+02  0.86102803147E+02 0.  0.
         13    1    3    3    0    0  0.90748340417E+01 -0.25041495843E+02  0.42743399532E+02  0.50363066771E+02  0.10566000000E+00 0. -1.
         22    1    1    0    0    0 -0.15375353727E+02  0.28979148331E+02 -0.16175717661E+01  0.32845229161E+02  0.00000000000E+00 0. -1.
</event>
<event>
 5    1  0.1320187E-009  0.9118800E+02  0.7818608E-02  0.1130116E+00
         25   -1    0    0    0    0  0.00000000000E+00  0.00000000000E+00  0.99999998245E-14  0.12500000000E+03  0.12500000000E+03 0.  0.
        -13    1    3    3    0    0 -0.26571153468E+02 -0.11782071142E+02  0.34306346055E+02  0.44964207329E+02  0.10566000000E+00 0. -1.
         23    2    1    0    0    0 -0.22381639525E+02 -0.13257967936E+02 -0.15334172339E+02  0.94803173297E+02  0.89865417844E+02 0.  0.
         13    1    3    3    0    0  0.41895139429E+01 -0.14758967938E+01 -0.49640518393E+02  0.49838965969E+02  0.10566000000E+00 0.  1.
         22    1    1    0    0    0  0.22381639525E+02  0.13257967936E+02  0.15334172339E+02  0.30196826703E+02  0.00000000000E+00 0. -1.
</event>
<event>
 5    1  0.1320187E-009  0.9118800E+02  0.7818608E-02  0.1130116E+00
         25   -1    0    0    0    0  0.00000000000E+00  0.00000000000E+00  0.99999998245E-14  0.12500000000E+03  0.12500000000E+03 0.  0.
        -13    1    3    3    0    0  0.34931259976E+02 -0.32342686218E+02  0.16637145154E+02  0.50428643034E+02  0.10566000000E+00 0.  1.
         23    2    1    0    0    0  0.11030556263E+02  0.47046441644E+01  0.26770503588E+02  0.95666287134E+02  0.91058068195E+02 0.  0.
         13    1    3    3    0    0 -0.23900703714E+02  0.37047330383E+02  0.10133358434E+02  0.45237644100E+02  0.10566000000E+00 0. -1.
         22    1    1    0    0    0 -0.11030556263E+02 -0.47046441644E+01 -0.26770503588E+02  0.29333712866E+02  0.00000000000E+00 0. -1.
</event>
<event>
 5    1  0.1320187E-009  0.9118800E+02  0.7818608E-02  0.1130116E+00
         25   -1    0    0    0    0  0.00000000000E+00  0.00000000000E+00  0.99999998245E-14  0.12500000000E+03  0.12500000000E+03 0.  0.
        -13    1    3    3    0    0 -0.24973556188E+02 -0.46561013151E+01  0.27324596995E+02  0.37309550427E+02  0.10566000000E+00 0.  1.
         23    2    1    0    0    0 -0.74500133218E+01  0.15051230742E+02 -0.24405851254E+02  0.95374203457E+02  0.90656223528E+02 0.  0.
         13    1    3    3    0    0  0.17523542866E+02  0.19707332057E+02 -0.51730448250E+02  0.58064653030E+02  0.10566000000E+00 0. -1.
         22    1    1    0    0    0  0.74500133218E+01 -0.15051230742E+02  0.24405851254E+02  0.29625796543E+02  0.00000000000E+00 0. -1.
</event>
<event>
 5    1  0.1320187E-009  0.9118800E+02  0.7818608E-02  0.1130116E+00
         25   -1    0    0    0    0  0.00000000000E+00  0.00000000000E+00  0.99999998245E-14  0.12500000000E+03  0.12500000000E+03 0.  0.
        -13    1    3    3    0    0  0.10143345482E+02  0.36204275713E+02  0.32832449396E+01  0.37741593751E+02  0.10566000000E+00 0. -1.
         23    2    1    0    0    0  0.14959810258E+02 -0.17837473853E+02 -0.17535137844E+02  0.95854632347E+02  0.91316253136E+02 0.  0.
         13    1    3    3    0    0  0.48164647763E+01 -0.54041749566E+02 -0.20818382784E+02  0.58113038596E+02  0.10566000000E+00 0.  1.
         22    1    1    0    0    0 -0.14959810258E+02  0.17837473853E+02  0.17535137844E+02  0.29145367653E+02  0.00000000000E+00 0.  1.
</event>
<event>
 5    1  0.1320187E-009  0.9118800E+02  0.7818608E-02  0.1130116E+00
         25   -1    0    0    0    0  0.00000000000E+00  0.00000000000E+00  0.99999998245E-14  0.12500000000E+03  0.12500000000E+03 0.  0.
        -13    1    3    3    0    0  0.43954948434E+02  0.32192876571E+02 -0.25501558310E+02  0.60156125490E+02  0.10566000000E+00 0.  1.
         23    2    1    0    0    0  0.27657267279E+02  0.90309073749E+01 -0.41785744302E+01  0.95607106205E+02  0.90976791278E+02 0.  0.
         13    1    3    3    0    0 -0.16297681155E+02 -0.23161969196E+02  0.21322983880E+02  0.35450980715E+02  0.10566000000E+00 0. -1.
         22    1    1    0    0    0 -0.27657267279E+02 -0.90309073749E+01  0.41785744302E+01  0.29392893795E+02  0.00000000000E+00 0.  1.
</event>
<event>
 5    1  0.1320187E-009  0.9118800E+02  0.7818608E-02  0.1130116E+00
         25   -1    0    0    0    0  0.00000000000E+00  0.00000000000E+00  0.99999998245E-14  0.12500000000E+03  0.12500000000E+03 0.  0.
        -13    1    3    3    0    0 -0.48874190675E+02  0.48667231593E+01  0.10770397198E+02  0.50283040166E+02  0.10566000000E+00 0. -1.
         23    2    1    0    0    0 -0.19034159162E+02 -0.18183251712E+02 -0.13790578445E+02  0.95282834731E+02  0.90530153445E+02 0.  0.
         13    1    3    3    0    0  0.29840031514E+02 -0.23049974871E+02 -0.24560975643E+02  0.44999794565E+02  0.10566000000E+00 0.  1.
         22    1    1    0    0    0  0.19034159162E+02  0.18183251712E+02  0.13790578445E+02  0.29717165269E+02  0.00000000000E+00 0.  1.
</event>
<event>
 5    1  0.1320187E-009  0.9118800E+02  0.7818608E-02  0.1130116E+00
         25   -1    0    0    0    0  0.00000000000E+00  0.00000000000E+00  0.99999998245E-14  0.12500000000E+03  0.12500000000E+03 0.  0.
        -13    1    3    3    0    0  0.22248776788E+02  0.12525708038E+02 -0.31591071589E+02  0.40619064472E+02  0.10566000000E+00 0.  1.
         23    2    1    0    0    0 -0.29194238653E+01  0.34783723719E+02  0.43558705469E+01  0.89823245180E+02  0.82648722282E+02 0.  0.
         13    1    3    3    0    0 -0.25168200653E+02  0.22258015681E+02  0.35946942135E+02  0.49204180708E+02  0.10566000000E+00 0. -1.
         22    1    1    0    0    0  0.29194238653E+01 -0.34783723719E+02 -0.43558705469E+01  0.35176754820E+02  0.00000000000E+00 0.  1.
</event>
<event>
 5    1  0.1320187E-009  0.9118800E+02  0.7818608E-02  0.1130116E+00
         25   -1    0    0    0    0  0.00000000000E+00  0.00000000000E+00  0.99999998245E-14  0.12500000000E+03  0.12500000000E+03 0.  0.
        -13    1    3    3    0    0  0.89092055605E+00  0.36698722054E+02 -0.21211137717E+02  0.42397092673E+02  0.10566000000E+00 0.  1.
         23    2    1    0    0    0  0.19147621240E+02  0.83686050469E+01  0.20299364780E+02  0.95867043403E+02  0.91333240667E+02 0.  0.
         13    1    3    3    0    0  0.18256700684E+02 -0.28330117007E+02  0.41510502497E+02  0.53469950730E+02  0.10566000000E+00 0. -1.
         22    1    1    0    0    0 -0.19147621240E+02 -0.83686050469E+01 -0.20299364780E+02  0.29132956597E+02  0.00000000000E+00 0. -1.
</event>
<event>
 5    1  0.1320187E-009  0.9118800E+02  0.7818608E-02  0.1130116E+00
         25   -1    0    0    0    0  0.00000000000E+00  0.00000000000E+00  0.99999998245E-14  0.12500000000E+03  0.12500000000E+03 0.  0.
        -13    1    3    3    0    0  0.92438228061E+00  0.49324763994E+02 -0.14958458324E+02  0.51551464239E+02  0.10566000000E+00 0. -1.
         23    2    1    0    0    0 -0.23252780927E+02  0.11629967819E+02 -0.11810520407E+02  0.96444153583E+02  0.92119696025E+02 0.  0.
         13    1    3    3    0    0 -0.24177163207E+02 -0.37694796175E+02  0.31479379167E+01  0.44892689345E+02  0.10566000000E+00 0.  1.
         22    1    1    0    0    0  0.23252780927E+02 -0.11629967819E+02  0.11810520407E+02  0.28555846417E+02  0.00000000000E+00 0. -1.
</event>
<event>
 5    1  0.1320187E-009  0.9118800E+02  0.7818608E-02  0.1130116E+00
         25   -1    0    0    0    0  0.00000000000E+00  0.00000000000E+00  0.99999998245E-14  0.12500000000E+03  0.12500000000E+03 0.  0.
        -13    1    3    3    0    0  0.42965638046E+02 -0.31511149931E+01 -0.39441880397E+01  0.43261337956E+02  0.10566000000E+00 0.  1.
         23    2    1    0    0    0  0.65429910400E+00 -0.23916000689E+02  0.17812113929E+02  0.95172586453E+02  0.90377799338E+02 0.  0.
         13    1    3    3    0    0 -0.42311338942E+02 -0.20764885696E+02  0.21756301969E+02  0.51911248497E+02  0.10566000000E+00 0. -1.
         22    1    1    0    0    0 -0.65429910400E+00  0.23916000689E+02 -0.17812113929E+02  0.29827413547E+02  0.00000000000E+00 0. -1.
</event>
<event>
 5    1  0.1320187E-009  0.9118800E+02  0.7818608E-02  0.1130116E+00
         25   -1    0    0    0    0  0.00000000000E+00  0.00000000000E+00  0.99999998245E-14  0.12500000000E+03  0.12500000000E+03 0.  0.
        -13    1    3    3    0    0  0.43214422204E+02  0.36024789322E+02  0.42148395163E+01  0.56418505548E+02  0.10566000000E+00 0. -1.
         23    2    1    0    0    0  0.37231018132E+02  0.22105596984E+02 -0.13420819816E+02  0.79668724553E+02  0.65514739854E+02 0.  0.
         13    1    3    3    0    0 -0.59834040721E+01 -0.13919192338E+02 -0.17635659333E+02  0.23250219004E+02  0.10566000000E+00 0.  1.
         22    1    1    0    0    0 -0.37231018132E+02 -0.22105596984E+02  0.13420819816E+02  0.45331275447E+02  0.00000000000E+00 0. -1.
</event>
<event>
 5    1  0.1320187E-009  0.9118800E+02  0.7818608E-02  0.1130116E+00
         25   -1    0    0    0    0  0.00000000000E+00  0.00000000000E+00  0.99999998245E-14  0.12500000000E+03  0.12500000000E+03 0.  0.
        -13    1    3    3    0    0  0.30755801450E+02  0.20179923720E+02  0.13500539376E+02  0.39184491469E+02  0.10566000000E+00 0.  1.
         23    2    1    0    0    0 -0.24981661306E+02  0.55480805785E+01 -0.32707268591E+01  0.99201506751E+02  0.95788186577E+02 0.  0.
         13    1    3    3    0    0 -0.55737462757E+02 -0.14631843141E+02 -0.16771266235E+02  0.60017015282E+02  0.10566000000E+00 0. -1.
         22    1    1    0    0    0  0.24981661306E+02 -0.55480805785E+01  0.32707268591E+01  0.25798493249E+02  0.00000000000E+00 0. -1.
</event>
<event>
 5    1  0.1320187E-009  0.9118800E+02  0.7818608E-02  0.1130116E+00
         25   -1    0    0    0    0  0.00000000000E+00  0.00000000000E+00  0.99999998245E-14  0.12500000000E+03  0.12500000000E+03 0.  0.
        -13    1    3    3    0    0  0.16896775670E+02  0.35287756739E+02  0.60881475434E+01  0.39595498586E+02  0.10566000000E+00 0.  1.
         23    2    1    0    0    0  0.16954212300E+02 -0.18883561963E+02  0.16460912925E+02  0.94751101153E+02  0.89792957899E+02 0.  0.
         13    1    3    3    0    0  0.57436630008E-01 -0.54171318702E+02  0.10372765381E+02  0.55155602567E+02  0.10566000000E+00 0. -1.
         22    1    1    0    0    0 -0.16954212300E+02  0.18883561963E+02 -0.16460912925E+02  0.30248898847E+02  0.00000000000E+00 0. -1.
</event>
<event>
 5    1  0.1320187E-009  0.9118800E+02  0.7818608E-02  0.1130116E+00
         25   -1    0    0    0    0  0.00000000000E+00  0.00000000000E+00  0.99999998245E-14  0.12500000000E+03  0.12500000000E+03 0.  0.
        -13    1    3    3    0    0  0.17505183950E+02  0.34968598279E+02  0.21266856544E+02  0.44514319966E+02  0.10566000000E+00 0.  1.
         23    2    1    0    0    0 -0.25869737790E+02  0.11578972990E+02  0.80962448379E+01  0.95523481730E+02  0.90861820544E+02 0.  0.
         13    1    3    3    0    0 -0.43374921741E+02 -0.23389625288E+02 -0.13170611706E+02  0.51009161764E+02  0.10566000000E+00 0. -1.
         22    1    1    0    0    0  0.25869737790E+02 -0.11578972990E+02 -0.80962448379E+01  0.29476518270E+02  0.00000000000E+00 0.  1.
</event>
<event>
 5    1  0.1320187E-009  0.9118800E+02  0.7818608E-02  0.1130116E+00
         25   -1    0    0    0    0  0.00000000000E+00  0.00000000000E+00  0.99999998245E-14  0.12500000000E+03  0.12500000000E+03 0.  0.
        -13    1    3    3    0    0 -0.23031978586E+02 -0.23436476691E+02  0.36983321175E+02  0.49472393175E+02  0.10566000000E+00 0. -1.
         23    2    1    0    0    0 -0.25036097772E+02  0.95386063962E+01  0.11888666792E+01  0.98182009628E+02  0.94448411352E+02 0.  0.
         13    1    3    3    0    0 -0.20041191860E+01  0.32975083087E+02 -0.35794454496E+02  0.48709616453E+02  0.10566000000E+00 0.  1.
         22    1    1    0    0    0  0.25036097772E+02 -0.95386063962E+01 -0.11888666792E+01  0.26817990372E+02  0.00000000000E+00 0.  1.
</event>
<event>
 5    1  0.1320187E-009  0.9118800E+02  0.7818608E-02  0.1130116E+00
         25   -1    0    0    0    0  0.00000000000E+00  0.00000000000E+00  0.99999998245E-14  0.12500000000E+03  0.12500000000E+03 0.  0.
        -13    1    3    3    0    0 -0.43847508066E+01 -0.23161266610E+02  0.29161866663E+02  0.37497945836E+02  0.10566000000E+00 0. -1.
         23    2    1    0    0    0 -0.99055577526E+01  0.54667145615E+01 -0.24189072913E+02  0.98295762680E+02  0.94598840743E+02 0.  0.
         13    1    3    3    0    0 -0.55208069460E+01  0.28627981171E+02 -0.53350939576E+02  0.60797816844E+02  0.10566000000E+00 0.  1.
         22    1    1    0    0    0  0.99055577526E+01 -0.54667145615E+01  0.24189072913E+02  0.26704237320E+02  0.00000000000E+00 0.  1.
</event>
<event>
 5    1  0.1320187E-009  0.9118800E+02  0.7818608E-02  0.1130116E+00
         25   -1    0    0    0    0  0.00000000000E+00  0.00000000000E+00  0.99999998245E-14  0.12500000000E+03  0.12500000000E+03 0.  0.
        -13    1    3    3    0    0  0.99807870600E+01  0.26132380037E+02 -0.55124731859E+02  0.61816378277E+02  0.10566000000E+00 0. -1.
         23    2    1    0    0    0  0.50892201066E+01  0.17930163357E+02 -0.22645687212E+02  0.95670525599E+02  0.91063886364E+02 0.  0.
         13    1    3    3    0    0 -0.48915669534E+01 -0.82022166795E+01  0.32479044647E+02  0.33854147322E+02  0.10566000000E+00 0.  1.
         22    1    1    0    0    0 -0.50892201066E+01 -0.17930163357E+02  0.22645687212E+02  0.29329474401E+02  0.00000000000E+00 0. -1.
</event>
<event>
 5    1  0.1320187E-009  0.9118800E+02  0.7818608E-02  0.1130116E+00
         25   -1    0    0    0    0  0.00000000000E+00  0.00000000000E+00  0.99999998245E-14  0.12500000000E+03  0.12500000000E+03 0.  0.
        -13    1    3    3    0    0  0.18284962410E+02 -0.28173504001E+02 -0.17918395966E+02  0.38067916361E+02  0.10566000000E+00 0.  1.
         23    2    1    0    0    0 -0.82908269334E+01 -0.58297097954E+01  0.27761958209E+02  0.95445818382E+02  0.90754914993E+02 0.  0.
         13    1    3    3    0    0 -0.26575789343E+02  0.22343794206E+02  0.45680354175E+02  0.57377902021E+02  0.10566000000E+00 0. -1.
         22    1    1    0    0    0  0.82908269334E+01  0.58297097954E+01 -0.27761958209E+02  0.29554181618E+02  0.00000000000E+00 0. -1.
</event>
<event>
 5    1  0.1320187E-009  0.9118800E+02  0.7818608E-02  0.1130116E+00
         25   -1    0    0    0    0  0.00000000000E+00  0.00000000000E+00  0.99999998245E-14  0.12500000000E+03  0.12500000000E+03 0.  0.
        -13    1    3    3    0    0 -0.36662523697E+02 -0.39538251106E+02 -0.44439371580E+01  0.54103361133E+02  0.10566000000E+00 0.  1.
         23    2    1    0    0    0 -0.86160911500E+01 -0.14488428189E+02 -0.23356381624E+02  0.96195970062E+02  0.91782310472E+02 0.  0.
         13    1    3    3    0    0  0.28046432547E+02  0.25049822917E+02 -0.18912444466E+02  0.42092608929E+02  0.10566000000E+00 0. -1.
         22    1    1    0    0    0  0.86160911500E+01  0.14488428189E+02  0.23356381624E+02  0.28804029938E+02  0.00000000000E+00 0.  1.
</event>
<event>
 5    1  0.1320187E-009  0.9118800E+02  0.7818608E-02  0.1130116E+00
         25   -1    0    0    0    0  0.00000000000E+00  0.00000000000E+00  0.99999998245E-14  0.12500000000E+03  0.12500000000E+03 0.  0.
        -13    1    3    3    0    0  0.33136834349E+02 -0.58164125922E+01  0.54821595251E+01  0.34087324377E+02  0.10566000000E+00 0.  1.
         23    2    1    0    0    0 -0.26583262567E+02 -0.12708362742E+02 -0.50091933313E+01  0.95112471663E+02  0.90294617313E+02 0.  0.
         13    1    3    3    0    0 -0.59720096915E+02 -0.68919501498E+01 -0.10491352856E+02  0.61025147286E+02  0.10566000000E+00 0. -1.
         22    1    1    0    0    0  0.26583262567E+02  0.12708362742E+02  0.50091933313E+01  0.29887528337E+02  0.00000000000E+00 0. -1.
</event>
<event>
 5    1  0.1320187E-009  0.9118800E+02  0.7818608E-02  0.1130116E+00
         25   -1    0    0    0    0  0.00000000000E+00  0.00000000000E+00  0.99999998245E-14  0.12500000000E+03  0.12500000000E+03 0.  0.
        -13    1    3    3    0    0  0.19806156986E+02 -0.46213743525E+02  0.28420503500E+02  0.57755780043E+02  0.10566000000E+00 0. -1.
         23    2    1    0    0    0  0.63473963701E+01 -0.10548655122E+02  0.26330895518E+02  0.95933186891E+02  0.91423720788E+02 0.  0.
         13    1    3    3    0    0 -0.13458760616E+02  0.35665088402E+02 -0.20896079823E+01  0.38177406848E+02  0.10566000000E+00 0.  1.
         22    1    1    0    0    0 -0.63473963701E+01  0.10548655122E+02 -0.26330895518E+02  0.29066813109E+02  0.00000000000E+00 0. -1.
</event>
<event>
 5    1  0.1320187E-009  0.9118800E+02  0.7818608E-02  0.1130116E+00
         25   -1    0    0    0    0  0.00000000000E+00  0.00000000000E+00  0.99999998245E-14  0.12500000000E+03  0.12500000000E+03 0.  0.
        -13    1    3    3    0    0  0.32295940051E+02  0.17589537125E+02  0.82680807887E+01  0.37693393109E+02  0.10566000000E+00 0.  1.
         23    2    1    0    0    0 -0.25522092879E+02  0.99694956931E+01  0.94284766347E+01  0.96023039481E+02  0.91546490212E+02 0.  0.
         13    1    3    3    0    0 -0.57818032930E+02 -0.76200414323E+01  0.11603958460E+01  0.58329646372E+02  0.10566000000E+00 0. -1.
         22    1    1    0    0    0  0.25522092879E+02 -0.99694956931E+01 -0.94284766347E+01  0.28976960519E+02  0.00000000000E+00 0. -1.
</event>
<event>
 5    1  0.1320187E-009  0.9118800E+02  0.7818608E-02  0.1130116E+00
         25   -1    0    0    0    0  0.00000000000E+00  0.00000000000E+00  0.99999998245E-14  0.12500000000E+03  0.12500000000E+03 0.  0.
        -13    1    3    3    0    0  0.33196238993E+02 -0.12552125768E+02 -0.51197516346E+02  0.62295609706E+02  0.10566000000E+00 0.  1.
         23    2    1    0    0    0  0.18735154827E+02 -0.63298383810E+01 -0.22367618138E+02  0.95143958375E+02  0.90338195653E+02 0.  0.
         13    1    3    3    0    0 -0.14461084166E+02  0.62222873870E+01  0.28829898208E+02  0.32848348669E+02  0.10566000000E+00 0. -1.
         22    1    1    0    0    0 -0.18735154827E+02  0.63298383810E+01  0.22367618138E+02  0.29856041625E+02  0.00000000000E+00 0.  1.
</event>
<event>
 5    1  0.1320187E-009  0.9118800E+02  0.7818608E-02  0.1130116E+00
         25   -1    0    0    0    0  0.00000000000E+00  0.00000000000E+00  0.99999998245E-14  0.12500000000E+03  0.12500000000E+03 0.  0.
        -13    1    3    3    0    0  0.17683906292E+02 -0.45806212823E+02 -0.74631812626E+01  0.49665278753E+02  0.10566000000E+00 0.  1.
         23    2    1    0    0    0  0.28810074450E+02 -0.11758257007E+02  0.13402372384E+02  0.91119318437E+02  0.84586225883E+02 0.  0.
         13    1    3    3    0    0  0.11126168158E+02  0.34047955816E+02  0.20865553647E+02  0.41454039684E+02  0.10566000000E+00 0. -1.
         22    1    1    0    0    0 -0.28810074450E+02  0.11758257007E+02 -0.13402372384E+02  0.33880681563E+02  0.00000000000E+00 0. -1.
</event>
<event>
 5    1  0.1320187E-009  0.9118800E+02  0.7818608E-02  0.1130116E+00
         25   -1    0    0    0    0  0.00000000000E+00  0.00000000000E+00  0.99999998245E-14  0.12500000000E+03  0.12500000000E+03 0.  0.
        -13    1    3    3    0    0  0.10340626167E+02 -0.18822049862E+02  0.38620191296E+02  0.44189687149E+02  0.10566000000E+00 0.  1.
         23    2    1    0    0    0 -0.25517531409E+02 -0.16217447588E+02  0.33063257213E+01  0.94584842508E+02  0.89561211621E+02 0.  0.
         13    1    3    3    0    0 -0.35858157576E+02  0.26046022737E+01 -0.35313865575E+02  0.50395155359E+02  0.10566000000E+00 0. -1.
         22    1    1    0    0    0  0.25517531409E+02  0.16217447588E+02 -0.33063257213E+01  0.30415157492E+02  0.00000000000E+00 0. -1.
</event>
<event>
 5    1  0.1320187E-009  0.9118800E+02  0.7818608E-02  0.1130116E+00
         25   -1    0    0    0    0  0.00000000000E+00  0.00000000000E+00  0.99999998245E-14  0.12500000000E+03  0.12500000000E+03 0.  0.
        -13    1    3    3    0    0  0.34490749173E+02 -0.29205096518E+02 -0.25283125181E+02  0.51786069788E+02  0.10566000000E+00 0. -1.
         23    2    1    0    0    0  0.63682849057E+00 -0.28329483849E+02  0.37796286276E+01  0.96412401321E+02  0.92076600340E+02 0.  0.
         13    1    3    3    0    0 -0.33853920682E+02  0.87561266939E+00  0.29062753808E+02  0.44626331533E+02  0.10566000000E+00 0.  1.
         22    1    1    0    0    0 -0.63682849057E+00  0.28329483849E+02 -0.37796286276E+01  0.28587598679E+02  0.00000000000E+00 0. -1.
</event>
<event>
 5    1  0.1320187E-009  0.9118800E+02  0.7818608E-02  0.1130116E+00
         25   -1    0    0    0    0  0.00000000000E+00  0.00000000000E+00  0.99999998245E-14  0.12500000000E+03  0.12500000000E+03 0.  0.
        -13    1    3    3    0    0  0.40564523015E+01  0.18031200681E+01  0.35773195639E+02  0.36047728604E+02  0.10566000000E+00 0.  1.
         23    2    1    0    0    0  0.22818118929E+01  0.18116675449E+02 -0.22174926162E+02  0.96274611488E+02  0.91889351244E+02 0.  0.
         13    1    3    3    0    0 -0.17746404086E+01  0.16313555381E+02 -0.57948121801E+02  0.60226882885E+02  0.10566000000E+00 0. -1.
         22    1    1    0    0    0 -0.22818118929E+01 -0.18116675449E+02  0.22174926162E+02  0.28725388512E+02  0.00000000000E+00 0. -1.
</event>
<event>
 5    1  0.1320187E-009  0.9118800E+02  0.7818608E-02  0.1130116E+00
         25   -1    0    0    0    0  0.00000000000E+00  0.00000000000E+00  0.99999998245E-14  0.12500000000E+03  0.12500000000E+03 0.  0.
        -13    1    3    3    0    0  0.59538802884E+01 -0.52976761414E+02 -0.29907607181E+01  0.53394210867E+02  0.10566000000E+00 0.  1.
         23    2    1    0    0    0 -0.14801962044E+02 -0.21484855742E+02  0.14699804475E+02  0.95053692077E+02  0.90213208674E+02 0.  0.
         13    1    3    3    0    0 -0.20755842333E+02  0.31491905672E+02  0.17690565193E+02  0.41659481210E+02  0.10566000000E+00 0. -1.
         22    1    1    0    0    0  0.14801962044E+02  0.21484855742E+02 -0.14699804475E+02  0.29946307923E+02  0.00000000000E+00 0. -1.
</event>
<event>
 5    1  0.1320187E-009  0.9118800E+02  0.7818608E-02  0.1130116E+00
         25   -1    0    0    0    0  0.00000000000E+00  0.00000000000E+00  0.99999998245E-14  0.12500000000E+03  0.12500000000E+03 0.  0.
        -13    1    3    3    0    0  0.21603600567E+02 -0.32443202659E+02  0.10701530698E+01  0.38992734552E+02  0.10566000000E+00 0.  1.
         23    2    1    0    0    0 -0.24096729630E+02 -0.84146028630E+01 -0.17709336629E+02  0.93934287002E+02  0.88648585722E+02 0.  0.
         13    1    3    3    0    0 -0.45700330197E+02  0.24028599796E+02 -0.18779489699E+02  0.54941552450E+02  0.10566000000E+00 0. -1.
         22    1    1    0    0    0  0.24096729630E+02  0.84146028630E+01  0.17709336629E+02  0.31065712998E+02  0.00000000000E+00 0.  1.
</event>
<event>
 5    1  0.1320187E-009  0.9118800E+02  0.7818608E-02  0.1130116E+00
         25   -1    0    0    0    0  0.00000000000E+00  0.00000000000E+00  0.99999998245E-14  0.12500000000E+03  0.12500000000E+03 0.  0.
        -13    1    3    3    0    0 -0.20585816352E+02  0.23557686872E+02 -0.18011587033E+02  0.36099430427E+02  0.10566000000E+00 0. -1.
         23    2    1    0    0    0  0.26028856066E+02 -0.11770369112E+02 -0.57129080735E+01  0.95867882744E+02  0.91334389395E+02 0.  0.
         13    1    3    3    0    0  0.46614672418E+02 -0.35328055984E+02  0.12298678960E+02  0.59768452318E+02  0.10566000000E+00 0.  1.
         22    1    1    0    0    0 -0.26028856066E+02  0.11770369112E+02  0.57129080735E+01  0.29132117256E+02  0.00000000000E+00 0.  1.
</event>
<event>
 5    1  0.1320187E-009  0.9118800E+02  0.7818608E-02  0.1130116E+00
         25   -1    0    0    0    0  0.00000000000E+00  0.00000000000E+00  0.99999998245E-14  0.12500000000E+03  0.12500000000E+03 0.  0.
        -13    1    3    3    0    0 -0.46517009476E+02  0.99702509879E+01 -0.40183621032E+02  0.62273370220E+02  0.10566000000E+00 0.  1.
         23    2    1    0    0    0 -0.29548642889E+02  0.80659980659E+01 -0.29843343265E+02  0.82235438052E+02  0.70241437293E+02 0.  0.
         13    1    3    3    0    0  0.16968366586E+02 -0.19042529220E+01  0.10340277767E+02  0.19962067832E+02  0.10566000000E+00 0. -1.
         22    1    1    0    0    0  0.29548642889E+02 -0.80659980659E+01  0.29843343265E+02  0.42764561948E+02  0.00000000000E+00 0.  1.
</event>
<event>
 5    1  0.1320187E-009  0.9118800E+02  0.7818608E-02  0.1130116E+00
         25   -1    0    0    0    0  0.00000000000E+00  0.00000000000E+00  0.99999998245E-14  0.12500000000E+03  0.12500000000E+03 0.  0.
        -13    1    3    3    0    0 -0.13056601266E+02  0.18180066653E+02 -0.55244801951E+02  0.59606954013E+02  0.10566000000E+00 0.  1.
         23    2    1    0    0    0 -0.13103602846E+02 -0.29983886502E+01 -0.26194287285E+02  0.95557930976E+02  0.90909200546E+02 0.  0.
         13    1    3    3    0    0 -0.47001580591E-01 -0.21178455303E+02  0.29050514666E+02  0.35950976963E+02  0.10566000000E+00 0. -1.
         22    1    1    0    0    0  0.13103602846E+02  0.29983886502E+01  0.26194287285E+02  0.29442069024E+02  0.00000000000E+00 0.  1.
</event>
<event>
 5    1  0.1320187E-009  0.9118800E+02  0.7818608E-02  0.1130116E+00
         25   -1    0    0    0    0  0.00000000000E+00  0.00000000000E+00  0.99999998245E-14  0.12500000000E+03  0.12500000000E+03 0.  0.
        -13    1    3    3    0    0 -0.32963801068E+02 -0.16589886133E+02  0.17400095316E+02  0.40799644408E+02  0.10566000000E+00 0.  1.
         23    2    1    0    0    0 -0.19016056871E+02  0.27349069550E+02 -0.36734325753E+01  0.91487671954E+02  0.85128831711E+02 0.  0.
         13    1    3    3    0    0  0.13947744198E+02  0.43938955683E+02 -0.21073527891E+02  0.50688027546E+02  0.10566000000E+00 0. -1.
         22    1    1    0    0    0  0.19016056871E+02 -0.27349069550E+02  0.36734325753E+01  0.33512328046E+02  0.00000000000E+00 0. -1.
</event>
<event>
 5    1  0.1320187E-009  0.9118800E+02  0.7818608E-02  0.1130116E+00
         25   -1    0    0    0    0  0.00000000000E+00  0.00000000000E+00  0.99999998245E-14  0.12500000000E+03  0.12500000000E+03 0.  0.
        -13    1    3    3    0    0 -0.34911629845E+02  0.46204160056E+02 -0.22223360331E+02  0.62028503233E+02  0.10566000000E+00 0.  1.
         23    2    1    0    0    0 -0.16308919353E+02  0.18016679329E+02 -0.14595247965E+02  0.96652110349E+02  0.92401447972E+02 0.  0.
         13    1    3    3    0    0  0.18602710492E+02 -0.28187480728E+02  0.76281123663E+01  0.34623607116E+02  0.10566000000E+00 0. -1.
         22    1    1    0    0    0  0.16308919353E+02 -0.18016679329E+02  0.14595247965E+02  0.28347889651E+02  0.00000000000E+00 0.  1.
</event>
<event>
 5    1  0.1320187E-009  0.9118800E+02  0.7818608E-02  0.1130116E+00
         25   -1    0    0    0    0  0.00000000000E+00  0.00000000000E+00  0.99999998245E-14  0.12500000000E+03  0.12500000000E+03 0.  0.
        -13    1    3    3    0    0 -0.38965290299E+02 -0.14669577803E+02  0.26247121925E+01  0.41717989395E+02  0.10566000000E+00 0. -1.
         23    2    1    0    0    0  0.17478785446E+02 -0.38881862006E+01  0.16298481094E+02  0.10078706093E+03  0.97835398664E+02 0.  0.
         13    1    3    3    0    0  0.56444075745E+02  0.10781391603E+02  0.13673768901E+02  0.59069071532E+02  0.10566000000E+00 0.  1.
         22    1    1    0    0    0 -0.17478785446E+02  0.38881862006E+01 -0.16298481094E+02  0.24212939073E+02  0.00000000000E+00 0.  1.
</event>
<event>
 5    1  0.1320187E-009  0.9118800E+02  0.7818608E-02  0.1130116E+00
         25   -1    0    0    0    0  0.00000000000E+00  0.00000000000E+00  0.99999998245E-14  0.12500000000E+03  0.12500000000E+03 0.  0.
        -13    1    3    3    0    0 -0.67425568835E+01  0.38906491224E+02 -0.16020390331E+02  0.42612688288E+02  0.10566000000E+00 0. -1.
         23    2    1    0    0    0  0.14799214568E+02  0.68160918307E+01  0.22525918871E+02  0.97199048925E+02  0.93138403633E+02 0.  0.
         13    1    3    3    0    0  0.21541771452E+02 -0.32090399394E+02  0.38546309202E+02  0.54586360637E+02  0.10566000000E+00 0.  1.
         22    1    1    0    0    0 -0.14799214568E+02 -0.68160918307E+01 -0.22525918871E+02  0.27800951075E+02  0.00000000000E+00 0. -1.
</event>
<event>
 5    1  0.1320187E-009  0.9118800E+02  0.7818608E-02  0.1130116E+00
         25   -1    0    0    0    0  0.00000000000E+00  0.00000000000E+00  0.99999998245E-14  0.12500000000E+03  0.12500000000E+03 0.  0.
        -13    1    3    3    0    0 -0.12422741000E+02  0.26034700679E+02 -0.16647672951E+02  0.33305950101E+02  0.10566000000E+00 0.  1.
         23    2    1    0    0    0  0.13238070080E+02 -0.27535164763E+02 -0.26403773012E+01  0.94334002702E+02  0.89210429186E+02 0.  0.
         13    1    3    3    0    0  0.25660811080E+02 -0.53569865442E+02  0.14007295650E+02  0.61028052601E+02  0.10566000000E+00 0. -1.
         22    1    1    0    0    0 -0.13238070080E+02  0.27535164763E+02  0.26403773012E+01  0.30665997298E+02  0.00000000000E+00 0. -1.
</event>
<event>
 5    1  0.1320187E-009  0.9118800E+02  0.7818608E-02  0.1130116E+00
         25   -1    0    0    0    0  0.00000000000E+00  0.00000000000E+00  0.99999998245E-14  0.12500000000E+03  0.12500000000E+03 0.  0.
        -13    1    3    3    0    0  0.21966240926E+02 -0.28250844247E+02 -0.28755591672E+01  0.35901336266E+02  0.10566000000E+00 0.  1.
         23    2    1    0    0    0 -0.90816027241E+01  0.21688376975E+02 -0.16515300229E+02  0.96266459573E+02  0.91878261265E+02 0.  0.
         13    1    3    3    0    0 -0.31047843650E+02  0.49939221222E+02 -0.13639741062E+02  0.60365123307E+02  0.10566000000E+00 0. -1.
         22    1    1    0    0    0  0.90816027241E+01 -0.21688376975E+02  0.16515300229E+02  0.28733540427E+02  0.00000000000E+00 0. -1.
</event>
<event>
 5    1  0.1320187E-009  0.9118800E+02  0.7818608E-02  0.1130116E+00
         25   -1    0    0    0    0  0.00000000000E+00  0.00000000000E+00  0.99999998245E-14  0.12500000000E+03  0.12500000000E+03 0.  0.
        -13    1    3    3    0    0 -0.40054517340E+02  0.91715105093E+01 -0.29325454478E+02  0.50482416828E+02  0.10566000000E+00 0.  1.
         23    2    1    0    0    0 -0.93562387078E-01 -0.13406081158E+02 -0.25061280067E+02  0.96578185763E+02  0.92301389159E+02 0.  0.
         13    1    3    3    0    0  0.39960954953E+02 -0.22577591668E+02  0.42641744112E+01  0.46095768935E+02  0.10566000000E+00 0. -1.
         22    1    1    0    0    0  0.93562387078E-01  0.13406081158E+02  0.25061280067E+02  0.28421814237E+02  0.00000000000E+00 0.  1.
</event>
<event>
 5    1  0.1320187E-009  0.9118800E+02  0.7818608E-02  0.1130116E+00
         25   -1    0    0    0    0  0.00000000000E+00  0.00000000000E+00  0.99999998245E-14  0.12500000000E+03  0.12500000000E+03 0.  0.
        -13    1    3    3    0    0 -0.25597972246E+02 -0.12322197574E+02  0.22821169324E+02  0.36440494913E+02  0.10566000000E+00 0. -1.
         23    2    1    0    0    0  0.27364499642E+02 -0.29166634230E+01 -0.50460703733E+01  0.97021694254E+02  0.92900073001E+02 0.  0.
         13    1    3    3    0    0  0.52962471888E+02  0.94055341514E+01 -0.27867239697E+02  0.60581199341E+02  0.10566000000E+00 0.  1.
         22    1    1    0    0    0 -0.27364499642E+02  0.29166634230E+01  0.50460703733E+01  0.27978305746E+02  0.00000000000E+00 0.  1.
</event>
<event>
 5    1  0.1320187E-009  0.9118800E+02  0.7818608E-02  0.1130116E+00
         25   -1    0    0    0    0  0.00000000000E+00  0.00000000000E+00  0.99999998245E-14  0.12500000000E+03  0.12500000000E+03 0.  0.
        -13    1    3    3    0    0  0.22823307267E+02  0.12148743668E+01  0.58154910305E+02  0.62485070465E+02  0.10566000000E+00 0.  1.
         23    2    1    0    0    0  0.11018998585E+02  0.13136939395E+01  0.26452378247E+02  0.96314246803E+02  0.91943252611E+02 0.  0.
         13    1    3    3    0    0 -0.11804308682E+02  0.98819572788E-01 -0.31702532058E+02  0.33829176338E+02  0.10566000000E+00 0. -1.
         22    1    1    0    0    0 -0.11018998585E+02 -0.13136939395E+01 -0.26452378247E+02  0.28685753197E+02  0.00000000000E+00 0.  1.
</event>
<event>
 5    1  0.1320187E-009  0.9118800E+02  0.7818608E-02  0.1130116E+00
         25   -1    0    0    0    0  0.00000000000E+00  0.00000000000E+00  0.99999998245E-14  0.12500000000E+03  0.12500000000E+03 0.  0.
        -13    1    3    3    0    0 -0.27710238441E+02 -0.28091841173E+02  0.73691458928E+01  0.40141304540E+02  0.10566000000E+00 0. -1.
         23    2    1    0    0    0 -0.62460804464E+01  0.20618819318E+02  0.20814717652E+02  0.95043336268E+02  0.90198858457E+02 0.  0.
         13    1    3    3    0    0  0.21464157994E+02  0.48710660491E+02  0.13445571760E+02  0.54902031728E+02  0.10566000000E+00 0.  1.
         22    1    1    0    0    0  0.62460804464E+01 -0.20618819318E+02 -0.20814717652E+02  0.29956663732E+02  0.00000000000E+00 0.  1.
</event>
<event>
 5    1  0.1320187E-009  0.9118800E+02  0.7818608E-02  0.1130116E+00
         25   -1    0    0    0    0  0.00000000000E+00  0.00000000000E+00  0.99999998245E-14  0.12500000000E+03  0.12500000000E+03 0.  0.
        -13    1    3    3    0    0  0.37959652489E+02 -0.24196784584E+02  0.31046001891E+02  0.54683498414E+02  0.10566000000E+00 0.  1.
         23    2    1    0    0    0  0.92958117023E+01  0.51838947482E+01  0.27058209179E+02  0.95923694115E+02  0.91410740773E+02 0.  0.
         13    1    3    3    0    0 -0.28663840787E+02  0.29380679333E+02 -0.39877927126E+01  0.41240195701E+02  0.10566000000E+00 0. -1.
         22    1    1    0    0    0 -0.92958117023E+01 -0.51838947482E+01 -0.27058209179E+02  0.29076305885E+02  0.00000000000E+00 0.  1.
</event>
<event>
 5    1  0.1320187E-009  0.9118800E+02  0.7818608E-02  0.1130116E+00
         25   -1    0    0    0    0  0.00000000000E+00  0.00000000000E+00  0.99999998245E-14  0.12500000000E+03  0.12500000000E+03 0.  0.
        -13    1    3    3    0    0 -0.88064597133E+01 -0.38801962365E+02 -0.67146829849E+01  0.40351507378E+02  0.10566000000E+00 0.  1.
         23    2    1    0    0    0  0.29019487223E+02  0.14435685252E+01 -0.40923412162E+00  0.95941748137E+02  0.91435425488E+02 0.  0.
         13    1    3    3    0    0  0.37825946936E+02  0.40245530890E+02  0.63054488633E+01  0.55590240759E+02  0.10566000000E+00 0. -1.
         22    1    1    0    0    0 -0.29019487223E+02 -0.14435685252E+01  0.40923412162E+00  0.29058251863E+02  0.00000000000E+00 0.  1.
</event>
<event>
 5    1  0.1320187E-009  0.9118800E+02  0.7818608E-02  0.1130116E+00
         25   -1    0    0    0    0  0.00000000000E+00  0.00000000000E+00  0.99999998245E-14  0.12500000000E+03  0.12500000000E+03 0.  0.
        -13    1    3    3    0    0  0.32395326445E+02  0.24445984785E+02 -0.84825318539E+01  0.41461160841E+02  0.10566000000E+00 0.  1.
         23    2    1    0    0    0  0.14490607688E+02 -0.21127377341E+02  0.14511948818E+02  0.95556147620E+02  0.90906748402E+02 0.  0.
         13    1    3    3    0    0 -0.17904718757E+02 -0.45573362126E+02  0.22994480672E+02  0.54094986779E+02  0.10566000000E+00 0. -1.
         22    1    1    0    0    0 -0.14490607688E+02  0.21127377341E+02 -0.14511948818E+02  0.29443852380E+02  0.00000000000E+00 0. -1.
</event>
<event>
 5    1  0.1320187E-009  0.9118800E+02  0.7818608E-02  0.1130116E+00
         25   -1    0    0    0    0  0.00000000000E+00  0.00000000000E+00  0.99999998245E-14  0.12500000000E+03  0.12500000000E+03 0.  0.
        -13    1    3    3    0    0 -0.19859263700E+02 -0.24657953020E+02  0.21142296652E+02  0.38071155401E+02  0.10566000000E+00 0. -1.
         23    2    1    0    0    0  0.28152415356E+02  0.16876215456E-01 -0.19409601766E+01  0.96780749450E+02  0.92575306440E+02 0.  0.
         13    1    3    3    0    0  0.48011679056E+02  0.24674829235E+02 -0.23083256828E+02  0.58709594049E+02  0.10566000000E+00 0.  1.
         22    1    1    0    0    0 -0.28152415356E+02 -0.16876215456E-01  0.19409601766E+01  0.28219250550E+02  0.00000000000E+00 0.  1.
</event>
<event>
 5    1  0.1320187E-009  0.9118800E+02  0.7818608E-02  0.1130116E+00
         25   -1    0    0    0    0  0.00000000000E+00  0.00000000000E+00  0.99999998245E-14  0.12500000000E+03  0.12500000000E+03 0.  0.
        -13    1    3    3    0    0 -0.10076236813E+02  0.49925397373E+02  0.26867549595E+02  0.57584305470E+02  0.10566000000E+00 0. -1.
         23    2    1    0    0    0 -0.16539012871E+02  0.14128736822E+02  0.21610481265E+02  0.94337758539E+02  0.89215691639E+02 0.  0.
         13    1    3    3    0    0 -0.64627760579E+01 -0.35796660551E+02 -0.52570683302E+01  0.36753453069E+02  0.10566000000E+00 0.  1.
         22    1    1    0    0    0  0.16539012871E+02 -0.14128736822E+02 -0.21610481265E+02  0.30662241461E+02  0.00000000000E+00 0. -1.
</event>
<event>
 5    1  0.1320187E-009  0.9118800E+02  0.7818608E-02  0.1130116E+00
         25   -1    0    0    0    0  0.00000000000E+00  0.00000000000E+00  0.99999998245E-14  0.12500000000E+03  0.12500000000E+03 0.  0.
        -13    1    3    3    0    0 -0.57259021477E+02 -0.71932626252E+01 -0.34560605652E+01  0.57812577233E+02  0.10566000000E+00 0. -1.
         23    2    1    0    0    0 -0.23918565547E+02  0.12178113640E+02 -0.88290937182E+01  0.96744785869E+02  0.92526733798E+02 0.  0.
         13    1    3    3    0    0  0.33340455929E+02  0.19371376265E+02 -0.53730331531E+01  0.38932208636E+02  0.10566000000E+00 0.  1.
         22    1    1    0    0    0  0.23918565547E+02 -0.12178113640E+02  0.88290937182E+01  0.28255214131E+02  0.00000000000E+00 0. -1.
</event>
<event>
 5    1  0.1320187E-009  0.9118800E+02  0.7818608E-02  0.1130116E+00
         25   -1    0    0    0    0  0.00000000000E+00  0.00000000000E+00  0.99999998245E-14  0.12500000000E+03  0.12500000000E+03 0.  0.
        -13    1    3    3    0    0  0.86109979120E+01 -0.67085906572E+01  0.32877758676E+02  0.34642642123E+02  0.10566000000E+00 0. -1.
         23    2    1    0    0    0 -0.16859585538E+02  0.12120877643E+02 -0.19928085353E+02  0.96219974197E+02  0.91814996320E+02 0.  0.
         13    1    3    3    0    0 -0.25470583450E+02  0.18829468300E+02 -0.52805844029E+02  0.61577332075E+02  0.10566000000E+00 0.  1.
         22    1    1    0    0    0  0.16859585538E+02 -0.12120877643E+02  0.19928085353E+02  0.28780025803E+02  0.00000000000E+00 0.  1.
</event>
<event>
 5    1  0.1320187E-009  0.9118800E+02  0.7818608E-02  0.1130116E+00
         25   -1    0    0    0    0  0.00000000000E+00  0.00000000000E+00  0.99999998245E-14  0.12500000000E+03  0.12500000000E+03 0.  0.
        -13    1    3    3    0    0 -0.29141446270E+02 -0.80837011314E+01  0.47869434002E+02  0.56622115736E+02  0.10566000000E+00 0.  1.
         23    2    1    0    0    0  0.40932945915E+01 -0.94295206888E+01  0.27537963772E+02  0.95605946694E+02  0.90975198123E+02 0.  0.
         13    1    3    3    0    0  0.33234740861E+02 -0.13458195574E+01 -0.20331470230E+02  0.38983830958E+02  0.10566000000E+00 0. -1.
         22    1    1    0    0    0 -0.40932945915E+01  0.94295206888E+01 -0.27537963772E+02  0.29394053306E+02  0.00000000000E+00 0.  1.
</event>
<event>
 5    1  0.1320187E-009  0.9118800E+02  0.7818608E-02  0.1130116E+00
         25   -1    0    0    0    0  0.00000000000E+00  0.00000000000E+00  0.99999998245E-14  0.12500000000E+03  0.12500000000E+03 0.  0.
        -13    1    3    3    0    0 -0.32907793182E+02 -0.44484283829E+02  0.19062637670E+02  0.58524949200E+02  0.10566000000E+00 0.  1.
         23    2    1    0    0    0 -0.12548090990E+02 -0.24860865548E+02 -0.62301668799E+01  0.96463493510E+02  0.92145935220E+02 0.  0.
         13    1    3    3    0    0  0.20359702191E+02  0.19623418281E+02 -0.25292804550E+02  0.37938544311E+02  0.10566000000E+00 0. -1.
         22    1    1    0    0    0  0.12548090990E+02  0.24860865548E+02  0.62301668799E+01  0.28536506490E+02  0.00000000000E+00 0.  1.
</event>
<event>
 5    1  0.1320187E-009  0.9118800E+02  0.7818608E-02  0.1130116E+00
         25   -1    0    0    0    0  0.00000000000E+00  0.00000000000E+00  0.99999998245E-14  0.12500000000E+03  0.12500000000E+03 0.  0.
        -13    1    3    3    0    0  0.23965694885E+02  0.38771312703E+02 -0.21217538345E+02  0.50276876568E+02  0.10566000000E+00 0.  1.
         23    2    1    0    0    0  0.27346973143E+02  0.24539744606E+01  0.73147838773E+01  0.96585479172E+02  0.92311265796E+02 0.  0.
         13    1    3    3    0    0  0.33812782583E+01 -0.36317338242E+02  0.28532322222E+02  0.46308602603E+02  0.10566000000E+00 0. -1.
         22    1    1    0    0    0 -0.27346973143E+02 -0.24539744606E+01 -0.73147838773E+01  0.28414520828E+02  0.00000000000E+00 0. -1.
</event>
<event>
 5    1  0.1320187E-009  0.9118800E+02  0.7818608E-02  0.1130116E+00
         25   -1    0    0    0    0  0.00000000000E+00  0.00000000000E+00  0.99999998245E-14  0.12500000000E+03  0.12500000000E+03 0.  0.
        -13    1    3    3    0    0  0.17324995388E+02  0.14747513413E+00  0.32740842242E+02  0.37042558346E+02  0.10566000000E+00 0.  1.
         23    2    1    0    0    0 -0.27153956824E+02  0.52936653229E+00 -0.72851275377E+01  0.96880777334E+02  0.92710270917E+02 0.  0.
         13    1    3    3    0    0 -0.44478952211E+02  0.38189139816E+00 -0.40025969779E+02  0.59838218988E+02  0.10566000000E+00 0. -1.
         22    1    1    0    0    0  0.27153956824E+02 -0.52936653229E+00  0.72851275377E+01  0.28119222666E+02  0.00000000000E+00 0. -1.
</event>
<event>
 5    1  0.1320187E-009  0.9118800E+02  0.7818608E-02  0.1130116E+00
         25   -1    0    0    0    0  0.00000000000E+00  0.00000000000E+00  0.99999998245E-14  0.12500000000E+03  0.12500000000E+03 0.  0.
        -13    1    3    3    0    0 -0.35749213730E+02  0.49539774069E+02 -0.89248839625E+01  0.61740264130E+02  0.10566000000E+00 0. -1.
         23    2    1    0    0    0 -0.26906815494E+02  0.30578755545E+02 -0.58069210862E+00  0.84264582805E+02  0.73764122046E+02 0.  0.
         13    1    3    3    0    0  0.88423982359E+01 -0.18961018524E+02  0.83441918539E+01  0.22524318674E+02  0.10566000000E+00 0.  1.
         22    1    1    0    0    0  0.26906815494E+02 -0.30578755545E+02  0.58069210862E+00  0.40735417195E+02  0.00000000000E+00 0. -1.
</event>
<event>
 5    1  0.1320187E-009  0.9118800E+02  0.7818608E-02  0.1130116E+00
         25   -1    0    0    0    0  0.00000000000E+00  0.00000000000E+00  0.99999998245E-14  0.12500000000E+03  0.12500000000E+03 0.  0.
        -13    1    3    3    0    0 -0.26307801024E+02  0.97295979517E+01 -0.38890233075E+02  0.47950254052E+02  0.10566000000E+00 0.  1.
         23    2    1    0    0    0 -0.27003695337E+02  0.78542165838E+01  0.86842964995E+01  0.95566935503E+02  0.90921580913E+02 0.  0.
         13    1    3    3    0    0 -0.69589431258E+00 -0.18753813679E+01  0.47574529574E+02  0.47616681451E+02  0.10566000000E+00 0. -1.
         22    1    1    0    0    0  0.27003695337E+02 -0.78542165838E+01 -0.86842964995E+01  0.29433064497E+02  0.00000000000E+00 0. -1.
</event>
<event>
 5    1  0.1320187E-009  0.9118800E+02  0.7818608E-02  0.1130116E+00
         25   -1    0    0    0    0  0.00000000000E+00  0.00000000000E+00  0.99999998245E-14  0.12500000000E+03  0.12500000000E+03 0.  0.
        -13    1    3    3    0    0 -0.21661576456E+02 -0.25702104699E+02 -0.48048370466E+02  0.58638546614E+02  0.10566000000E+00 0. -1.
         23    2    1    0    0    0 -0.48447384592E+01 -0.25300532081E+02 -0.16450658833E+02  0.94435108534E+02  0.89351984496E+02 0.  0.
         13    1    3    3    0    0  0.16816837997E+02  0.40157261806E+00  0.31597711633E+02  0.35796561920E+02  0.10566000000E+00 0.  1.
         22    1    1    0    0    0  0.48447384592E+01  0.25300532081E+02  0.16450658833E+02  0.30564891466E+02  0.00000000000E+00 0. -1.
</event>
<event>
 5    1  0.1320187E-009  0.9118800E+02  0.7818608E-02  0.1130116E+00
         25   -1    0    0    0    0  0.00000000000E+00  0.00000000000E+00  0.99999998245E-14  0.12500000000E+03  0.12500000000E+03 0.  0.
        -13    1    3    3    0    0 -0.55636712793E+02 -0.20132842567E+02 -0.10958387930E+01  0.59177590243E+02  0.10566000000E+00 0. -1.
         23    2    1    0    0    0 -0.19661873125E+02 -0.14722939624E+02  0.11766446268E+02  0.97763930832E+02  0.93893464672E+02 0.  0.
         13    1    3    3    0    0  0.35974839668E+02  0.54099029435E+01  0.12862285061E+02  0.38586340589E+02  0.10566000000E+00 0.  1.
         22    1    1    0    0    0  0.19661873125E+02  0.14722939624E+02 -0.11766446268E+02  0.27236069168E+02  0.00000000000E+00 0. -1.
</event>
<event>
 5    1  0.1320187E-009  0.9118800E+02  0.7818608E-02  0.1130116E+00
         25   -1    0    0    0    0  0.00000000000E+00  0.00000000000E+00  0.99999998245E-14  0.12500000000E+03  0.12500000000E+03 0.  0.
        -13    1    3    3    0    0  0.45356421279E+02 -0.11465166517E+02  0.40991966182E+02  0.62201346046E+02  0.10566000000E+00 0. -1.
         23    2    1    0    0    0  0.21636655784E+02 -0.11318637446E+01  0.19887116037E+02  0.95590420381E+02  0.90953862454E+02 0.  0.
         13    1    3    3    0    0 -0.23719765495E+02  0.10333302772E+02 -0.21104850144E+02  0.33389074335E+02  0.10566000000E+00 0.  1.
         22    1    1    0    0    0 -0.21636655784E+02  0.11318637446E+01 -0.19887116037E+02  0.29409579619E+02  0.00000000000E+00 0. -1.
</event>
<event>
 5    1  0.1320187E-009  0.9118800E+02  0.7818608E-02  0.1130116E+00
         25   -1    0    0    0    0  0.00000000000E+00  0.00000000000E+00  0.99999998245E-14  0.12500000000E+03  0.12500000000E+03 0.  0.
        -13    1    3    3    0    0  0.21406723737E+02 -0.29291515015E+02  0.36212667593E+02  0.51260210020E+02  0.10566000000E+00 0. -1.
         23    2    1    0    0    0  0.25597078667E+02  0.72034159659E+01  0.91834673466E+01  0.96867532807E+02  0.92692411781E+02 0.  0.
         13    1    3    3    0    0  0.41903549296E+01  0.36494930981E+02 -0.27029200247E+02  0.45607322787E+02  0.10566000000E+00 0.  1.
         22    1    1    0    0    0 -0.25597078667E+02 -0.72034159659E+01 -0.91834673466E+01  0.28132467193E+02  0.00000000000E+00 0. -1.
</event>
<event>
 5    1  0.1320187E-009  0.9118800E+02  0.7818608E-02  0.1130116E+00
         25   -1    0    0    0    0  0.00000000000E+00  0.00000000000E+00  0.99999998245E-14  0.12500000000E+03  0.12500000000E+03 0.  0.
        -13    1    3    3    0    0  0.45575216065E+02 -0.56495680576E+01 -0.37908565344E+02  0.59549042218E+02  0.10566000000E+00 0. -1.
         23    2    1    0    0    0  0.27337709294E+02 -0.57775372150E+01 -0.58196610040E+01  0.96458823781E+02  0.92139600310E+02 0.  0.
         13    1    3    3    0    0 -0.18237506771E+02 -0.12796915747E+00  0.32088904339E+02  0.36909781563E+02  0.10566000000E+00 0.  1.
         22    1    1    0    0    0 -0.27337709294E+02  0.57775372150E+01  0.58196610040E+01  0.28541176219E+02  0.00000000000E+00 0. -1.
</event>
<event>
 5    1  0.1320187E-009  0.9118800E+02  0.7818608E-02  0.1130116E+00
         25   -1    0    0    0    0  0.00000000000E+00  0.00000000000E+00  0.99999998245E-14  0.12500000000E+03  0.12500000000E+03 0.  0.
        -13    1    3    3    0    0 -0.19980216932E+02 -0.56161896401E+02 -0.53347933316E-01  0.59610248163E+02  0.10566000000E+00 0. -1.
         23    2    1    0    0    0  0.35051267179E+01 -0.30013615504E+02 -0.93018553097E+00  0.94768091789E+02  0.89816607302E+02 0.  0.
         13    1    3    3    0    0  0.23485343650E+02  0.26148280897E+02 -0.87683759765E+00  0.35157843626E+02  0.10566000000E+00 0.  1.
         22    1    1    0    0    0 -0.35051267179E+01  0.30013615504E+02  0.93018553097E+00  0.30231908211E+02  0.00000000000E+00 0. -1.
</event>
<event>
 5    1  0.1320187E-009  0.9118800E+02  0.7818608E-02  0.1130116E+00
         25   -1    0    0    0    0  0.00000000000E+00  0.00000000000E+00  0.99999998245E-14  0.12500000000E+03  0.12500000000E+03 0.  0.
        -13    1    3    3    0    0  0.19816334069E+02  0.12028373430E+02  0.38869866170E+02  0.45257557639E+02  0.10566000000E+00 0. -1.
         23    2    1    0    0    0  0.21238351792E+02 -0.20483945593E+02  0.60905193720E+00  0.95486773166E+02  0.90811305967E+02 0.  0.
         13    1    3    3    0    0  0.14220177234E+01 -0.32512319023E+02 -0.38260814233E+02  0.50229215527E+02  0.10566000000E+00 0.  1.
         22    1    1    0    0    0 -0.21238351792E+02  0.20483945593E+02 -0.60905193720E+00  0.29513226834E+02  0.00000000000E+00 0.  1.
</event>
<event>
 4    1  0.1320187E-009  0.9118800E+02  0.7818608E-02  0.1130116E+00
         25   -1    0    0    0    0  0.00000000000E+00  0.00000000000E+00  0.99999998245E-14  0.12500000000E+03  0.12500000000E+03 0.  0.
        -13    1    1    0    0    0 -0.11408671962E+02 -0.19857079767E+02 -0.37369014499E+02  0.43828253689E+02  0.10566000000E+00 0.  1.
         13    1    1    0    0    0  0.23405022319E+02  0.12400331182E+02 -0.12537628154E+02  0.29304719192E+02  0.10566000000E+00 0. -1.
         22    1    1    0    0    0 -0.11996350357E+02  0.74567485844E+01  0.49906642652E+02  0.51867027119E+02  0.00000000000E+00 0. -1.
</event>
<event>
 5    1  0.1320187E-009  0.9118800E+02  0.7818608E-02  0.1130116E+00
         25   -1    0    0    0    0  0.00000000000E+00  0.00000000000E+00  0.99999998245E-14  0.12500000000E+03  0.12500000000E+03 0.  0.
        -13    1    3    3    0    0 -0.37628976272E+01 -0.25630316818E+02 -0.23100226659E+02  0.34708848648E+02  0.10566000000E+00 0. -1.
         23    2    1    0    0    0  0.34471558682E+01  0.98509313246E+01  0.26730420492E+02  0.96304371218E+02  0.91929825434E+02 0.  0.
         13    1    3    3    0    0  0.72100534954E+01  0.35481248142E+02  0.49830647151E+02  0.61595522570E+02  0.10566000000E+00 0.  1.
         22    1    1    0    0    0 -0.34471558682E+01 -0.98509313246E+01 -0.26730420492E+02  0.28695628782E+02  0.00000000000E+00 0.  1.
</event>
<event>
 5    1  0.1320187E-009  0.9118800E+02  0.7818608E-02  0.1130116E+00
         25   -1    0    0    0    0  0.00000000000E+00  0.00000000000E+00  0.99999998245E-14  0.12500000000E+03  0.12500000000E+03 0.  0.
        -13    1    3    3    0    0 -0.32925042340E+02  0.19342593237E+02 -0.34185180349E+01  0.38339167386E+02  0.10566000000E+00 0. -1.
         23    2    1    0    0    0  0.17677667101E+02 -0.15795866023E+02 -0.76466463270E+01  0.10009055405E+03  0.96941417940E+02 0.  0.
         13    1    3    3    0    0  0.50602709441E+02 -0.35138459260E+02 -0.42281282920E+01  0.61751386663E+02  0.10566000000E+00 0.  1.
         22    1    1    0    0    0 -0.17677667101E+02  0.15795866023E+02  0.76466463270E+01  0.24909445951E+02  0.00000000000E+00 0.  1.
</event>
<event>
 5    1  0.1320187E-009  0.9118800E+02  0.7818608E-02  0.1130116E+00
         25   -1    0    0    0    0  0.00000000000E+00  0.00000000000E+00  0.99999998245E-14  0.12500000000E+03  0.12500000000E+03 0.  0.
        -13    1    3    3    0    0 -0.26782005701E+02 -0.13237505272E+02 -0.26574317203E+02  0.39983907688E+02  0.10566000000E+00 0.  1.
         23    2    1    0    0    0 -0.11153117138E+02  0.17400674049E+02  0.18895026923E+02  0.96996473050E+02  0.92866130868E+02 0.  0.
         13    1    3    3    0    0  0.15628888563E+02  0.30638179322E+02  0.45469344125E+02  0.57012565361E+02  0.10566000000E+00 0. -1.
         22    1    1    0    0    0  0.11153117138E+02 -0.17400674049E+02 -0.18895026923E+02  0.28003526950E+02  0.00000000000E+00 0. -1.
</event>
<event>
 5    1  0.1320187E-009  0.9118800E+02  0.7818608E-02  0.1130116E+00
         25   -1    0    0    0    0  0.00000000000E+00  0.00000000000E+00  0.99999998245E-14  0.12500000000E+03  0.12500000000E+03 0.  0.
        -13    1    3    3    0    0 -0.59533391316E+01  0.45700306908E+02 -0.72751631082E+01  0.46657255176E+02  0.10566000000E+00 0. -1.
         23    2    1    0    0    0  0.23776226775E+02  0.10207664846E+02  0.11584892067E+02  0.96650130416E+02  0.92398769494E+02 0.  0.
         13    1    3    3    0    0  0.29729565906E+02 -0.35492642062E+02  0.18860055175E+02  0.49992875240E+02  0.10566000000E+00 0.  1.
         22    1    1    0    0    0 -0.23776226775E+02 -0.10207664846E+02 -0.11584892067E+02  0.28349869584E+02  0.00000000000E+00 0. -1.
</event>
<event>
 5    1  0.1320187E-009  0.9118800E+02  0.7818608E-02  0.1130116E+00
         25   -1    0    0    0    0  0.00000000000E+00  0.00000000000E+00  0.99999998245E-14  0.12500000000E+03  0.12500000000E+03 0.  0.
        -13    1    3    3    0    0 -0.17858437172E+02  0.55833762982E+02 -0.43734478740E+01  0.58783255076E+02  0.10566000000E+00 0.  1.
         23    2    1    0    0    0 -0.73740368050E+01  0.24618321101E+02  0.13200905181E+02  0.96108789395E+02  0.91663500636E+02 0.  0.
         13    1    3    3    0    0  0.10484400367E+02 -0.31215441881E+02  0.17574353055E+02  0.37325534320E+02  0.10566000000E+00 0. -1.
         22    1    1    0    0    0  0.73740368050E+01 -0.24618321101E+02 -0.13200905181E+02  0.28891210605E+02  0.00000000000E+00 0.  1.
</event>
<event>
 5    1  0.1320187E-009  0.9118800E+02  0.7818608E-02  0.1130116E+00
         25   -1    0    0    0    0  0.00000000000E+00  0.00000000000E+00  0.99999998245E-14  0.12500000000E+03  0.12500000000E+03 0.  0.
        -13    1    3    3    0    0  0.54841993929E+02 -0.15705182309E+02 -0.19086375120E+02  0.60154783091E+02  0.10566000000E+00 0.  1.
         23    2    1    0    0    0  0.26503844087E+02 -0.15379538260E+02  0.61212684827E-01  0.94357093880E+02  0.89242778252E+02 0.  0.
         13    1    3    3    0    0 -0.28338149843E+02  0.32564404919E+00  0.19147587804E+02  0.34202310789E+02  0.10566000000E+00 0. -1.
         22    1    1    0    0    0 -0.26503844087E+02  0.15379538260E+02 -0.61212684827E-01  0.30642906120E+02  0.00000000000E+00 0.  1.
</event>
<event>
 5    1  0.1320187E-009  0.9118800E+02  0.7818608E-02  0.1130116E+00
         25   -1    0    0    0    0  0.00000000000E+00  0.00000000000E+00  0.99999998245E-14  0.12500000000E+03  0.12500000000E+03 0.  0.
        -13    1    3    3    0    0 -0.12205055581E+02 -0.14041525237E+02  0.32666105671E+02  0.37592731166E+02  0.10566000000E+00 0. -1.
         23    2    1    0    0    0  0.24481607026E+02  0.16603473792E+02  0.12644463999E+00  0.95418917992E+02  0.90717856555E+02 0.  0.
         13    1    3    3    0    0  0.36686662607E+02  0.30644999030E+02 -0.32539661031E+02  0.57826186826E+02  0.10566000000E+00 0.  1.
         22    1    1    0    0    0 -0.24481607026E+02 -0.16603473792E+02 -0.12644463999E+00  0.29581082008E+02  0.00000000000E+00 0.  1.
</event>
<event>
 5    1  0.1320187E-009  0.9118800E+02  0.7818608E-02  0.1130116E+00
         25   -1    0    0    0    0  0.00000000000E+00  0.00000000000E+00  0.99999998245E-14  0.12500000000E+03  0.12500000000E+03 0.  0.
        -13    1    3    3    0    0 -0.27650457629E+02 -0.35596884366E+02 -0.11407146274E+02  0.46495377553E+02  0.10566000000E+00 0.  1.
         23    2    1    0    0    0  0.10396279607E+02 -0.24605419848E+02  0.15257271582E+02  0.94238113652E+02  0.89075969897E+02 0.  0.
         13    1    3    3    0    0  0.38046737236E+02  0.10991464518E+02  0.26664417857E+02  0.47742736099E+02  0.10566000000E+00 0. -1.
         22    1    1    0    0    0 -0.10396279607E+02  0.24605419848E+02 -0.15257271582E+02  0.30761886348E+02  0.00000000000E+00 0. -1.
</event>
<event>
 5    1  0.1320187E-009  0.9118800E+02  0.7818608E-02  0.1130116E+00
         25   -1    0    0    0    0  0.00000000000E+00  0.00000000000E+00  0.99999998245E-14  0.12500000000E+03  0.12500000000E+03 0.  0.
        -13    1    3    3    0    0 -0.11562876109E+02  0.25841136963E+02 -0.10377447924E+02  0.30152397133E+02  0.10566000000E+00 0.  1.
         23    2    1    0    0    0 -0.57071827088E+01 -0.28967507244E+02  0.16175130338E+02  0.91335133271E+02  0.84904554164E+02 0.  0.
         13    1    3    3    0    0  0.58556934003E+01 -0.54808644206E+02  0.26552578262E+02  0.61182736138E+02  0.10566000000E+00 0. -1.
         22    1    1    0    0    0  0.57071827088E+01  0.28967507244E+02 -0.16175130338E+02  0.33664866729E+02  0.00000000000E+00 0. -1.
</event>
<event>
 5    1  0.1320187E-009  0.9118800E+02  0.7818608E-02  0.1130116E+00
         25   -1    0    0    0    0  0.00000000000E+00  0.00000000000E+00  0.99999998245E-14  0.12500000000E+03  0.12500000000E+03 0.  0.
        -13    1    3    3    0    0 -0.30260015138E+02  0.15198065588E+02 -0.21342353578E+02  0.40026952596E+02  0.10566000000E+00 0. -1.
         23    2    1    0    0    0  0.23626523110E+02  0.15472141693E+02 -0.51688683654E+01  0.96289079378E+02  0.91909030266E+02 0.  0.
         13    1    3    3    0    0  0.53886538248E+02  0.27407610409E+00  0.16173485213E+02  0.56262126782E+02  0.10566000000E+00 0.  1.
         22    1    1    0    0    0 -0.23626523110E+02 -0.15472141693E+02  0.51688683654E+01  0.28710920622E+02  0.00000000000E+00 0. -1.
</event>
<event>
 5    1  0.1320187E-009  0.9118800E+02  0.7818608E-02  0.1130116E+00
         25   -1    0    0    0    0  0.00000000000E+00  0.00000000000E+00  0.99999998245E-14  0.12500000000E+03  0.12500000000E+03 0.  0.
        -13    1    3    3    0    0 -0.11821942254E+02  0.15697847243E+02 -0.30987819034E+02  0.36693825356E+02  0.10566000000E+00 0. -1.
         23    2    1    0    0    0  0.26022040834E+02 -0.50406347265E+00  0.12110297302E+02  0.96293554906E+02  0.91915116965E+02 0.  0.
         13    1    3    3    0    0  0.37843983089E+02 -0.16201910715E+02  0.43098116335E+02  0.59599729551E+02  0.10566000000E+00 0.  1.
         22    1    1    0    0    0 -0.26022040834E+02  0.50406347265E+00 -0.12110297302E+02  0.28706445094E+02  0.00000000000E+00 0.  1.
</event>
<event>
 5    1  0.1320187E-009  0.9118800E+02  0.7818608E-02  0.1130116E+00
         25   -1    0    0    0    0  0.00000000000E+00  0.00000000000E+00  0.99999998245E-14  0.12500000000E+03  0.12500000000E+03 0.  0.
        -13    1    3    3    0    0 -0.14594709676E+02 -0.56807063364E+02  0.79311292093E+00  0.58657379678E+02  0.10566000000E+00 0. -1.
         23    2    1    0    0    0 -0.20994477519E+02 -0.20350464326E+02  0.20156081164E+01  0.95691773157E+02  0.91093047426E+02 0.  0.
         13    1    3    3    0    0 -0.63997678427E+01  0.36456599038E+02  0.12224951955E+01  0.37034393479E+02  0.10566000000E+00 0.  1.
         22    1    1    0    0    0  0.20994477519E+02  0.20350464326E+02 -0.20156081164E+01  0.29308226843E+02  0.00000000000E+00 0.  1.
</event>
<event>
 5    1  0.1320187E-009  0.9118800E+02  0.7818608E-02  0.1130116E+00
         25   -1    0    0    0    0  0.00000000000E+00  0.00000000000E+00  0.99999998245E-14  0.12500000000E+03  0.12500000000E+03 0.  0.
        -13    1    3    3    0    0 -0.39491905778E+02  0.77018115001E+01  0.33472894537E+02  0.52339032807E+02  0.10566000000E+00 0.  1.
         23    2    1    0    0    0 -0.20341199196E+02 -0.19460438921E+02  0.43763162135E+01  0.96510963314E+02  0.92210307604E+02 0.  0.
         13    1    3    3    0    0  0.19150706583E+02 -0.27162250421E+02 -0.29096578324E+02  0.44171930507E+02  0.10566000000E+00 0. -1.
         22    1    1    0    0    0  0.20341199196E+02  0.19460438921E+02 -0.43763162135E+01  0.28489036686E+02  0.00000000000E+00 0.  1.
</event>
<event>
 5    1  0.1320187E-009  0.9118800E+02  0.7818608E-02  0.1130116E+00
         25   -1    0    0    0    0  0.00000000000E+00  0.00000000000E+00  0.99999998245E-14  0.12500000000E+03  0.12500000000E+03 0.  0.
        -13    1    3    3    0    0  0.21822483625E+02  0.50712571225E+01 -0.28902452911E+01  0.22589889824E+02  0.10566000000E+00 0.  1.
         23    2    1    0    0    0 -0.22349607252E+02  0.21441328948E+02  0.31430166157E+02  0.80874147305E+02  0.67775635933E+02 0.  0.
         13    1    3    3    0    0 -0.44172090877E+02  0.16370071826E+02  0.34320411449E+02  0.58284257481E+02  0.10566000000E+00 0. -1.
         22    1    1    0    0    0  0.22349607252E+02 -0.21441328948E+02 -0.31430166157E+02  0.44125852695E+02  0.00000000000E+00 0. -1.
</event>
<event>
 5    1  0.1320187E-009  0.9118800E+02  0.7818608E-02  0.1130116E+00
         25   -1    0    0    0    0  0.00000000000E+00  0.00000000000E+00  0.99999998245E-14  0.12500000000E+03  0.12500000000E+03 0.  0.
        -13    1    3    3    0    0 -0.16552620109E+02  0.12107913868E+02  0.25024317293E+02  0.32354573568E+02  0.10566000000E+00 0. -1.
         23    2    1    0    0    0  0.13510763041E+02 -0.32598609250E+02  0.85583747227E+01  0.88689453035E+02  0.80915778800E+02 0.  0.
         13    1    3    3    0    0  0.30063383150E+02 -0.44706523119E+02 -0.16465942571E+02  0.56334879467E+02  0.10566000000E+00 0.  1.
         22    1    1    0    0    0 -0.13510763041E+02  0.32598609250E+02 -0.85583747227E+01  0.36310546965E+02  0.00000000000E+00 0.  1.
</event>
<event>
 5    1  0.1320187E-009  0.9118800E+02  0.7818608E-02  0.1130116E+00
         25   -1    0    0    0    0  0.00000000000E+00  0.00000000000E+00  0.99999998245E-14  0.12500000000E+03  0.12500000000E+03 0.  0.
        -13    1    3    3    0    0 -0.22255799083E+02 -0.51750928755E+02  0.16632089738E+02  0.58737694821E+02  0.10566000000E+00 0.  1.
         23    2    1    0    0    0 -0.17527638649E+02 -0.19482383716E+02 -0.55922424326E+01  0.98203459789E+02  0.94476795813E+02 0.  0.
         13    1    3    3    0    0  0.47281604337E+01  0.32268545039E+02 -0.22224332170E+02  0.39465764968E+02  0.10566000000E+00 0. -1.
         22    1    1    0    0    0  0.17527638649E+02  0.19482383716E+02  0.55922424326E+01  0.26796540211E+02  0.00000000000E+00 0.  1.
</event>
<event>
 5    1  0.1320187E-009  0.9118800E+02  0.7818608E-02  0.1130116E+00
         25   -1    0    0    0    0  0.00000000000E+00  0.00000000000E+00  0.99999998245E-14  0.12500000000E+03  0.12500000000E+03 0.  0.
        -13    1    3    3    0    0 -0.27823747693E+02  0.63364734892E+01 -0.40924886779E+02  0.49891575981E+02  0.10566000000E+00 0.  1.
         23    2    1    0    0    0 -0.22105781914E+02 -0.17605416395E+02 -0.10888619057E+01  0.96719230903E+02  0.92492203595E+02 0.  0.
         13    1    3    3    0    0  0.57179657792E+01 -0.23941889884E+02  0.39836024873E+02  0.46827654923E+02  0.10566000000E+00 0. -1.
         22    1    1    0    0    0  0.22105781914E+02  0.17605416395E+02  0.10888619057E+01  0.28280769097E+02  0.00000000000E+00 0.  1.
</event>
<event>
 5    1  0.1320187E-009  0.9118800E+02  0.7818608E-02  0.1130116E+00
         25   -1    0    0    0    0  0.00000000000E+00  0.00000000000E+00  0.99999998245E-14  0.12500000000E+03  0.12500000000E+03 0.  0.
        -13    1    3    3    0    0  0.14588651656E+02 -0.17998203146E+02  0.86119316911E+01  0.24717212729E+02  0.10566000000E+00 0. -1.
         23    2    1    0    0    0  0.85448395780E+01  0.34417620580E+02  0.26824160030E+02  0.80535154885E+02  0.67147514631E+02 0.  0.
         13    1    3    3    0    0 -0.60438120780E+01  0.52415823726E+02  0.18212228339E+02  0.55817942155E+02  0.10566000000E+00 0.  1.
         22    1    1    0    0    0 -0.85448395780E+01 -0.34417620580E+02 -0.26824160030E+02  0.44464845115E+02  0.00000000000E+00 0.  1.
</event>
<event>
 5    1  0.1320187E-009  0.9118800E+02  0.7818608E-02  0.1130116E+00
         25   -1    0    0    0    0  0.00000000000E+00  0.00000000000E+00  0.99999998245E-14  0.12500000000E+03  0.12500000000E+03 0.  0.
        -13    1    3    3    0    0 -0.48961209909E+02  0.17584049255E+02  0.28930133343E+02  0.59526150919E+02  0.10566000000E+00 0.  1.
         23    2    1    0    0    0 -0.15662467400E+02  0.96400195224E+01  0.24970247733E+02  0.93987806699E+02  0.88724019717E+02 0.  0.
         13    1    3    3    0    0  0.33298742509E+02 -0.79440297326E+01 -0.39598856098E+01  0.34461655780E+02  0.10566000000E+00 0. -1.
         22    1    1    0    0    0  0.15662467400E+02 -0.96400195224E+01 -0.24970247733E+02  0.31012193301E+02  0.00000000000E+00 0.  1.
</event>
<event>
 5    1  0.1320187E-009  0.9118800E+02  0.7818608E-02  0.1130116E+00
         25   -1    0    0    0    0  0.00000000000E+00  0.00000000000E+00  0.99999998245E-14  0.12500000000E+03  0.12500000000E+03 0.  0.
        -13    1    3    3    0    0  0.30673718010E+02 -0.40068601048E+02 -0.18592593719E+02  0.53777927366E+02  0.10566000000E+00 0. -1.
         23    2    1    0    0    0 -0.65850333718E+01 -0.27746678962E+02 -0.19145674388E+01  0.96418425054E+02  0.92084777588E+02 0.  0.
         13    1    3    3    0    0 -0.37258751382E+02  0.12321922086E+02  0.16678026280E+02  0.42640497688E+02  0.10566000000E+00 0.  1.
         22    1    1    0    0    0  0.65850333718E+01  0.27746678962E+02  0.19145674388E+01  0.28581574946E+02  0.00000000000E+00 0.  1.
</event>
<event>
 5    1  0.1320187E-009  0.9118800E+02  0.7818608E-02  0.1130116E+00
         25   -1    0    0    0    0  0.00000000000E+00  0.00000000000E+00  0.99999998245E-14  0.12500000000E+03  0.12500000000E+03 0.  0.
        -13    1    3    3    0    0 -0.26417042636E+02  0.16819978162E+02 -0.28293237717E+02  0.42205334633E+02  0.10566000000E+00 0.  1.
         23    2    1    0    0    0  0.10913442559E+02  0.25748780761E+02  0.88990171649E+01  0.95652164548E+02  0.91038679346E+02 0.  0.
         13    1    3    3    0    0  0.37330485195E+02  0.89288025991E+01  0.37192254881E+02  0.53446829915E+02  0.10566000000E+00 0. -1.
         22    1    1    0    0    0 -0.10913442559E+02 -0.25748780761E+02 -0.88990171649E+01  0.29347835452E+02  0.00000000000E+00 0.  1.
</event>
<event>
 4    1  0.1320187E-009  0.9118800E+02  0.7818608E-02  0.1130116E+00
         25   -1    0    0    0    0  0.00000000000E+00  0.00000000000E+00  0.99999998245E-14  0.12500000000E+03  0.12500000000E+03 0.  0.
        -13    1    1    0    0    0 -0.20674244402E+01 -0.10612687317E+02  0.86261319309E+01  0.13832016918E+02  0.10566000000E+00 0. -1.
         13    1    1    0    0    0  0.28538613242E+00  0.33861952468E+02  0.42874481166E+02  0.54634655389E+02  0.10566000000E+00 0.  1.
         22    1    1    0    0    0  0.17820383078E+01 -0.23249265151E+02 -0.51500613097E+02  0.56533327693E+02  0.00000000000E+00 0.  1.
</event>
<event>
 5    1  0.1320187E-009  0.9118800E+02  0.7818608E-02  0.1130116E+00
         25   -1    0    0    0    0  0.00000000000E+00  0.00000000000E+00  0.99999998245E-14  0.12500000000E+03  0.12500000000E+03 0.  0.
        -13    1    3    3    0    0  0.11591776254E+02 -0.18739916129E+02 -0.34994792149E+02  0.41354568971E+02  0.10566000000E+00 0. -1.
         23    2    1    0    0    0 -0.14055924460E+02  0.22933623764E+02 -0.14871127051E+02  0.94264506981E+02  0.89112999866E+02 0.  0.
         13    1    3    3    0    0 -0.25647700714E+02  0.41673539893E+02  0.20123665098E+02  0.52909938009E+02  0.10566000000E+00 0.  1.
         22    1    1    0    0    0  0.14055924460E+02 -0.22933623764E+02  0.14871127051E+02  0.30735493019E+02  0.00000000000E+00 0.  1.
</event>
<event>
 5    1  0.1320187E-009  0.9118800E+02  0.7818608E-02  0.1130116E+00
         25   -1    0    0    0    0  0.00000000000E+00  0.00000000000E+00  0.99999998245E-14  0.12500000000E+03  0.12500000000E+03 0.  0.
        -13    1    3    3    0    0  0.47409594171E+02 -0.22649594448E+02  0.22535967656E+02  0.57171275571E+02  0.10566000000E+00 0.  1.
         23    2    1    0    0    0  0.91125488011E+01 -0.63634532100E+01  0.23720820644E+02  0.98804400857E+02  0.95268568869E+02 0.  0.
         13    1    3    3    0    0 -0.38297045370E+02  0.16286141238E+02  0.11848529877E+01  0.41633125287E+02  0.10566000000E+00 0. -1.
         22    1    1    0    0    0 -0.91125488011E+01  0.63634532100E+01 -0.23720820644E+02  0.26195599143E+02  0.00000000000E+00 0.  1.
</event>
<event>
 5    1  0.1320187E-009  0.9118800E+02  0.7818608E-02  0.1130116E+00
         25   -1    0    0    0    0  0.00000000000E+00  0.00000000000E+00  0.99999998245E-14  0.12500000000E+03  0.12500000000E+03 0.  0.
        -13    1    3    3    0    0 -0.39910120059E+02 -0.22131364856E+02  0.41225377272E+02  0.61499251124E+02  0.10566000000E+00 0. -1.
         23    2    1    0    0    0 -0.24046877257E+02 -0.45347416845E+01  0.18556347021E+02  0.94289184271E+02  0.89147608312E+02 0.  0.
         13    1    3    3    0    0  0.15863242802E+02  0.17596623172E+02 -0.22669030251E+02  0.32789933147E+02  0.10566000000E+00 0.  1.
         22    1    1    0    0    0  0.24046877257E+02  0.45347416845E+01 -0.18556347021E+02  0.30710815729E+02  0.00000000000E+00 0. -1.
</event>
<event>
 5    1  0.1320187E-009  0.9118800E+02  0.7818608E-02  0.1130116E+00
         25   -1    0    0    0    0  0.00000000000E+00  0.00000000000E+00  0.99999998245E-14  0.12500000000E+03  0.12500000000E+03 0.  0.
        -13    1    3    3    0    0 -0.42141354133E-01 -0.16814753793E+02  0.41877061024E+02  0.45126900237E+02  0.10566000000E+00 0.  1.
         23    2    1    0    0    0 -0.18218594010E+02  0.19719259826E+02  0.12637927879E+02  0.95327056147E+02  0.90591191828E+02 0.  0.
         13    1    3    3    0    0 -0.18176452656E+02  0.36534013619E+02 -0.29239133145E+02  0.50200155910E+02  0.10566000000E+00 0. -1.
         22    1    1    0    0    0  0.18218594010E+02 -0.19719259826E+02 -0.12637927879E+02  0.29672943853E+02  0.00000000000E+00 0. -1.
</event>
<event>
 5    1  0.1320187E-009  0.9118800E+02  0.7818608E-02  0.1130116E+00
         25   -1    0    0    0    0  0.00000000000E+00  0.00000000000E+00  0.99999998245E-14  0.12500000000E+03  0.12500000000E+03 0.  0.
        -13    1    3    3    0    0  0.78910000695E+01 -0.38738086705E+02 -0.80436069139E+01  0.40343748213E+02  0.10566000000E+00 0.  1.
         23    2    1    0    0    0 -0.26907341823E+02  0.11998242466E+01  0.99484494188E+01  0.96287350035E+02  0.91906678259E+02 0.  0.
         13    1    3    3    0    0 -0.34798341892E+02  0.39937910952E+02  0.17992056333E+02  0.55943601821E+02  0.10566000000E+00 0. -1.
         22    1    1    0    0    0  0.26907341823E+02 -0.11998242466E+01 -0.99484494188E+01  0.28712649965E+02  0.00000000000E+00 0. -1.
</event>
<event>
 5    1  0.1320187E-009  0.9118800E+02  0.7818608E-02  0.1130116E+00
         25   -1    0    0    0    0  0.00000000000E+00  0.00000000000E+00  0.99999998245E-14  0.12500000000E+03  0.12500000000E+03 0.  0.
        -13    1    3    3    0    0  0.17444593172E+02  0.26526022288E+02  0.31798732669E+02  0.44934555220E+02  0.10566000000E+00 0. -1.
         23    2    1    0    0    0 -0.30355704081E+01 -0.20113185828E+02  0.63521357999E+00  0.10464911726E+03  0.10265125092E+03 0.  0.
         13    1    3    3    0    0 -0.20480163580E+02 -0.46639208117E+02 -0.31163519089E+02  0.59714562044E+02  0.10566000000E+00 0.  1.
         22    1    1    0    0    0  0.30355704081E+01  0.20113185828E+02 -0.63521357999E+00  0.20350882737E+02  0.00000000000E+00 0.  1.
</event>
<event>
 5    1  0.1320187E-009  0.9118800E+02  0.7818608E-02  0.1130116E+00
         25   -1    0    0    0    0  0.00000000000E+00  0.00000000000E+00  0.99999998245E-14  0.12500000000E+03  0.12500000000E+03 0.  0.
        -13    1    3    3    0    0 -0.64567007843E+01  0.48617866232E+02  0.88757870875E+01  0.49841515451E+02  0.10566000000E+00 0. -1.
         23    2    1    0    0    0  0.21868725543E+02  0.16378430283E+02  0.15990570057E+02  0.93342576445E+02  0.87810273381E+02 0.  0.
         13    1    3    3    0    0  0.28325426327E+02 -0.32239435949E+02  0.71147829692E+01  0.43501060994E+02  0.10566000000E+00 0.  1.
         22    1    1    0    0    0 -0.21868725543E+02 -0.16378430283E+02 -0.15990570057E+02  0.31657423555E+02  0.00000000000E+00 0. -1.
</event>
<event>
 5    1  0.1320187E-009  0.9118800E+02  0.7818608E-02  0.1130116E+00
         25   -1    0    0    0    0  0.00000000000E+00  0.00000000000E+00  0.99999998245E-14  0.12500000000E+03  0.12500000000E+03 0.  0.
        -13    1    3    3    0    0  0.10126184989E+02 -0.31192426129E+02 -0.12508002964E+02  0.35099407010E+02  0.10566000000E+00 0.  1.
         23    2    1    0    0    0 -0.18163032180E+02  0.21629144322E+02  0.17824705772E+01  0.96699950116E+02  0.92466142609E+02 0.  0.
         13    1    3    3    0    0 -0.28289217169E+02  0.52821570451E+02  0.14290473541E+02  0.61600543106E+02  0.10566000000E+00 0. -1.
         22    1    1    0    0    0  0.18163032180E+02 -0.21629144322E+02 -0.17824705772E+01  0.28300049884E+02  0.00000000000E+00 0. -1.
</event>
<event>
 5    1  0.1320187E-009  0.9118800E+02  0.7818608E-02  0.1130116E+00
         25   -1    0    0    0    0  0.00000000000E+00  0.00000000000E+00  0.99999998245E-14  0.12500000000E+03  0.12500000000E+03 0.  0.
        -13    1    3    3    0    0  0.32383202573E+02 -0.30918457987E+02 -0.16994214041E+02  0.47889845773E+02  0.10566000000E+00 0.  1.
         23    2    1    0    0    0  0.24281258992E+02  0.26900666261E+01  0.16095149513E+02  0.95744746890E+02  0.91165710234E+02 0.  0.
         13    1    3    3    0    0 -0.81019435809E+01  0.33608524613E+02  0.33089363554E+02  0.47854901117E+02  0.10566000000E+00 0. -1.
         22    1    1    0    0    0 -0.24281258992E+02 -0.26900666261E+01 -0.16095149513E+02  0.29255253110E+02  0.00000000000E+00 0.  1.
</event>
<event>
 5    1  0.1320187E-009  0.9118800E+02  0.7818608E-02  0.1130116E+00
         25   -1    0    0    0    0  0.00000000000E+00  0.00000000000E+00  0.99999998245E-14  0.12500000000E+03  0.12500000000E+03 0.  0.
        -13    1    3    3    0    0 -0.19241274506E+02  0.13795769572E+02 -0.51274297548E+02  0.56476673555E+02  0.10566000000E+00 0.  1.
         23    2    1    0    0    0 -0.75612928776E+01  0.23996900540E+02 -0.15548102092E+02  0.95423525156E+02  0.90724204538E+02 0.  0.
         13    1    3    3    0    0  0.11679981628E+02  0.10201130968E+02  0.35726195456E+02  0.38946851602E+02  0.10566000000E+00 0. -1.
         22    1    1    0    0    0  0.75612928776E+01 -0.23996900540E+02  0.15548102092E+02  0.29576474844E+02  0.00000000000E+00 0.  1.
</event>
<event>
 5    1  0.1320187E-009  0.9118800E+02  0.7818608E-02  0.1130116E+00
         25   -1    0    0    0    0  0.00000000000E+00  0.00000000000E+00  0.99999998245E-14  0.12500000000E+03  0.12500000000E+03 0.  0.
        -13    1    3    3    0    0  0.17116737753E+02 -0.32230359235E+02 -0.14038638904E+02  0.39100809634E+02  0.10566000000E+00 0.  1.
         23    2    1    0    0    0 -0.28375697377E+02  0.89011764256E+00 -0.65022249802E+01  0.95875243507E+02  0.91344462759E+02 0.  0.
         13    1    3    3    0    0 -0.45492435130E+02  0.33120476878E+02  0.75364139243E+01  0.56774433873E+02  0.10566000000E+00 0. -1.
         22    1    1    0    0    0  0.28375697377E+02 -0.89011764256E+00  0.65022249802E+01  0.29124756493E+02  0.00000000000E+00 0. -1.
</event>
<event>
 5    1  0.1320187E-009  0.9118800E+02  0.7818608E-02  0.1130116E+00
         25   -1    0    0    0    0  0.00000000000E+00  0.00000000000E+00  0.99999998245E-14  0.12500000000E+03  0.12500000000E+03 0.  0.
        -13    1    3    3    0    0  0.11691632021E+02  0.39974847538E+02  0.63810881706E+01  0.42135639847E+02  0.10566000000E+00 0. -1.
         23    2    1    0    0    0 -0.25447237910E+02  0.79011699173E+01 -0.13557810160E+02  0.95103434652E+02  0.90282105995E+02 0.  0.
         13    1    3    3    0    0 -0.37138869931E+02 -0.32073677621E+02 -0.19938898330E+02  0.52967794805E+02  0.10566000000E+00 0.  1.
         22    1    1    0    0    0  0.25447237910E+02 -0.79011699173E+01  0.13557810160E+02  0.29896565348E+02  0.00000000000E+00 0.  1.
</event>
<event>
 5    1  0.1320187E-009  0.9118800E+02  0.7818608E-02  0.1130116E+00
         25   -1    0    0    0    0  0.00000000000E+00  0.00000000000E+00  0.99999998245E-14  0.12500000000E+03  0.12500000000E+03 0.  0.
        -13    1    3    3    0    0  0.82749482108E+01  0.54278919154E+02  0.38215633900E+01  0.55038998385E+02  0.10566000000E+00 0.  1.
         23    2    1    0    0    0 -0.60779677448E+00  0.18685786792E+02  0.22122666331E+02  0.96035531930E+02  0.91563546144E+02 0.  0.
         13    1    3    3    0    0 -0.88827449853E+01 -0.35593132362E+02  0.18301102941E+02  0.40996533545E+02  0.10566000000E+00 0. -1.
         22    1    1    0    0    0  0.60779677448E+00 -0.18685786792E+02 -0.22122666331E+02  0.28964468070E+02  0.00000000000E+00 0.  1.
</event>
<event>
 5    1  0.1320187E-009  0.9118800E+02  0.7818608E-02  0.1130116E+00
         25   -1    0    0    0    0  0.00000000000E+00  0.00000000000E+00  0.99999998245E-14  0.12500000000E+03  0.12500000000E+03 0.  0.
        -13    1    3    3    0    0 -0.19638576416E+02 -0.14766823817E+02 -0.42965001665E+02  0.49494800751E+02  0.10566000000E+00 0.  1.
         23    2    1    0    0    0 -0.23325596908E+02  0.65238760907E+01  0.32985294798E+01  0.10055568109E+03  0.97539326796E+02 0.  0.
         13    1    3    3    0    0 -0.36870204918E+01  0.21290699907E+02  0.46263531145E+02  0.51060880336E+02  0.10566000000E+00 0. -1.
         22    1    1    0    0    0  0.23325596908E+02 -0.65238760907E+01 -0.32985294798E+01  0.24444318912E+02  0.00000000000E+00 0.  1.
</event>
<event>
 5    1  0.1320187E-009  0.9118800E+02  0.7818608E-02  0.1130116E+00
         25   -1    0    0    0    0  0.00000000000E+00  0.00000000000E+00  0.99999998245E-14  0.12500000000E+03  0.12500000000E+03 0.  0.
        -13    1    3    3    0    0  0.83598726175E+01  0.18104646958E+02 -0.51311567889E+02  0.55050466618E+02  0.10566000000E+00 0. -1.
         23    2    1    0    0    0 -0.17232304078E+02  0.38283537080E+01 -0.24736776066E+02  0.94610582663E+02  0.89597129785E+02 0.  0.
         13    1    3    3    0    0 -0.25592176696E+02 -0.14276293250E+02  0.26574791823E+02  0.39560116044E+02  0.10566000000E+00 0.  1.
         22    1    1    0    0    0  0.17232304078E+02 -0.38283537080E+01  0.24736776066E+02  0.30389417337E+02  0.00000000000E+00 0. -1.
</event>
<event>
 5    1  0.1320187E-009  0.9118800E+02  0.7818608E-02  0.1130116E+00
         25   -1    0    0    0    0  0.00000000000E+00  0.00000000000E+00  0.99999998245E-14  0.12500000000E+03  0.12500000000E+03 0.  0.
        -13    1    3    3    0    0 -0.27638907332E+02 -0.13081788577E+02 -0.48905702865E+02  0.57678603724E+02  0.10566000000E+00 0. -1.
         23    2    1    0    0    0  0.56039456520E+00 -0.17563261496E+02 -0.21198212047E+02  0.97465541762E+02  0.93495376573E+02 0.  0.
         13    1    3    3    0    0  0.28199301897E+02 -0.44814729189E+01  0.27707490817E+02  0.39786938038E+02  0.10566000000E+00 0.  1.
         22    1    1    0    0    0 -0.56039456520E+00  0.17563261496E+02  0.21198212047E+02  0.27534458238E+02  0.00000000000E+00 0.  1.
</event>
<event>
 5    1  0.1320187E-009  0.9118800E+02  0.7818608E-02  0.1130116E+00
         25   -1    0    0    0    0  0.00000000000E+00  0.00000000000E+00  0.99999998245E-14  0.12500000000E+03  0.12500000000E+03 0.  0.
        -13    1    3    3    0    0 -0.23904010746E+02 -0.50160945986E+01  0.42670152771E+02  0.49166208277E+02  0.10566000000E+00 0. -1.
         23    2    1    0    0    0  0.17513006878E+02  0.61539262287E+01  0.20104499157E+02  0.97636390876E+02  0.93723517428E+02 0.  0.
         13    1    3    3    0    0  0.41417017624E+02  0.11170020827E+02 -0.22565653614E+02  0.48470182600E+02  0.10566000000E+00 0.  1.
         22    1    1    0    0    0 -0.17513006878E+02 -0.61539262287E+01 -0.20104499157E+02  0.27363609124E+02  0.00000000000E+00 0. -1.
</event>
<event>
 5    1  0.1320187E-009  0.9118800E+02  0.7818608E-02  0.1130116E+00
         25   -1    0    0    0    0  0.00000000000E+00  0.00000000000E+00  0.99999998245E-14  0.12500000000E+03  0.12500000000E+03 0.  0.
        -13    1    3    3    0    0 -0.29641405919E+02 -0.84836941268E+01 -0.17115735449E+02  0.35263941568E+02  0.10566000000E+00 0. -1.
         23    2    1    0    0    0  0.14239170096E+02  0.32687127825E+01  0.24240976973E+02  0.96696936334E+02  0.92462068350E+02 0.  0.
         13    1    3    3    0    0  0.43880576015E+02  0.11752406909E+02  0.41356712422E+02  0.61432994766E+02  0.10566000000E+00 0.  1.
         22    1    1    0    0    0 -0.14239170096E+02 -0.32687127825E+01 -0.24240976973E+02  0.28303063666E+02  0.00000000000E+00 0.  1.
</event>
<event>
 5    1  0.1320187E-009  0.9118800E+02  0.7818608E-02  0.1130116E+00
         25   -1    0    0    0    0  0.00000000000E+00  0.00000000000E+00  0.99999998245E-14  0.12500000000E+03  0.12500000000E+03 0.  0.
        -13    1    3    3    0    0  0.25739615900E+02 -0.24769294028E-01  0.23760247496E+02  0.35029829650E+02  0.10566000000E+00 0.  1.
         23    2    1    0    0    0 -0.28468648704E+02 -0.65649845285E+00 -0.45077142891E+01  0.96169210254E+02  0.91745858563E+02 0.  0.
         13    1    3    3    0    0 -0.54208264604E+02 -0.63172915882E+00 -0.28267961785E+02  0.61139380604E+02  0.10566000000E+00 0. -1.
         22    1    1    0    0    0  0.28468648704E+02  0.65649845285E+00  0.45077142891E+01  0.28830789746E+02  0.00000000000E+00 0. -1.
</event>
<event>
 5    1  0.1320187E-009  0.9118800E+02  0.7818608E-02  0.1130116E+00
         25   -1    0    0    0    0  0.00000000000E+00  0.00000000000E+00  0.99999998245E-14  0.12500000000E+03  0.12500000000E+03 0.  0.
        -13    1    3    3    0    0  0.19138483454E+02 -0.47847368865E+02  0.29953366368E+02  0.59605935753E+02  0.10566000000E+00 0. -1.
         23    2    1    0    0    0 -0.22102941832E+01 -0.26289477956E+02  0.68446286053E+01  0.97744340178E+02  0.93867380088E+02 0.  0.
         13    1    3    3    0    0 -0.21348777637E+02  0.21557890909E+02 -0.23108737763E+02  0.38138404425E+02  0.10566000000E+00 0.  1.
         22    1    1    0    0    0  0.22102941832E+01  0.26289477956E+02 -0.68446286053E+01  0.27255659822E+02  0.00000000000E+00 0. -1.
</event>
<event>
 5    1  0.1320187E-009  0.9118800E+02  0.7818608E-02  0.1130116E+00
         25   -1    0    0    0    0  0.00000000000E+00  0.00000000000E+00  0.99999998245E-14  0.12500000000E+03  0.12500000000E+03 0.  0.
        -13    1    3    3    0    0  0.38662002956E+02  0.38722623523E+02 -0.71579234787E+01  0.55185496986E+02  0.10566000000E+00 0.  1.
         23    2    1    0    0    0  0.25851417119E+02  0.45549870312E+01 -0.17904626178E+02  0.93225492726E+02  0.87643443460E+02 0.  0.
         13    1    3    3    0    0 -0.12810585837E+02 -0.34167636492E+02 -0.10746702700E+02  0.38039995740E+02  0.10566000000E+00 0. -1.
         22    1    1    0    0    0 -0.25851417119E+02 -0.45549870312E+01  0.17904626178E+02  0.31774507274E+02  0.00000000000E+00 0.  1.
</event>
<event>
 5    1  0.1320187E-009  0.9118800E+02  0.7818608E-02  0.1130116E+00
         25   -1    0    0    0    0  0.00000000000E+00  0.00000000000E+00  0.99999998245E-14  0.12500000000E+03  0.12500000000E+03 0.  0.
        -13    1    3    3    0    0  0.11663253260E+02  0.39129062369E+01 -0.44746096740E+02  0.46406536709E+02  0.10566000000E+00 0.  1.
         23    2    1    0    0    0  0.23310911929E+02  0.11006095749E+02  0.56451007270E+01  0.98610609692E+02  0.95013959096E+02 0.  0.
         13    1    3    3    0    0  0.11647658669E+02  0.70931895121E+01  0.50391197467E+02  0.52204072984E+02  0.10566000000E+00 0. -1.
         22    1    1    0    0    0 -0.23310911929E+02 -0.11006095749E+02 -0.56451007270E+01  0.26389390308E+02  0.00000000000E+00 0. -1.
</event>
<event>
 5    1  0.1320187E-009  0.9118800E+02  0.7818608E-02  0.1130116E+00
         25   -1    0    0    0    0  0.00000000000E+00  0.00000000000E+00  0.99999998245E-14  0.12500000000E+03  0.12500000000E+03 0.  0.
        -13    1    3    3    0    0 -0.34278560951E+02  0.14217247091E+02  0.10440400064E+02  0.38550784341E+02  0.10566000000E+00 0. -1.
         23    2    1    0    0    0  0.17897518055E+02  0.19625463062E+02 -0.12307069185E+02  0.95726395765E+02  0.91140544991E+02 0.  0.
         13    1    3    3    0    0  0.52176079007E+02  0.54082159710E+01 -0.22747469249E+02  0.57175611425E+02  0.10566000000E+00 0.  1.
         22    1    1    0    0    0 -0.17897518055E+02 -0.19625463062E+02  0.12307069185E+02  0.29273604235E+02  0.00000000000E+00 0.  1.
</event>
<event>
 5    1  0.1320187E-009  0.9118800E+02  0.7818608E-02  0.1130116E+00
         25   -1    0    0    0    0  0.00000000000E+00  0.00000000000E+00  0.99999998245E-14  0.12500000000E+03  0.12500000000E+03 0.  0.
        -13    1    3    3    0    0  0.13853798254E+02 -0.53317632998E+02  0.13209961635E+01  0.55104028070E+02  0.10566000000E+00 0. -1.
         23    2    1    0    0    0  0.21755358190E+02 -0.10398669524E+02  0.87036068963E+01  0.99364463906E+02  0.96000604042E+02 0.  0.
         13    1    3    3    0    0  0.79015599354E+01  0.42918963474E+02  0.73826107329E+01  0.44260435836E+02  0.10566000000E+00 0.  1.
         22    1    1    0    0    0 -0.21755358190E+02  0.10398669524E+02 -0.87036068963E+01  0.25635536094E+02  0.00000000000E+00 0. -1.
</event>
<event>
 5    1  0.1320187E-009  0.9118800E+02  0.7818608E-02  0.1130116E+00
         25   -1    0    0    0    0  0.00000000000E+00  0.00000000000E+00  0.99999998245E-14  0.12500000000E+03  0.12500000000E+03 0.  0.
        -13    1    3    3    0    0  0.16501865462E+02  0.18468062037E+02 -0.19846569044E+02  0.31737648715E+02  0.10566000000E+00 0.  1.
         23    2    1    0    0    0 -0.37132534526E+01  0.59160949625E+01  0.33832287512E+02  0.90454202729E+02  0.83597551892E+02 0.  0.
         13    1    3    3    0    0 -0.20215118914E+02 -0.12551967074E+02  0.53678856556E+02  0.58716554014E+02  0.10566000000E+00 0. -1.
         22    1    1    0    0    0  0.37132534526E+01 -0.59160949625E+01 -0.33832287512E+02  0.34545797271E+02  0.00000000000E+00 0. -1.
</event>
<event>
 5    1  0.1320187E-009  0.9118800E+02  0.7818608E-02  0.1130116E+00
         25   -1    0    0    0    0  0.00000000000E+00  0.00000000000E+00  0.99999998245E-14  0.12500000000E+03  0.12500000000E+03 0.  0.
        -13    1    3    3    0    0  0.70439081360E+01 -0.15102169196E+02  0.35936570712E+02  0.39612377293E+02  0.10566000000E+00 0.  1.
         23    2    1    0    0    0  0.11028017948E+02  0.25409149462E+02 -0.44397091393E+01  0.96947316109E+02  0.92799940880E+02 0.  0.
         13    1    3    3    0    0  0.39841098117E+01  0.40511318658E+02 -0.40376279851E+02  0.57334938816E+02  0.10566000000E+00 0. -1.
         22    1    1    0    0    0 -0.11028017948E+02 -0.25409149462E+02  0.44397091393E+01  0.28052683891E+02  0.00000000000E+00 0. -1.
</event>
<event>
 5    1  0.1320187E-009  0.9118800E+02  0.7818608E-02  0.1130116E+00
         25   -1    0    0    0    0  0.00000000000E+00  0.00000000000E+00  0.99999998245E-14  0.12500000000E+03  0.12500000000E+03 0.  0.
        -13    1    3    3    0    0 -0.22078278604E+02  0.21667401153E+02  0.21693091099E+02  0.37782641839E+02  0.10566000000E+00 0. -1.
         23    2    1    0    0    0  0.11316615185E+02  0.19457009786E+02 -0.22470377943E+02  0.93194986339E+02  0.87599923429E+02 0.  0.
         13    1    3    3    0    0  0.33394893789E+02 -0.22103913673E+01 -0.44163469042E+02  0.55412344500E+02  0.10566000000E+00 0.  1.
         22    1    1    0    0    0 -0.11316615185E+02 -0.19457009786E+02  0.22470377943E+02  0.31805013661E+02  0.00000000000E+00 0.  1.
</event>
<event>
 5    1  0.1320187E-009  0.9118800E+02  0.7818608E-02  0.1130116E+00
         25   -1    0    0    0    0  0.00000000000E+00  0.00000000000E+00  0.99999998245E-14  0.12500000000E+03  0.12500000000E+03 0.  0.
        -13    1    3    3    0    0  0.33640816325E+01  0.27729006990E+02  0.15582633755E+02  0.31985067026E+02  0.10566000000E+00 0.  1.
         23    2    1    0    0    0  0.86589431456E+00 -0.15442606472E+02 -0.27766905225E+02  0.93215964803E+02  0.87629853365E+02 0.  0.
         13    1    3    3    0    0 -0.24981873179E+01 -0.43171613463E+02 -0.43349538979E+02  0.61230897777E+02  0.10566000000E+00 0. -1.
         22    1    1    0    0    0 -0.86589431456E+00  0.15442606472E+02  0.27766905225E+02  0.31784035197E+02  0.00000000000E+00 0. -1.
</event>
<event>
 5    1  0.1320187E-009  0.9118800E+02  0.7818608E-02  0.1130116E+00
         25   -1    0    0    0    0  0.00000000000E+00  0.00000000000E+00  0.99999998245E-14  0.12500000000E+03  0.12500000000E+03 0.  0.
        -13    1    3    3    0    0 -0.55718051313E+02 -0.13462790532E+02  0.99488392554E+01  0.58178505804E+02  0.10566000000E+00 0.  1.
         23    2    1    0    0    0 -0.22242401956E+02 -0.18657200357E+02 -0.55680774481E+01  0.95439569415E+02  0.90746307658E+02 0.  0.
         13    1    3    3    0    0  0.33475649358E+02 -0.51944098253E+01 -0.15516916703E+02  0.37261063610E+02  0.10566000000E+00 0. -1.
         22    1    1    0    0    0  0.22242401956E+02  0.18657200357E+02  0.55680774481E+01  0.29560430585E+02  0.00000000000E+00 0.  1.
</event>
<event>
 5    1  0.1320187E-009  0.9118800E+02  0.7818608E-02  0.1130116E+00
         25   -1    0    0    0    0  0.00000000000E+00  0.00000000000E+00  0.99999998245E-14  0.12500000000E+03  0.12500000000E+03 0.  0.
        -13    1    3    3    0    0 -0.43890893843E+02  0.65877785595E+01 -0.23860576132E+02  0.50389955806E+02  0.10566000000E+00 0.  1.
         23    2    1    0    0    0  0.65267260394E+00  0.19383022060E+02 -0.20382189375E+02  0.96865303104E+02  0.92689404875E+02 0.  0.
         13    1    3    3    0    0  0.44543566447E+02  0.12795243500E+02  0.34783867571E+01  0.46475347299E+02  0.10566000000E+00 0. -1.
         22    1    1    0    0    0 -0.65267260394E+00 -0.19383022060E+02  0.20382189375E+02  0.28134696896E+02  0.00000000000E+00 0.  1.
</event>
<event>
 5    1  0.1320187E-009  0.9118800E+02  0.7818608E-02  0.1130116E+00
         25   -1    0    0    0    0  0.00000000000E+00  0.00000000000E+00  0.99999998245E-14  0.12500000000E+03  0.12500000000E+03 0.  0.
        -13    1    3    3    0    0 -0.10299633403E+01 -0.66020255520E+01 -0.42156845081E+02  0.42683232271E+02  0.10566000000E+00 0.  1.
         23    2    1    0    0    0 -0.26729398116E+02  0.64395121549E+01  0.41186690113E+01  0.97199074208E+02  0.93138437565E+02 0.  0.
         13    1    3    3    0    0 -0.25699434776E+02  0.13041537707E+02  0.46275514093E+02  0.54515841937E+02  0.10566000000E+00 0. -1.
         22    1    1    0    0    0  0.26729398116E+02 -0.64395121549E+01 -0.41186690113E+01  0.27800925792E+02  0.00000000000E+00 0. -1.
</event>
<event>
 5    1  0.1320187E-009  0.9118800E+02  0.7818608E-02  0.1130116E+00
         25   -1    0    0    0    0  0.00000000000E+00  0.00000000000E+00  0.99999998245E-14  0.12500000000E+03  0.12500000000E+03 0.  0.
        -13    1    3    3    0    0  0.48693149595E+02  0.31384568660E+02 -0.56136876064E+01  0.58202565408E+02  0.10566000000E+00 0. -1.
         23    2    1    0    0    0  0.24149433230E+02  0.49548776163E+01 -0.15845568625E+02  0.95694232947E+02  0.91096422744E+02 0.  0.
         13    1    3    3    0    0 -0.24543716365E+02 -0.26429691044E+02 -0.10231881019E+02  0.37491667539E+02  0.10566000000E+00 0.  1.
         22    1    1    0    0    0 -0.24149433230E+02 -0.49548776163E+01  0.15845568625E+02  0.29305767053E+02  0.00000000000E+00 0. -1.
</event>
<event>
 5    1  0.1320187E-009  0.9118800E+02  0.7818608E-02  0.1130116E+00
         25   -1    0    0    0    0  0.00000000000E+00  0.00000000000E+00  0.99999998245E-14  0.12500000000E+03  0.12500000000E+03 0.  0.
        -13    1    3    3    0    0  0.18476628312E+02 -0.30873828501E+02  0.18874766988E+02  0.40630617433E+02  0.10566000000E+00 0.  1.
         23    2    1    0    0    0  0.28134684120E+02  0.62406600091E+01 -0.15627280400E+02  0.92217105366E+02  0.86193249977E+02 0.  0.
         13    1    3    3    0    0  0.96580558078E+01  0.37114488510E+02 -0.34502047388E+02  0.51586487934E+02  0.10566000000E+00 0. -1.
         22    1    1    0    0    0 -0.28134684120E+02 -0.62406600091E+01  0.15627280400E+02  0.32782894634E+02  0.00000000000E+00 0. -1.
</event>
<event>
 5    1  0.1320187E-009  0.9118800E+02  0.7818608E-02  0.1130116E+00
         25   -1    0    0    0    0  0.00000000000E+00  0.00000000000E+00  0.99999998245E-14  0.12500000000E+03  0.12500000000E+03 0.  0.
        -13    1    3    3    0    0 -0.91629863685E+01 -0.14146469418E+02 -0.34433424692E+02  0.38337381447E+02  0.10566000000E+00 0. -1.
         23    2    1    0    0    0  0.13244175682E+02  0.27508879360E+02 -0.49592282908E+01  0.94068776643E+02  0.88838022044E+02 0.  0.
         13    1    3    3    0    0  0.22407162051E+02  0.41655348778E+02  0.29474196401E+02  0.55731395196E+02  0.10566000000E+00 0.  1.
         22    1    1    0    0    0 -0.13244175682E+02 -0.27508879360E+02  0.49592282908E+01  0.30931223357E+02  0.00000000000E+00 0.  1.
</event>
<event>
 5    1  0.1320187E-009  0.9118800E+02  0.7818608E-02  0.1130116E+00
         25   -1    0    0    0    0  0.00000000000E+00  0.00000000000E+00  0.99999998245E-14  0.12500000000E+03  0.12500000000E+03 0.  0.
        -13    1    3    3    0    0  0.42139281090E+02  0.35059875552E+02  0.24361103108E+02  0.59986568440E+02  0.10566000000E+00 0. -1.
         23    2    1    0    0    0  0.22720801223E+02  0.17997366539E+02 -0.72215681691E+00  0.96005836431E+02  0.91522997699E+02 0.  0.
         13    1    3    3    0    0 -0.19418479867E+02 -0.17062509013E+02 -0.25083259925E+02  0.36019267991E+02  0.10566000000E+00 0.  1.
         22    1    1    0    0    0 -0.22720801223E+02 -0.17997366539E+02  0.72215681691E+00  0.28994163569E+02  0.00000000000E+00 0. -1.
</event>
<event>
 5    1  0.1320187E-009  0.9118800E+02  0.7818608E-02  0.1130116E+00
         25   -1    0    0    0    0  0.00000000000E+00  0.00000000000E+00  0.99999998245E-14  0.12500000000E+03  0.12500000000E+03 0.  0.
        -13    1    3    3    0    0 -0.15578396540E+02 -0.41067061767E+01 -0.34058540714E+02  0.37676873995E+02  0.10566000000E+00 0.  1.
         23    2    1    0    0    0 -0.72230460182E+01  0.27828621221E+02  0.11582049463E+02  0.94004057966E+02  0.88746912574E+02 0.  0.
         13    1    3    3    0    0  0.83553505217E+01  0.31935327397E+02  0.45640590177E+02  0.56327183971E+02  0.10566000000E+00 0. -1.
         22    1    1    0    0    0  0.72230460182E+01 -0.27828621221E+02 -0.11582049463E+02  0.30995942034E+02  0.00000000000E+00 0. -1.
</event>
<event>
 5    1  0.1320187E-009  0.9118800E+02  0.7818608E-02  0.1130116E+00
         25   -1    0    0    0    0  0.00000000000E+00  0.00000000000E+00  0.99999998245E-14  0.12500000000E+03  0.12500000000E+03 0.  0.
        -13    1    3    3    0    0  0.11347141614E+02 -0.10876972481E+02  0.60266784140E+02  0.62282923725E+02  0.10566000000E+00 0.  1.
         23    2    1    0    0    0  0.83995831369E+01 -0.30203884219E+01  0.28899349798E+02  0.94753542987E+02  0.89796357090E+02 0.  0.
         13    1    3    3    0    0 -0.29475584769E+01  0.78565840592E+01 -0.31367434341E+02  0.32470619262E+02  0.10566000000E+00 0. -1.
         22    1    1    0    0    0 -0.83995831369E+01  0.30203884219E+01 -0.28899349798E+02  0.30246457013E+02  0.00000000000E+00 0.  1.
</event>
<event>
 5    1  0.1320187E-009  0.9118800E+02  0.7818608E-02  0.1130116E+00
         25   -1    0    0    0    0  0.00000000000E+00  0.00000000000E+00  0.99999998245E-14  0.12500000000E+03  0.12500000000E+03 0.  0.
        -13    1    3    3    0    0  0.33878586475E+02 -0.29700971534E+02  0.11714893970E+02  0.46552725338E+02  0.10566000000E+00 0.  1.
         23    2    1    0    0    0 -0.10466815486E+02 -0.17459212919E+02  0.23367126333E+02  0.94009663841E+02  0.88754808097E+02 0.  0.
         13    1    3    3    0    0 -0.44345401961E+02  0.12241758615E+02  0.11652232362E+02  0.47456938503E+02  0.10566000000E+00 0. -1.
         22    1    1    0    0    0  0.10466815486E+02  0.17459212919E+02 -0.23367126333E+02  0.30990336159E+02  0.00000000000E+00 0. -1.
</event>
<event>
 5    1  0.1320187E-009  0.9118800E+02  0.7818608E-02  0.1130116E+00
         25   -1    0    0    0    0  0.00000000000E+00  0.00000000000E+00  0.99999998245E-14  0.12500000000E+03  0.12500000000E+03 0.  0.
        -13    1    3    3    0    0 -0.26590156029E+02  0.16906986243E+02  0.28208165300E+02  0.42291776211E+02  0.10566000000E+00 0. -1.
         23    2    1    0    0    0 -0.22018690419E+02 -0.10251013513E+02 -0.17087944988E+02  0.95303133672E+02  0.90558176980E+02 0.  0.
         13    1    3    3    0    0  0.45714656105E+01 -0.27157999756E+02 -0.45296110288E+02  0.53011357461E+02  0.10566000000E+00 0.  1.
         22    1    1    0    0    0  0.22018690419E+02  0.10251013513E+02  0.17087944988E+02  0.29696866328E+02  0.00000000000E+00 0.  1.
</event>
<event>
 5    1  0.1320187E-009  0.9118800E+02  0.7818608E-02  0.1130116E+00
         25   -1    0    0    0    0  0.00000000000E+00  0.00000000000E+00  0.99999998245E-14  0.12500000000E+03  0.12500000000E+03 0.  0.
        -13    1    3    3    0    0 -0.17787118425E+01 -0.13989072686E+02  0.34827517451E+02  0.37574261221E+02  0.10566000000E+00 0.  1.
         23    2    1    0    0    0  0.23675044261E+02  0.19475079108E+02 -0.30866198824E+01  0.94189066076E+02  0.89007114991E+02 0.  0.
         13    1    3    3    0    0  0.25453756103E+02  0.33464151794E+02 -0.37914137333E+02  0.56614804855E+02  0.10566000000E+00 0. -1.
         22    1    1    0    0    0 -0.23675044261E+02 -0.19475079108E+02  0.30866198824E+01  0.30810933924E+02  0.00000000000E+00 0. -1.
</event>
<event>
 5    1  0.1320187E-009  0.9118800E+02  0.7818608E-02  0.1130116E+00
         25   -1    0    0    0    0  0.00000000000E+00  0.00000000000E+00  0.99999998245E-14  0.12500000000E+03  0.12500000000E+03 0.  0.
        -13    1    3    3    0    0  0.18068569468E+02 -0.14593705525E+02 -0.53402099027E+02  0.58234395233E+02  0.10566000000E+00 0. -1.
         23    2    1    0    0    0  0.19846085307E+02  0.48072592992E+01 -0.24246054604E+02  0.93300662343E+02  0.87750587382E+02 0.  0.
         13    1    3    3    0    0  0.17775158394E+01  0.19400964824E+02  0.29156044423E+02  0.35066267111E+02  0.10566000000E+00 0.  1.
         22    1    1    0    0    0 -0.19846085307E+02 -0.48072592992E+01  0.24246054604E+02  0.31699337657E+02  0.00000000000E+00 0. -1.
</event>
<event>
 5    1  0.1320187E-009  0.9118800E+02  0.7818608E-02  0.1130116E+00
         25   -1    0    0    0    0  0.00000000000E+00  0.00000000000E+00  0.99999998245E-14  0.12500000000E+03  0.12500000000E+03 0.  0.
        -13    1    3    3    0    0 -0.19076480228E+02  0.40458346375E+02 -0.27713715161E+02  0.52619873255E+02  0.10566000000E+00 0. -1.
         23    2    1    0    0    0 -0.18051990074E+01  0.24584645867E+01 -0.30400277416E+02  0.94447100652E+02  0.89368759435E+02 0.  0.
         13    1    3    3    0    0  0.17271281220E+02 -0.37999881788E+02 -0.26865622551E+01  0.41827227397E+02  0.10566000000E+00 0.  1.
         22    1    1    0    0    0  0.18051990074E+01 -0.24584645867E+01  0.30400277416E+02  0.30552899348E+02  0.00000000000E+00 0. -1.
</event>
<event>
 5    1  0.1320187E-009  0.9118800E+02  0.7818608E-02  0.1130116E+00
         25   -1    0    0    0    0  0.00000000000E+00  0.00000000000E+00  0.99999998245E-14  0.12500000000E+03  0.12500000000E+03 0.  0.
        -13    1    3    3    0    0 -0.22488388148E+02 -0.25364200641E+02  0.10063411643E+02  0.35360340688E+02  0.10566000000E+00 0.  1.
         23    2    1    0    0    0 -0.13979247722E+01  0.21243243907E+02 -0.20906637942E+02  0.95161817827E+02  0.90362904207E+02 0.  0.
         13    1    3    3    0    0  0.21090463376E+02  0.46607444548E+02 -0.30970049585E+02  0.59801477139E+02  0.10566000000E+00 0. -1.
         22    1    1    0    0    0  0.13979247722E+01 -0.21243243907E+02  0.20906637942E+02  0.29838182173E+02  0.00000000000E+00 0. -1.
</event>
<event>
 5    1  0.1320187E-009  0.9118800E+02  0.7818608E-02  0.1130116E+00
         25   -1    0    0    0    0  0.00000000000E+00  0.00000000000E+00  0.99999998245E-14  0.12500000000E+03  0.12500000000E+03 0.  0.
        -13    1    3    3    0    0 -0.41671393516E+02  0.33799186086E+02 -0.79583829541E+01  0.54242391549E+02  0.10566000000E+00 0.  1.
         23    2    1    0    0    0 -0.13172963607E+02  0.11801211212E+02 -0.25243007071E+02  0.94177849487E+02  0.88991361220E+02 0.  0.
         13    1    3    3    0    0  0.28498429909E+02 -0.21997974874E+02 -0.17284624117E+02  0.39935457938E+02  0.10566000000E+00 0. -1.
         22    1    1    0    0    0  0.13172963607E+02 -0.11801211212E+02  0.25243007071E+02  0.30822150513E+02  0.00000000000E+00 0.  1.
</event>
<event>
 5    1  0.1320187E-009  0.9118800E+02  0.7818608E-02  0.1130116E+00
         25   -1    0    0    0    0  0.00000000000E+00  0.00000000000E+00  0.99999998245E-14  0.12500000000E+03  0.12500000000E+03 0.  0.
        -13    1    3    3    0    0 -0.24584969224E+02 -0.24618526750E+02  0.12293012199E+02  0.36900161029E+02  0.10566000000E+00 0.  1.
         23    2    1    0    0    0 -0.49617189329E+01  0.18479882819E+02 -0.22352576100E+02  0.95576159631E+02  0.90934261462E+02 0.  0.
         13    1    3    3    0    0  0.19623250291E+02  0.43098409568E+02 -0.34645588298E+02  0.58675998601E+02  0.10566000000E+00 0. -1.
         22    1    1    0    0    0  0.49617189329E+01 -0.18479882819E+02  0.22352576100E+02  0.29423840369E+02  0.00000000000E+00 0. -1.
</event>
<event>
 5    1  0.1320187E-009  0.9118800E+02  0.7818608E-02  0.1130116E+00
         25   -1    0    0    0    0  0.00000000000E+00  0.00000000000E+00  0.99999998245E-14  0.12500000000E+03  0.12500000000E+03 0.  0.
        -13    1    3    3    0    0 -0.92247683824E+01 -0.11732202563E+02  0.47861637005E+02  0.50134702448E+02  0.10566000000E+00 0.  1.
         23    2    1    0    0    0  0.64286990515E+00  0.21992601136E+02  0.22941539931E+02  0.93213178189E+02  0.87625878296E+02 0.  0.
         13    1    3    3    0    0  0.98676382876E+01  0.33724803699E+02 -0.24920097074E+02  0.43078475741E+02  0.10566000000E+00 0. -1.
         22    1    1    0    0    0 -0.64286990515E+00 -0.21992601136E+02 -0.22941539931E+02  0.31786821811E+02  0.00000000000E+00 0.  1.
</event>
<event>
 5    1  0.1320187E-009  0.9118800E+02  0.7818608E-02  0.1130116E+00
         25   -1    0    0    0    0  0.00000000000E+00  0.00000000000E+00  0.99999998245E-14  0.12500000000E+03  0.12500000000E+03 0.  0.
        -13    1    3    3    0    0 -0.96040481712E+00 -0.10678232941E+01 -0.33881303775E+02  0.33911893689E+02  0.10566000000E+00 0. -1.
         23    2    1    0    0    0  0.18089948099E+01  0.28859939651E+01  0.28408241419E+02  0.96388296032E+02  0.92043870019E+02 0.  0.
         13    1    3    3    0    0  0.27693996270E+01  0.39538172592E+01  0.62289545195E+02  0.62476402344E+02  0.10566000000E+00 0.  1.
         22    1    1    0    0    0 -0.18089948099E+01 -0.28859939651E+01 -0.28408241419E+02  0.28611703968E+02  0.00000000000E+00 0.  1.
</event>
<event>
 5    1  0.1320187E-009  0.9118800E+02  0.7818608E-02  0.1130116E+00
         25   -1    0    0    0    0  0.00000000000E+00  0.00000000000E+00  0.99999998245E-14  0.12500000000E+03  0.12500000000E+03 0.  0.
        -13    1    3    3    0    0 -0.19115491261E+01 -0.63667793469E+01  0.39979367366E+02  0.40528395951E+02  0.10566000000E+00 0. -1.
         23    2    1    0    0    0 -0.16563621931E+02  0.23692633763E+02 -0.40415882999E+01  0.95810465881E+02  0.91255774997E+02 0.  0.
         13    1    3    3    0    0 -0.14652072805E+02  0.30059413110E+02 -0.44020955666E+02  0.55282069930E+02  0.10566000000E+00 0.  1.
         22    1    1    0    0    0  0.16563621931E+02 -0.23692633763E+02  0.40415882999E+01  0.29189534119E+02  0.00000000000E+00 0.  1.
</event>
<event>
 5    1  0.1320187E-009  0.9118800E+02  0.7818608E-02  0.1130116E+00
         25   -1    0    0    0    0  0.00000000000E+00  0.00000000000E+00  0.99999998245E-14  0.12500000000E+03  0.12500000000E+03 0.  0.
        -13    1    3    3    0    0 -0.57985150697E+01  0.16672759247E+02 -0.55155946110E+02  0.57911943787E+02  0.10566000000E+00 0.  1.
         23    2    1    0    0    0 -0.15825380642E+02  0.16138735815E+02 -0.18889206623E+02  0.95543191059E+02  0.90888930925E+02 0.  0.
         13    1    3    3    0    0 -0.10026865572E+02 -0.53402343218E+00  0.36266739487E+02  0.37631247272E+02  0.10566000000E+00 0. -1.
         22    1    1    0    0    0  0.15825380642E+02 -0.16138735815E+02  0.18889206623E+02  0.29456808941E+02  0.00000000000E+00 0.  1.
</event>
<event>
 5    1  0.1320187E-009  0.9118800E+02  0.7818608E-02  0.1130116E+00
         25   -1    0    0    0    0  0.00000000000E+00  0.00000000000E+00  0.99999998245E-14  0.12500000000E+03  0.12500000000E+03 0.  0.
        -13    1    3    3    0    0  0.53925695592E+02  0.21308970879E+01  0.71420253705E+01  0.54438415277E+02  0.10566000000E+00 0.  1.
         23    2    1    0    0    0  0.23152521117E+02 -0.13101653120E+02 -0.14177305372E+02  0.94855538881E+02  0.89938227247E+02 0.  0.
         13    1    3    3    0    0 -0.30773174475E+02 -0.15232550207E+02 -0.21319330743E+02  0.40417123604E+02  0.10566000000E+00 0. -1.
         22    1    1    0    0    0 -0.23152521117E+02  0.13101653120E+02  0.14177305372E+02  0.30144461119E+02  0.00000000000E+00 0.  1.
</event>
<event>
 5    1  0.1320187E-009  0.9118800E+02  0.7818608E-02  0.1130116E+00
         25   -1    0    0    0    0  0.00000000000E+00  0.00000000000E+00  0.99999998245E-14  0.12500000000E+03  0.12500000000E+03 0.  0.
        -13    1    3    3    0    0 -0.32532479627E+02 -0.14150480745E+02  0.23377001589E+02  0.42486394332E+02  0.10566000000E+00 0. -1.
         23    2    1    0    0    0 -0.10095666284E+01  0.26987869275E+02  0.11437431742E+02  0.95671188949E+02  0.91064796916E+02 0.  0.
         13    1    3    3    0    0  0.31522912999E+02  0.41138350020E+02 -0.11939569847E+02  0.53184794617E+02  0.10566000000E+00 0.  1.
         22    1    1    0    0    0  0.10095666284E+01 -0.26987869275E+02 -0.11437431742E+02  0.29328811051E+02  0.00000000000E+00 0.  1.
</event>
<event>
 5    1  0.1320187E-009  0.9118800E+02  0.7818608E-02  0.1130116E+00
         25   -1    0    0    0    0  0.00000000000E+00  0.00000000000E+00  0.99999998245E-14  0.12500000000E+03  0.12500000000E+03 0.  0.
        -13    1    3    3    0    0  0.47181345086E+02 -0.24774065615E+02 -0.31169302898E+02  0.61736296118E+02  0.10566000000E+00 0.  1.
         23    2    1    0    0    0  0.15932420637E+02 -0.14039215857E+02 -0.17457130257E+02  0.97510129028E+02  0.93554969173E+02 0.  0.
         13    1    3    3    0    0 -0.31248924449E+02  0.10734849757E+02  0.13712172641E+02  0.35773832910E+02  0.10566000000E+00 0. -1.
         22    1    1    0    0    0 -0.15932420637E+02  0.14039215857E+02  0.17457130257E+02  0.27489870972E+02  0.00000000000E+00 0.  1.
</event>
<event>
 5    1  0.1320187E-009  0.9118800E+02  0.7818608E-02  0.1130116E+00
         25   -1    0    0    0    0  0.00000000000E+00  0.00000000000E+00  0.99999998245E-14  0.12500000000E+03  0.12500000000E+03 0.  0.
        -13    1    3    3    0    0  0.30603839944E+02  0.83294470224E+01 -0.28567590587E+02  0.42685982512E+02  0.10566000000E+00 0. -1.
         23    2    1    0    0    0  0.96716095691E+01  0.33218572012E+02  0.57075337386E+01  0.89934497016E+02  0.82816811421E+02 0.  0.
         13    1    3    3    0    0 -0.20932230375E+02  0.24889124990E+02  0.34275124326E+02  0.47248514504E+02  0.10566000000E+00 0.  1.
         22    1    1    0    0    0 -0.96716095691E+01 -0.33218572012E+02 -0.57075337386E+01  0.35065502984E+02  0.00000000000E+00 0.  1.
</event>
<event>
 5    1  0.1320187E-009  0.9118800E+02  0.7818608E-02  0.1130116E+00
         25   -1    0    0    0    0  0.00000000000E+00  0.00000000000E+00  0.99999998245E-14  0.12500000000E+03  0.12500000000E+03 0.  0.
        -13    1    3    3    0    0 -0.77865720051E+01 -0.67587592503E+01 -0.42785836524E+02  0.44010799825E+02  0.10566000000E+00 0. -1.
         23    2    1    0    0    0  0.91529957773E+01  0.26967625321E+02 -0.29432696243E+02  0.84044978876E+02  0.73391039773E+02 0.  0.
         13    1    3    3    0    0  0.16939567782E+02  0.33726384571E+02  0.13353140280E+02  0.40034179051E+02  0.10566000000E+00 0.  1.
         22    1    1    0    0    0 -0.91529957773E+01 -0.26967625321E+02  0.29432696243E+02  0.40955021124E+02  0.00000000000E+00 0. -1.
</event>
<event>
 5    1  0.1320187E-009  0.9118800E+02  0.7818608E-02  0.1130116E+00
         25   -1    0    0    0    0  0.00000000000E+00  0.00000000000E+00  0.99999998245E-14  0.12500000000E+03  0.12500000000E+03 0.  0.
        -13    1    3    3    0    0  0.22942334143E+02  0.21168140026E+01  0.29602195032E+02  0.37511767649E+02  0.10566000000E+00 0. -1.
         23    2    1    0    0    0 -0.17126728832E+01  0.22886387804E+02 -0.18571392831E+02  0.95476845920E+02  0.90797640278E+02 0.  0.
         13    1    3    3    0    0 -0.24655007026E+02  0.20769573802E+02 -0.48173587863E+02  0.57965078271E+02  0.10566000000E+00 0.  1.
         22    1    1    0    0    0  0.17126728832E+01 -0.22886387804E+02  0.18571392831E+02  0.29523154080E+02  0.00000000000E+00 0.  1.
</event>
<event>
 5    1  0.1320187E-009  0.9118800E+02  0.7818608E-02  0.1130116E+00
         25   -1    0    0    0    0  0.00000000000E+00  0.00000000000E+00  0.99999998245E-14  0.12500000000E+03  0.12500000000E+03 0.  0.
        -13    1    3    3    0    0 -0.20646200928E+02 -0.13400147095E+02 -0.81254168781E+01  0.25920322498E+02  0.10566000000E+00 0. -1.
         23    2    1    0    0    0  0.37143703038E+02 -0.55599007267E+01  0.83565895204E+01  0.86524036596E+02  0.77498446107E+02 0.  0.
         13    1    3    3    0    0  0.57789903966E+02  0.78402463678E+01  0.16482006399E+02  0.60603714098E+02  0.10566000000E+00 0.  1.
         22    1    1    0    0    0 -0.37143703038E+02  0.55599007267E+01 -0.83565895204E+01  0.38475963404E+02  0.00000000000E+00 0.  1.
</event>
<event>
 5    1  0.1320187E-009  0.9118800E+02  0.7818608E-02  0.1130116E+00
         25   -1    0    0    0    0  0.00000000000E+00  0.00000000000E+00  0.99999998245E-14  0.12500000000E+03  0.12500000000E+03 0.  0.
        -13    1    3    3    0    0  0.17006804555E+02  0.17560658833E+02 -0.11692818451E+02  0.27098732576E+02  0.10566000000E+00 0. -1.
         23    2    1    0    0    0 -0.26130479249E+02 -0.17987548095E-01  0.26831606988E+02  0.87546863911E+02  0.79131005161E+02 0.  0.
         13    1    3    3    0    0 -0.43137283804E+02 -0.17578646381E+02  0.38524425439E+02  0.60448131336E+02  0.10566000000E+00 0.  1.
         22    1    1    0    0    0  0.26130479249E+02  0.17987548095E-01 -0.26831606988E+02  0.37453136089E+02  0.00000000000E+00 0.  1.
</event>
<event>
 5    1  0.1320187E-009  0.9118800E+02  0.7818608E-02  0.1130116E+00
         25   -1    0    0    0    0  0.00000000000E+00  0.00000000000E+00  0.99999998245E-14  0.12500000000E+03  0.12500000000E+03 0.  0.
        -13    1    3    3    0    0 -0.25859199279E+02 -0.26616417292E+01 -0.20262209048E+02  0.32959836219E+02  0.10566000000E+00 0.  1.
         23    2    1    0    0    0  0.14583017509E+02 -0.21422023554E+02  0.19397996354E+02  0.92629492506E+02  0.86789245455E+02 0.  0.
         13    1    3    3    0    0  0.40442216788E+02 -0.18760381825E+02  0.39660205402E+02  0.59669656288E+02  0.10566000000E+00 0. -1.
         22    1    1    0    0    0 -0.14583017509E+02  0.21422023554E+02 -0.19397996354E+02  0.32370507494E+02  0.00000000000E+00 0. -1.
</event>
<event>
 5    1  0.1320187E-009  0.9118800E+02  0.7818608E-02  0.1130116E+00
         25   -1    0    0    0    0  0.00000000000E+00  0.00000000000E+00  0.99999998245E-14  0.12500000000E+03  0.12500000000E+03 0.  0.
        -13    1    3    3    0    0  0.16998098254E+02  0.27436621740E+02  0.21384199920E+02  0.38716904925E+02  0.10566000000E+00 0. -1.
         23    2    1    0    0    0  0.12325316713E+02 -0.83503799702E+01 -0.24033901894E+02  0.96728623699E+02  0.92504896761E+02 0.  0.
         13    1    3    3    0    0 -0.46727815404E+01 -0.35787001710E+02 -0.45418101813E+02  0.58011718774E+02  0.10566000000E+00 0.  1.
         22    1    1    0    0    0 -0.12325316713E+02  0.83503799702E+01  0.24033901894E+02  0.28271376301E+02  0.00000000000E+00 0.  1.
</event>
<event>
 5    1  0.1320187E-009  0.9118800E+02  0.7818608E-02  0.1130116E+00
         25   -1    0    0    0    0  0.00000000000E+00  0.00000000000E+00  0.99999998245E-14  0.12500000000E+03  0.12500000000E+03 0.  0.
        -13    1    3    3    0    0  0.28404203956E+02 -0.17362618452E+02  0.46578923882E+02  0.57252656147E+02  0.10566000000E+00 0. -1.
         23    2    1    0    0    0  0.99253943504E+01 -0.26362612707E+02  0.31480565724E+02  0.82756339883E+02  0.71162384522E+02 0.  0.
         13    1    3    3    0    0 -0.18478809605E+02 -0.89999942548E+01 -0.15098358158E+02  0.25503683736E+02  0.10566000000E+00 0.  1.
         22    1    1    0    0    0 -0.99253943504E+01  0.26362612707E+02 -0.31480565724E+02  0.42243660117E+02  0.00000000000E+00 0. -1.
</event>
<event>
 5    1  0.1320187E-009  0.9118800E+02  0.7818608E-02  0.1130116E+00
         25   -1    0    0    0    0  0.00000000000E+00  0.00000000000E+00  0.99999998245E-14  0.12500000000E+03  0.12500000000E+03 0.  0.
        -13    1    3    3    0    0 -0.25081003571E+02 -0.55536547663E+01  0.21271747041E+02  0.33352634193E+02  0.10566000000E+00 0. -1.
         23    2    1    0    0    0  0.19926848021E+02  0.73902809020E+01 -0.20030163549E+02  0.95795497339E+02  0.91235269139E+02 0.  0.
         13    1    3    3    0    0  0.45007851592E+02  0.12943935668E+02 -0.41301910590E+02  0.62442863146E+02  0.10566000000E+00 0.  1.
         22    1    1    0    0    0 -0.19926848021E+02 -0.73902809020E+01  0.20030163549E+02  0.29204502661E+02  0.00000000000E+00 0.  1.
</event>
<event>
 5    1  0.1320187E-009  0.9118800E+02  0.7818608E-02  0.1130116E+00
         25   -1    0    0    0    0  0.00000000000E+00  0.00000000000E+00  0.99999998245E-14  0.12500000000E+03  0.12500000000E+03 0.  0.
        -13    1    3    3    0    0 -0.19080892941E+02  0.65706277451E+01  0.25377867236E+02  0.32423771123E+02  0.10566000000E+00 0.  1.
         23    2    1    0    0    0  0.16555015191E+02 -0.23651341260E+01 -0.25089731880E+02  0.94847769018E+02  0.89927427709E+02 0.  0.
         13    1    3    3    0    0  0.35635908132E+02 -0.89357618711E+01 -0.50467599116E+02  0.62423997894E+02  0.10566000000E+00 0. -1.
         22    1    1    0    0    0 -0.16555015191E+02  0.23651341260E+01  0.25089731880E+02  0.30152230982E+02  0.00000000000E+00 0. -1.
</event>
<event>
 5    1  0.1320187E-009  0.9118800E+02  0.7818608E-02  0.1130116E+00
         25   -1    0    0    0    0  0.00000000000E+00  0.00000000000E+00  0.99999998245E-14  0.12500000000E+03  0.12500000000E+03 0.  0.
        -13    1    3    3    0    0  0.98935189850E+01 -0.39094573537E+02 -0.98992936987E+01  0.41524385338E+02  0.10566000000E+00 0.  1.
         23    2    1    0    0    0 -0.13270366658E+02  0.76094646696E+01 -0.24903430372E+02  0.95773514955E+02  0.91205146449E+02 0.  0.
         13    1    3    3    0    0 -0.23163885643E+02  0.46704038206E+02 -0.15004136673E+02  0.54249129617E+02  0.10566000000E+00 0. -1.
         22    1    1    0    0    0  0.13270366658E+02 -0.76094646696E+01  0.24903430372E+02  0.29226485045E+02  0.00000000000E+00 0. -1.
</event>
<event>
 5    1  0.1320187E-009  0.9118800E+02  0.7818608E-02  0.1130116E+00
         25   -1    0    0    0    0  0.00000000000E+00  0.00000000000E+00  0.99999998245E-14  0.12500000000E+03  0.12500000000E+03 0.  0.
        -13    1    3    3    0    0 -0.25171118631E+02 -0.21347524724E+02  0.35752049021E+02  0.48657190611E+02  0.10566000000E+00 0. -1.
         23    2    1    0    0    0  0.17052043205E+02 -0.18283307676E+02  0.15475654508E+02  0.95596813107E+02  0.90962647700E+02 0.  0.
         13    1    3    3    0    0  0.42223161836E+02  0.30642170477E+01 -0.20276394513E+02  0.46939622496E+02  0.10566000000E+00 0.  1.
         22    1    1    0    0    0 -0.17052043205E+02  0.18283307676E+02 -0.15475654508E+02  0.29403186893E+02  0.00000000000E+00 0.  1.
</event>
<event>
 5    1  0.1320187E-009  0.9118800E+02  0.7818608E-02  0.1130116E+00
         25   -1    0    0    0    0  0.00000000000E+00  0.00000000000E+00  0.99999998245E-14  0.12500000000E+03  0.12500000000E+03 0.  0.
        -13    1    3    3    0    0  0.27036080513E+02  0.31942265781E+02 -0.68580809541E+01  0.42406396111E+02  0.10566000000E+00 0. -1.
         23    2    1    0    0    0  0.29189218558E+02 -0.92846716485E+01  0.16878548899E+02  0.90027138798E+02  0.82956522948E+02 0.  0.
         13    1    3    3    0    0  0.21531380452E+01 -0.41226937429E+02  0.23736629853E+02  0.47620742687E+02  0.10566000000E+00 0.  1.
         22    1    1    0    0    0 -0.29189218558E+02  0.92846716485E+01 -0.16878548899E+02  0.34972861202E+02  0.00000000000E+00 0.  1.
</event>
<event>
 5    1  0.1320187E-009  0.9118800E+02  0.7818608E-02  0.1130116E+00
         25   -1    0    0    0    0  0.00000000000E+00  0.00000000000E+00  0.99999998245E-14  0.12500000000E+03  0.12500000000E+03 0.  0.
        -13    1    3    3    0    0 -0.16236033069E+02  0.57988453228E+02  0.10694659973E+02  0.61160905761E+02  0.10566000000E+00 0.  1.
         23    2    1    0    0    0  0.13515933153E+01  0.28840904107E+02  0.57396941908E+01  0.95562461998E+02  0.90915430481E+02 0.  0.
         13    1    3    3    0    0  0.17587626384E+02 -0.29147549121E+02 -0.49549657824E+01  0.34401556237E+02  0.10566000000E+00 0. -1.
         22    1    1    0    0    0 -0.13515933153E+01 -0.28840904107E+02 -0.57396941908E+01  0.29437538002E+02  0.00000000000E+00 0.  1.
</event>
<event>
 5    1  0.1320187E-009  0.9118800E+02  0.7818608E-02  0.1130116E+00
         25   -1    0    0    0    0  0.00000000000E+00  0.00000000000E+00  0.99999998245E-14  0.12500000000E+03  0.12500000000E+03 0.  0.
        -13    1    3    3    0    0  0.11948760998E+02 -0.29546519235E+02  0.11561290257E+02  0.33903455351E+02  0.10566000000E+00 0.  1.
         23    2    1    0    0    0  0.56587620511E+00  0.28025147435E+02 -0.81446566672E+01  0.95809855484E+02  0.91254938886E+02 0.  0.
         13    1    3    3    0    0 -0.11382884793E+02  0.57571666669E+02 -0.19705946924E+02  0.61906400134E+02  0.10566000000E+00 0. -1.
         22    1    1    0    0    0 -0.56587620511E+00 -0.28025147435E+02  0.81446566672E+01  0.29190144516E+02  0.00000000000E+00 0. -1.
</event>
<event>
 5    1  0.1320187E-009  0.9118800E+02  0.7818608E-02  0.1130116E+00
         25   -1    0    0    0    0  0.00000000000E+00  0.00000000000E+00  0.99999998245E-14  0.12500000000E+03  0.12500000000E+03 0.  0.
        -13    1    3    3    0    0  0.27415457888E+02 -0.29352017929E+02  0.45107668326E+02  0.60397526386E+02  0.10566000000E+00 0.  1.
         23    2    1    0    0    0  0.22243273208E+01 -0.17580859879E+02  0.23253439880E+02  0.95763777051E+02  0.91191799317E+02 0.  0.
         13    1    3    3    0    0 -0.25191130567E+02  0.11771158050E+02 -0.21854228446E+02  0.35366250665E+02  0.10566000000E+00 0. -1.
         22    1    1    0    0    0 -0.22243273208E+01  0.17580859879E+02 -0.23253439880E+02  0.29236222949E+02  0.00000000000E+00 0.  1.
</event>
<event>
 5    1  0.1320187E-009  0.9118800E+02  0.7818608E-02  0.1130116E+00
         25   -1    0    0    0    0  0.00000000000E+00  0.00000000000E+00  0.99999998245E-14  0.12500000000E+03  0.12500000000E+03 0.  0.
        -13    1    3    3    0    0  0.94756402395E+01 -0.54523521821E+02  0.21090564777E+02  0.59223519622E+02  0.10566000000E+00 0. -1.
         23    2    1    0    0    0  0.13511393243E+02 -0.25410153069E+02 -0.13293711634E+01  0.96190264596E+02  0.91774539765E+02 0.  0.
         13    1    3    3    0    0  0.40357530039E+01  0.29113368752E+02 -0.22419935940E+02  0.36966744975E+02  0.10566000000E+00 0.  1.
         22    1    1    0    0    0 -0.13511393243E+02  0.25410153069E+02  0.13293711634E+01  0.28809735404E+02  0.00000000000E+00 0. -1.
</event>
<event>
 5    1  0.1320187E-009  0.9118800E+02  0.7818608E-02  0.1130116E+00
         25   -1    0    0    0    0  0.00000000000E+00  0.00000000000E+00  0.99999998245E-14  0.12500000000E+03  0.12500000000E+03 0.  0.
        -13    1    3    3    0    0  0.27888954470E+02  0.25485138875E+02  0.42772724373E+02  0.57068408066E+02  0.10566000000E+00 0. -1.
         23    2    1    0    0    0  0.10813844661E+02  0.27519402923E+02  0.10524690355E+02  0.93614878036E+02  0.88197049321E+02 0.  0.
         13    1    3    3    0    0 -0.17075109808E+02  0.20342640488E+01 -0.32248034018E+02  0.36546469970E+02  0.10566000000E+00 0.  1.
         22    1    1    0    0    0 -0.10813844661E+02 -0.27519402923E+02 -0.10524690355E+02  0.31385121964E+02  0.00000000000E+00 0. -1.
</event>
<event>
 5    1  0.1320187E-009  0.9118800E+02  0.7818608E-02  0.1130116E+00
         25   -1    0    0    0    0  0.00000000000E+00  0.00000000000E+00  0.99999998245E-14  0.12500000000E+03  0.12500000000E+03 0.  0.
        -13    1    3    3    0    0  0.43779471193E+02 -0.59440902730E-01  0.34769443535E+02  0.55906806374E+02  0.10566000000E+00 0.  1.
         23    2    1    0    0    0  0.13542016779E+02  0.19430997715E+02  0.15164116299E+02  0.96877050052E+02  0.92705245337E+02 0.  0.
         13    1    3    3    0    0 -0.30237454414E+02  0.19490438618E+02 -0.19605327236E+02  0.40970243678E+02  0.10566000000E+00 0. -1.
         22    1    1    0    0    0 -0.13542016779E+02 -0.19430997715E+02 -0.15164116299E+02  0.28122949948E+02  0.00000000000E+00 0.  1.
</event>
<event>
 5    1  0.1320187E-009  0.9118800E+02  0.7818608E-02  0.1130116E+00
         25   -1    0    0    0    0  0.00000000000E+00  0.00000000000E+00  0.99999998245E-14  0.12500000000E+03  0.12500000000E+03 0.  0.
        -13    1    3    3    0    0  0.45516096755E+02 -0.18103616193E+02  0.25907589349E+02  0.55413629488E+02  0.10566000000E+00 0. -1.
         23    2    1    0    0    0  0.84408979435E+01 -0.13532537998E+01  0.27573881544E+02  0.96131349229E+02  0.91694259947E+02 0.  0.
         13    1    3    3    0    0 -0.37075198811E+02  0.16750362393E+02  0.16662921951E+01  0.40717719741E+02  0.10566000000E+00 0.  1.
         22    1    1    0    0    0 -0.84408979435E+01  0.13532537998E+01 -0.27573881544E+02  0.28868650771E+02  0.00000000000E+00 0. -1.
</event>
<event>
 5    1  0.1320187E-009  0.9118800E+02  0.7818608E-02  0.1130116E+00
         25   -1    0    0    0    0  0.00000000000E+00  0.00000000000E+00  0.99999998245E-14  0.12500000000E+03  0.12500000000E+03 0.  0.
        -13    1    3    3    0    0  0.29591945185E+02 -0.51840591335E+02 -0.62155644139E+01  0.60014785968E+02  0.10566000000E+00 0. -1.
         23    2    1    0    0    0  0.11954276065E+02 -0.28818342991E+02  0.86761526017E+01  0.92616713679E+02  0.86770838533E+02 0.  0.
         13    1    3    3    0    0 -0.17637669120E+02  0.23022248344E+02  0.14891717016E+02  0.32601927711E+02  0.10566000000E+00 0.  1.
         22    1    1    0    0    0 -0.11954276065E+02  0.28818342991E+02 -0.86761526017E+01  0.32383286321E+02  0.00000000000E+00 0. -1.
</event>
<event>
 5    1  0.1320187E-009  0.9118800E+02  0.7818608E-02  0.1130116E+00
         25   -1    0    0    0    0  0.00000000000E+00  0.00000000000E+00  0.99999998245E-14  0.12500000000E+03  0.12500000000E+03 0.  0.
        -13    1    3    3    0    0 -0.28970104802E+02 -0.45182965416E+02  0.26824425919E+02  0.60002735987E+02  0.10566000000E+00 0.  1.
         23    2    1    0    0    0 -0.34308647353E+01 -0.21143195948E+02  0.19918878037E+02  0.95749918462E+02  0.91172800853E+02 0.  0.
         13    1    3    3    0    0  0.25539240067E+02  0.24039769468E+02 -0.69055478819E+01  0.35747182474E+02  0.10566000000E+00 0. -1.
         22    1    1    0    0    0  0.34308647353E+01  0.21143195948E+02 -0.19918878037E+02  0.29250081538E+02  0.00000000000E+00 0.  1.
</event>
<event>
 5    1  0.1320187E-009  0.9118800E+02  0.7818608E-02  0.1130116E+00
         25   -1    0    0    0    0  0.00000000000E+00  0.00000000000E+00  0.99999998245E-14  0.12500000000E+03  0.12500000000E+03 0.  0.
        -13    1    3    3    0    0 -0.64025254648E+01  0.56738482466E+02  0.16765594318E+02  0.59509192918E+02  0.10566000000E+00 0. -1.
         23    2    1    0    0    0 -0.16292857831E+02  0.23270352672E+02  0.72502244213E+01  0.95682218980E+02  0.91079936018E+02 0.  0.
         13    1    3    3    0    0 -0.98903323660E+01 -0.33468129794E+02 -0.95153698967E+01  0.36173026063E+02  0.10566000000E+00 0.  1.
         22    1    1    0    0    0  0.16292857831E+02 -0.23270352672E+02 -0.72502244213E+01  0.29317781020E+02  0.00000000000E+00 0. -1.
</event>
<event>
 5    1  0.1320187E-009  0.9118800E+02  0.7818608E-02  0.1130116E+00
         25   -1    0    0    0    0  0.00000000000E+00  0.00000000000E+00  0.99999998245E-14  0.12500000000E+03  0.12500000000E+03 0.  0.
        -13    1    3    3    0    0  0.49322424723E+02  0.28343238290E+02 -0.14840460299E+02  0.58790230168E+02  0.10566000000E+00 0.  1.
         23    2    1    0    0    0  0.14043997427E+02  0.18408077758E+02  0.61728094012E+01  0.10103763855E+03  0.98155028587E+02 0.  0.
         13    1    3    3    0    0 -0.35278427295E+02 -0.99351605317E+01  0.21013269700E+02  0.42247408379E+02  0.10566000000E+00 0. -1.
         22    1    1    0    0    0 -0.14043997427E+02 -0.18408077758E+02 -0.61728094012E+01  0.23962361453E+02  0.00000000000E+00 0.  1.
</event>
<event>
 5    1  0.1320187E-009  0.9118800E+02  0.7818608E-02  0.1130116E+00
         25   -1    0    0    0    0  0.00000000000E+00  0.00000000000E+00  0.99999998245E-14  0.12500000000E+03  0.12500000000E+03 0.  0.
        -13    1    3    3    0    0  0.24033181750E+02  0.29734136366E+02 -0.27886637653E+02  0.47322176768E+02  0.10566000000E+00 0.  1.
         23    2    1    0    0    0  0.21364369430E+02 -0.15985445891E+02 -0.11130317661E+02  0.96088847607E+02  0.91636302314E+02 0.  0.
         13    1    3    3    0    0 -0.26688123197E+01 -0.45719582257E+02  0.16756319992E+02  0.48766670838E+02  0.10566000000E+00 0. -1.
         22    1    1    0    0    0 -0.21364369430E+02  0.15985445891E+02  0.11130317661E+02  0.28911152393E+02  0.00000000000E+00 0.  1.
</event>
<event>
 5    1  0.1320187E-009  0.9118800E+02  0.7818608E-02  0.1130116E+00
         25   -1    0    0    0    0  0.00000000000E+00  0.00000000000E+00  0.99999998245E-14  0.12500000000E+03  0.12500000000E+03 0.  0.
        -13    1    3    3    0    0  0.37225848660E+02  0.11719742562E+02 -0.16727561461E+02  0.42461025078E+02  0.10566000000E+00 0.  1.
         23    2    1    0    0    0 -0.10978089188E+02 -0.71489665266E+01 -0.26774374401E+02  0.95192395447E+02  0.90405192671E+02 0.  0.
         13    1    3    3    0    0 -0.48203937848E+02 -0.18868709088E+02 -0.10046812940E+02  0.52731370369E+02  0.10566000000E+00 0. -1.
         22    1    1    0    0    0  0.10978089188E+02  0.71489665266E+01  0.26774374401E+02  0.29807604553E+02  0.00000000000E+00 0. -1.
</event>
<event>
 5    1  0.1320187E-009  0.9118800E+02  0.7818608E-02  0.1130116E+00
         25   -1    0    0    0    0  0.00000000000E+00  0.00000000000E+00  0.99999998245E-14  0.12500000000E+03  0.12500000000E+03 0.  0.
        -13    1    3    3    0    0 -0.24226487072E+02 -0.14163894738E+02  0.35656605649E+02  0.45375580221E+02  0.10566000000E+00 0.  1.
         23    2    1    0    0    0  0.18266020557E+02 -0.21076958604E+02  0.10771541168E+02  0.95101642351E+02  0.90279624433E+02 0.  0.
         13    1    3    3    0    0  0.42492507630E+02 -0.69130638657E+01 -0.24885064481E+02  0.49726062130E+02  0.10566000000E+00 0. -1.
         22    1    1    0    0    0 -0.18266020557E+02  0.21076958604E+02 -0.10771541168E+02  0.29898357649E+02  0.00000000000E+00 0. -1.
</event>
<event>
 5    1  0.1320187E-009  0.9118800E+02  0.7818608E-02  0.1130116E+00
         25   -1    0    0    0    0  0.00000000000E+00  0.00000000000E+00  0.99999998245E-14  0.12500000000E+03  0.12500000000E+03 0.  0.
        -13    1    3    3    0    0  0.90281507603E+01  0.48889532509E+01  0.59338541865E+02  0.60220287983E+02  0.10566000000E+00 0.  1.
         23    2    1    0    0    0  0.70434038442E+01 -0.92543295274E+01  0.29102753241E+02  0.93659572451E+02  0.88260371135E+02 0.  0.
         13    1    3    3    0    0 -0.19847469161E+01 -0.14143282778E+02 -0.30235788624E+02  0.33439284469E+02  0.10566000000E+00 0. -1.
         22    1    1    0    0    0 -0.70434038442E+01  0.92543295274E+01 -0.29102753241E+02  0.31340427549E+02  0.00000000000E+00 0.  1.
</event>
<event>
 5    1  0.1320187E-009  0.9118800E+02  0.7818608E-02  0.1130116E+00
         25   -1    0    0    0    0  0.00000000000E+00  0.00000000000E+00  0.99999998245E-14  0.12500000000E+03  0.12500000000E+03 0.  0.
        -13    1    3    3    0    0  0.43266668724E+02  0.70423235412E+01  0.18298429498E+02  0.47502027635E+02  0.10566000000E+00 0.  1.
         23    2    1    0    0    0  0.14597308580E+02  0.16693019587E+02 -0.19190796106E+02  0.95673817571E+02  0.91068405019E+02 0.  0.
         13    1    3    3    0    0 -0.28669360144E+02  0.96506960453E+01 -0.37489225603E+02  0.48171789936E+02  0.10566000000E+00 0. -1.
         22    1    1    0    0    0 -0.14597308580E+02 -0.16693019587E+02  0.19190796106E+02  0.29326182429E+02  0.00000000000E+00 0. -1.
</event>
<event>
 5    1  0.1320187E-009  0.9118800E+02  0.7818608E-02  0.1130116E+00
         25   -1    0    0    0    0  0.00000000000E+00  0.00000000000E+00  0.99999998245E-14  0.12500000000E+03  0.12500000000E+03 0.  0.
        -13    1    3    3    0    0 -0.12145657447E+02 -0.47406915561E+02 -0.13600510099E+02  0.50792890022E+02  0.10566000000E+00 0.  1.
         23    2    1    0    0    0  0.19755584004E+02 -0.14282406458E+02 -0.14205645325E+02  0.96785277023E+02  0.92581419604E+02 0.  0.
         13    1    3    3    0    0  0.31901241451E+02  0.33124509103E+02 -0.60513522604E+00  0.45992387002E+02  0.10566000000E+00 0. -1.
         22    1    1    0    0    0 -0.19755584004E+02  0.14282406458E+02  0.14205645325E+02  0.28214722977E+02  0.00000000000E+00 0.  1.
</event>
<event>
 5    1  0.1320187E-009  0.9118800E+02  0.7818608E-02  0.1130116E+00
         25   -1    0    0    0    0  0.00000000000E+00  0.00000000000E+00  0.99999998245E-14  0.12500000000E+03  0.12500000000E+03 0.  0.
        -13    1    3    3    0    0  0.31173338170E+02 -0.18244798141E+02 -0.27206761385E+02  0.45220224468E+02  0.10566000000E+00 0. -1.
         23    2    1    0    0    0 -0.11026040103E+02  0.11746116646E+02 -0.22668369596E+02  0.97189933535E+02  0.93126169168E+02 0.  0.
         13    1    3    3    0    0 -0.42199378274E+02  0.29990914787E+02  0.45383917885E+01  0.51969709067E+02  0.10566000000E+00 0.  1.
         22    1    1    0    0    0  0.11026040103E+02 -0.11746116646E+02  0.22668369596E+02  0.27810066465E+02  0.00000000000E+00 0.  1.
</event>
<event>
 5    1  0.1320187E-009  0.9118800E+02  0.7818608E-02  0.1130116E+00
         25   -1    0    0    0    0  0.00000000000E+00  0.00000000000E+00  0.99999998245E-14  0.12500000000E+03  0.12500000000E+03 0.  0.
        -13    1    3    3    0    0  0.36074025167E+02  0.13760231982E+02  0.19207809048E+02  0.43123431779E+02  0.10566000000E+00 0. -1.
         23    2    1    0    0    0 -0.45935728795E+01 -0.15129477351E+02  0.27096188309E+02  0.93627951652E+02  0.88215576362E+02 0.  0.
         13    1    3    3    0    0 -0.40667598046E+02 -0.28889709333E+02  0.78883792610E+01  0.50504519873E+02  0.10566000000E+00 0.  1.
         22    1    1    0    0    0  0.45935728795E+01  0.15129477351E+02 -0.27096188309E+02  0.31372048348E+02  0.00000000000E+00 0.  1.
</event>
<event>
 5    1  0.1320187E-009  0.9118800E+02  0.7818608E-02  0.1130116E+00
         25   -1    0    0    0    0  0.00000000000E+00  0.00000000000E+00  0.99999998245E-14  0.12500000000E+03  0.12500000000E+03 0.  0.
        -13    1    3    3    0    0 -0.31261919172E+02 -0.45249092464E+01 -0.50027761254E+02  0.59165618852E+02  0.10566000000E+00 0.  1.
         23    2    1    0    0    0 -0.48542523924E+01  0.98902381839E+01 -0.22511376535E+02  0.99937225789E+02  0.96743508554E+02 0.  0.
         13    1    3    3    0    0  0.26407666780E+02  0.14415147430E+02  0.27516384719E+02  0.40771606937E+02  0.10566000000E+00 0. -1.
         22    1    1    0    0    0  0.48542523924E+01 -0.98902381839E+01  0.22511376535E+02  0.25062774211E+02  0.00000000000E+00 0.  1.
</event>
<event>
 5    1  0.1320187E-009  0.9118800E+02  0.7818608E-02  0.1130116E+00
         25   -1    0    0    0    0  0.00000000000E+00  0.00000000000E+00  0.99999998245E-14  0.12500000000E+03  0.12500000000E+03 0.  0.
        -13    1    3    3    0    0  0.27546559119E+02 -0.24133240247E+02  0.17809082827E+02  0.40723467427E+02  0.10566000000E+00 0.  1.
         23    2    1    0    0    0  0.62323745960E+01 -0.22090888230E+01 -0.28237914045E+02  0.95998235293E+02  0.91512615650E+02 0.  0.
         13    1    3    3    0    0 -0.21314184523E+02  0.21924151424E+02 -0.46046996872E+02  0.55274767865E+02  0.10566000000E+00 0. -1.
         22    1    1    0    0    0 -0.62323745960E+01  0.22090888230E+01  0.28237914045E+02  0.29001764707E+02  0.00000000000E+00 0. -1.
</event>
<event>
 5    1  0.1320187E-009  0.9118800E+02  0.7818608E-02  0.1130116E+00
         25   -1    0    0    0    0  0.00000000000E+00  0.00000000000E+00  0.99999998245E-14  0.12500000000E+03  0.12500000000E+03 0.  0.
        -13    1    3    3    0    0  0.33682750212E+02 -0.30830249878E+01 -0.26384398751E+02  0.42897323534E+02  0.10566000000E+00 0.  1.
         23    2    1    0    0    0  0.58092600125E+01  0.26260763092E+02  0.89814640369E+01  0.96644367821E+02  0.92390973342E+02 0.  0.
         13    1    3    3    0    0 -0.27873490200E+02  0.29343788079E+02  0.35365862788E+02  0.53747044286E+02  0.10566000000E+00 0. -1.
         22    1    1    0    0    0 -0.58092600125E+01 -0.26260763092E+02 -0.89814640369E+01  0.28355632179E+02  0.00000000000E+00 0. -1.
</event>
<event>
 5    1  0.1320187E-009  0.9118800E+02  0.7818608E-02  0.1130116E+00
         25   -1    0    0    0    0  0.00000000000E+00  0.00000000000E+00  0.99999998245E-14  0.12500000000E+03  0.12500000000E+03 0.  0.
        -13    1    3    3    0    0  0.63589137796E+01 -0.24518376585E+02 -0.22886264458E+02  0.34137645491E+02  0.10566000000E+00 0. -1.
         23    2    1    0    0    0  0.38127811039E+01  0.12289605217E+02  0.26356905259E+02  0.95669842296E+02  0.91062948415E+02 0.  0.
         13    1    3    3    0    0 -0.25461326757E+01  0.36807981801E+02  0.49243169717E+02  0.61532196805E+02  0.10566000000E+00 0.  1.
         22    1    1    0    0    0 -0.38127811039E+01 -0.12289605217E+02 -0.26356905259E+02  0.29330157704E+02  0.00000000000E+00 0.  1.
</event>
<event>
 5    1  0.1320187E-009  0.9118800E+02  0.7818608E-02  0.1130116E+00
         25   -1    0    0    0    0  0.00000000000E+00  0.00000000000E+00  0.99999998245E-14  0.12500000000E+03  0.12500000000E+03 0.  0.
        -13    1    3    3    0    0 -0.57677028662E+02  0.16417588478E+02  0.14486120496E+02  0.61693076579E+02  0.10566000000E+00 0. -1.
         23    2    1    0    0    0 -0.24738148927E+02  0.14344438012E+02  0.76579025908E+01  0.95396243712E+02  0.90686608317E+02 0.  0.
         13    1    3    3    0    0  0.32938879735E+02 -0.20731504654E+01 -0.68282179048E+01  0.33703167133E+02  0.10566000000E+00 0.  1.
         22    1    1    0    0    0  0.24738148927E+02 -0.14344438012E+02 -0.76579025908E+01  0.29603756288E+02  0.00000000000E+00 0. -1.
</event>
<event>
 5    1  0.1320187E-009  0.9118800E+02  0.7818608E-02  0.1130116E+00
         25   -1    0    0    0    0  0.00000000000E+00  0.00000000000E+00  0.99999998245E-14  0.12500000000E+03  0.12500000000E+03 0.  0.
        -13    1    3    3    0    0  0.37899422191E+02 -0.37398776565E+02  0.18734207891E+02  0.56444808444E+02  0.10566000000E+00 0.  1.
         23    2    1    0    0    0  0.29988105301E+01 -0.20309128151E+02  0.21334949313E+02  0.95392000861E+02  0.90680759896E+02 0.  0.
         13    1    3    3    0    0 -0.34900611661E+02  0.17089648414E+02  0.26007414211E+01  0.38947192417E+02  0.10566000000E+00 0. -1.
         22    1    1    0    0    0 -0.29988105301E+01  0.20309128151E+02 -0.21334949313E+02  0.29607999139E+02  0.00000000000E+00 0.  1.
</event>
<event>
 5    1  0.1320187E-009  0.9118800E+02  0.7818608E-02  0.1130116E+00
         25   -1    0    0    0    0  0.00000000000E+00  0.00000000000E+00  0.99999998245E-14  0.12500000000E+03  0.12500000000E+03 0.  0.
        -13    1    3    3    0    0 -0.25269117607E+02 -0.19696915776E+02  0.52633903724E+02  0.61618469480E+02  0.10566000000E+00 0.  1.
         23    2    1    0    0    0 -0.40586934935E+01 -0.51819770015E+01  0.24082891685E+02  0.10003379183E+03  0.96868198896E+02 0.  0.
         13    1    3    3    0    0  0.21210424114E+02  0.14514938775E+02 -0.28551012039E+02  0.38415322350E+02  0.10566000000E+00 0. -1.
         22    1    1    0    0    0  0.40586934935E+01  0.51819770015E+01 -0.24082891685E+02  0.24966208171E+02  0.00000000000E+00 0.  1.
</event>
<event>
 5    1  0.1320187E-009  0.9118800E+02  0.7818608E-02  0.1130116E+00
         25   -1    0    0    0    0  0.00000000000E+00  0.00000000000E+00  0.99999998245E-14  0.12500000000E+03  0.12500000000E+03 0.  0.
        -13    1    3    3    0    0  0.12531361407E+02 -0.30576630460E+02  0.16298105252E+02  0.36845688321E+02  0.10566000000E+00 0.  1.
         23    2    1    0    0    0 -0.16593667647E+02  0.20506421612E+02  0.12604095410E+02  0.95764296581E+02  0.91192511453E+02 0.  0.
         13    1    3    3    0    0 -0.29125029055E+02  0.51083052072E+02 -0.36940098420E+01  0.58918608259E+02  0.10566000000E+00 0. -1.
         22    1    1    0    0    0  0.16593667647E+02 -0.20506421612E+02 -0.12604095410E+02  0.29235703419E+02  0.00000000000E+00 0. -1.
</event>
<event>
 5    1  0.1320187E-009  0.9118800E+02  0.7818608E-02  0.1130116E+00
         25   -1    0    0    0    0  0.00000000000E+00  0.00000000000E+00  0.99999998245E-14  0.12500000000E+03  0.12500000000E+03 0.  0.
        -13    1    3    3    0    0  0.43551202673E+02  0.11893778058E+02  0.38660424432E+00  0.45147866369E+02  0.10566000000E+00 0. -1.
         23    2    1    0    0    0  0.96117773391E+01 -0.26489886356E+02  0.41209286442E+01  0.96520491654E+02  0.92223223287E+02 0.  0.
         13    1    3    3    0    0 -0.33939425334E+02 -0.38383664414E+02  0.37343243999E+01  0.51372625285E+02  0.10566000000E+00 0.  1.
         22    1    1    0    0    0 -0.96117773391E+01  0.26489886356E+02 -0.41209286442E+01  0.28479508346E+02  0.00000000000E+00 0.  1.
</event>
<event>
 5    1  0.1320187E-009  0.9118800E+02  0.7818608E-02  0.1130116E+00
         25   -1    0    0    0    0  0.00000000000E+00  0.00000000000E+00  0.99999998245E-14  0.12500000000E+03  0.12500000000E+03 0.  0.
        -13    1    3    3    0    0 -0.28264355885E+01 -0.25021793009E+02 -0.23518480005E+02  0.34455898324E+02  0.10566000000E+00 0. -1.
         23    2    1    0    0    0 -0.13213617955E+02  0.11185135166E+02  0.24197127845E+02  0.95247555662E+02  0.90481428567E+02 0.  0.
         13    1    3    3    0    0 -0.10387182366E+02  0.36206928175E+02  0.47715607850E+02  0.60791657338E+02  0.10566000000E+00 0.  1.
         22    1    1    0    0    0  0.13213617955E+02 -0.11185135166E+02 -0.24197127845E+02  0.29752444338E+02  0.00000000000E+00 0.  1.
</event>
<event>
 5    1  0.1320187E-009  0.9118800E+02  0.7818608E-02  0.1130116E+00
         25   -1    0    0    0    0  0.00000000000E+00  0.00000000000E+00  0.99999998245E-14  0.12500000000E+03  0.12500000000E+03 0.  0.
        -13    1    3    3    0    0  0.24737030726E+02  0.36691716822E+02  0.20708062486E+02  0.48857320725E+02  0.10566000000E+00 0.  1.
         23    2    1    0    0    0  0.19608604674E+02 -0.87897647892E+01 -0.70474590998E+01  0.10238531402E+03  0.99856539617E+02 0.  0.
         13    1    3    3    0    0 -0.51284260517E+01 -0.45481481612E+02 -0.27755521586E+02  0.53527993292E+02  0.10566000000E+00 0. -1.
         22    1    1    0    0    0 -0.19608604674E+02  0.87897647892E+01  0.70474590998E+01  0.22614685983E+02  0.00000000000E+00 0. -1.
</event>
<event>
 5    1  0.1320187E-009  0.9118800E+02  0.7818608E-02  0.1130116E+00
         25   -1    0    0    0    0  0.00000000000E+00  0.00000000000E+00  0.99999998245E-14  0.12500000000E+03  0.12500000000E+03 0.  0.
        -13    1    3    3    0    0 -0.20626086580E+00 -0.29642795749E+01 -0.31359488505E+02  0.31500129845E+02  0.10566000000E+00 0.  1.
         23    2    1    0    0    0 -0.20700373050E+02 -0.66626739796E+01  0.25166094505E+02  0.91739979231E+02  0.85498507634E+02 0.  0.
         13    1    3    3    0    0 -0.20494112184E+02 -0.36983944047E+01  0.56525583009E+02  0.60239849385E+02  0.10566000000E+00 0. -1.
         22    1    1    0    0    0  0.20700373050E+02  0.66626739796E+01 -0.25166094505E+02  0.33260020769E+02  0.00000000000E+00 0. -1.
</event>
<event>
 5    1  0.1320187E-009  0.9118800E+02  0.7818608E-02  0.1130116E+00
         25   -1    0    0    0    0  0.00000000000E+00  0.00000000000E+00  0.99999998245E-14  0.12500000000E+03  0.12500000000E+03 0.  0.
        -13    1    3    3    0    0 -0.63399191112E+01 -0.51104074617E+02 -0.19488929280E+02  0.55060426309E+02  0.10566000000E+00 0.  1.
         23    2    1    0    0    0 -0.11145982375E+01 -0.10971865344E+02 -0.26648234766E+02  0.96159879083E+02  0.91733144342E+02 0.  0.
         13    1    3    3    0    0  0.52253208737E+01  0.40132209272E+02 -0.71593054851E+01  0.41099452775E+02  0.10566000000E+00 0. -1.
         22    1    1    0    0    0  0.11145982375E+01  0.10971865344E+02  0.26648234766E+02  0.28840120917E+02  0.00000000000E+00 0.  1.
</event>
<event>
 5    1  0.1320187E-009  0.9118800E+02  0.7818608E-02  0.1130116E+00
         25   -1    0    0    0    0  0.00000000000E+00  0.00000000000E+00  0.99999998245E-14  0.12500000000E+03  0.12500000000E+03 0.  0.
        -13    1    3    3    0    0  0.19858095495E+02  0.55584725530E+00  0.49886264899E+02  0.53696401299E+02  0.10566000000E+00 0.  1.
         23    2    1    0    0    0  0.28134463765E+02 -0.19549192060E+01  0.91355164413E+01  0.95354976453E+02  0.90629708779E+02 0.  0.
         13    1    3    3    0    0  0.82763682704E+01 -0.25107664614E+01 -0.40750748458E+02  0.41658575154E+02  0.10566000000E+00 0. -1.
         22    1    1    0    0    0 -0.28134463765E+02  0.19549192060E+01 -0.91355164413E+01  0.29645023547E+02  0.00000000000E+00 0.  1.
</event>
<event>
 5    1  0.1320187E-009  0.9118800E+02  0.7818608E-02  0.1130116E+00
         25   -1    0    0    0    0  0.00000000000E+00  0.00000000000E+00  0.99999998245E-14  0.12500000000E+03  0.12500000000E+03 0.  0.
        -13    1    3    3    0    0 -0.24108733863E+02  0.44806041834E+02 -0.19880794596E+02  0.54626638109E+02  0.10566000000E+00 0.  1.
         23    2    1    0    0    0 -0.27068462733E+02  0.68956285681E+01 -0.15895826064E+02  0.92860792568E+02  0.87121743222E+02 0.  0.
         13    1    3    3    0    0 -0.29597288697E+01 -0.37910413266E+02  0.39849685323E+01  0.38234154459E+02  0.10566000000E+00 0. -1.
         22    1    1    0    0    0  0.27068462733E+02 -0.68956285681E+01  0.15895826064E+02  0.32139207432E+02  0.00000000000E+00 0.  1.
</event>
<event>
 5    1  0.1320187E-009  0.9118800E+02  0.7818608E-02  0.1130116E+00
         25   -1    0    0    0    0  0.00000000000E+00  0.00000000000E+00  0.99999998245E-14  0.12500000000E+03  0.12500000000E+03 0.  0.
        -13    1    3    3    0    0 -0.42274472841E+02  0.20186432084E+01  0.33942054486E+01  0.42458659530E+02  0.10566000000E+00 0.  1.
         23    2    1    0    0    0  0.65437089707E+01  0.26444217097E+02  0.59869483066E+01  0.97108060394E+02  0.93016208794E+02 0.  0.
         13    1    3    3    0    0  0.48818181812E+02  0.24425573889E+02  0.25927428580E+01  0.54649400864E+02  0.10566000000E+00 0. -1.
         22    1    1    0    0    0 -0.65437089707E+01 -0.26444217097E+02 -0.59869483066E+01  0.27891939606E+02  0.00000000000E+00 0. -1.
</event>
<event>
 5    1  0.1320187E-009  0.9118800E+02  0.7818608E-02  0.1130116E+00
         25   -1    0    0    0    0  0.00000000000E+00  0.00000000000E+00  0.99999998245E-14  0.12500000000E+03  0.12500000000E+03 0.  0.
        -13    1    3    3    0    0 -0.37980236674E+02 -0.98472946211E+01 -0.14337311847E+02  0.41773643177E+02  0.10566000000E+00 0. -1.
         23    2    1    0    0    0  0.13340823509E+02 -0.24267635538E+02 -0.11051314151E+02  0.95183439988E+02  0.90392809432E+02 0.  0.
         13    1    3    3    0    0  0.51321060183E+02 -0.14420340917E+02  0.32859976966E+01  0.53409796811E+02  0.10566000000E+00 0.  1.
         22    1    1    0    0    0 -0.13340823509E+02  0.24267635538E+02  0.11051314151E+02  0.29816560012E+02  0.00000000000E+00 0.  1.
</event>
<event>
 5    1  0.1320187E-009  0.9118800E+02  0.7818608E-02  0.1130116E+00
         25   -1    0    0    0    0  0.00000000000E+00  0.00000000000E+00  0.99999998245E-14  0.12500000000E+03  0.12500000000E+03 0.  0.
        -13    1    3    3    0    0 -0.45195626936E+02  0.37666040936E+01 -0.15425331689E+02  0.47903904040E+02  0.10566000000E+00 0.  1.
         23    2    1    0    0    0 -0.10961611509E+02 -0.26987019744E+02 -0.98087158256E+01  0.94264563324E+02  0.89113078900E+02 0.  0.
         13    1    3    3    0    0  0.34234015428E+02 -0.30753623837E+02  0.56166158631E+01  0.46360659284E+02  0.10566000000E+00 0. -1.
         22    1    1    0    0    0  0.10961611509E+02  0.26987019744E+02  0.98087158256E+01  0.30735436676E+02  0.00000000000E+00 0.  1.
</event>
<event>
 5    1  0.1320187E-009  0.9118800E+02  0.7818608E-02  0.1130116E+00
         25   -1    0    0    0    0  0.00000000000E+00  0.00000000000E+00  0.99999998245E-14  0.12500000000E+03  0.12500000000E+03 0.  0.
        -13    1    3    3    0    0  0.25851041689E+02 -0.30144620153E+02 -0.16742855293E+02  0.43096506216E+02  0.10566000000E+00 0.  1.
         23    2    1    0    0    0 -0.21777128213E+02 -0.12019703913E+02  0.67720142364E+01  0.99220613425E+02  0.95813116828E+02 0.  0.
         13    1    3    3    0    0 -0.47628169903E+02  0.18124916240E+02  0.23514869529E+02  0.56124107209E+02  0.10566000000E+00 0. -1.
         22    1    1    0    0    0  0.21777128213E+02  0.12019703913E+02 -0.67720142364E+01  0.25779386575E+02  0.00000000000E+00 0. -1.
</event>
<event>
 5    1  0.1320187E-009  0.9118800E+02  0.7818608E-02  0.1130116E+00
         25   -1    0    0    0    0  0.00000000000E+00  0.00000000000E+00  0.99999998245E-14  0.12500000000E+03  0.12500000000E+03 0.  0.
        -13    1    3    3    0    0  0.13864083283E+01 -0.15741010641E+02 -0.43703704423E+02  0.46472857545E+02  0.10566000000E+00 0.  1.
         23    2    1    0    0    0  0.15684072611E+02 -0.25246603900E+02  0.19160228339E+01  0.95216576999E+02  0.90438621450E+02 0.  0.
         13    1    3    3    0    0  0.14297664283E+02 -0.95055932597E+01  0.45619727257E+02  0.48743719454E+02  0.10566000000E+00 0. -1.
         22    1    1    0    0    0 -0.15684072611E+02  0.25246603900E+02 -0.19160228339E+01  0.29783423001E+02  0.00000000000E+00 0. -1.
</event>
<event>
 5    1  0.1320187E-009  0.9118800E+02  0.7818608E-02  0.1130116E+00
         25   -1    0    0    0    0  0.00000000000E+00  0.00000000000E+00  0.99999998245E-14  0.12500000000E+03  0.12500000000E+03 0.  0.
        -13    1    3    3    0    0 -0.16377786072E+02 -0.33609002710E+02 -0.49596832488E+02  0.62110014463E+02  0.10566000000E+00 0.  1.
         23    2    1    0    0    0 -0.38672824209E+01 -0.18804509256E+02 -0.22557477350E+02  0.95378973244E+02  0.90662800039E+02 0.  0.
         13    1    3    3    0    0  0.12510503651E+02  0.14804493454E+02  0.27039355138E+02  0.33268958780E+02  0.10566000000E+00 0. -1.
         22    1    1    0    0    0  0.38672824209E+01  0.18804509256E+02  0.22557477350E+02  0.29621026756E+02  0.00000000000E+00 0.  1.
</event>
<event>
 5    1  0.1320187E-009  0.9118800E+02  0.7818608E-02  0.1130116E+00
         25   -1    0    0    0    0  0.00000000000E+00  0.00000000000E+00  0.99999998245E-14  0.12500000000E+03  0.12500000000E+03 0.  0.
        -13    1    3    3    0    0  0.49535333694E+02 -0.29936672145E+02  0.15428581331E+02  0.59899965853E+02  0.10566000000E+00 0.  1.
         23    2    1    0    0    0  0.17525674453E+02 -0.18223206611E+02  0.17817798973E+02  0.94069295442E+02  0.88838752021E+02 0.  0.
         13    1    3    3    0    0 -0.32009659241E+02  0.11713465535E+02  0.23892176420E+01  0.34169329589E+02  0.10566000000E+00 0. -1.
         22    1    1    0    0    0 -0.17525674453E+02  0.18223206611E+02 -0.17817798973E+02  0.30930704558E+02  0.00000000000E+00 0.  1.
</event>
<event>
 4    1  0.1320187E-009  0.9118800E+02  0.7818608E-02  0.1130116E+00
         25   -1    0    0    0    0  0.00000000000E+00  0.00000000000E+00  0.99999998245E-14  0.12500000000E+03  0.12500000000E+03 0.  0.
        -13    1    1    0    0    0 -0.60854449043E+02 -0.56391420365E+01  0.12232018464E+02  0.62327340157E+02  0.10566000000E+00 0. -1.
         13    1    1    0    0    0  0.99455211822E+01 -0.12270104643E+01 -0.31599180587E+01  0.10507863362E+02  0.10566000000E+00 0.  1.
         22    1    1    0    0    0  0.50908927861E+02  0.68661525008E+01 -0.90721004054E+01  0.52164796481E+02  0.00000000000E+00 0. -1.
</event>
<event>
 5    1  0.1320187E-009  0.9118800E+02  0.7818608E-02  0.1130116E+00
         25   -1    0    0    0    0  0.00000000000E+00  0.00000000000E+00  0.99999998245E-14  0.12500000000E+03  0.12500000000E+03 0.  0.
        -13    1    3    3    0    0 -0.57591862624E+01  0.25672599309E+02  0.50778219591E+02  0.57189940816E+02  0.10566000000E+00 0.  1.
         23    2    1    0    0    0 -0.13483581889E+02 -0.31279456135E+01  0.24134884603E+02  0.97177640662E+02  0.93109667412E+02 0.  0.
         13    1    3    3    0    0 -0.77243956264E+01 -0.28800544922E+02 -0.26643334988E+02  0.39987699846E+02  0.10566000000E+00 0. -1.
         22    1    1    0    0    0  0.13483581889E+02  0.31279456135E+01 -0.24134884603E+02  0.27822359338E+02  0.00000000000E+00 0.  1.
</event>
<event>
 5    1  0.1320187E-009  0.9118800E+02  0.7818608E-02  0.1130116E+00
         25   -1    0    0    0    0  0.00000000000E+00  0.00000000000E+00  0.99999998245E-14  0.12500000000E+03  0.12500000000E+03 0.  0.
        -13    1    3    3    0    0 -0.43528751004E+01 -0.23656511149E+02  0.56303110802E+02  0.61226052391E+02  0.10566000000E+00 0. -1.
         23    2    1    0    0    0 -0.10164042956E+02 -0.13983130194E+02  0.24162077715E+02  0.95290713594E+02  0.90541031575E+02 0.  0.
         13    1    3    3    0    0 -0.58111678559E+01  0.96733809549E+01 -0.32141033087E+02  0.34064661203E+02  0.10566000000E+00 0.  1.
         22    1    1    0    0    0  0.10164042956E+02  0.13983130194E+02 -0.24162077715E+02  0.29709286406E+02  0.00000000000E+00 0. -1.
</event>
<event>
 5    1  0.1320187E-009  0.9118800E+02  0.7818608E-02  0.1130116E+00
         25   -1    0    0    0    0  0.00000000000E+00  0.00000000000E+00  0.99999998245E-14  0.12500000000E+03  0.12500000000E+03 0.  0.
        -13    1    3    3    0    0  0.43249193084E+00  0.35424842134E+02 -0.64036797116E+01  0.36001732839E+02  0.10566000000E+00 0. -1.
         23    2    1    0    0    0  0.15034111148E+02 -0.21664096164E+02 -0.13536962579E+02  0.95358695769E+02  0.90634838458E+02 0.  0.
         13    1    3    3    0    0  0.14601619217E+02 -0.57088938298E+02 -0.71332828679E+01  0.59356962930E+02  0.10566000000E+00 0.  1.
         22    1    1    0    0    0 -0.15034111148E+02  0.21664096164E+02  0.13536962579E+02  0.29641304231E+02  0.00000000000E+00 0.  1.
</event>
<event>
 5    1  0.1320187E-009  0.9118800E+02  0.7818608E-02  0.1130116E+00
         25   -1    0    0    0    0  0.00000000000E+00  0.00000000000E+00  0.99999998245E-14  0.12500000000E+03  0.12500000000E+03 0.  0.
        -13    1    3    3    0    0  0.43291921350E+02 -0.19300088355E+02 -0.31690635336E+02  0.57017465716E+02  0.10566000000E+00 0.  1.
         23    2    1    0    0    0  0.30048703175E+02 -0.26767237296E+01 -0.41742074763E+00  0.94829424061E+02  0.89901924424E+02 0.  0.
         13    1    3    3    0    0 -0.13243218175E+02  0.16623364626E+02  0.31273214588E+02  0.37811958344E+02  0.10566000000E+00 0. -1.
         22    1    1    0    0    0 -0.30048703175E+02  0.26767237296E+01  0.41742074763E+00  0.30170575939E+02  0.00000000000E+00 0. -1.
</event>
<event>
 5    1  0.1320187E-009  0.9118800E+02  0.7818608E-02  0.1130116E+00
         25   -1    0    0    0    0  0.00000000000E+00  0.00000000000E+00  0.99999998245E-14  0.12500000000E+03  0.12500000000E+03 0.  0.
        -13    1    3    3    0    0  0.25143852117E+02  0.18450423724E+02 -0.11190637445E+02  0.33134166133E+02  0.10566000000E+00 0.  1.
         23    2    1    0    0    0 -0.25253331064E+02 -0.10601842884E+02  0.11123833152E+02  0.95438716767E+02  0.90745133158E+02 0.  0.
         13    1    3    3    0    0 -0.50397183181E+02 -0.29052266609E+02  0.22314470597E+02  0.62304550634E+02  0.10566000000E+00 0. -1.
         22    1    1    0    0    0  0.25253331064E+02  0.10601842884E+02 -0.11123833152E+02  0.29561283233E+02  0.00000000000E+00 0. -1.
</event>
<event>
 5    1  0.1320187E-009  0.9118800E+02  0.7818608E-02  0.1130116E+00
         25   -1    0    0    0    0  0.00000000000E+00  0.00000000000E+00  0.99999998245E-14  0.12500000000E+03  0.12500000000E+03 0.  0.
        -13    1    3    3    0    0 -0.14065518309E+02  0.40085994121E+01  0.33892017556E+02  0.36913245490E+02  0.10566000000E+00 0.  1.
         23    2    1    0    0    0 -0.16608175259E+02 -0.26606137016E+01 -0.24247759501E+02  0.95489591810E+02  0.90815185694E+02 0.  0.
         13    1    3    3    0    0 -0.25426569502E+01 -0.66692131136E+01 -0.58139777057E+02  0.58576346320E+02  0.10566000000E+00 0. -1.
         22    1    1    0    0    0  0.16608175259E+02  0.26606137016E+01  0.24247759501E+02  0.29510408190E+02  0.00000000000E+00 0. -1.
</event>
<event>
 5    1  0.1320187E-009  0.9118800E+02  0.7818608E-02  0.1130116E+00
         25   -1    0    0    0    0  0.00000000000E+00  0.00000000000E+00  0.99999998245E-14  0.12500000000E+03  0.12500000000E+03 0.  0.
        -13    1    3    3    0    0  0.28014180942E+02  0.11395355160E+02 -0.89112281345E+01  0.31528869374E+02  0.10566000000E+00 0.  1.
         23    2    1    0    0    0 -0.21804623429E+02 -0.16918252881E+02  0.14963486244E+02  0.93606134294E+02  0.88184656111E+02 0.  0.
         13    1    3    3    0    0 -0.49818804370E+02 -0.28313608042E+02  0.23874714379E+02  0.62077264920E+02  0.10566000000E+00 0. -1.
         22    1    1    0    0    0  0.21804623429E+02  0.16918252881E+02 -0.14963486244E+02  0.31393865706E+02  0.00000000000E+00 0. -1.
</event>
<event>
 5    1  0.1320187E-009  0.9118800E+02  0.7818608E-02  0.1130116E+00
         25   -1    0    0    0    0  0.00000000000E+00  0.00000000000E+00  0.99999998245E-14  0.12500000000E+03  0.12500000000E+03 0.  0.
        -13    1    3    3    0    0 -0.12959483355E+02  0.24064946654E+02 -0.53093806501E+02  0.59716273487E+02  0.10566000000E+00 0.  1.
         23    2    1    0    0    0 -0.14532302249E+02  0.16143024838E+02 -0.15131496130E+02  0.98528369247E+02  0.94905702209E+02 0.  0.
         13    1    3    3    0    0 -0.15728188944E+01 -0.79219218165E+01  0.37962310371E+02  0.38812095760E+02  0.10566000000E+00 0. -1.
         22    1    1    0    0    0  0.14532302249E+02 -0.16143024838E+02  0.15131496130E+02  0.26471630753E+02  0.00000000000E+00 0.  1.
</event>
<event>
 5    1  0.1320187E-009  0.9118800E+02  0.7818608E-02  0.1130116E+00
         25   -1    0    0    0    0  0.00000000000E+00  0.00000000000E+00  0.99999998245E-14  0.12500000000E+03  0.12500000000E+03 0.  0.
        -13    1    3    3    0    0  0.25236804498E+02 -0.17993306951E+02 -0.14981963955E+02  0.34425656193E+02  0.10566000000E+00 0. -1.
         23    2    1    0    0    0 -0.94251508901E+01  0.10386983581E+02  0.26203323201E+02  0.95279013408E+02  0.90524876978E+02 0.  0.
         13    1    3    3    0    0 -0.34661955388E+02  0.28380290533E+02  0.41185287157E+02  0.60853357215E+02  0.10566000000E+00 0.  1.
         22    1    1    0    0    0  0.94251508901E+01 -0.10386983581E+02 -0.26203323201E+02  0.29720986592E+02  0.00000000000E+00 0.  1.
</event>
<event>
 4    1  0.1320187E-009  0.9118800E+02  0.7818608E-02  0.1130116E+00
         25   -1    0    0    0    0  0.00000000000E+00  0.00000000000E+00  0.99999998245E-14  0.12500000000E+03  0.12500000000E+03 0.  0.
        -13    1    1    0    0    0 -0.31465160201E+02  0.25507872893E+01 -0.66467055987E+01  0.32260698716E+02  0.10566000000E+00 0.  1.
         13    1    1    0    0    0  0.93425451777E+01  0.84426048492E+01 -0.38920285809E+02  0.40906729747E+02  0.10566000000E+00 0. -1.
         22    1    1    0    0    0  0.22122615024E+02 -0.10993392138E+02  0.45566991408E+02  0.51832571537E+02  0.00000000000E+00 0.  1.
</event>
<event>
 4    1  0.1320187E-009  0.9118800E+02  0.7818608E-02  0.1130116E+00
         25   -1    0    0    0    0  0.00000000000E+00  0.00000000000E+00  0.99999998245E-14  0.12500000000E+03  0.12500000000E+03 0.  0.
        -13    1    1    0    0    0 -0.50203132833E+02  0.46376857730E+01 -0.12076236811E+02  0.51843122351E+02  0.10566000000E+00 0.  1.
         13    1    1    0    0    0  0.53554006137E+01  0.19948096639E+02  0.67782655067E+01  0.21738512428E+02  0.10566000000E+00 0. -1.
         22    1    1    0    0    0  0.44847732219E+02 -0.24585782412E+02  0.52979713039E+01  0.51418365221E+02  0.00000000000E+00 0.  1.
</event>
<event>
 5    1  0.1320187E-009  0.9118800E+02  0.7818608E-02  0.1130116E+00
         25   -1    0    0    0    0  0.00000000000E+00  0.00000000000E+00  0.99999998245E-14  0.12500000000E+03  0.12500000000E+03 0.  0.
        -13    1    3    3    0    0 -0.12814167920E+02  0.33897576551E+02  0.37689305226E+02  0.52285212900E+02  0.10566000000E+00 0.  1.
         23    2    1    0    0    0 -0.95693555209E+01  0.10367202748E+02  0.45557617493E+02  0.77307778731E+02  0.60843608397E+02 0.  0.
         13    1    3    3    0    0  0.32448123987E+01 -0.23530373803E+02  0.78683122675E+01  0.25022565831E+02  0.10566000000E+00 0. -1.
         22    1    1    0    0    0  0.95693555209E+01 -0.10367202748E+02 -0.45557617493E+02  0.47692221269E+02  0.00000000000E+00 0.  1.
</event>
<event>
 5    1  0.1320187E-009  0.9118800E+02  0.7818608E-02  0.1130116E+00
         25   -1    0    0    0    0  0.00000000000E+00  0.00000000000E+00  0.99999998245E-14  0.12500000000E+03  0.12500000000E+03 0.  0.
        -13    1    3    3    0    0 -0.13101294946E+02 -0.61779969168E+01  0.57370112902E+02  0.59170538223E+02  0.10566000000E+00 0. -1.
         23    2    1    0    0    0 -0.17779745498E+02  0.59792034458E+01  0.28031765710E+02  0.91270930748E+02  0.84809979878E+02 0.  0.
         13    1    3    3    0    0 -0.46784505524E+01  0.12157200363E+02 -0.29338347192E+02  0.32100392525E+02  0.10566000000E+00 0.  1.
         22    1    1    0    0    0  0.17779745498E+02 -0.59792034458E+01 -0.28031765710E+02  0.33729069252E+02  0.00000000000E+00 0. -1.
</event>
<event>
 5    1  0.1320187E-009  0.9118800E+02  0.7818608E-02  0.1130116E+00
         25   -1    0    0    0    0  0.00000000000E+00  0.00000000000E+00  0.99999998245E-14  0.12500000000E+03  0.12500000000E+03 0.  0.
        -13    1    3    3    0    0 -0.20107532269E+02  0.47992544228E+02 -0.10015635560E+02  0.52989822373E+02  0.10566000000E+00 0. -1.
         23    2    1    0    0    0 -0.13810517268E+02 -0.54153485472E+01  0.58416671783E+01  0.10905693058E+03  0.10788527539E+03 0.  0.
         13    1    3    3    0    0  0.62970150013E+01 -0.53407892775E+02  0.15857302738E+02  0.56067108207E+02  0.10566000000E+00 0.  1.
         22    1    1    0    0    0  0.13810517268E+02  0.54153485472E+01 -0.58416671783E+01  0.15943069420E+02  0.00000000000E+00 0. -1.
</event>
<event>
 5    1  0.1320187E-009  0.9118800E+02  0.7818608E-02  0.1130116E+00
         25   -1    0    0    0    0  0.00000000000E+00  0.00000000000E+00  0.99999998245E-14  0.12500000000E+03  0.12500000000E+03 0.  0.
        -13    1    3    3    0    0  0.92429995835E+01 -0.28675875881E+02  0.30139163514E+02  0.42615950537E+02  0.10566000000E+00 0. -1.
         23    2    1    0    0    0  0.22755079453E+01  0.22701625318E+02  0.84112797767E+00  0.10216911686E+03  0.99585537183E+02 0.  0.
         13    1    3    3    0    0 -0.69674916382E+01  0.51377501199E+02 -0.29298035536E+02  0.59553166327E+02  0.10566000000E+00 0.  1.
         22    1    1    0    0    0 -0.22755079453E+01 -0.22701625318E+02 -0.84112797767E+00  0.22830883136E+02  0.00000000000E+00 0.  1.
</event>
<event>
 5    1  0.1320187E-009  0.9118800E+02  0.7818608E-02  0.1130116E+00
         25   -1    0    0    0    0  0.00000000000E+00  0.00000000000E+00  0.99999998245E-14  0.12500000000E+03  0.12500000000E+03 0.  0.
        -13    1    3    3    0    0 -0.17157201597E+02  0.30246466444E+02  0.39405345936E+01  0.34996532341E+02  0.10566000000E+00 0. -1.
         23    2    1    0    0    0  0.30713943912E+01 -0.20313951737E+02 -0.21638616511E+02  0.95161772452E+02  0.90362841439E+02 0.  0.
         13    1    3    3    0    0  0.20228595988E+02 -0.50560418181E+02 -0.25579151105E+02  0.60165240111E+02  0.10566000000E+00 0.  1.
         22    1    1    0    0    0 -0.30713943912E+01  0.20313951737E+02  0.21638616511E+02  0.29838227548E+02  0.00000000000E+00 0.  1.
</event>
<event>
 5    1  0.1320187E-009  0.9118800E+02  0.7818608E-02  0.1130116E+00
         25   -1    0    0    0    0  0.00000000000E+00  0.00000000000E+00  0.99999998245E-14  0.12500000000E+03  0.12500000000E+03 0.  0.
        -13    1    3    3    0    0  0.30699438544E+02  0.32409536620E+01  0.17266885510E+02  0.35371115430E+02  0.10566000000E+00 0. -1.
         23    2    1    0    0    0 -0.16300227424E+02  0.15894381465E+02 -0.18411259892E+02  0.95720258420E+02  0.91132127183E+02 0.  0.
         13    1    3    3    0    0 -0.46999665968E+02  0.12653427803E+02 -0.35678145402E+02  0.60349142989E+02  0.10566000000E+00 0.  1.
         22    1    1    0    0    0  0.16300227424E+02 -0.15894381465E+02  0.18411259892E+02  0.29279741580E+02  0.00000000000E+00 0.  1.
</event>
<event>
 5    1  0.1320187E-009  0.9118800E+02  0.7818608E-02  0.1130116E+00
         25   -1    0    0    0    0  0.00000000000E+00  0.00000000000E+00  0.99999998245E-14  0.12500000000E+03  0.12500000000E+03 0.  0.
        -13    1    3    3    0    0 -0.27120791598E+02  0.19954519882E+02  0.81940211579E+01  0.34653619542E+02  0.10566000000E+00 0.  1.
         23    2    1    0    0    0  0.23939011638E+02 -0.13089683036E+02 -0.59008996934E+01  0.97085188566E+02  0.92985467367E+02 0.  0.
         13    1    3    3    0    0  0.51059803236E+02 -0.33044202918E+02 -0.14094920851E+02  0.62431569024E+02  0.10566000000E+00 0. -1.
         22    1    1    0    0    0 -0.23939011638E+02  0.13089683036E+02  0.59008996934E+01  0.27914811434E+02  0.00000000000E+00 0. -1.
</event>
<event>
 5    1  0.1320187E-009  0.9118800E+02  0.7818608E-02  0.1130116E+00
         25   -1    0    0    0    0  0.00000000000E+00  0.00000000000E+00  0.99999998245E-14  0.12500000000E+03  0.12500000000E+03 0.  0.
        -13    1    3    3    0    0 -0.13773449183E+02  0.80691605074E+01 -0.27190053979E+02  0.31529818475E+02  0.10566000000E+00 0. -1.
         23    2    1    0    0    0  0.77481388322E+01 -0.22454400822E+02  0.21545676916E+02  0.92930544666E+02  0.87221764294E+02 0.  0.
         13    1    3    3    0    0  0.21521588015E+02 -0.30523561329E+02  0.48735730895E+02  0.61400726191E+02  0.10566000000E+00 0.  1.
         22    1    1    0    0    0 -0.77481388322E+01  0.22454400822E+02 -0.21545676916E+02  0.32069455334E+02  0.00000000000E+00 0.  1.
</event>
<event>
 5    1  0.1320187E-009  0.9118800E+02  0.7818608E-02  0.1130116E+00
         25   -1    0    0    0    0  0.00000000000E+00  0.00000000000E+00  0.99999998245E-14  0.12500000000E+03  0.12500000000E+03 0.  0.
        -13    1    3    3    0    0 -0.31195870702E+02 -0.42012512989E+02 -0.12244832464E+02  0.53741796421E+02  0.10566000000E+00 0. -1.
         23    2    1    0    0    0 -0.25403199345E+02 -0.30654020606E+01 -0.18247599883E+02  0.93572398624E+02  0.88136823496E+02 0.  0.
         13    1    3    3    0    0  0.57926713571E+01  0.38947110928E+02 -0.60027674188E+01  0.39830602203E+02  0.10566000000E+00 0.  1.
         22    1    1    0    0    0  0.25403199345E+02  0.30654020606E+01  0.18247599883E+02  0.31427601376E+02  0.00000000000E+00 0. -1.
</event>
<event>
 5    1  0.1320187E-009  0.9118800E+02  0.7818608E-02  0.1130116E+00
         25   -1    0    0    0    0  0.00000000000E+00  0.00000000000E+00  0.99999998245E-14  0.12500000000E+03  0.12500000000E+03 0.  0.
        -13    1    3    3    0    0  0.15088166230E+02 -0.42166279468E+02 -0.46355255638E+01  0.45023850853E+02  0.10566000000E+00 0.  1.
         23    2    1    0    0    0  0.26981096657E+02  0.80593851026E+01 -0.60311791948E-01  0.96840864670E+02  0.92656441586E+02 0.  0.
         13    1    3    3    0    0  0.11892930427E+02  0.50225664571E+02  0.45752137718E+01  0.51817013816E+02  0.10566000000E+00 0. -1.
         22    1    1    0    0    0 -0.26981096657E+02 -0.80593851026E+01  0.60311791948E-01  0.28159135330E+02  0.00000000000E+00 0. -1.
</event>
<event>
 5    1  0.1320187E-009  0.9118800E+02  0.7818608E-02  0.1130116E+00
         25   -1    0    0    0    0  0.00000000000E+00  0.00000000000E+00  0.99999998245E-14  0.12500000000E+03  0.12500000000E+03 0.  0.
        -13    1    3    3    0    0 -0.96606485015E+01  0.41752572463E+02 -0.42152911630E+02  0.60112266300E+02  0.10566000000E+00 0.  1.
         23    2    1    0    0    0 -0.82705299948E+01  0.26116880827E+02 -0.10100658720E+02  0.95802115879E+02  0.91244336645E+02 0.  0.
         13    1    3    3    0    0  0.13901185067E+01 -0.15635691636E+02  0.32052252910E+02  0.35689849580E+02  0.10566000000E+00 0. -1.
         22    1    1    0    0    0  0.82705299948E+01 -0.26116880827E+02  0.10100658720E+02  0.29197884121E+02  0.00000000000E+00 0.  1.
</event>
<event>
 5    1  0.1320187E-009  0.9118800E+02  0.7818608E-02  0.1130116E+00
         25   -1    0    0    0    0  0.00000000000E+00  0.00000000000E+00  0.99999998245E-14  0.12500000000E+03  0.12500000000E+03 0.  0.
        -13    1    3    3    0    0  0.54669338116E+02  0.10726511799E+02  0.11543096089E+02  0.56895068474E+02  0.10566000000E+00 0. -1.
         23    2    1    0    0    0  0.19542881459E+02  0.32705451950E+01  0.23050950345E+02  0.94603174616E+02  0.89586793972E+02 0.  0.
         13    1    3    3    0    0 -0.35126456656E+02 -0.74559666035E+01  0.11507854256E+02  0.37708106142E+02  0.10566000000E+00 0.  1.
         22    1    1    0    0    0 -0.19542881459E+02 -0.32705451950E+01 -0.23050950345E+02  0.30396825384E+02  0.00000000000E+00 0. -1.
</event>
<event>
 5    1  0.1320187E-009  0.9118800E+02  0.7818608E-02  0.1130116E+00
         25   -1    0    0    0    0  0.00000000000E+00  0.00000000000E+00  0.99999998245E-14  0.12500000000E+03  0.12500000000E+03 0.  0.
        -13    1    3    3    0    0  0.47389210209E+02  0.29932235712E+02 -0.23346926818E+02  0.60718746156E+02  0.10566000000E+00 0.  1.
         23    2    1    0    0    0  0.15004884235E+02  0.14601771067E+02 -0.18846246207E+02  0.96830171010E+02  0.92642013971E+02 0.  0.
         13    1    3    3    0    0 -0.32384325973E+02 -0.15330464645E+02  0.45006806114E+01  0.36111424854E+02  0.10566000000E+00 0. -1.
         22    1    1    0    0    0 -0.15004884235E+02 -0.14601771067E+02  0.18846246207E+02  0.28169828990E+02  0.00000000000E+00 0.  1.
</event>
<event>
 5    1  0.1320187E-009  0.9118800E+02  0.7818608E-02  0.1130116E+00
         25   -1    0    0    0    0  0.00000000000E+00  0.00000000000E+00  0.99999998245E-14  0.12500000000E+03  0.12500000000E+03 0.  0.
        -13    1    3    3    0    0 -0.17878761389E+02  0.23697214232E+02 -0.25611829164E+02  0.39206951275E+02  0.10566000000E+00 0.  1.
         23    2    1    0    0    0 -0.17938531103E+02 -0.22643612944E+02  0.62487020005E+01  0.95443775918E+02  0.90752101791E+02 0.  0.
         13    1    3    3    0    0 -0.59769714251E-01 -0.46340827176E+02  0.31860531164E+02  0.56236824642E+02  0.10566000000E+00 0. -1.
         22    1    1    0    0    0  0.17938531103E+02  0.22643612944E+02 -0.62487020005E+01  0.29556224082E+02  0.00000000000E+00 0. -1.
</event>
<event>
 5    1  0.1320187E-009  0.9118800E+02  0.7818608E-02  0.1130116E+00
         25   -1    0    0    0    0  0.00000000000E+00  0.00000000000E+00  0.99999998245E-14  0.12500000000E+03  0.12500000000E+03 0.  0.
        -13    1    3    3    0    0  0.29284763200E+02 -0.34469210165E+02  0.92432965619E+01  0.46164634737E+02  0.10566000000E+00 0. -1.
         23    2    1    0    0    0  0.18835341943E+02  0.38955988574E+01 -0.21297759740E+02  0.96302606974E+02  0.91927426503E+02 0.  0.
         13    1    3    3    0    0 -0.10449421257E+02  0.38364809022E+02 -0.30541056302E+02  0.50137972237E+02  0.10566000000E+00 0.  1.
         22    1    1    0    0    0 -0.18835341943E+02 -0.38955988574E+01  0.21297759740E+02  0.28697393026E+02  0.00000000000E+00 0. -1.
</event>
<event>
 5    1  0.1320187E-009  0.9118800E+02  0.7818608E-02  0.1130116E+00
         25   -1    0    0    0    0  0.00000000000E+00  0.00000000000E+00  0.99999998245E-14  0.12500000000E+03  0.12500000000E+03 0.  0.
        -13    1    3    3    0    0 -0.13010597169E+02  0.10913394274E+02  0.26022986850E+02  0.31073860750E+02  0.10566000000E+00 0.  1.
         23    2    1    0    0    0  0.29225128573E+02 -0.32075378628E+01 -0.15326515891E+02  0.91844328862E+02  0.85650932367E+02 0.  0.
         13    1    3    3    0    0  0.42235725743E+02 -0.14120932137E+02 -0.41349502742E+02  0.60770468111E+02  0.10566000000E+00 0. -1.
         22    1    1    0    0    0 -0.29225128573E+02  0.32075378628E+01  0.15326515891E+02  0.33155671138E+02  0.00000000000E+00 0. -1.
</event>
<event>
 5    1  0.1320187E-009  0.9118800E+02  0.7818608E-02  0.1130116E+00
         25   -1    0    0    0    0  0.00000000000E+00  0.00000000000E+00  0.99999998245E-14  0.12500000000E+03  0.12500000000E+03 0.  0.
        -13    1    3    3    0    0  0.12666132032E+02  0.21431269967E+02 -0.31961816586E+02  0.40512949986E+02  0.10566000000E+00 0.  1.
         23    2    1    0    0    0  0.14620651697E+02  0.96956865389E+01  0.22618752452E+02  0.96375224788E+02  0.92026116928E+02 0.  0.
         13    1    3    3    0    0  0.19545196642E+01 -0.11735583428E+02  0.54580569038E+02  0.55862274802E+02  0.10566000000E+00 0. -1.
         22    1    1    0    0    0 -0.14620651697E+02 -0.96956865389E+01 -0.22618752452E+02  0.28624775212E+02  0.00000000000E+00 0.  1.
</event>
<event>
 5    1  0.1320187E-009  0.9118800E+02  0.7818608E-02  0.1130116E+00
         25   -1    0    0    0    0  0.00000000000E+00  0.00000000000E+00  0.99999998245E-14  0.12500000000E+03  0.12500000000E+03 0.  0.
        -13    1    3    3    0    0 -0.46559075442E-01 -0.25250020664E+02 -0.24445419249E+02  0.35144777671E+02  0.10566000000E+00 0.  1.
         23    2    1    0    0    0  0.90433922330E+01  0.27269610437E+02  0.46915484528E+01  0.95889431071E+02  0.91363875617E+02 0.  0.
         13    1    3    3    0    0  0.90899513084E+01  0.52519631101E+02  0.29136967702E+02  0.60744653400E+02  0.10566000000E+00 0. -1.
         22    1    1    0    0    0 -0.90433922330E+01 -0.27269610437E+02 -0.46915484528E+01  0.29110568929E+02  0.00000000000E+00 0. -1.
</event>
<event>
 5    1  0.1320187E-009  0.9118800E+02  0.7818608E-02  0.1130116E+00
         25   -1    0    0    0    0  0.00000000000E+00  0.00000000000E+00  0.99999998245E-14  0.12500000000E+03  0.12500000000E+03 0.  0.
        -13    1    3    3    0    0  0.24024507263E+02 -0.25059617686E+02  0.50680245254E+02  0.61430121365E+02  0.10566000000E+00 0.  1.
         23    2    1    0    0    0  0.12080383181E+02 -0.57036809131E+01  0.29954327529E+02  0.92201686453E+02  0.86170886112E+02 0.  0.
         13    1    3    3    0    0 -0.11944124082E+02  0.19355936773E+02 -0.20725917725E+02  0.30771565089E+02  0.10566000000E+00 0. -1.
         22    1    1    0    0    0 -0.12080383181E+02  0.57036809131E+01 -0.29954327529E+02  0.32798313547E+02  0.00000000000E+00 0.  1.
</event>
<event>
 5    1  0.1320187E-009  0.9118800E+02  0.7818608E-02  0.1130116E+00
         25   -1    0    0    0    0  0.00000000000E+00  0.00000000000E+00  0.99999998245E-14  0.12500000000E+03  0.12500000000E+03 0.  0.
        -13    1    3    3    0    0 -0.19101949110E+02 -0.34257214678E+02 -0.38641626618E+01  0.39412994487E+02  0.10566000000E+00 0. -1.
         23    2    1    0    0    0 -0.95244419966E+01  0.15773282642E+02  0.21803479168E+02  0.96453491554E+02  0.92132366129E+02 0.  0.
         13    1    3    3    0    0  0.95775071134E+01  0.50030497320E+02  0.25667641829E+02  0.57040497067E+02  0.10566000000E+00 0.  1.
         22    1    1    0    0    0  0.95244419966E+01 -0.15773282642E+02 -0.21803479168E+02  0.28546508446E+02  0.00000000000E+00 0.  1.
</event>
<event>
 5    1  0.1320187E-009  0.9118800E+02  0.7818608E-02  0.1130116E+00
         25   -1    0    0    0    0  0.00000000000E+00  0.00000000000E+00  0.99999998245E-14  0.12500000000E+03  0.12500000000E+03 0.  0.
        -13    1    3    3    0    0  0.31813590865E+02  0.19398030246E+02 -0.71604459960E+01  0.37943000567E+02  0.10566000000E+00 0.  1.
         23    2    1    0    0    0 -0.68087320482E+01 -0.17035428676E+02  0.20232903267E+02  0.97688188693E+02  0.93792575256E+02 0.  0.
         13    1    3    3    0    0 -0.38622322913E+02 -0.36433458922E+02  0.27393349263E+02  0.59745188125E+02  0.10566000000E+00 0. -1.
         22    1    1    0    0    0  0.68087320482E+01  0.17035428676E+02 -0.20232903267E+02  0.27311811307E+02  0.00000000000E+00 0. -1.
</event>
<event>
 5    1  0.1320187E-009  0.9118800E+02  0.7818608E-02  0.1130116E+00
         25   -1    0    0    0    0  0.00000000000E+00  0.00000000000E+00  0.99999998245E-14  0.12500000000E+03  0.12500000000E+03 0.  0.
        -13    1    3    3    0    0  0.19295403278E+02 -0.49444988029E+02 -0.17646861708E+02  0.55933373947E+02  0.10566000000E+00 0.  1.
         23    2    1    0    0    0  0.97369662164E+01 -0.18111806422E+02 -0.27973796387E+02  0.90281426768E+02  0.83338806639E+02 0.  0.
         13    1    3    3    0    0 -0.95584370615E+01  0.31333181608E+02 -0.10326934679E+02  0.34348052821E+02  0.10566000000E+00 0. -1.
         22    1    1    0    0    0 -0.97369662164E+01  0.18111806422E+02  0.27973796387E+02  0.34718573232E+02  0.00000000000E+00 0.  1.
</event>
<event>
 5    1  0.1320187E-009  0.9118800E+02  0.7818608E-02  0.1130116E+00
         25   -1    0    0    0    0  0.00000000000E+00  0.00000000000E+00  0.99999998245E-14  0.12500000000E+03  0.12500000000E+03 0.  0.
        -13    1    3    3    0    0  0.29577505288E+02 -0.50066603753E+02  0.14559944122E+02  0.59945781898E+02  0.10566000000E+00 0. -1.
         23    2    1    0    0    0  0.44650877469E+01 -0.29056438819E+02  0.45025992245E+00  0.95599041182E+02  0.90965709448E+02 0.  0.
         13    1    3    3    0    0 -0.25112417541E+02  0.21010164934E+02 -0.14109684200E+02  0.35653259284E+02  0.10566000000E+00 0.  1.
         22    1    1    0    0    0 -0.44650877469E+01  0.29056438819E+02 -0.45025992245E+00  0.29400958818E+02  0.00000000000E+00 0. -1.
</event>
<event>
 5    1  0.1320187E-009  0.9118800E+02  0.7818608E-02  0.1130116E+00
         25   -1    0    0    0    0  0.00000000000E+00  0.00000000000E+00  0.99999998245E-14  0.12500000000E+03  0.12500000000E+03 0.  0.
        -13    1    3    3    0    0  0.11739774662E+02 -0.77680043593E+01  0.40837168113E+02  0.43195481991E+02  0.10566000000E+00 0. -1.
         23    2    1    0    0    0 -0.44401210856E+01  0.28745438182E+02  0.81803105905E+01  0.94785229227E+02  0.89840454734E+02 0.  0.
         13    1    3    3    0    0 -0.16179895748E+02  0.36513442541E+02 -0.32656857523E+02  0.51589747236E+02  0.10566000000E+00 0.  1.
         22    1    1    0    0    0  0.44401210856E+01 -0.28745438182E+02 -0.81803105905E+01  0.30214770773E+02  0.00000000000E+00 0.  1.
</event>
<event>
 5    1  0.1320187E-009  0.9118800E+02  0.7818608E-02  0.1130116E+00
         25   -1    0    0    0    0  0.00000000000E+00  0.00000000000E+00  0.99999998245E-14  0.12500000000E+03  0.12500000000E+03 0.  0.
        -13    1    3    3    0    0  0.40665463164E+02  0.28061681150E+02 -0.36642452722E+02  0.61512749482E+02  0.10566000000E+00 0.  1.
         23    2    1    0    0    0  0.24175683155E+02  0.16106707996E+02 -0.11780607492E+02  0.93652393850E+02  0.88250203753E+02 0.  0.
         13    1    3    3    0    0 -0.16489780009E+02 -0.11954973155E+02  0.24861845229E+02  0.32139644368E+02  0.10566000000E+00 0. -1.
         22    1    1    0    0    0 -0.24175683155E+02 -0.16106707996E+02  0.11780607492E+02  0.31347606150E+02  0.00000000000E+00 0.  1.
</event>
<event>
 5    1  0.1320187E-009  0.9118800E+02  0.7818608E-02  0.1130116E+00
         25   -1    0    0    0    0  0.00000000000E+00  0.00000000000E+00  0.99999998245E-14  0.12500000000E+03  0.12500000000E+03 0.  0.
        -13    1    3    3    0    0 -0.16514396710E+02  0.14317333435E+02  0.34176594463E+02  0.40567993647E+02  0.10566000000E+00 0. -1.
         23    2    1    0    0    0  0.24948592570E+02 -0.11576332280E+02  0.18295171421E+02  0.91967333780E+02  0.85830259495E+02 0.  0.
         13    1    3    3    0    0  0.41462989280E+02 -0.25893665716E+02 -0.15881423042E+02  0.51399340133E+02  0.10566000000E+00 0.  1.
         22    1    1    0    0    0 -0.24948592570E+02  0.11576332280E+02 -0.18295171421E+02  0.33032666220E+02  0.00000000000E+00 0.  1.
</event>
<event>
 5    1  0.1320187E-009  0.9118800E+02  0.7818608E-02  0.1130116E+00
         25   -1    0    0    0    0  0.00000000000E+00  0.00000000000E+00  0.99999998245E-14  0.12500000000E+03  0.12500000000E+03 0.  0.
        -13    1    3    3    0    0  0.51677347191E+02 -0.50050516158E+00 -0.15399093207E+01  0.51702816199E+02  0.10566000000E+00 0.  1.
         23    2    1    0    0    0  0.15467157611E+02 -0.22261138164E+02 -0.12201786867E+02  0.95273331171E+02  0.90517030402E+02 0.  0.
         13    1    3    3    0    0 -0.36210189581E+02 -0.21760633002E+02 -0.10661877546E+02  0.43570514972E+02  0.10566000000E+00 0. -1.
         22    1    1    0    0    0 -0.15467157611E+02  0.22261138164E+02  0.12201786867E+02  0.29726668829E+02  0.00000000000E+00 0.  1.
</event>
<event>
 5    1  0.1320187E-009  0.9118800E+02  0.7818608E-02  0.1130116E+00
         25   -1    0    0    0    0  0.00000000000E+00  0.00000000000E+00  0.99999998245E-14  0.12500000000E+03  0.12500000000E+03 0.  0.
        -13    1    3    3    0    0  0.14242087977E+01  0.30618854486E+02  0.48031045647E+02  0.56978374237E+02  0.10566000000E+00 0. -1.
         23    2    1    0    0    0  0.86222751600E+01 -0.19978765096E+01  0.27324835494E+02  0.96277504038E+02  0.91893285988E+02 0.  0.
         13    1    3    3    0    0  0.71980663623E+01 -0.32616730996E+02 -0.20706210153E+02  0.39299129801E+02  0.10566000000E+00 0.  1.
         22    1    1    0    0    0 -0.86222751600E+01  0.19978765096E+01 -0.27324835494E+02  0.28722495962E+02  0.00000000000E+00 0.  1.
</event>
<event>
 5    1  0.1320187E-009  0.9118800E+02  0.7818608E-02  0.1130116E+00
         25   -1    0    0    0    0  0.00000000000E+00  0.00000000000E+00  0.99999998245E-14  0.12500000000E+03  0.12500000000E+03 0.  0.
        -13    1    3    3    0    0  0.48249180735E+01 -0.97088769609E+01  0.57083494981E+02  0.58104033333E+02  0.10566000000E+00 0. -1.
         23    2    1    0    0    0 -0.82170090399E+01 -0.16088885745E+02  0.19384818705E+02  0.98502025015E+02  0.94870997959E+02 0.  0.
         13    1    3    3    0    0 -0.13041927113E+02 -0.63800087843E+01 -0.37698676276E+02  0.40397991682E+02  0.10566000000E+00 0.  1.
         22    1    1    0    0    0  0.82170090399E+01  0.16088885745E+02 -0.19384818705E+02  0.26497974985E+02  0.00000000000E+00 0. -1.
</event>
<event>
 5    1  0.1320187E-009  0.9118800E+02  0.7818608E-02  0.1130116E+00
         25   -1    0    0    0    0  0.00000000000E+00  0.00000000000E+00  0.99999998245E-14  0.12500000000E+03  0.12500000000E+03 0.  0.
        -13    1    3    3    0    0 -0.24803095880E+02 -0.53634593393E+02  0.14010588893E+02  0.60730313179E+02  0.10566000000E+00 0.  1.
         23    2    1    0    0    0 -0.15173589503E+01 -0.27995259835E+02  0.49654305850E+01  0.96527338510E+02  0.92232503097E+02 0.  0.
         13    1    3    3    0    0  0.23285736930E+02  0.25639333558E+02 -0.90451583082E+01  0.35797025331E+02  0.10566000000E+00 0. -1.
         22    1    1    0    0    0  0.15173589503E+01  0.27995259835E+02 -0.49654305850E+01  0.28472661490E+02  0.00000000000E+00 0.  1.
</event>
<event>
 5    1  0.1320187E-009  0.9118800E+02  0.7818608E-02  0.1130116E+00
         25   -1    0    0    0    0  0.00000000000E+00  0.00000000000E+00  0.99999998245E-14  0.12500000000E+03  0.12500000000E+03 0.  0.
        -13    1    3    3    0    0 -0.26379083855E+02 -0.46689683205E+02 -0.23624377333E+02  0.58599530299E+02  0.10566000000E+00 0. -1.
         23    2    1    0    0    0  0.40396166014E+01 -0.22946095564E+02 -0.11278082964E+02  0.99114927868E+02  0.95675137664E+02 0.  0.
         13    1    3    3    0    0  0.30418700456E+02  0.23743587641E+02  0.12346294369E+02  0.40515397569E+02  0.10566000000E+00 0.  1.
         22    1    1    0    0    0 -0.40396166014E+01  0.22946095564E+02  0.11278082964E+02  0.25885072132E+02  0.00000000000E+00 0. -1.
</event>
<event>
 5    1  0.1320187E-009  0.9118800E+02  0.7818608E-02  0.1130116E+00
         25   -1    0    0    0    0  0.00000000000E+00  0.00000000000E+00  0.99999998245E-14  0.12500000000E+03  0.12500000000E+03 0.  0.
        -13    1    3    3    0    0 -0.20348210938E+02  0.54323323632E+02 -0.16461573473E+02  0.60299815456E+02  0.10566000000E+00 0. -1.
         23    2    1    0    0    0 -0.30936249061E+01  0.23624205136E+02 -0.17348881066E+02  0.95527007997E+02  0.90866671554E+02 0.  0.
         13    1    3    3    0    0  0.17254586032E+02 -0.30699118496E+02 -0.88730759329E+00  0.35227192542E+02  0.10566000000E+00 0.  1.
         22    1    1    0    0    0  0.30936249061E+01 -0.23624205136E+02  0.17348881066E+02  0.29472992003E+02  0.00000000000E+00 0. -1.
</event>
<event>
 5    1  0.1320187E-009  0.9118800E+02  0.7818608E-02  0.1130116E+00
         25   -1    0    0    0    0  0.00000000000E+00  0.00000000000E+00  0.99999998245E-14  0.12500000000E+03  0.12500000000E+03 0.  0.
        -13    1    3    3    0    0 -0.28279759557E+02 -0.27637339787E+02  0.12271908515E+02  0.41402635831E+02  0.10566000000E+00 0.  1.
         23    2    1    0    0    0  0.11299733598E+02  0.95814580845E+01 -0.16453492818E+02  0.10285940958E+03  0.10044825730E+03 0.  0.
         13    1    3    3    0    0  0.39579493156E+02  0.37218797871E+02 -0.28725401333E+02  0.61456773745E+02  0.10566000000E+00 0. -1.
         22    1    1    0    0    0 -0.11299733598E+02 -0.95814580845E+01  0.16453492818E+02  0.22140590424E+02  0.00000000000E+00 0. -1.
</event>
<event>
 5    1  0.1320187E-009  0.9118800E+02  0.7818608E-02  0.1130116E+00
         25   -1    0    0    0    0  0.00000000000E+00  0.00000000000E+00  0.99999998245E-14  0.12500000000E+03  0.12500000000E+03 0.  0.
        -13    1    3    3    0    0 -0.20893357805E+02 -0.19760744672E+02  0.48351074002E+02  0.56257061349E+02  0.10566000000E+00 0.  1.
         23    2    1    0    0    0 -0.25630493641E+02 -0.52578072131E+01  0.10975273087E+02  0.96627066414E+02  0.92367562507E+02 0.  0.
         13    1    3    3    0    0 -0.47371358355E+01  0.14502937458E+02 -0.37375800915E+02  0.40370005065E+02  0.10566000000E+00 0. -1.
         22    1    1    0    0    0  0.25630493641E+02  0.52578072131E+01 -0.10975273087E+02  0.28372933586E+02  0.00000000000E+00 0.  1.
</event>
<event>
 5    1  0.1320187E-009  0.9118800E+02  0.7818608E-02  0.1130116E+00
         25   -1    0    0    0    0  0.00000000000E+00  0.00000000000E+00  0.99999998245E-14  0.12500000000E+03  0.12500000000E+03 0.  0.
        -13    1    3    3    0    0  0.37904961030E+02 -0.22721972203E+02  0.10781441596E+02  0.45489831154E+02  0.10566000000E+00 0.  1.
         23    2    1    0    0    0  0.17681640962E+02  0.21588297762E+02  0.12930896923E+02  0.94244461920E+02  0.89084877953E+02 0.  0.
         13    1    3    3    0    0 -0.20223320068E+02  0.44310269964E+02  0.21494553263E+01  0.48754630766E+02  0.10566000000E+00 0. -1.
         22    1    1    0    0    0 -0.17681640962E+02 -0.21588297762E+02 -0.12930896923E+02  0.30755538080E+02  0.00000000000E+00 0. -1.
</event>
<event>
 5    1  0.1320187E-009  0.9118800E+02  0.7818608E-02  0.1130116E+00
         25   -1    0    0    0    0  0.00000000000E+00  0.00000000000E+00  0.99999998245E-14  0.12500000000E+03  0.12500000000E+03 0.  0.
        -13    1    3    3    0    0 -0.25181410961E+02 -0.10899588049E+02  0.51601062950E+02  0.58443009327E+02  0.10566000000E+00 0.  1.
         23    2    1    0    0    0 -0.42400217374E+01 -0.18976937208E+02  0.21188252590E+02  0.96241627690E+02  0.91844471377E+02 0.  0.
         13    1    3    3    0    0  0.20941389223E+02 -0.80773491590E+01 -0.30412810361E+02  0.37798618362E+02  0.10566000000E+00 0. -1.
         22    1    1    0    0    0  0.42400217374E+01  0.18976937208E+02 -0.21188252590E+02  0.28758372310E+02  0.00000000000E+00 0.  1.
</event>
<event>
 4    1  0.1320187E-009  0.9118800E+02  0.7818608E-02  0.1130116E+00
         25   -1    0    0    0    0  0.00000000000E+00  0.00000000000E+00  0.99999998245E-14  0.12500000000E+03  0.12500000000E+03 0.  0.
        -13    1    1    0    0    0 -0.23946716372E+02  0.52747852190E+02 -0.94958335859E+01  0.58702326659E+02  0.10566000000E+00 0.  1.
         13    1    1    0    0    0  0.79781803309E+01  0.12612116363E+01 -0.29836697129E+01  0.86113567558E+01  0.10566000000E+00 0. -1.
         22    1    1    0    0    0  0.15968536041E+02 -0.54009063826E+02  0.12479503299E+02  0.57686316586E+02  0.00000000000E+00 0.  1.
</event>
<event>
 5    1  0.1320187E-009  0.9118800E+02  0.7818608E-02  0.1130116E+00
         25   -1    0    0    0    0  0.00000000000E+00  0.00000000000E+00  0.99999998245E-14  0.12500000000E+03  0.12500000000E+03 0.  0.
        -13    1    3    3    0    0  0.33787603422E+02  0.22582051634E+01 -0.43770248629E+02  0.55340287898E+02  0.10566000000E+00 0. -1.
         23    2    1    0    0    0  0.14907276421E+02 -0.19672282344E+02 -0.15161590723E+02  0.96032787222E+02  0.91559799068E+02 0.  0.
         13    1    3    3    0    0 -0.18880327002E+02 -0.21930487507E+02  0.28608657906E+02  0.40692499323E+02  0.10566000000E+00 0.  1.
         22    1    1    0    0    0 -0.14907276421E+02  0.19672282344E+02  0.15161590723E+02  0.28967212778E+02  0.00000000000E+00 0. -1.
</event>
<event>
 5    1  0.1320187E-009  0.9118800E+02  0.7818608E-02  0.1130116E+00
         25   -1    0    0    0    0  0.00000000000E+00  0.00000000000E+00  0.99999998245E-14  0.12500000000E+03  0.12500000000E+03 0.  0.
        -13    1    3    3    0    0 -0.17973650060E+02 -0.49262451940E+02  0.12208276480E+02  0.53841382284E+02  0.10566000000E+00 0. -1.
         23    2    1    0    0    0 -0.67867222126E+00 -0.14615308899E+02  0.26180115358E+02  0.95008896480E+02  0.90151118240E+02 0.  0.
         13    1    3    3    0    0  0.17294977839E+02  0.34647143041E+02  0.13971838879E+02  0.41167514196E+02  0.10566000000E+00 0.  1.
         22    1    1    0    0    0  0.67867222126E+00  0.14615308899E+02 -0.26180115358E+02  0.29991103520E+02  0.00000000000E+00 0. -1.
</event>
<event>
 5    1  0.1320187E-009  0.9118800E+02  0.7818608E-02  0.1130116E+00
         25   -1    0    0    0    0  0.00000000000E+00  0.00000000000E+00  0.99999998245E-14  0.12500000000E+03  0.12500000000E+03 0.  0.
        -13    1    3    3    0    0 -0.87862438363E+01 -0.38624656025E+02 -0.47267186364E+02  0.61670578111E+02  0.10566000000E+00 0. -1.
         23    2    1    0    0    0 -0.11219772175E+02 -0.17064181484E+02 -0.21769838739E+02  0.95150453001E+02  0.90347181750E+02 0.  0.
         13    1    3    3    0    0 -0.24335283387E+01  0.21560474542E+02  0.25497347625E+02  0.33479874889E+02  0.10566000000E+00 0.  1.
         22    1    1    0    0    0  0.11219772175E+02  0.17064181484E+02  0.21769838739E+02  0.29849546999E+02  0.00000000000E+00 0. -1.
</event>
<event>
 5    1  0.1320187E-009  0.9118800E+02  0.7818608E-02  0.1130116E+00
         25   -1    0    0    0    0  0.00000000000E+00  0.00000000000E+00  0.99999998245E-14  0.12500000000E+03  0.12500000000E+03 0.  0.
        -13    1    3    3    0    0  0.24740440016E+02 -0.19778109216E+02  0.14894926339E+02  0.35001899534E+02  0.10566000000E+00 0. -1.
         23    2    1    0    0    0 -0.11753462253E+02  0.22031756987E+02 -0.12705041092E+02  0.96982857747E+02  0.92847802541E+02 0.  0.
         13    1    3    3    0    0 -0.36493902269E+02  0.41809866203E+02 -0.27599967431E+02  0.61980958213E+02  0.10566000000E+00 0.  1.
         22    1    1    0    0    0  0.11753462253E+02 -0.22031756987E+02  0.12705041092E+02  0.28017142253E+02  0.00000000000E+00 0.  1.
</event>
<event>
 5    1  0.1320187E-009  0.9118800E+02  0.7818608E-02  0.1130116E+00
         25   -1    0    0    0    0  0.00000000000E+00  0.00000000000E+00  0.99999998245E-14  0.12500000000E+03  0.12500000000E+03 0.  0.
        -13    1    3    3    0    0  0.42513259891E+02 -0.39745973080E+02 -0.74281876714E+01  0.58671192069E+02  0.10566000000E+00 0. -1.
         23    2    1    0    0    0  0.20908972909E+02 -0.13657889385E+02 -0.18067617427E+02  0.94175303893E+02  0.88987785528E+02 0.  0.
         13    1    3    3    0    0 -0.21604286981E+02  0.26088083695E+02 -0.10639429756E+02  0.35504111824E+02  0.10566000000E+00 0.  1.
         22    1    1    0    0    0 -0.20908972909E+02  0.13657889385E+02  0.18067617427E+02  0.30824696107E+02  0.00000000000E+00 0. -1.
</event>
<event>
 5    1  0.1320187E-009  0.9118800E+02  0.7818608E-02  0.1130116E+00
         25   -1    0    0    0    0  0.00000000000E+00  0.00000000000E+00  0.99999998245E-14  0.12500000000E+03  0.12500000000E+03 0.  0.
        -13    1    3    3    0    0  0.23632787628E+02 -0.14643432081E+02 -0.23759941248E+02  0.36571638278E+02  0.10566000000E+00 0. -1.
         23    2    1    0    0    0  0.54624162571E+00  0.30915985968E+02  0.24558564768E+01  0.93981815022E+02  0.88715577862E+02 0.  0.
         13    1    3    3    0    0 -0.23086546003E+02  0.45559418050E+02  0.26215797725E+02  0.57410176744E+02  0.10566000000E+00 0.  1.
         22    1    1    0    0    0 -0.54624162571E+00 -0.30915985968E+02 -0.24558564768E+01  0.31018184978E+02  0.00000000000E+00 0.  1.
</event>
<event>
 5    1  0.1320187E-009  0.9118800E+02  0.7818608E-02  0.1130116E+00
         25   -1    0    0    0    0  0.00000000000E+00  0.00000000000E+00  0.99999998245E-14  0.12500000000E+03  0.12500000000E+03 0.  0.
        -13    1    3    3    0    0  0.10228174542E+02  0.45650325841E+02 -0.31304619684E+01  0.46886871937E+02  0.10566000000E+00 0.  1.
         23    2    1    0    0    0  0.24266386326E+02  0.38467998339E+01  0.16755469738E+02  0.95261117364E+02  0.90500162105E+02 0.  0.
         13    1    3    3    0    0  0.14038211784E+02 -0.41803526007E+02  0.19885931706E+02  0.48374245427E+02  0.10566000000E+00 0. -1.
         22    1    1    0    0    0 -0.24266386326E+02 -0.38467998339E+01 -0.16755469738E+02  0.29738882636E+02  0.00000000000E+00 0. -1.
</event>
<event>
 4    1  0.1320187E-009  0.9118800E+02  0.7818608E-02  0.1130116E+00
         25   -1    0    0    0    0  0.00000000000E+00  0.00000000000E+00  0.99999998245E-14  0.12500000000E+03  0.12500000000E+03 0.  0.
        -13    1    1    0    0    0 -0.22802107467E+01  0.87957162127E+01 -0.59548187010E+01  0.10864392047E+02  0.10566000000E+00 0. -1.
         13    1    1    0    0    0 -0.31771505150E+02 -0.40879017687E+02  0.31726744382E+02  0.60721660877E+02  0.10566000000E+00 0.  1.
         22    1    1    0    0    0  0.34051715897E+02  0.32083301474E+02 -0.25771925681E+02  0.53413947077E+02  0.00000000000E+00 0.  1.
</event>
<event>
 5    1  0.1320187E-009  0.9118800E+02  0.7818608E-02  0.1130116E+00
         25   -1    0    0    0    0  0.00000000000E+00  0.00000000000E+00  0.99999998245E-14  0.12500000000E+03  0.12500000000E+03 0.  0.
        -13    1    3    3    0    0  0.54722349238E+01 -0.34045445734E+02 -0.33223601059E+02  0.47883781822E+02  0.10566000000E+00 0.  1.
         23    2    1    0    0    0  0.30479402861E+02 -0.21697345812E+02 -0.55433390663E+01  0.87178082782E+02  0.78546296510E+02 0.  0.
         13    1    3    3    0    0  0.25007167937E+02  0.12348099922E+02  0.27680261992E+02  0.39294300960E+02  0.10566000000E+00 0. -1.
         22    1    1    0    0    0 -0.30479402861E+02  0.21697345812E+02  0.55433390663E+01  0.37821917218E+02  0.00000000000E+00 0. -1.
</event>
<event>
 5    1  0.1320187E-009  0.9118800E+02  0.7818608E-02  0.1130116E+00
         25   -1    0    0    0    0  0.00000000000E+00  0.00000000000E+00  0.99999998245E-14  0.12500000000E+03  0.12500000000E+03 0.  0.
        -13    1    3    3    0    0  0.23581994132E+02 -0.25535982730E+02  0.26172957270E+02  0.43511282646E+02  0.10566000000E+00 0. -1.
         23    2    1    0    0    0  0.22269186388E+02  0.18843918482E+02 -0.14322170875E+01  0.95792789042E+02  0.91231558468E+02 0.  0.
         13    1    3    3    0    0 -0.13128077440E+01  0.44379901211E+02 -0.27605174357E+02  0.52281506396E+02  0.10566000000E+00 0.  1.
         22    1    1    0    0    0 -0.22269186388E+02 -0.18843918482E+02  0.14322170875E+01  0.29207210958E+02  0.00000000000E+00 0.  1.
</event>
<event>
 5    1  0.1320187E-009  0.9118800E+02  0.7818608E-02  0.1130116E+00
         25   -1    0    0    0    0  0.00000000000E+00  0.00000000000E+00  0.99999998245E-14  0.12500000000E+03  0.12500000000E+03 0.  0.
        -13    1    3    3    0    0  0.29755863409E+02  0.49752683234E+00  0.42684201355E+02  0.52034711006E+02  0.10566000000E+00 0. -1.
         23    2    1    0    0    0 -0.45058056927E+01 -0.14182041893E+02  0.30180905389E+02  0.91350042388E+02  0.84926501146E+02 0.  0.
         13    1    3    3    0    0 -0.34261669102E+02 -0.14679568726E+02 -0.12503295965E+02  0.39315331382E+02  0.10566000000E+00 0.  1.
         22    1    1    0    0    0  0.45058056927E+01  0.14182041893E+02 -0.30180905389E+02  0.33649957612E+02  0.00000000000E+00 0. -1.
</event>
<event>
 5    1  0.1320187E-009  0.9118800E+02  0.7818608E-02  0.1130116E+00
         25   -1    0    0    0    0  0.00000000000E+00  0.00000000000E+00  0.99999998245E-14  0.12500000000E+03  0.12500000000E+03 0.  0.
        -13    1    3    3    0    0  0.50322235856E+01  0.27570355265E+02 -0.27531259300E+02  0.39286501070E+02  0.10566000000E+00 0. -1.
         23    2    1    0    0    0 -0.14542281676E+02  0.15027455466E+02  0.22394503192E+02  0.94359893158E+02  0.89246699039E+02 0.  0.
         13    1    3    3    0    0 -0.19574505261E+02 -0.12542899799E+02  0.49925762492E+02  0.55073392088E+02  0.10566000000E+00 0.  1.
         22    1    1    0    0    0  0.14542281676E+02 -0.15027455466E+02 -0.22394503192E+02  0.30640106842E+02  0.00000000000E+00 0.  1.
</event>
<event>
 5    1  0.1320187E-009  0.9118800E+02  0.7818608E-02  0.1130116E+00
         25   -1    0    0    0    0  0.00000000000E+00  0.00000000000E+00  0.99999998245E-14  0.12500000000E+03  0.12500000000E+03 0.  0.
        -13    1    3    3    0    0  0.27349307487E+02 -0.24215333497E+02  0.34836656066E+02  0.50477428285E+02  0.10566000000E+00 0.  1.
         23    2    1    0    0    0  0.26324989885E+02 -0.62575901486E+01 -0.78722989172E+01  0.96819588059E+02  0.92627733508E+02 0.  0.
         13    1    3    3    0    0 -0.10243176020E+01  0.17957743348E+02 -0.42708954983E+02  0.46342159774E+02  0.10566000000E+00 0. -1.
         22    1    1    0    0    0 -0.26324989885E+02  0.62575901486E+01  0.78722989172E+01  0.28180411941E+02  0.00000000000E+00 0.  1.
</event>
<event>
 5    1  0.1320187E-009  0.9118800E+02  0.7818608E-02  0.1130116E+00
         25   -1    0    0    0    0  0.00000000000E+00  0.00000000000E+00  0.99999998245E-14  0.12500000000E+03  0.12500000000E+03 0.  0.
        -13    1    3    3    0    0  0.22511987026E+02 -0.45746349549E+02 -0.23595785224E+02  0.56180871311E+02  0.10566000000E+00 0.  1.
         23    2    1    0    0    0  0.13832906491E+02 -0.64575089013E+01 -0.24160085890E+02  0.96421013429E+02  0.92088291098E+02 0.  0.
         13    1    3    3    0    0 -0.86790805349E+01  0.39288840648E+02 -0.56430066633E+00  0.40240142118E+02  0.10566000000E+00 0. -1.
         22    1    1    0    0    0 -0.13832906491E+02  0.64575089013E+01  0.24160085890E+02  0.28578986571E+02  0.00000000000E+00 0.  1.
</event>
<event>
 5    1  0.1320187E-009  0.9118800E+02  0.7818608E-02  0.1130116E+00
         25   -1    0    0    0    0  0.00000000000E+00  0.00000000000E+00  0.99999998245E-14  0.12500000000E+03  0.12500000000E+03 0.  0.
        -13    1    3    3    0    0 -0.25843192732E+02 -0.11256039193E+02  0.53197848427E+02  0.60204578482E+02  0.10566000000E+00 0.  1.
         23    2    1    0    0    0 -0.56447643351E+01 -0.15335651623E+02  0.25109786333E+02  0.95040912151E+02  0.90195498988E+02 0.  0.
         13    1    3    3    0    0  0.20198428396E+02 -0.40796124301E+01 -0.28088062094E+02  0.34836333669E+02  0.10566000000E+00 0. -1.
         22    1    1    0    0    0  0.56447643351E+01  0.15335651623E+02 -0.25109786333E+02  0.29959087849E+02  0.00000000000E+00 0.  1.
</event>
<event>
 5    1  0.1320187E-009  0.9118800E+02  0.7818608E-02  0.1130116E+00
         25   -1    0    0    0    0  0.00000000000E+00  0.00000000000E+00  0.99999998245E-14  0.12500000000E+03  0.12500000000E+03 0.  0.
        -13    1    3    3    0    0  0.45448299143E+01 -0.23403201284E+02  0.20705922936E+01  0.23930395437E+02  0.10566000000E+00 0.  1.
         23    2    1    0    0    0 -0.29868289008E+01  0.30118704130E+02 -0.26237571464E+02  0.84944193409E+02  0.74906931269E+02 0.  0.
         13    1    3    3    0    0 -0.75316588151E+01  0.53521905414E+02 -0.28308163758E+02  0.61013797972E+02  0.10566000000E+00 0. -1.
         22    1    1    0    0    0  0.29868289008E+01 -0.30118704130E+02  0.26237571464E+02  0.40055806591E+02  0.00000000000E+00 0. -1.
</event>
<event>
 5    1  0.1320187E-009  0.9118800E+02  0.7818608E-02  0.1130116E+00
         25   -1    0    0    0    0  0.00000000000E+00  0.00000000000E+00  0.99999998245E-14  0.12500000000E+03  0.12500000000E+03 0.  0.
        -13    1    3    3    0    0 -0.24134117791E+02 -0.24749827406E+02 -0.42704740781E+02  0.54942839819E+02  0.10566000000E+00 0.  1.
         23    2    1    0    0    0 -0.30188453588E+02 -0.10598178457E+01 -0.17360016958E+02  0.90159848842E+02  0.83156251783E+02 0.  0.
         13    1    3    3    0    0 -0.60543357966E+01  0.23690009560E+02  0.25344723823E+02  0.35217009024E+02  0.10566000000E+00 0. -1.
         22    1    1    0    0    0  0.30188453588E+02  0.10598178457E+01  0.17360016958E+02  0.34840151158E+02  0.00000000000E+00 0.  1.
</event>
<event>
 5    1  0.1320187E-009  0.9118800E+02  0.7818608E-02  0.1130116E+00
         25   -1    0    0    0    0  0.00000000000E+00  0.00000000000E+00  0.99999998245E-14  0.12500000000E+03  0.12500000000E+03 0.  0.
        -13    1    3    3    0    0  0.26398448575E+02  0.18850755827E+02  0.41274237988E+02  0.52495742379E+02  0.10566000000E+00 0.  1.
         23    2    1    0    0    0  0.21187945277E+02  0.19984570800E+02 -0.17237380120E+01  0.95823239250E+02  0.91273269979E+02 0.  0.
         13    1    3    3    0    0 -0.52105032986E+01  0.11338149726E+01 -0.42997976000E+02  0.43327496871E+02  0.10566000000E+00 0. -1.
         22    1    1    0    0    0 -0.21187945277E+02 -0.19984570800E+02  0.17237380120E+01  0.29176760750E+02  0.00000000000E+00 0.  1.
</event>
<event>
 5    1  0.1320187E-009  0.9118800E+02  0.7818608E-02  0.1130116E+00
         25   -1    0    0    0    0  0.00000000000E+00  0.00000000000E+00  0.99999998245E-14  0.12500000000E+03  0.12500000000E+03 0.  0.
        -13    1    3    3    0    0  0.52579603427E+02  0.62613650277E+01  0.16505842768E+02  0.55464163187E+02  0.10566000000E+00 0. -1.
         23    2    1    0    0    0  0.32981222135E+02  0.48148654037E+01 -0.11555783450E+02  0.89722810861E+02  0.82496683057E+02 0.  0.
         13    1    3    3    0    0 -0.19598381292E+02 -0.14464996240E+01 -0.28061626218E+02  0.34258647674E+02  0.10566000000E+00 0.  1.
         22    1    1    0    0    0 -0.32981222135E+02 -0.48148654037E+01  0.11555783450E+02  0.35277189139E+02  0.00000000000E+00 0. -1.
</event>
<event>
 5    1  0.1320187E-009  0.9118800E+02  0.7818608E-02  0.1130116E+00
         25   -1    0    0    0    0  0.00000000000E+00  0.00000000000E+00  0.99999998245E-14  0.12500000000E+03  0.12500000000E+03 0.  0.
        -13    1    3    3    0    0  0.29524317738E+02  0.53180550083E+02 -0.27883034000E+01  0.60890410122E+02  0.10566000000E+00 0.  1.
         23    2    1    0    0    0  0.11729201050E+02  0.25378581496E+02 -0.11081899615E+02  0.94925840742E+02  0.90035882766E+02 0.  0.
         13    1    3    3    0    0 -0.17795116687E+02 -0.27801968587E+02 -0.82935962149E+01  0.34035430620E+02  0.10566000000E+00 0. -1.
         22    1    1    0    0    0 -0.11729201050E+02 -0.25378581496E+02  0.11081899615E+02  0.30074159258E+02  0.00000000000E+00 0.  1.
</event>
<event>
 5    1  0.1320187E-009  0.9118800E+02  0.7818608E-02  0.1130116E+00
         25   -1    0    0    0    0  0.00000000000E+00  0.00000000000E+00  0.99999998245E-14  0.12500000000E+03  0.12500000000E+03 0.  0.
        -13    1    3    3    0    0 -0.59130841296E+02  0.60699181746E+01 -0.93863060909E+01  0.60178187120E+02  0.10566000000E+00 0. -1.
         23    2    1    0    0    0 -0.24648024357E+02  0.12355927039E+02 -0.11115583269E+02  0.95272063154E+02  0.90515279310E+02 0.  0.
         13    1    3    3    0    0  0.34482816939E+02  0.62860088649E+01 -0.17292771777E+01  0.35093876034E+02  0.10566000000E+00 0.  1.
         22    1    1    0    0    0  0.24648024357E+02 -0.12355927039E+02  0.11115583269E+02  0.29727936846E+02  0.00000000000E+00 0. -1.
</event>
<event>
 5    1  0.1320187E-009  0.9118800E+02  0.7818608E-02  0.1130116E+00
         25   -1    0    0    0    0  0.00000000000E+00  0.00000000000E+00  0.99999998245E-14  0.12500000000E+03  0.12500000000E+03 0.  0.
        -13    1    3    3    0    0  0.36023555920E+02  0.96289448125E+01 -0.24849478778E+02  0.44809830606E+02  0.10566000000E+00 0.  1.
         23    2    1    0    0    0  0.16194345095E+02 -0.90880052137E+01  0.20257890729E+02  0.97518537364E+02  0.93566202985E+02 0.  0.
         13    1    3    3    0    0 -0.19829210825E+02 -0.18716950026E+02  0.45107369507E+02  0.52708706758E+02  0.10566000000E+00 0. -1.
         22    1    1    0    0    0 -0.16194345095E+02  0.90880052137E+01 -0.20257890729E+02  0.27481462636E+02  0.00000000000E+00 0.  1.
</event>
<event>
 5    1  0.1320187E-009  0.9118800E+02  0.7818608E-02  0.1130116E+00
         25   -1    0    0    0    0  0.00000000000E+00  0.00000000000E+00  0.99999998245E-14  0.12500000000E+03  0.12500000000E+03 0.  0.
        -13    1    3    3    0    0 -0.16973109648E+01  0.54942249723E+02  0.11133999770E+02  0.56084835598E+02  0.10566000000E+00 0. -1.
         23    2    1    0    0    0  0.14408597438E+02  0.20343580255E+02  0.17179472064E+02  0.94724544626E+02  0.89755981174E+02 0.  0.
         13    1    3    3    0    0  0.16105908403E+02 -0.34598669468E+02  0.60454722936E+01  0.38639709028E+02  0.10566000000E+00 0.  1.
         22    1    1    0    0    0 -0.14408597438E+02 -0.20343580255E+02 -0.17179472064E+02  0.30275455374E+02  0.00000000000E+00 0. -1.
</event>
<event>
 5    1  0.1320187E-009  0.9118800E+02  0.7818608E-02  0.1130116E+00
         25   -1    0    0    0    0  0.00000000000E+00  0.00000000000E+00  0.99999998245E-14  0.12500000000E+03  0.12500000000E+03 0.  0.
        -13    1    3    3    0    0 -0.24655746247E+02  0.18722444761E+02  0.14524777923E+02  0.34196726431E+02  0.10566000000E+00 0.  1.
         23    2    1    0    0    0  0.14269040033E+02 -0.12608333946E+02 -0.21861377831E+02  0.96008700805E+02  0.91526909710E+02 0.  0.
         13    1    3    3    0    0  0.38924786281E+02 -0.31330778707E+02 -0.36386155754E+02  0.61811974374E+02  0.10566000000E+00 0. -1.
         22    1    1    0    0    0 -0.14269040033E+02  0.12608333946E+02  0.21861377831E+02  0.28991299195E+02  0.00000000000E+00 0. -1.
</event>
<event>
 5    1  0.1320187E-009  0.9118800E+02  0.7818608E-02  0.1130116E+00
         25   -1    0    0    0    0  0.00000000000E+00  0.00000000000E+00  0.99999998245E-14  0.12500000000E+03  0.12500000000E+03 0.  0.
        -13    1    3    3    0    0 -0.19026775815E+02 -0.21596549816E+00 -0.31169589583E+02  0.36518752961E+02  0.10566000000E+00 0.  1.
         23    2    1    0    0    0  0.16215292970E+02  0.15551205581E+02  0.15958217878E+02  0.97442053070E+02  0.93463967750E+02 0.  0.
         13    1    3    3    0    0  0.35242068785E+02  0.15767171080E+02  0.47127807461E+02  0.60923300109E+02  0.10566000000E+00 0. -1.
         22    1    1    0    0    0 -0.16215292970E+02 -0.15551205581E+02 -0.15958217878E+02  0.27557946930E+02  0.00000000000E+00 0. -1.
</event>
<event>
 5    1  0.1320187E-009  0.9118800E+02  0.7818608E-02  0.1130116E+00
         25   -1    0    0    0    0  0.00000000000E+00  0.00000000000E+00  0.99999998245E-14  0.12500000000E+03  0.12500000000E+03 0.  0.
        -13    1    3    3    0    0  0.32477168755E+02  0.14804712069E+02  0.43911461578E+02  0.56587751428E+02  0.10566000000E+00 0.  1.
         23    2    1    0    0    0  0.13713346459E+02  0.26846619134E+02  0.24361735744E+02  0.86240601159E+02  0.77039926595E+02 0.  0.
         13    1    3    3    0    0 -0.18763822296E+02  0.12041907065E+02 -0.19549725834E+02  0.29652849731E+02  0.10566000000E+00 0. -1.
         22    1    1    0    0    0 -0.13713346459E+02 -0.26846619134E+02 -0.24361735744E+02  0.38759398841E+02  0.00000000000E+00 0.  1.
</event>
<event>
 5    1  0.1320187E-009  0.9118800E+02  0.7818608E-02  0.1130116E+00
         25   -1    0    0    0    0  0.00000000000E+00  0.00000000000E+00  0.99999998245E-14  0.12500000000E+03  0.12500000000E+03 0.  0.
        -13    1    3    3    0    0  0.13359578597E+02  0.13793179501E+02 -0.38404843446E+02  0.42938017015E+02  0.10566000000E+00 0. -1.
         23    2    1    0    0    0 -0.28050139159E+01 -0.27688129082E+02 -0.12052832313E+02  0.94672267446E+02  0.89683147031E+02 0.  0.
         13    1    3    3    0    0 -0.16164592513E+02 -0.41481308582E+02  0.26352011133E+02  0.51734250431E+02  0.10566000000E+00 0.  1.
         22    1    1    0    0    0  0.28050139159E+01  0.27688129082E+02  0.12052832313E+02  0.30327732554E+02  0.00000000000E+00 0.  1.
</event>
<event>
 5    1  0.1320187E-009  0.9118800E+02  0.7818608E-02  0.1130116E+00
         25   -1    0    0    0    0  0.00000000000E+00  0.00000000000E+00  0.99999998245E-14  0.12500000000E+03  0.12500000000E+03 0.  0.
        -13    1    3    3    0    0  0.19533981318E+01 -0.43460392561E+01  0.51629765552E+02  0.51849278457E+02  0.10566000000E+00 0. -1.
         23    2    1    0    0    0  0.20179444078E+02 -0.16095133163E+02  0.13119729130E+02  0.96045025172E+02  0.91576505137E+02 0.  0.
         13    1    3    3    0    0  0.18226045946E+02 -0.11749093907E+02 -0.38510036422E+02  0.44195746716E+02  0.10566000000E+00 0.  1.
         22    1    1    0    0    0 -0.20179444078E+02  0.16095133163E+02 -0.13119729130E+02  0.28954974828E+02  0.00000000000E+00 0. -1.
</event>
<event>
 5    1  0.1320187E-009  0.9118800E+02  0.7818608E-02  0.1130116E+00
         25   -1    0    0    0    0  0.00000000000E+00  0.00000000000E+00  0.99999998245E-14  0.12500000000E+03  0.12500000000E+03 0.  0.
        -13    1    3    3    0    0 -0.26658950853E+02 -0.65642935837E+01 -0.45538095879E+01  0.27830522033E+02  0.10566000000E+00 0.  1.
         23    2    1    0    0    0  0.27943410222E+02 -0.16189535240E+02 -0.21964149846E+02  0.85944154028E+02  0.76557419674E+02 0.  0.
         13    1    3    3    0    0  0.54602361074E+02 -0.96252416563E+01 -0.17410340258E+02  0.58113631996E+02  0.10566000000E+00 0. -1.
         22    1    1    0    0    0 -0.27943410222E+02  0.16189535240E+02  0.21964149846E+02  0.39055845972E+02  0.00000000000E+00 0. -1.
</event>
<event>
 5    1  0.1320187E-009  0.9118800E+02  0.7818608E-02  0.1130116E+00
         25   -1    0    0    0    0  0.00000000000E+00  0.00000000000E+00  0.99999998245E-14  0.12500000000E+03  0.12500000000E+03 0.  0.
        -13    1    3    3    0    0  0.37578764966E+02 -0.61264860899E+01  0.40353847566E+02  0.55481002025E+02  0.10566000000E+00 0.  1.
         23    2    1    0    0    0  0.13868814342E+02 -0.22574250024E+02  0.12074986830E+02  0.95883920553E+02  0.91356336060E+02 0.  0.
         13    1    3    3    0    0 -0.23709950625E+02 -0.16447763934E+02 -0.28278860737E+02  0.40402918529E+02  0.10566000000E+00 0. -1.
         22    1    1    0    0    0 -0.13868814342E+02  0.22574250024E+02 -0.12074986830E+02  0.29116079447E+02  0.00000000000E+00 0. -1.
</event>
<event>
 5    1  0.1320187E-009  0.9118800E+02  0.7818608E-02  0.1130116E+00
         25   -1    0    0    0    0  0.00000000000E+00  0.00000000000E+00  0.99999998245E-14  0.12500000000E+03  0.12500000000E+03 0.  0.
        -13    1    3    3    0    0 -0.33305295992E+02 -0.12215735701E+02 -0.38262393789E+02  0.52177474856E+02  0.10566000000E+00 0.  1.
         23    2    1    0    0    0 -0.25959707467E+02  0.11749768866E+02 -0.17691566466E+01  0.96450159450E+02  0.92127845207E+02 0.  0.
         13    1    3    3    0    0  0.73455885255E+01  0.23965504567E+02  0.36493237143E+02  0.44272684594E+02  0.10566000000E+00 0. -1.
         22    1    1    0    0    0  0.25959707467E+02 -0.11749768866E+02  0.17691566466E+01  0.28549840550E+02  0.00000000000E+00 0. -1.
</event>
<event>
 5    1  0.1320187E-009  0.9118800E+02  0.7818608E-02  0.1130116E+00
         25   -1    0    0    0    0  0.00000000000E+00  0.00000000000E+00  0.99999998245E-14  0.12500000000E+03  0.12500000000E+03 0.  0.
        -13    1    3    3    0    0  0.38592020169E+02 -0.16110790799E+02  0.34869515154E+02  0.54449938953E+02  0.10566000000E+00 0.  1.
         23    2    1    0    0    0  0.34218523357E+02 -0.10470387752E+02  0.85517392859E+00  0.89205200338E+02  0.81708629192E+02 0.  0.
         13    1    3    3    0    0 -0.43734968114E+01  0.56404030467E+01 -0.34014341225E+02  0.34755261385E+02  0.10566000000E+00 0. -1.
         22    1    1    0    0    0 -0.34218523357E+02  0.10470387752E+02 -0.85517392859E+00  0.35794799662E+02  0.00000000000E+00 0.  1.
</event>
<event>
 5    1  0.1320187E-009  0.9118800E+02  0.7818608E-02  0.1130116E+00
         25   -1    0    0    0    0  0.00000000000E+00  0.00000000000E+00  0.99999998245E-14  0.12500000000E+03  0.12500000000E+03 0.  0.
        -13    1    3    3    0    0 -0.43073878277E+02 -0.13018618569E+02 -0.22272069868E+02  0.50208561815E+02  0.10566000000E+00 0. -1.
         23    2    1    0    0    0 -0.20487616951E+01 -0.27729564557E+02 -0.80629786373E+01  0.96049390343E+02  0.91582463309E+02 0.  0.
         13    1    3    3    0    0  0.41025116582E+02 -0.14710945989E+02  0.14209091231E+02  0.45840828528E+02  0.10566000000E+00 0.  1.
         22    1    1    0    0    0  0.20487616951E+01  0.27729564557E+02  0.80629786373E+01  0.28950609657E+02  0.00000000000E+00 0.  1.
</event>
<event>
 5    1  0.1320187E-009  0.9118800E+02  0.7818608E-02  0.1130116E+00
         25   -1    0    0    0    0  0.00000000000E+00  0.00000000000E+00  0.99999998245E-14  0.12500000000E+03  0.12500000000E+03 0.  0.
        -13    1    3    3    0    0 -0.19931185171E+02  0.22222810649E+02  0.35895856833E+02  0.46686498661E+02  0.10566000000E+00 0. -1.
         23    2    1    0    0    0 -0.26485852826E+02  0.11496646430E+02 -0.10132281889E+02  0.94400385373E+02  0.89303394915E+02 0.  0.
         13    1    3    3    0    0 -0.65546676552E+01 -0.10726164219E+02 -0.46028138722E+02  0.47713886712E+02  0.10566000000E+00 0.  1.
         22    1    1    0    0    0  0.26485852826E+02 -0.11496646430E+02  0.10132281889E+02  0.30599614627E+02  0.00000000000E+00 0.  1.
</event>
<event>
 5    1  0.1320187E-009  0.9118800E+02  0.7818608E-02  0.1130116E+00
         25   -1    0    0    0    0  0.00000000000E+00  0.00000000000E+00  0.99999998245E-14  0.12500000000E+03  0.12500000000E+03 0.  0.
        -13    1    3    3    0    0 -0.64458672837E+01 -0.11569267837E+02  0.54856701838E+02  0.56432845613E+02  0.10566000000E+00 0.  1.
         23    2    1    0    0    0  0.15515653273E+02  0.65787031585E+00  0.26124557878E+02  0.94608211403E+02  0.89593821499E+02 0.  0.
         13    1    3    3    0    0  0.21961520557E+02  0.12227138153E+02 -0.28732143961E+02  0.38175365790E+02  0.10566000000E+00 0. -1.
         22    1    1    0    0    0 -0.15515653273E+02 -0.65787031585E+00 -0.26124557878E+02  0.30391788597E+02  0.00000000000E+00 0.  1.
</event>
<event>
 5    1  0.1320187E-009  0.9118800E+02  0.7818608E-02  0.1130116E+00
         25   -1    0    0    0    0  0.00000000000E+00  0.00000000000E+00  0.99999998245E-14  0.12500000000E+03  0.12500000000E+03 0.  0.
        -13    1    3    3    0    0 -0.22079791358E+02 -0.96549774287E-01 -0.42260413525E+02  0.47681025824E+02  0.10566000000E+00 0. -1.
         23    2    1    0    0    0 -0.67752536528E+01 -0.30179468048E+02 -0.18482383201E+02  0.88968030272E+02  0.81344991044E+02 0.  0.
         13    1    3    3    0    0  0.15304537706E+02 -0.30082918273E+02  0.23778030323E+02  0.41287004448E+02  0.10566000000E+00 0.  1.
         22    1    1    0    0    0  0.67752536528E+01  0.30179468048E+02  0.18482383201E+02  0.36031969728E+02  0.00000000000E+00 0. -1.
</event>
<event>
 5    1  0.1320187E-009  0.9118800E+02  0.7818608E-02  0.1130116E+00
         25   -1    0    0    0    0  0.00000000000E+00  0.00000000000E+00  0.99999998245E-14  0.12500000000E+03  0.12500000000E+03 0.  0.
        -13    1    3    3    0    0 -0.87078018696E+01  0.13258683335E+01  0.44989894921E+02  0.45844144111E+02  0.10566000000E+00 0. -1.
         23    2    1    0    0    0  0.26772449860E+02 -0.66145485352E+01  0.12049801364E+02  0.94904916735E+02  0.90006828539E+02 0.  0.
         13    1    3    3    0    0  0.35480251730E+02 -0.79404168687E+01 -0.32940093557E+02  0.49060772623E+02  0.10566000000E+00 0.  1.
         22    1    1    0    0    0 -0.26772449860E+02  0.66145485352E+01 -0.12049801364E+02  0.30095083265E+02  0.00000000000E+00 0.  1.
</event>
<event>
 5    1  0.1320187E-009  0.9118800E+02  0.7818608E-02  0.1130116E+00
         25   -1    0    0    0    0  0.00000000000E+00  0.00000000000E+00  0.99999998245E-14  0.12500000000E+03  0.12500000000E+03 0.  0.
        -13    1    3    3    0    0 -0.11430321985E+02  0.63423451512E+01 -0.36059348980E+02  0.38355774214E+02  0.10566000000E+00 0. -1.
         23    2    1    0    0    0 -0.15843679886E+02  0.18528069116E+02  0.18476717011E+02  0.94410776260E+02  0.89317938092E+02 0.  0.
         13    1    3    3    0    0 -0.44133579013E+01  0.12185723965E+02  0.54536065991E+02  0.56055002046E+02  0.10566000000E+00 0.  1.
         22    1    1    0    0    0  0.15843679886E+02 -0.18528069116E+02 -0.18476717011E+02  0.30589223740E+02  0.00000000000E+00 0.  1.
</event>
<event>
 5    1  0.1320187E-009  0.9118800E+02  0.7818608E-02  0.1130116E+00
         25   -1    0    0    0    0  0.00000000000E+00  0.00000000000E+00  0.99999998245E-14  0.12500000000E+03  0.12500000000E+03 0.  0.
        -13    1    3    3    0    0 -0.18885848901E+02 -0.36456312098E+02 -0.16541821626E+02  0.44264895880E+02  0.10566000000E+00 0. -1.
         23    2    1    0    0    0  0.19749032558E+02 -0.68621948395E-01 -0.19269167745E+02  0.97407794189E+02  0.93418138213E+02 0.  0.
         13    1    3    3    0    0  0.38634881459E+02  0.36387690150E+02 -0.27273461187E+01  0.53142898309E+02  0.10566000000E+00 0.  1.
         22    1    1    0    0    0 -0.19749032558E+02  0.68621948395E-01  0.19269167745E+02  0.27592205811E+02  0.00000000000E+00 0.  1.
</event>
<event>
 5    1  0.1320187E-009  0.9118800E+02  0.7818608E-02  0.1130116E+00
         25   -1    0    0    0    0  0.00000000000E+00  0.00000000000E+00  0.99999998245E-14  0.12500000000E+03  0.12500000000E+03 0.  0.
        -13    1    3    3    0    0 -0.72401506558E+01 -0.74813696462E+01  0.59535877179E+02  0.60439411883E+02  0.10566000000E+00 0.  1.
         23    2    1    0    0    0  0.57878785629E+01 -0.10032329626E+02  0.30817418791E+02  0.92077963657E+02  0.85991225798E+02 0.  0.
         13    1    3    3    0    0  0.13028029219E+02 -0.25509599801E+01 -0.28718458388E+02  0.31638551774E+02  0.10566000000E+00 0. -1.
         22    1    1    0    0    0 -0.57878785629E+01  0.10032329626E+02 -0.30817418791E+02  0.32922036343E+02  0.00000000000E+00 0.  1.
</event>
<event>
 5    1  0.1320187E-009  0.9118800E+02  0.7818608E-02  0.1130116E+00
         25   -1    0    0    0    0  0.00000000000E+00  0.00000000000E+00  0.99999998245E-14  0.12500000000E+03  0.12500000000E+03 0.  0.
        -13    1    3    3    0    0  0.92812951073E+01 -0.34711958492E+02 -0.49510605869E+02  0.61174943881E+02  0.10566000000E+00 0.  1.
         23    2    1    0    0    0  0.13187671247E+02 -0.14592914669E+02 -0.21847569428E+02  0.95602991285E+02  0.90971137298E+02 0.  0.
         13    1    3    3    0    0  0.39063761402E+01  0.20119043823E+02  0.27663036442E+02  0.34428047405E+02  0.10566000000E+00 0. -1.
         22    1    1    0    0    0 -0.13187671247E+02  0.14592914669E+02  0.21847569428E+02  0.29397008715E+02  0.00000000000E+00 0.  1.
</event>
<event>
 5    1  0.1320187E-009  0.9118800E+02  0.7818608E-02  0.1130116E+00
         25   -1    0    0    0    0  0.00000000000E+00  0.00000000000E+00  0.99999998245E-14  0.12500000000E+03  0.12500000000E+03 0.  0.
        -13    1    3    3    0    0 -0.37967019292E+02 -0.16927448148E+02  0.26657556625E+02  0.49382887157E+02  0.10566000000E+00 0.  1.
         23    2    1    0    0    0 -0.11324825455E+02 -0.27763185483E+02 -0.75548847278E+01  0.94078770675E+02  0.88852083086E+02 0.  0.
         13    1    3    3    0    0  0.26642193837E+02 -0.10835737335E+02 -0.34212441353E+02  0.44695883517E+02  0.10566000000E+00 0. -1.
         22    1    1    0    0    0  0.11324825455E+02  0.27763185483E+02  0.75548847278E+01  0.30921229325E+02  0.00000000000E+00 0. -1.
</event>
<event>
 5    1  0.1320187E-009  0.9118800E+02  0.7818608E-02  0.1130116E+00
         25   -1    0    0    0    0  0.00000000000E+00  0.00000000000E+00  0.99999998245E-14  0.12500000000E+03  0.12500000000E+03 0.  0.
        -13    1    3    3    0    0 -0.28137279494E+00  0.10275671316E+02 -0.53219515349E+02  0.54203289288E+02  0.10566000000E+00 0. -1.
         23    2    1    0    0    0  0.19253972772E+02 -0.69806455840E+01 -0.20688869616E+02  0.95888589758E+02  0.91362724563E+02 0.  0.
         13    1    3    3    0    0  0.19535345567E+02 -0.17256316900E+02  0.32530645734E+02  0.41685300470E+02  0.10566000000E+00 0.  1.
         22    1    1    0    0    0 -0.19253972772E+02  0.69806455840E+01  0.20688869616E+02  0.29111410242E+02  0.00000000000E+00 0. -1.
</event>
<event>
 5    1  0.1320187E-009  0.9118800E+02  0.7818608E-02  0.1130116E+00
         25   -1    0    0    0    0  0.00000000000E+00  0.00000000000E+00  0.99999998245E-14  0.12500000000E+03  0.12500000000E+03 0.  0.
        -13    1    3    3    0    0 -0.25935690972E+02 -0.20581277150E+02 -0.14509246405E+02  0.36149390460E+02  0.10566000000E+00 0. -1.
         23    2    1    0    0    0 -0.91315967355E+01 -0.26369099227E+01  0.33548936706E+02  0.90130665234E+02  0.83112371573E+02 0.  0.
         13    1    3    3    0    0  0.16804094237E+02  0.17944367228E+02  0.48058183111E+02  0.53981274775E+02  0.10566000000E+00 0.  1.
         22    1    1    0    0    0  0.91315967355E+01  0.26369099227E+01 -0.33548936706E+02  0.34869334766E+02  0.00000000000E+00 0.  1.
</event>
<event>
 5    1  0.1320187E-009  0.9118800E+02  0.7818608E-02  0.1130116E+00
         25   -1    0    0    0    0  0.00000000000E+00  0.00000000000E+00  0.99999998245E-14  0.12500000000E+03  0.12500000000E+03 0.  0.
        -13    1    3    3    0    0 -0.36044697985E+02  0.33323058108E+01 -0.21058376488E+02  0.41878286727E+02  0.10566000000E+00 0.  1.
         23    2    1    0    0    0 -0.93012785229E+01  0.21336633946E+02  0.20159946761E+02  0.94207319315E+02  0.89032745824E+02 0.  0.
         13    1    3    3    0    0  0.26743419462E+02  0.18004328136E+02  0.41218323250E+02  0.52329032589E+02  0.10566000000E+00 0. -1.
         22    1    1    0    0    0  0.93012785229E+01 -0.21336633946E+02 -0.20159946761E+02  0.30792680685E+02  0.00000000000E+00 0. -1.
</event>
<event>
 5    1  0.1320187E-009  0.9118800E+02  0.7818608E-02  0.1130116E+00
         25   -1    0    0    0    0  0.00000000000E+00  0.00000000000E+00  0.99999998245E-14  0.12500000000E+03  0.12500000000E+03 0.  0.
        -13    1    3    3    0    0 -0.13911305299E+02  0.23238102384E+02 -0.48910286124E+02  0.55908506243E+02  0.10566000000E+00 0. -1.
         23    2    1    0    0    0  0.12211009177E+02  0.45731218791E+01 -0.27690943726E+02  0.94392638904E+02  0.89292551346E+02 0.  0.
         13    1    3    3    0    0  0.26122314475E+02 -0.18664980505E+02  0.21219342398E+02  0.38484132661E+02  0.10566000000E+00 0.  1.
         22    1    1    0    0    0 -0.12211009177E+02 -0.45731218791E+01  0.27690943726E+02  0.30607361096E+02  0.00000000000E+00 0. -1.
</event>
<event>
 5    1  0.1320187E-009  0.9118800E+02  0.7818608E-02  0.1130116E+00
         25   -1    0    0    0    0  0.00000000000E+00  0.00000000000E+00  0.99999998245E-14  0.12500000000E+03  0.12500000000E+03 0.  0.
        -13    1    3    3    0    0  0.37611127300E+02  0.67248289951E+00 -0.19371327542E+02  0.42312038770E+02  0.10566000000E+00 0. -1.
         23    2    1    0    0    0 -0.16612525110E+02 -0.39976651736E+01 -0.22407367868E+02  0.96821152399E+02  0.92629844541E+02 0.  0.
         13    1    3    3    0    0 -0.54223652410E+02 -0.46701480731E+01 -0.30360403259E+01  0.54509113629E+02  0.10566000000E+00 0.  1.
         22    1    1    0    0    0  0.16612525110E+02  0.39976651736E+01  0.22407367868E+02  0.28178847601E+02  0.00000000000E+00 0.  1.
</event>
<event>
 5    1  0.1320187E-009  0.9118800E+02  0.7818608E-02  0.1130116E+00
         25   -1    0    0    0    0  0.00000000000E+00  0.00000000000E+00  0.99999998245E-14  0.12500000000E+03  0.12500000000E+03 0.  0.
        -13    1    3    3    0    0  0.35287503738E+02  0.12255883583E+02  0.24271092052E+02  0.44547858264E+02  0.10566000000E+00 0. -1.
         23    2    1    0    0    0  0.19748267018E+02 -0.20480363202E+02 -0.10407939338E+02  0.94705371295E+02  0.89729275177E+02 0.  0.
         13    1    3    3    0    0 -0.15539236719E+02 -0.32736246784E+02 -0.34679031390E+02  0.50157513032E+02  0.10566000000E+00 0.  1.
         22    1    1    0    0    0 -0.19748267018E+02  0.20480363202E+02  0.10407939338E+02  0.30294628705E+02  0.00000000000E+00 0. -1.
</event>
<event>
 5    1  0.1320187E-009  0.9118800E+02  0.7818608E-02  0.1130116E+00
         25   -1    0    0    0    0  0.00000000000E+00  0.00000000000E+00  0.99999998245E-14  0.12500000000E+03  0.12500000000E+03 0.  0.
        -13    1    3    3    0    0 -0.35179371141E+01  0.16780539477E+02  0.37303343921E+02  0.41054999920E+02  0.10566000000E+00 0. -1.
         23    2    1    0    0    0  0.10330749793E+02  0.19983135251E+02 -0.16754640860E+02  0.96950613624E+02  0.92804382472E+02 0.  0.
         13    1    3    3    0    0  0.13848686907E+02  0.32025957732E+01 -0.54057984781E+02  0.55895613704E+02  0.10566000000E+00 0.  1.
         22    1    1    0    0    0 -0.10330749793E+02 -0.19983135251E+02  0.16754640860E+02  0.28049386376E+02  0.00000000000E+00 0.  1.
</event>
<event>
 5    1  0.1320187E-009  0.9118800E+02  0.7818608E-02  0.1130116E+00
         25   -1    0    0    0    0  0.00000000000E+00  0.00000000000E+00  0.99999998245E-14  0.12500000000E+03  0.12500000000E+03 0.  0.
        -13    1    3    3    0    0 -0.26831160904E+02 -0.63684275790E+01 -0.52945619559E+02  0.59696883166E+02  0.10566000000E+00 0. -1.
         23    2    1    0    0    0 -0.96834021330E+00  0.31575811428E+01 -0.27796412846E+02  0.97008062437E+02  0.92881729147E+02 0.  0.
         13    1    3    3    0    0  0.25862820691E+02  0.95260087219E+01  0.25149206713E+02  0.37311179271E+02  0.10566000000E+00 0.  1.
         22    1    1    0    0    0  0.96834021330E+00 -0.31575811428E+01  0.27796412846E+02  0.27991937563E+02  0.00000000000E+00 0. -1.
</event>
<event>
 5    1  0.1320187E-009  0.9118800E+02  0.7818608E-02  0.1130116E+00
         25   -1    0    0    0    0  0.00000000000E+00  0.00000000000E+00  0.99999998245E-14  0.12500000000E+03  0.12500000000E+03 0.  0.
        -13    1    3    3    0    0  0.15700663827E+02 -0.35792643548E+02  0.43636353811E+02  0.58581282973E+02  0.10566000000E+00 0.  1.
         23    2    1    0    0    0  0.11629018002E+02 -0.29861366141E+01  0.26698219383E+02  0.95726360154E+02  0.91140496151E+02 0.  0.
         13    1    3    3    0    0 -0.40716458241E+01  0.32806506934E+02 -0.16938134428E+02  0.37145077182E+02  0.10566000000E+00 0. -1.
         22    1    1    0    0    0 -0.11629018002E+02  0.29861366141E+01 -0.26698219383E+02  0.29273639846E+02  0.00000000000E+00 0.  1.
</event>
<event>
 5    1  0.1320187E-009  0.9118800E+02  0.7818608E-02  0.1130116E+00
         25   -1    0    0    0    0  0.00000000000E+00  0.00000000000E+00  0.99999998245E-14  0.12500000000E+03  0.12500000000E+03 0.  0.
        -13    1    3    3    0    0  0.17789950496E+02  0.33477341315E+02 -0.39090064960E+02  0.54454192334E+02  0.10566000000E+00 0.  1.
         23    2    1    0    0    0 -0.14049111716E+02  0.18877479224E+02 -0.18335227701E+02  0.95168517692E+02  0.90372171728E+02 0.  0.
         13    1    3    3    0    0 -0.31839062212E+02 -0.14599862091E+02  0.20754837259E+02  0.40714325357E+02  0.10566000000E+00 0. -1.
         22    1    1    0    0    0  0.14049111716E+02 -0.18877479224E+02  0.18335227701E+02  0.29831482308E+02  0.00000000000E+00 0.  1.
</event>
<event>
 5    1  0.1320187E-009  0.9118800E+02  0.7818608E-02  0.1130116E+00
         25   -1    0    0    0    0  0.00000000000E+00  0.00000000000E+00  0.99999998245E-14  0.12500000000E+03  0.12500000000E+03 0.  0.
        -13    1    3    3    0    0  0.14815310805E+02 -0.42514205461E+02  0.73110425200E+01  0.45611551245E+02  0.10566000000E+00 0.  1.
         23    2    1    0    0    0 -0.27565002360E+01 -0.10394393499E+02 -0.27092309375E+02  0.95851501976E+02  0.91311967967E+02 0.  0.
         13    1    3    3    0    0 -0.17571811041E+02  0.32119811962E+02 -0.34403351895E+02  0.50239950731E+02  0.10566000000E+00 0. -1.
         22    1    1    0    0    0  0.27565002360E+01  0.10394393499E+02  0.27092309375E+02  0.29148498024E+02  0.00000000000E+00 0. -1.
</event>
<event>
 5    1  0.1320187E-009  0.9118800E+02  0.7818608E-02  0.1130116E+00
         25   -1    0    0    0    0  0.00000000000E+00  0.00000000000E+00  0.99999998245E-14  0.12500000000E+03  0.12500000000E+03 0.  0.
        -13    1    3    3    0    0 -0.47350418084E+02  0.11653307333E+02  0.13342048592E+01  0.48781686432E+02  0.10566000000E+00 0. -1.
         23    2    1    0    0    0 -0.11825992548E+02  0.15342539428E+02  0.26284006864E+02  0.92348864757E+02  0.86384120006E+02 0.  0.
         13    1    3    3    0    0  0.35524425535E+02  0.36892320949E+01  0.24949802005E+02  0.43567178325E+02  0.10566000000E+00 0.  1.
         22    1    1    0    0    0  0.11825992548E+02 -0.15342539428E+02 -0.26284006864E+02  0.32651135243E+02  0.00000000000E+00 0. -1.
</event>
<event>
 5    1  0.1320187E-009  0.9118800E+02  0.7818608E-02  0.1130116E+00
         25   -1    0    0    0    0  0.00000000000E+00  0.00000000000E+00  0.99999998245E-14  0.12500000000E+03  0.12500000000E+03 0.  0.
        -13    1    3    3    0    0 -0.36466831913E+02  0.40479129030E+01  0.29926722233E+02  0.47348023151E+02  0.10566000000E+00 0. -1.
         23    2    1    0    0    0 -0.17540063467E+02 -0.22644461095E+02 -0.57792010462E+01  0.95779722632E+02  0.91213653902E+02 0.  0.
         13    1    3    3    0    0  0.18926768446E+02 -0.26692373998E+02 -0.35705923279E+02  0.48431699482E+02  0.10566000000E+00 0.  1.
         22    1    1    0    0    0  0.17540063467E+02  0.22644461095E+02  0.57792010462E+01  0.29220277368E+02  0.00000000000E+00 0.  1.
</event>
<event>
 5    1  0.1320187E-009  0.9118800E+02  0.7818608E-02  0.1130116E+00
         25   -1    0    0    0    0  0.00000000000E+00  0.00000000000E+00  0.99999998245E-14  0.12500000000E+03  0.12500000000E+03 0.  0.
        -13    1    3    3    0    0  0.81012570712E+00 -0.25678191353E+02  0.33627580277E+02  0.42318449099E+02  0.10566000000E+00 0.  1.
         23    2    1    0    0    0 -0.72538517385E+01 -0.18812610468E+02 -0.19773396948E+02  0.96759605092E+02  0.92546751823E+02 0.  0.
         13    1    3    3    0    0 -0.80639774457E+01  0.68655808849E+01 -0.53400977226E+02  0.54441155993E+02  0.10566000000E+00 0. -1.
         22    1    1    0    0    0  0.72538517385E+01  0.18812610468E+02  0.19773396948E+02  0.28240394908E+02  0.00000000000E+00 0. -1.
</event>
<event>
 5    1  0.1320187E-009  0.9118800E+02  0.7818608E-02  0.1130116E+00
         25   -1    0    0    0    0  0.00000000000E+00  0.00000000000E+00  0.99999998245E-14  0.12500000000E+03  0.12500000000E+03 0.  0.
        -13    1    3    3    0    0 -0.40757215541E+02 -0.44066722381E+02 -0.12859904950E+02  0.61387416947E+02  0.10566000000E+00 0. -1.
         23    2    1    0    0    0 -0.17952700479E+02 -0.22650599406E+02  0.20138684067E+01  0.96027516953E+02  0.91552603668E+02 0.  0.
         13    1    3    3    0    0  0.22804515062E+02  0.21416122975E+02  0.14873773357E+02  0.34640100006E+02  0.10566000000E+00 0.  1.
         22    1    1    0    0    0  0.17952700479E+02  0.22650599406E+02 -0.20138684067E+01  0.28972483047E+02  0.00000000000E+00 0. -1.
</event>
<event>
 5    1  0.1320187E-009  0.9118800E+02  0.7818608E-02  0.1130116E+00
         25   -1    0    0    0    0  0.00000000000E+00  0.00000000000E+00  0.99999998245E-14  0.12500000000E+03  0.12500000000E+03 0.  0.
        -13    1    3    3    0    0 -0.36443339350E+02  0.23011537850E+02 -0.19670995387E+02  0.47377284438E+02  0.10566000000E+00 0.  1.
         23    2    1    0    0    0 -0.22763555120E+02 -0.43226041202E+01  0.17834459573E+02  0.95760774697E+02  0.91187683786E+02 0.  0.
         13    1    3    3    0    0  0.13679784230E+02 -0.27334141970E+02  0.37505454960E+02  0.48383490259E+02  0.10566000000E+00 0. -1.
         22    1    1    0    0    0  0.22763555120E+02  0.43226041202E+01 -0.17834459573E+02  0.29239225303E+02  0.00000000000E+00 0. -1.
</event>
<event>
 5    1  0.1320187E-009  0.9118800E+02  0.7818608E-02  0.1130116E+00
         25   -1    0    0    0    0  0.00000000000E+00  0.00000000000E+00  0.99999998245E-14  0.12500000000E+03  0.12500000000E+03 0.  0.
        -13    1    3    3    0    0 -0.15218667516E+02  0.24536568525E+01  0.37497435015E+02  0.40542534081E+02  0.10566000000E+00 0.  1.
         23    2    1    0    0    0  0.18836358637E+02  0.21953233516E+02 -0.17199973039E+01  0.96022228187E+02  0.91545382444E+02 0.  0.
         13    1    3    3    0    0  0.34055026154E+02  0.19499576664E+02 -0.39217432319E+02  0.55479694106E+02  0.10566000000E+00 0. -1.
         22    1    1    0    0    0 -0.18836358637E+02 -0.21953233516E+02  0.17199973039E+01  0.28977771813E+02  0.00000000000E+00 0. -1.
</event>
<event>
 5    1  0.1320187E-009  0.9118800E+02  0.7818608E-02  0.1130116E+00
         25   -1    0    0    0    0  0.00000000000E+00  0.00000000000E+00  0.99999998245E-14  0.12500000000E+03  0.12500000000E+03 0.  0.
        -13    1    3    3    0    0 -0.42210998078E+01 -0.35199373584E+02 -0.75004568607E+01  0.36236467839E+02  0.10566000000E+00 0. -1.
         23    2    1    0    0    0 -0.29472975800E+01  0.16937213160E+02  0.22717500023E+02  0.96510693937E+02  0.92209942437E+02 0.  0.
         13    1    3    3    0    0  0.12738022278E+01  0.52136586744E+02  0.30217956883E+02  0.60274226098E+02  0.10566000000E+00 0.  1.
         22    1    1    0    0    0  0.29472975800E+01 -0.16937213160E+02 -0.22717500023E+02  0.28489306063E+02  0.00000000000E+00 0.  1.
</event>
<event>
 5    1  0.1320187E-009  0.9118800E+02  0.7818608E-02  0.1130116E+00
         25   -1    0    0    0    0  0.00000000000E+00  0.00000000000E+00  0.99999998245E-14  0.12500000000E+03  0.12500000000E+03 0.  0.
        -13    1    3    3    0    0  0.14844868970E+02 -0.35655731750E+02  0.11662937129E+02  0.40345217906E+02  0.10566000000E+00 0. -1.
         23    2    1    0    0    0  0.14092619791E+02  0.94981580583E+00 -0.27578493920E+02  0.94014884064E+02  0.88762159821E+02 0.  0.
         13    1    3    3    0    0 -0.75224917864E+00  0.36605547556E+02 -0.39241431050E+02  0.53669666158E+02  0.10566000000E+00 0.  1.
         22    1    1    0    0    0 -0.14092619791E+02 -0.94981580583E+00  0.27578493920E+02  0.30985115936E+02  0.00000000000E+00 0.  1.
</event>
<event>
 5    1  0.1320187E-009  0.9118800E+02  0.7818608E-02  0.1130116E+00
         25   -1    0    0    0    0  0.00000000000E+00  0.00000000000E+00  0.99999998245E-14  0.12500000000E+03  0.12500000000E+03 0.  0.
        -13    1    3    3    0    0 -0.26291233872E+02  0.21802242472E+02 -0.39251732487E+02  0.52031494526E+02  0.10566000000E+00 0.  1.
         23    2    1    0    0    0  0.23029180228E+01  0.31085327416E+02 -0.16514315056E+02  0.89725028508E+02  0.82500043194E+02 0.  0.
         13    1    3    3    0    0  0.28594151895E+02  0.92830849437E+01  0.22737417430E+02  0.37693533983E+02  0.10566000000E+00 0. -1.
         22    1    1    0    0    0 -0.23029180228E+01 -0.31085327416E+02  0.16514315056E+02  0.35274971492E+02  0.00000000000E+00 0.  1.
</event>
<event>
 5    1  0.1320187E-009  0.9118800E+02  0.7818608E-02  0.1130116E+00
         25   -1    0    0    0    0  0.00000000000E+00  0.00000000000E+00  0.99999998245E-14  0.12500000000E+03  0.12500000000E+03 0.  0.
        -13    1    3    3    0    0 -0.14340575611E+02  0.83834655654E+01  0.41237827553E+02  0.44457892314E+02  0.10566000000E+00 0.  1.
         23    2    1    0    0    0  0.25888106396E+02 -0.57530868335E+01  0.16854610863E+02  0.93577556298E+02  0.88144138061E+02 0.  0.
         13    1    3    3    0    0  0.40228682006E+02 -0.14136552399E+02 -0.24383216690E+02  0.49119663984E+02  0.10566000000E+00 0. -1.
         22    1    1    0    0    0 -0.25888106396E+02  0.57530868335E+01 -0.16854610863E+02  0.31422443702E+02  0.00000000000E+00 0.  1.
</event>
<event>
 5    1  0.1320187E-009  0.9118800E+02  0.7818608E-02  0.1130116E+00
         25   -1    0    0    0    0  0.00000000000E+00  0.00000000000E+00  0.99999998245E-14  0.12500000000E+03  0.12500000000E+03 0.  0.
        -13    1    3    3    0    0 -0.17869588152E+02 -0.27531623923E+02 -0.14120879763E+02  0.35731259506E+02  0.10566000000E+00 0. -1.
         23    2    1    0    0    0  0.95016582186E+01  0.26071692844E+02 -0.73202667135E+01  0.96301550888E+02  0.91925990460E+02 0.  0.
         13    1    3    3    0    0  0.27371246371E+02  0.53603316767E+02  0.68006130490E+01  0.60570291383E+02  0.10566000000E+00 0.  1.
         22    1    1    0    0    0 -0.95016582186E+01 -0.26071692844E+02  0.73202667135E+01  0.28698449112E+02  0.00000000000E+00 0.  1.
</event>
<event>
 5    1  0.1320187E-009  0.9118800E+02  0.7818608E-02  0.1130116E+00
         25   -1    0    0    0    0  0.00000000000E+00  0.00000000000E+00  0.99999998245E-14  0.12500000000E+03  0.12500000000E+03 0.  0.
        -13    1    3    3    0    0 -0.20801000029E+02  0.18120649222E+02 -0.11113000859E+02  0.29741376609E+02  0.10566000000E+00 0.  1.
         23    2    1    0    0    0  0.33796391158E+02 -0.68907379874E+01 -0.57252715074E+01  0.90036346599E+02  0.82970396226E+02 0.  0.
         13    1    3    3    0    0  0.54597391187E+02 -0.25011387210E+02  0.53877293519E+01  0.60294969991E+02  0.10566000000E+00 0. -1.
         22    1    1    0    0    0 -0.33796391158E+02  0.68907379874E+01  0.57252715074E+01  0.34963653401E+02  0.00000000000E+00 0. -1.
</event>
<event>
 5    1  0.1320187E-009  0.9118800E+02  0.7818608E-02  0.1130116E+00
         25   -1    0    0    0    0  0.00000000000E+00  0.00000000000E+00  0.99999998245E-14  0.12500000000E+03  0.12500000000E+03 0.  0.
        -13    1    3    3    0    0  0.23997020758E+02  0.94578718291E+01  0.64989946403E-01  0.25793870057E+02  0.10566000000E+00 0. -1.
         23    2    1    0    0    0 -0.26318256932E+02 -0.23977833170E+02  0.12107854103E+02  0.87394318748E+02  0.78889667809E+02 0.  0.
         13    1    3    3    0    0 -0.50315277690E+02 -0.33435704999E+02  0.12042864157E+02  0.61600448691E+02  0.10566000000E+00 0.  1.
         22    1    1    0    0    0  0.26318256932E+02  0.23977833170E+02 -0.12107854103E+02  0.37605681252E+02  0.00000000000E+00 0.  1.
</event>
<event>
 5    1  0.1320187E-009  0.9118800E+02  0.7818608E-02  0.1130116E+00
         25   -1    0    0    0    0  0.00000000000E+00  0.00000000000E+00  0.99999998245E-14  0.12500000000E+03  0.12500000000E+03 0.  0.
        -13    1    3    3    0    0  0.34570205202E+02  0.21856053485E+02  0.26352570918E+02  0.48654448097E+02  0.10566000000E+00 0. -1.
         23    2    1    0    0    0  0.22769121813E+02 -0.18607728550E+02  0.12801070659E+02  0.92929018101E+02  0.87219576503E+02 0.  0.
         13    1    3    3    0    0 -0.11801083388E+02 -0.40463782035E+02 -0.13551500259E+02  0.44274570004E+02  0.10566000000E+00 0.  1.
         22    1    1    0    0    0 -0.22769121813E+02  0.18607728550E+02 -0.12801070659E+02  0.32070981899E+02  0.00000000000E+00 0.  1.
</event>
<event>
 5    1  0.1320187E-009  0.9118800E+02  0.7818608E-02  0.1130116E+00
         25   -1    0    0    0    0  0.00000000000E+00  0.00000000000E+00  0.99999998245E-14  0.12500000000E+03  0.12500000000E+03 0.  0.
        -13    1    3    3    0    0 -0.12169411130E+02 -0.78707878272E+01  0.60119454765E+02  0.61841764800E+02  0.10566000000E+00 0.  1.
         23    2    1    0    0    0 -0.10974964231E+02 -0.68220083548E+01  0.26319292592E+02  0.95679447475E+02  0.91076132267E+02 0.  0.
         13    1    3    3    0    0  0.11944468994E+01  0.10487794724E+01 -0.33800162174E+02  0.33837682674E+02  0.10566000000E+00 0. -1.
         22    1    1    0    0    0  0.10974964231E+02  0.68220083548E+01 -0.26319292592E+02  0.29320552525E+02  0.00000000000E+00 0.  1.
</event>
<event>
 5    1  0.1320187E-009  0.9118800E+02  0.7818608E-02  0.1130116E+00
         25   -1    0    0    0    0  0.00000000000E+00  0.00000000000E+00  0.99999998245E-14  0.12500000000E+03  0.12500000000E+03 0.  0.
        -13    1    3    3    0    0 -0.16905885954E+02 -0.24676763693E+02 -0.25883317072E+02  0.39556401668E+02  0.10566000000E+00 0.  1.
         23    2    1    0    0    0 -0.17872333704E+02  0.20930569102E+01  0.23299350216E+02  0.95560894719E+02  0.90913275597E+02 0.  0.
         13    1    3    3    0    0 -0.96644775067E+00  0.26769820603E+02  0.49182667288E+02  0.56004493051E+02  0.10566000000E+00 0. -1.
         22    1    1    0    0    0  0.17872333704E+02 -0.20930569102E+01 -0.23299350216E+02  0.29439105281E+02  0.00000000000E+00 0. -1.
</event>
<event>
 5    1  0.1320187E-009  0.9118800E+02  0.7818608E-02  0.1130116E+00
         25   -1    0    0    0    0  0.00000000000E+00  0.00000000000E+00  0.99999998245E-14  0.12500000000E+03  0.12500000000E+03 0.  0.
        -13    1    3    3    0    0  0.21692901879E+02 -0.27097309223E+02  0.90580827247E+01  0.35873474682E+02  0.10566000000E+00 0.  1.
         23    2    1    0    0    0 -0.26452285500E+02  0.78592223262E+01  0.10724626173E+02  0.95394115613E+02  0.90683674955E+02 0.  0.
         13    1    3    3    0    0 -0.48145187379E+02  0.34956531550E+02  0.16665434488E+01  0.59520640931E+02  0.10566000000E+00 0. -1.
         22    1    1    0    0    0  0.26452285500E+02 -0.78592223262E+01 -0.10724626173E+02  0.29605884387E+02  0.00000000000E+00 0. -1.
</event>
<event>
 5    1  0.1320187E-009  0.9118800E+02  0.7818608E-02  0.1130116E+00
         25   -1    0    0    0    0  0.00000000000E+00  0.00000000000E+00  0.99999998245E-14  0.12500000000E+03  0.12500000000E+03 0.  0.
        -13    1    3    3    0    0 -0.74070292944E+01 -0.29264145851E+02  0.32518679423E+02  0.44370372895E+02  0.10566000000E+00 0.  1.
         23    2    1    0    0    0  0.16507497264E+02  0.13237898278E+02  0.22416753040E+02  0.94173870927E+02  0.88985772637E+02 0.  0.
         13    1    3    3    0    0  0.23914526558E+02  0.42502044129E+02 -0.10101926383E+02  0.49803498033E+02  0.10566000000E+00 0. -1.
         22    1    1    0    0    0 -0.16507497264E+02 -0.13237898278E+02 -0.22416753040E+02  0.30826129073E+02  0.00000000000E+00 0.  1.
</event>
<event>
 5    1  0.1320187E-009  0.9118800E+02  0.7818608E-02  0.1130116E+00
         25   -1    0    0    0    0  0.00000000000E+00  0.00000000000E+00  0.99999998245E-14  0.12500000000E+03  0.12500000000E+03 0.  0.
        -13    1    3    3    0    0 -0.26859295230E+02 -0.45163416014E+02 -0.14545536945E+02  0.54522836458E+02  0.10566000000E+00 0.  1.
         23    2    1    0    0    0  0.65157113385E+01 -0.21601468791E+02 -0.18844791620E+02  0.95602651151E+02  0.90970669931E+02 0.  0.
         13    1    3    3    0    0  0.33375006569E+02  0.23561947224E+02 -0.42992546748E+01  0.41079814693E+02  0.10566000000E+00 0. -1.
         22    1    1    0    0    0 -0.65157113385E+01  0.21601468791E+02  0.18844791620E+02  0.29397348849E+02  0.00000000000E+00 0.  1.
</event>
<event>
 5    1  0.1320187E-009  0.9118800E+02  0.7818608E-02  0.1130116E+00
         25   -1    0    0    0    0  0.00000000000E+00  0.00000000000E+00  0.99999998245E-14  0.12500000000E+03  0.12500000000E+03 0.  0.
        -13    1    3    3    0    0  0.16764675714E+01 -0.12645347764E+02 -0.31995992631E+02  0.34445174873E+02  0.10566000000E+00 0. -1.
         23    2    1    0    0    0 -0.25687929651E+02  0.23684879933E+02  0.77367803350E-02  0.90059431500E+02  0.83005167761E+02 0.  0.
         13    1    3    3    0    0 -0.27364397222E+02  0.36330227698E+02  0.32003729411E+02  0.55614256627E+02  0.10566000000E+00 0.  1.
         22    1    1    0    0    0  0.25687929651E+02 -0.23684879933E+02 -0.77367803350E-02  0.34940568500E+02  0.00000000000E+00 0.  1.
</event>
<event>
 5    1  0.1320187E-009  0.9118800E+02  0.7818608E-02  0.1130116E+00
         25   -1    0    0    0    0  0.00000000000E+00  0.00000000000E+00  0.99999998245E-14  0.12500000000E+03  0.12500000000E+03 0.  0.
        -13    1    3    3    0    0  0.85585113103E+01 -0.43538502593E+02 -0.39851466506E+02  0.59640589120E+02  0.10566000000E+00 0. -1.
         23    2    1    0    0    0  0.16655792439E+02 -0.16229419711E+02 -0.16291021191E+02  0.96606217980E+02  0.92339344242E+02 0.  0.
         13    1    3    3    0    0  0.80972811287E+01  0.27309082882E+02  0.23560445315E+02  0.36965628860E+02  0.10566000000E+00 0.  1.
         22    1    1    0    0    0 -0.16655792439E+02  0.16229419711E+02  0.16291021191E+02  0.28393782020E+02  0.00000000000E+00 0.  1.
</event>
<event>
 5    1  0.1320187E-009  0.9118800E+02  0.7818608E-02  0.1130116E+00
         25   -1    0    0    0    0  0.00000000000E+00  0.00000000000E+00  0.99999998245E-14  0.12500000000E+03  0.12500000000E+03 0.  0.
        -13    1    3    3    0    0 -0.20121373104E+02  0.11356352190E+02 -0.24736718726E+02  0.33848970560E+02  0.10566000000E+00 0.  1.
         23    2    1    0    0    0  0.99022681583E+01  0.30340583582E+02  0.17148644015E+02  0.88769047510E+02  0.81038644346E+02 0.  0.
         13    1    3    3    0    0  0.30023641262E+02  0.18984231392E+02  0.41885362740E+02  0.54920076949E+02  0.10566000000E+00 0. -1.
         22    1    1    0    0    0 -0.99022681583E+01 -0.30340583582E+02 -0.17148644015E+02  0.36230952490E+02  0.00000000000E+00 0. -1.
</event>
<event>
 5    1  0.1320187E-009  0.9118800E+02  0.7818608E-02  0.1130116E+00
         25   -1    0    0    0    0  0.00000000000E+00  0.00000000000E+00  0.99999998245E-14  0.12500000000E+03  0.12500000000E+03 0.  0.
        -13    1    3    3    0    0 -0.68278230067E-01 -0.19745872696E+02  0.39442343724E+02  0.44109112357E+02  0.10566000000E+00 0.  1.
         23    2    1    0    0    0  0.47755308433E+01 -0.30944266800E+02 -0.76598890923E+01  0.92766054484E+02  0.86985709291E+02 0.  0.
         13    1    3    3    0    0  0.48438090733E+01 -0.11198394105E+02 -0.47102232816E+02  0.48656942127E+02  0.10566000000E+00 0. -1.
         22    1    1    0    0    0 -0.47755308433E+01  0.30944266800E+02  0.76598890923E+01  0.32233945516E+02  0.00000000000E+00 0. -1.
</event>
<event>
 5    1  0.1320187E-009  0.9118800E+02  0.7818608E-02  0.1130116E+00
         25   -1    0    0    0    0  0.00000000000E+00  0.00000000000E+00  0.99999998245E-14  0.12500000000E+03  0.12500000000E+03 0.  0.
        -13    1    3    3    0    0 -0.83460088884E+01  0.33099137560E+02 -0.12718027238E+02  0.36427574067E+02  0.10566000000E+00 0. -1.
         23    2    1    0    0    0 -0.93464715321E+01 -0.26434430675E+02 -0.23729985206E+01  0.96861649352E+02  0.92684477330E+02 0.  0.
         13    1    3    3    0    0 -0.10004626437E+01 -0.59533568235E+02  0.10345028718E+02  0.60434075284E+02  0.10566000000E+00 0.  1.
         22    1    1    0    0    0  0.93464715321E+01  0.26434430675E+02  0.23729985206E+01  0.28138350648E+02  0.00000000000E+00 0.  1.
</event>
<event>
 5    1  0.1320187E-009  0.9118800E+02  0.7818608E-02  0.1130116E+00
         25   -1    0    0    0    0  0.00000000000E+00  0.00000000000E+00  0.99999998245E-14  0.12500000000E+03  0.12500000000E+03 0.  0.
        -13    1    3    3    0    0  0.36054156932E+02  0.27681066894E+02 -0.56353519302E+01  0.45802969903E+02  0.10566000000E+00 0. -1.
         23    2    1    0    0    0 -0.13917445680E+02  0.21872452925E+02 -0.11853133071E+02  0.96493926002E+02  0.92187208985E+02 0.  0.
         13    1    3    3    0    0 -0.49971602612E+02 -0.58086139695E+01 -0.62177811407E+01  0.50690956099E+02  0.10566000000E+00 0.  1.
         22    1    1    0    0    0  0.13917445680E+02 -0.21872452925E+02  0.11853133071E+02  0.28506073998E+02  0.00000000000E+00 0.  1.
</event>
<event>
 5    1  0.1320187E-009  0.9118800E+02  0.7818608E-02  0.1130116E+00
         25   -1    0    0    0    0  0.00000000000E+00  0.00000000000E+00  0.99999998245E-14  0.12500000000E+03  0.12500000000E+03 0.  0.
        -13    1    3    3    0    0  0.36463281877E+02 -0.27413140959E+02  0.24520446383E+02  0.51791067544E+02  0.10566000000E+00 0.  1.
         23    2    1    0    0    0  0.28078976144E+02  0.54675774612E+01 -0.39967724891E+01  0.96115791600E+02  0.91673048929E+02 0.  0.
         13    1    3    3    0    0 -0.83843057331E+01  0.32880718420E+02 -0.28517218872E+02  0.44324724056E+02  0.10566000000E+00 0. -1.
         22    1    1    0    0    0 -0.28078976144E+02 -0.54675774612E+01  0.39967724891E+01  0.28884208400E+02  0.00000000000E+00 0.  1.
</event>
<event>
 5    1  0.1320187E-009  0.9118800E+02  0.7818608E-02  0.1130116E+00
         25   -1    0    0    0    0  0.00000000000E+00  0.00000000000E+00  0.99999998245E-14  0.12500000000E+03  0.12500000000E+03 0.  0.
        -13    1    3    3    0    0 -0.16776009117E+02  0.50248060889E+02  0.29847653559E+02  0.60804569664E+02  0.10566000000E+00 0. -1.
         23    2    1    0    0    0  0.20169237370E+01  0.26096347934E+02  0.15211143230E+02  0.94726806657E+02  0.89759131369E+02 0.  0.
         13    1    3    3    0    0  0.18792932854E+02 -0.24151712955E+02 -0.14636510329E+02  0.33922236993E+02  0.10566000000E+00 0.  1.
         22    1    1    0    0    0 -0.20169237370E+01 -0.26096347934E+02 -0.15211143230E+02  0.30273193343E+02  0.00000000000E+00 0. -1.
</event>
<event>
 5    1  0.1320187E-009  0.9118800E+02  0.7818608E-02  0.1130116E+00
         25   -1    0    0    0    0  0.00000000000E+00  0.00000000000E+00  0.99999998245E-14  0.12500000000E+03  0.12500000000E+03 0.  0.
        -13    1    3    3    0    0  0.27002025672E+02 -0.31832298652E+02  0.23833296354E+02  0.48067055319E+02  0.10566000000E+00 0.  1.
         23    2    1    0    0    0  0.17391315922E+02 -0.11192079839E+02 -0.19217748209E+02  0.96768061228E+02  0.92558172556E+02 0.  0.
         13    1    3    3    0    0 -0.96107097506E+01  0.20640218813E+02 -0.43051044563E+02  0.48701005909E+02  0.10566000000E+00 0. -1.
         22    1    1    0    0    0 -0.17391315922E+02  0.11192079839E+02  0.19217748209E+02  0.28231938772E+02  0.00000000000E+00 0.  1.
</event>
<event>
 5    1  0.1320187E-009  0.9118800E+02  0.7818608E-02  0.1130116E+00
         25   -1    0    0    0    0  0.00000000000E+00  0.00000000000E+00  0.99999998245E-14  0.12500000000E+03  0.12500000000E+03 0.  0.
        -13    1    3    3    0    0  0.77951938994E+00  0.41544543178E+02  0.10814074939E+01  0.41566059767E+02  0.10566000000E+00 0.  1.
         23    2    1    0    0    0  0.27731925645E+02 -0.61276797322E+01  0.35057991407E+01  0.96383592355E+02  0.92037481978E+02 0.  0.
         13    1    3    3    0    0  0.26952406255E+02 -0.47672222910E+02  0.24243916468E+01  0.54817532588E+02  0.10566000000E+00 0. -1.
         22    1    1    0    0    0 -0.27731925645E+02  0.61276797322E+01 -0.35057991407E+01  0.28616407645E+02  0.00000000000E+00 0. -1.
</event>
<event>
 5    1  0.1320187E-009  0.9118800E+02  0.7818608E-02  0.1130116E+00
         25   -1    0    0    0    0  0.00000000000E+00  0.00000000000E+00  0.99999998245E-14  0.12500000000E+03  0.12500000000E+03 0.  0.
        -13    1    3    3    0    0  0.22091416745E+02 -0.32067447849E+02 -0.48542563776E+02  0.62231371247E+02  0.10566000000E+00 0.  1.
         23    2    1    0    0    0  0.13620646629E+02 -0.16927074474E+02 -0.20995894954E+02  0.94786170886E+02  0.89841764906E+02 0.  0.
         13    1    3    3    0    0 -0.84707701159E+01  0.15140373375E+02  0.27546668822E+02  0.32554799639E+02  0.10566000000E+00 0. -1.
         22    1    1    0    0    0 -0.13620646629E+02  0.16927074474E+02  0.20995894954E+02  0.30213829114E+02  0.00000000000E+00 0.  1.
</event>
<event>
 5    1  0.1320187E-009  0.9118800E+02  0.7818608E-02  0.1130116E+00
         25   -1    0    0    0    0  0.00000000000E+00  0.00000000000E+00  0.99999998245E-14  0.12500000000E+03  0.12500000000E+03 0.  0.
        -13    1    3    3    0    0 -0.14366651474E+02 -0.20922020561E+02 -0.48577326806E+02  0.54807841251E+02  0.10566000000E+00 0.  1.
         23    2    1    0    0    0 -0.25425155548E+02 -0.76631653685E+01 -0.10820234648E+02  0.96325270429E+02  0.91958238388E+02 0.  0.
         13    1    3    3    0    0 -0.11058504074E+02  0.13258855193E+02  0.37757092157E+02  0.41517429179E+02  0.10566000000E+00 0. -1.
         22    1    1    0    0    0  0.25425155548E+02  0.76631653685E+01  0.10820234648E+02  0.28674729571E+02  0.00000000000E+00 0.  1.
</event>
<event>
 5    1  0.1320187E-009  0.9118800E+02  0.7818608E-02  0.1130116E+00
         25   -1    0    0    0    0  0.00000000000E+00  0.00000000000E+00  0.99999998245E-14  0.12500000000E+03  0.12500000000E+03 0.  0.
        -13    1    3    3    0    0 -0.37443855224E+02  0.72269598887E+01 -0.12226916395E+02  0.40047220775E+02  0.10566000000E+00 0. -1.
         23    2    1    0    0    0  0.11713247696E+02 -0.11926557497E+02 -0.25556386521E+02  0.94461960814E+02  0.89389541914E+02 0.  0.
         13    1    3    3    0    0  0.49157102919E+02 -0.19153517385E+02 -0.13329470126E+02  0.54414740039E+02  0.10566000000E+00 0.  1.
         22    1    1    0    0    0 -0.11713247696E+02  0.11926557497E+02  0.25556386521E+02  0.30538039186E+02  0.00000000000E+00 0.  1.
</event>
<event>
 5    1  0.1320187E-009  0.9118800E+02  0.7818608E-02  0.1130116E+00
         25   -1    0    0    0    0  0.00000000000E+00  0.00000000000E+00  0.99999998245E-14  0.12500000000E+03  0.12500000000E+03 0.  0.
        -13    1    3    3    0    0  0.44713979921E+02  0.27753292968E+02 -0.30264146234E+02  0.60708442430E+02  0.10566000000E+00 0. -1.
         23    2    1    0    0    0  0.14946442805E+02  0.16649824968E+02 -0.22186675931E+02  0.93490296528E+02  0.88020305226E+02 0.  0.
         13    1    3    3    0    0 -0.29767537116E+02 -0.11103468000E+02  0.80774703024E+01  0.32781854098E+02  0.10566000000E+00 0.  1.
         22    1    1    0    0    0 -0.14946442805E+02 -0.16649824968E+02  0.22186675931E+02  0.31509703472E+02  0.00000000000E+00 0. -1.
</event>
<event>
 5    1  0.1320187E-009  0.9118800E+02  0.7818608E-02  0.1130116E+00
         25   -1    0    0    0    0  0.00000000000E+00  0.00000000000E+00  0.99999998245E-14  0.12500000000E+03  0.12500000000E+03 0.  0.
        -13    1    3    3    0    0 -0.25109749985E+02 -0.26628809507E+02  0.38890886891E+02  0.53405105442E+02  0.10566000000E+00 0. -1.
         23    2    1    0    0    0 -0.27289303678E+02  0.22960751175E+01  0.65633081471E+01  0.96838766540E+02  0.92653611020E+02 0.  0.
         13    1    3    3    0    0 -0.21795536927E+01  0.28924884625E+02 -0.32327578744E+02  0.43433661098E+02  0.10566000000E+00 0.  1.
         22    1    1    0    0    0  0.27289303678E+02 -0.22960751175E+01 -0.65633081471E+01  0.28161233460E+02  0.00000000000E+00 0. -1.
</event>
<event>
 5    1  0.1320187E-009  0.9118800E+02  0.7818608E-02  0.1130116E+00
         25   -1    0    0    0    0  0.00000000000E+00  0.00000000000E+00  0.99999998245E-14  0.12500000000E+03  0.12500000000E+03 0.  0.
        -13    1    3    3    0    0  0.11257399290E+02  0.31267958711E+02  0.24039866013E+02  0.41016345555E+02  0.10566000000E+00 0.  1.
         23    2    1    0    0    0 -0.29357284123E+02  0.50917846275E+01 -0.47899927621E+00  0.95200573125E+02  0.90416498944E+02 0.  0.
         13    1    3    3    0    0 -0.40614683412E+02 -0.26176174083E+02 -0.24518865289E+02  0.54184227571E+02  0.10566000000E+00 0. -1.
         22    1    1    0    0    0  0.29357284123E+02 -0.50917846275E+01  0.47899927621E+00  0.29799426875E+02  0.00000000000E+00 0.  1.
</event>
<event>
 5    1  0.1320187E-009  0.9118800E+02  0.7818608E-02  0.1130116E+00
         25   -1    0    0    0    0  0.00000000000E+00  0.00000000000E+00  0.99999998245E-14  0.12500000000E+03  0.12500000000E+03 0.  0.
        -13    1    3    3    0    0 -0.40834726199E+02 -0.12536402578E+02  0.69659864245E+00  0.42721571448E+02  0.10566000000E+00 0. -1.
         23    2    1    0    0    0 -0.57529327802E+01  0.25451659711E+02 -0.12468529509E+02  0.96080327704E+02  0.91624679678E+02 0.  0.
         13    1    3    3    0    0  0.35081793418E+02  0.37988062289E+02 -0.13165128151E+02  0.53358756256E+02  0.10566000000E+00 0.  1.
         22    1    1    0    0    0  0.57529327802E+01 -0.25451659711E+02  0.12468529509E+02  0.28919672296E+02  0.00000000000E+00 0. -1.
</event>
<event>
 5    1  0.1320187E-009  0.9118800E+02  0.7818608E-02  0.1130116E+00
         25   -1    0    0    0    0  0.00000000000E+00  0.00000000000E+00  0.99999998245E-14  0.12500000000E+03  0.12500000000E+03 0.  0.
        -13    1    3    3    0    0 -0.35542769596E+01  0.42431980541E+02  0.85231906490E+01  0.43425358953E+02  0.10566000000E+00 0.  1.
         23    2    1    0    0    0  0.22419867937E+02  0.65909760117E+01 -0.18420391864E+02  0.95244289968E+02  0.90476916901E+02 0.  0.
         13    1    3    3    0    0  0.25974144896E+02 -0.35841004530E+02 -0.26943582514E+02  0.51818931014E+02  0.10566000000E+00 0. -1.
         22    1    1    0    0    0 -0.22419867937E+02 -0.65909760117E+01  0.18420391864E+02  0.29755710032E+02  0.00000000000E+00 0. -1.
</event>
<event>
 5    1  0.1320187E-009  0.9118800E+02  0.7818608E-02  0.1130116E+00
         25   -1    0    0    0    0  0.00000000000E+00  0.00000000000E+00  0.99999998245E-14  0.12500000000E+03  0.12500000000E+03 0.  0.
        -13    1    3    3    0    0 -0.29131852591E+02 -0.17844103701E+02 -0.13256039297E+01  0.34188379050E+02  0.10566000000E+00 0. -1.
         23    2    1    0    0    0  0.17299110878E+02  0.20106914181E+02  0.12420677210E+02  0.95711427870E+02  0.91120014089E+02 0.  0.
         13    1    3    3    0    0  0.46430963469E+02  0.37951017881E+02  0.13746281139E+02  0.61523048820E+02  0.10566000000E+00 0.  1.
         22    1    1    0    0    0 -0.17299110878E+02 -0.20106914181E+02 -0.12420677210E+02  0.29288572130E+02  0.00000000000E+00 0.  1.
</event>
<event>
 5    1  0.1320187E-009  0.9118800E+02  0.7818608E-02  0.1130116E+00
         25   -1    0    0    0    0  0.00000000000E+00  0.00000000000E+00  0.99999998245E-14  0.12500000000E+03  0.12500000000E+03 0.  0.
        -13    1    3    3    0    0  0.25123318847E+00  0.50507180863E+02  0.17394566897E+02  0.53419290134E+02  0.10566000000E+00 0.  1.
         23    2    1    0    0    0  0.21023924253E+02  0.14199959736E+02  0.15453033236E+02  0.95294100187E+02  0.90545706949E+02 0.  0.
         13    1    3    3    0    0  0.20772691064E+02 -0.36307221127E+02 -0.19415336605E+01  0.41874810053E+02  0.10566000000E+00 0. -1.
         22    1    1    0    0    0 -0.21023924253E+02 -0.14199959736E+02 -0.15453033236E+02  0.29705899813E+02  0.00000000000E+00 0.  1.
</event>
<event>
 5    1  0.1320187E-009  0.9118800E+02  0.7818608E-02  0.1130116E+00
         25   -1    0    0    0    0  0.00000000000E+00  0.00000000000E+00  0.99999998245E-14  0.12500000000E+03  0.12500000000E+03 0.  0.
        -13    1    3    3    0    0 -0.13953505714E+02 -0.15887713107E+02 -0.20267168385E+02  0.29289742708E+02  0.10566000000E+00 0. -1.
         23    2    1    0    0    0  0.16742341265E+02 -0.26210937429E+00  0.30245760198E+02  0.90428614400E+02  0.83559281950E+02 0.  0.
         13    1    3    3    0    0  0.30695846979E+02  0.15625603733E+02  0.50512928583E+02  0.61138871693E+02  0.10566000000E+00 0.  1.
         22    1    1    0    0    0 -0.16742341265E+02  0.26210937429E+00 -0.30245760198E+02  0.34571385600E+02  0.00000000000E+00 0.  1.
</event>
<event>
 5    1  0.1320187E-009  0.9118800E+02  0.7818608E-02  0.1130116E+00
         25   -1    0    0    0    0  0.00000000000E+00  0.00000000000E+00  0.99999998245E-14  0.12500000000E+03  0.12500000000E+03 0.  0.
        -13    1    3    3    0    0 -0.19722637069E+02 -0.46490281513E+02  0.27302090878E+02  0.57408570950E+02  0.10566000000E+00 0.  1.
         23    2    1    0    0    0  0.66789455189E+01 -0.27476571583E+02  0.66287982579E+01  0.95956734592E+02  0.91455910952E+02 0.  0.
         13    1    3    3    0    0  0.26401582588E+02  0.19013709930E+02 -0.20673292620E+02  0.38548163643E+02  0.10566000000E+00 0. -1.
         22    1    1    0    0    0 -0.66789455189E+01  0.27476571583E+02 -0.66287982579E+01  0.29043265408E+02  0.00000000000E+00 0.  1.
</event>
<event>
 5    1  0.1320187E-009  0.9118800E+02  0.7818608E-02  0.1130116E+00
         25   -1    0    0    0    0  0.00000000000E+00  0.00000000000E+00  0.99999998245E-14  0.12500000000E+03  0.12500000000E+03 0.  0.
        -13    1    3    3    0    0 -0.30384021077E+02  0.67306732247E+01 -0.25274240241E+02  0.40091009998E+02  0.10566000000E+00 0. -1.
         23    2    1    0    0    0  0.23708954855E+02 -0.79375295001E+01 -0.84504463752E+01  0.98608164921E+02  0.95010742710E+02 0.  0.
         13    1    3    3    0    0  0.54092975931E+02 -0.14668202725E+02  0.16823793866E+02  0.58517154924E+02  0.10566000000E+00 0.  1.
         22    1    1    0    0    0 -0.23708954855E+02  0.79375295001E+01  0.84504463752E+01  0.26391835079E+02  0.00000000000E+00 0.  1.
</event>
<event>
 5    1  0.1320187E-009  0.9118800E+02  0.7818608E-02  0.1130116E+00
         25   -1    0    0    0    0  0.00000000000E+00  0.00000000000E+00  0.99999998245E-14  0.12500000000E+03  0.12500000000E+03 0.  0.
        -13    1    3    3    0    0  0.28971580909E+01 -0.46073389653E+01  0.57749471210E+02  0.58005462557E+02  0.10566000000E+00 0.  1.
         23    2    1    0    0    0  0.14914223976E+02 -0.11537773753E+02  0.24118242431E+02  0.94385560303E+02  0.89282641514E+02 0.  0.
         13    1    3    3    0    0  0.12017065885E+02 -0.69304347880E+01 -0.33631228779E+02  0.36380097746E+02  0.10566000000E+00 0. -1.
         22    1    1    0    0    0 -0.14914223976E+02  0.11537773753E+02 -0.24118242431E+02  0.30614439697E+02  0.00000000000E+00 0.  1.
</event>
<event>
 5    1  0.1320187E-009  0.9118800E+02  0.7818608E-02  0.1130116E+00
         25   -1    0    0    0    0  0.00000000000E+00  0.00000000000E+00  0.99999998245E-14  0.12500000000E+03  0.12500000000E+03 0.  0.
        -13    1    3    3    0    0 -0.37148611065E+02  0.19891441611E+01 -0.27559061182E+02  0.46297829493E+02  0.10566000000E+00 0.  1.
         23    2    1    0    0    0  0.11907324317E+01  0.27539604567E+02 -0.12105648650E+02  0.94893615417E+02  0.89991132087E+02 0.  0.
         13    1    3    3    0    0  0.38339343496E+02  0.25550460405E+02  0.15453412531E+02  0.48595785924E+02  0.10566000000E+00 0. -1.
         22    1    1    0    0    0 -0.11907324317E+01 -0.27539604567E+02  0.12105648650E+02  0.30106384583E+02  0.00000000000E+00 0.  1.
</event>
<event>
 5    1  0.1320187E-009  0.9118800E+02  0.7818608E-02  0.1130116E+00
         25   -1    0    0    0    0  0.00000000000E+00  0.00000000000E+00  0.99999998245E-14  0.12500000000E+03  0.12500000000E+03 0.  0.
        -13    1    3    3    0    0  0.19573236045E+02  0.28970377990E+02 -0.17628715208E+02  0.39155805880E+02  0.10566000000E+00 0.  1.
         23    2    1    0    0    0  0.16644964763E+02 -0.12376424016E+02  0.20761077359E+02  0.95652886744E+02  0.91039670946E+02 0.  0.
         13    1    3    3    0    0 -0.29282712815E+01 -0.41346802006E+02  0.38389792567E+02  0.56497080864E+02  0.10566000000E+00 0. -1.
         22    1    1    0    0    0 -0.16644964763E+02  0.12376424016E+02 -0.20761077359E+02  0.29347113256E+02  0.00000000000E+00 0. -1.
</event>
<event>
 5    1  0.1320187E-009  0.9118800E+02  0.7818608E-02  0.1130116E+00
         25   -1    0    0    0    0  0.00000000000E+00  0.00000000000E+00  0.99999998245E-14  0.12500000000E+03  0.12500000000E+03 0.  0.
        -13    1    3    3    0    0  0.33897306234E+02  0.25642149593E+02  0.98481205700E+01  0.43629621228E+02  0.10566000000E+00 0. -1.
         23    2    1    0    0    0  0.21320856596E+02 -0.13825470333E+02 -0.18277166704E+02  0.93698604206E+02  0.88315633109E+02 0.  0.
         13    1    3    3    0    0 -0.12576449638E+02 -0.39467619926E+02 -0.28125287274E+02  0.50068982978E+02  0.10566000000E+00 0.  1.
         22    1    1    0    0    0 -0.21320856596E+02  0.13825470333E+02  0.18277166704E+02  0.31301395794E+02  0.00000000000E+00 0.  1.
</event>
<event>
 5    1  0.1320187E-009  0.9118800E+02  0.7818608E-02  0.1130116E+00
         25   -1    0    0    0    0  0.00000000000E+00  0.00000000000E+00  0.99999998245E-14  0.12500000000E+03  0.12500000000E+03 0.  0.
        -13    1    3    3    0    0  0.53621850020E+02 -0.20810987102E+02  0.12620777691E+02  0.58887139320E+02  0.10566000000E+00 0.  1.
         23    2    1    0    0    0  0.21828752913E+02 -0.24357726839E+02  0.89655651005E+01  0.91085774842E+02  0.84536641230E+02 0.  0.
         13    1    3    3    0    0 -0.31793097107E+02 -0.35467397368E+01 -0.36552125903E+01  0.32198635522E+02  0.10566000000E+00 0. -1.
         22    1    1    0    0    0 -0.21828752913E+02  0.24357726839E+02 -0.89655651005E+01  0.33914225158E+02  0.00000000000E+00 0.  1.
</event>
<event>
 5    1  0.1320187E-009  0.9118800E+02  0.7818608E-02  0.1130116E+00
         25   -1    0    0    0    0  0.00000000000E+00  0.00000000000E+00  0.99999998245E-14  0.12500000000E+03  0.12500000000E+03 0.  0.
        -13    1    3    3    0    0 -0.61625723605E+01 -0.42039181447E+02  0.23785166898E+02  0.48693073462E+02  0.10566000000E+00 0.  1.
         23    2    1    0    0    0  0.61594198730E+01  0.24094810923E+01  0.29131619478E+02  0.95127013779E+02  0.90314746552E+02 0.  0.
         13    1    3    3    0    0  0.12321992233E+02  0.44448662539E+02  0.53464525805E+01  0.46433940317E+02  0.10566000000E+00 0. -1.
         22    1    1    0    0    0 -0.61594198730E+01 -0.24094810923E+01 -0.29131619478E+02  0.29872986221E+02  0.00000000000E+00 0.  1.
</event>
<event>
 5    1  0.1320187E-009  0.9118800E+02  0.7818608E-02  0.1130116E+00
         25   -1    0    0    0    0  0.00000000000E+00  0.00000000000E+00  0.99999998245E-14  0.12500000000E+03  0.12500000000E+03 0.  0.
        -13    1    3    3    0    0 -0.34135254377E+02 -0.43787886200E+02 -0.17007978110E+02  0.58067865922E+02  0.10566000000E+00 0.  1.
         23    2    1    0    0    0 -0.11828231523E+02 -0.27413167949E+02  0.65780190405E+01  0.94427803931E+02  0.89341765053E+02 0.  0.
         13    1    3    3    0    0  0.22307022854E+02  0.16374718251E+02  0.23585997151E+02  0.36359938010E+02  0.10566000000E+00 0. -1.
         22    1    1    0    0    0  0.11828231523E+02  0.27413167949E+02 -0.65780190405E+01  0.30572196069E+02  0.00000000000E+00 0.  1.
</event>
<event>
 5    1  0.1320187E-009  0.9118800E+02  0.7818608E-02  0.1130116E+00
         25   -1    0    0    0    0  0.00000000000E+00  0.00000000000E+00  0.99999998245E-14  0.12500000000E+03  0.12500000000E+03 0.  0.
        -13    1    3    3    0    0  0.22520967689E+02 -0.35310004912E+02 -0.58740065365E+01  0.42290726517E+02  0.10566000000E+00 0.  1.
         23    2    1    0    0    0 -0.10408848778E+02  0.16701831059E+02  0.47362943645E+01  0.10475826643E+03  0.10278407760E+03 0.  0.
         13    1    3    3    0    0 -0.32929816467E+02  0.52011835971E+02  0.10610300901E+02  0.62467539913E+02  0.10566000000E+00 0. -1.
         22    1    1    0    0    0  0.10408848778E+02 -0.16701831059E+02 -0.47362943645E+01  0.20241733570E+02  0.00000000000E+00 0. -1.
</event>
<event>
 5    1  0.1320187E-009  0.9118800E+02  0.7818608E-02  0.1130116E+00
         25   -1    0    0    0    0  0.00000000000E+00  0.00000000000E+00  0.99999998245E-14  0.12500000000E+03  0.12500000000E+03 0.  0.
        -13    1    3    3    0    0  0.77088940079E+01  0.37029173081E+02 -0.21792017340E+01  0.37885970888E+02  0.10566000000E+00 0. -1.
         23    2    1    0    0    0 -0.26650205800E+02 -0.85508778451E+01 -0.95221915222E+01  0.95436118109E+02  0.90741553475E+02 0.  0.
         13    1    3    3    0    0 -0.34359099808E+02 -0.45580050926E+02 -0.73429897881E+01  0.57550147221E+02  0.10566000000E+00 0.  1.
         22    1    1    0    0    0  0.26650205800E+02  0.85508778451E+01  0.95221915222E+01  0.29563881891E+02  0.00000000000E+00 0.  1.
</event>
<event>
 5    1  0.1320187E-009  0.9118800E+02  0.7818608E-02  0.1130116E+00
         25   -1    0    0    0    0  0.00000000000E+00  0.00000000000E+00  0.99999998245E-14  0.12500000000E+03  0.12500000000E+03 0.  0.
        -13    1    3    3    0    0 -0.26639956813E+02  0.27573659894E+02  0.38817709556E+01  0.38536649163E+02  0.10566000000E+00 0. -1.
         23    2    1    0    0    0  0.15172129118E+02 -0.51933423916E+01  0.24665599537E+02  0.95579665065E+02  0.90939079973E+02 0.  0.
         13    1    3    3    0    0  0.41812085931E+02 -0.32767002286E+02  0.20783828581E+02  0.57043015902E+02  0.10566000000E+00 0.  1.
         22    1    1    0    0    0 -0.15172129118E+02  0.51933423916E+01 -0.24665599537E+02  0.29420334935E+02  0.00000000000E+00 0.  1.
</event>
<event>
 5    1  0.1320187E-009  0.9118800E+02  0.7818608E-02  0.1130116E+00
         25   -1    0    0    0    0  0.00000000000E+00  0.00000000000E+00  0.99999998245E-14  0.12500000000E+03  0.12500000000E+03 0.  0.
        -13    1    3    3    0    0  0.12895260915E+02 -0.20542143931E+02 -0.30789109669E+02  0.39194998017E+02  0.10566000000E+00 0.  1.
         23    2    1    0    0    0 -0.85918029946E+01 -0.21395875255E+02  0.20081675435E+02  0.94424253976E+02  0.89336798096E+02 0.  0.
         13    1    3    3    0    0 -0.21487063910E+02 -0.85373132448E+00  0.50870785104E+02  0.55229255959E+02  0.10566000000E+00 0. -1.
         22    1    1    0    0    0  0.85918029946E+01  0.21395875255E+02 -0.20081675435E+02  0.30575746024E+02  0.00000000000E+00 0. -1.
</event>
<event>
 5    1  0.1320187E-009  0.9118800E+02  0.7818608E-02  0.1130116E+00
         25   -1    0    0    0    0  0.00000000000E+00  0.00000000000E+00  0.99999998245E-14  0.12500000000E+03  0.12500000000E+03 0.  0.
        -13    1    3    3    0    0 -0.14379094828E+02 -0.32458278644E+02 -0.28011104229E+02  0.45220917116E+02  0.10566000000E+00 0. -1.
         23    2    1    0    0    0 -0.40937305214E+01  0.16460772681E+02 -0.24324452607E+02  0.95345410786E+02  0.90616514479E+02 0.  0.
         13    1    3    3    0    0  0.10285364307E+02  0.48919051325E+02  0.36866516213E+01  0.50124493670E+02  0.10566000000E+00 0.  1.
         22    1    1    0    0    0  0.40937305214E+01 -0.16460772681E+02  0.24324452607E+02  0.29654589214E+02  0.00000000000E+00 0.  1.
</event>
<event>
 5    1  0.1320187E-009  0.9118800E+02  0.7818608E-02  0.1130116E+00
         25   -1    0    0    0    0  0.00000000000E+00  0.00000000000E+00  0.99999998245E-14  0.12500000000E+03  0.12500000000E+03 0.  0.
        -13    1    3    3    0    0  0.20853708215E+02  0.41416335387E+02  0.12450444407E+02  0.48012651594E+02  0.10566000000E+00 0.  1.
         23    2    1    0    0    0 -0.17943520071E+02  0.19259871363E+02 -0.84718081458E+01  0.97347078080E+02  0.93336860457E+02 0.  0.
         13    1    3    3    0    0 -0.38797228286E+02 -0.22156464024E+02 -0.20922252553E+02  0.49334426485E+02  0.10566000000E+00 0. -1.
         22    1    1    0    0    0  0.17943520071E+02 -0.19259871363E+02  0.84718081458E+01  0.27652921920E+02  0.00000000000E+00 0.  1.
</event>
<event>
 5    1  0.1320187E-009  0.9118800E+02  0.7818608E-02  0.1130116E+00
         25   -1    0    0    0    0  0.00000000000E+00  0.00000000000E+00  0.99999998245E-14  0.12500000000E+03  0.12500000000E+03 0.  0.
        -13    1    3    3    0    0  0.18024794690E+02  0.27301185616E+02  0.13691016931E+02  0.35464109580E+02  0.10566000000E+00 0.  1.
         23    2    1    0    0    0 -0.26423761582E+02 -0.26232419916E+01 -0.13121462471E+02  0.95381266872E+02  0.90665962291E+02 0.  0.
         13    1    3    3    0    0 -0.44448556273E+02 -0.29924427607E+02 -0.26812479402E+02  0.59917157293E+02  0.10566000000E+00 0. -1.
         22    1    1    0    0    0  0.26423761582E+02  0.26232419916E+01  0.13121462471E+02  0.29618733128E+02  0.00000000000E+00 0. -1.
</event>
<event>
 5    1  0.1320187E-009  0.9118800E+02  0.7818608E-02  0.1130116E+00
         25   -1    0    0    0    0  0.00000000000E+00  0.00000000000E+00  0.99999998245E-14  0.12500000000E+03  0.12500000000E+03 0.  0.
        -13    1    3    3    0    0  0.34733945101E+02 -0.19773361362E+02  0.37644821538E+02  0.54905159271E+02  0.10566000000E+00 0. -1.
         23    2    1    0    0    0  0.28124480245E+02 -0.12522751276E+02 -0.41644998188E+00  0.94210730455E+02  0.89037534859E+02 0.  0.
         13    1    3    3    0    0 -0.66094648567E+01  0.72506100864E+01 -0.38061271520E+02  0.39305571184E+02  0.10566000000E+00 0.  1.
         22    1    1    0    0    0 -0.28124480245E+02  0.12522751276E+02  0.41644998188E+00  0.30789269545E+02  0.00000000000E+00 0. -1.
</event>
<event>
 5    1  0.1320187E-009  0.9118800E+02  0.7818608E-02  0.1130116E+00
         25   -1    0    0    0    0  0.00000000000E+00  0.00000000000E+00  0.99999998245E-14  0.12500000000E+03  0.12500000000E+03 0.  0.
        -13    1    3    3    0    0  0.11141160025E+02  0.14574400500E+02 -0.48145728707E+02  0.51522431555E+02  0.10566000000E+00 0. -1.
         23    2    1    0    0    0  0.13811242781E+01  0.32879861832E+02 -0.38355117405E+02  0.74461817904E+02  0.54685048012E+02 0.  0.
         13    1    3    3    0    0 -0.97600357465E+01  0.18305461332E+02  0.97906113020E+01  0.22939386349E+02  0.10566000000E+00 0.  1.
         22    1    1    0    0    0 -0.13811242781E+01 -0.32879861832E+02  0.38355117405E+02  0.50538182096E+02  0.00000000000E+00 0. -1.
</event>
<event>
 5    1  0.1320187E-009  0.9118800E+02  0.7818608E-02  0.1130116E+00
         25   -1    0    0    0    0  0.00000000000E+00  0.00000000000E+00  0.99999998245E-14  0.12500000000E+03  0.12500000000E+03 0.  0.
        -13    1    3    3    0    0 -0.14667546236E+02  0.32990614465E+02  0.18044854351E+02  0.40362674440E+02  0.10566000000E+00 0. -1.
         23    2    1    0    0    0 -0.12972116066E+02 -0.18144627270E+02 -0.11976032137E+02  0.99683431517E+02  0.96415029323E+02 0.  0.
         13    1    3    3    0    0  0.16954301694E+01 -0.51135241735E+02 -0.30020886488E+02  0.59320757078E+02  0.10566000000E+00 0.  1.
         22    1    1    0    0    0  0.12972116066E+02  0.18144627270E+02  0.11976032137E+02  0.25316568483E+02  0.00000000000E+00 0.  1.
</event>
<event>
 5    1  0.1320187E-009  0.9118800E+02  0.7818608E-02  0.1130116E+00
         25   -1    0    0    0    0  0.00000000000E+00  0.00000000000E+00  0.99999998245E-14  0.12500000000E+03  0.12500000000E+03 0.  0.
        -13    1    3    3    0    0  0.16335379316E+02 -0.32092973712E+02  0.21878501600E+02  0.42136487459E+02  0.10566000000E+00 0.  1.
         23    2    1    0    0    0  0.25658701570E+02  0.12043288435E+02 -0.71345572352E+01  0.95771389538E+02  0.91202233441E+02 0.  0.
         13    1    3    3    0    0  0.93233222532E+01  0.44136262147E+02 -0.29013058835E+02  0.53634902080E+02  0.10566000000E+00 0. -1.
         22    1    1    0    0    0 -0.25658701570E+02 -0.12043288435E+02  0.71345572352E+01  0.29228610462E+02  0.00000000000E+00 0. -1.
</event>
<event>
 5    1  0.1320187E-009  0.9118800E+02  0.7818608E-02  0.1130116E+00
         25   -1    0    0    0    0  0.00000000000E+00  0.00000000000E+00  0.99999998245E-14  0.12500000000E+03  0.12500000000E+03 0.  0.
        -13    1    3    3    0    0 -0.65617457031E+01  0.12570815357E+02 -0.32830865901E+02  0.35762533820E+02  0.10566000000E+00 0. -1.
         23    2    1    0    0    0  0.21005145168E+02  0.11184603644E+01  0.19698674871E+02  0.96181518625E+02  0.91762626686E+02 0.  0.
         13    1    3    3    0    0  0.27566890871E+02 -0.11452354992E+02  0.52529540771E+02  0.60418984805E+02  0.10566000000E+00 0.  1.
         22    1    1    0    0    0 -0.21005145168E+02 -0.11184603644E+01 -0.19698674871E+02  0.28818481375E+02  0.00000000000E+00 0.  1.
</event>
<event>
 5    1  0.1320187E-009  0.9118800E+02  0.7818608E-02  0.1130116E+00
         25   -1    0    0    0    0  0.00000000000E+00  0.00000000000E+00  0.99999998245E-14  0.12500000000E+03  0.12500000000E+03 0.  0.
        -13    1    3    3    0    0 -0.64136454758E+01  0.39251562710E+02  0.23512524467E+02  0.46202489049E+02  0.10566000000E+00 0.  1.
         23    2    1    0    0    0  0.13861296260E+02  0.12414647765E+02 -0.17645447547E+02  0.99355881137E+02  0.95989427982E+02 0.  0.
         13    1    3    3    0    0  0.20274941736E+02 -0.26836914945E+02 -0.41157972013E+02  0.53153392088E+02  0.10566000000E+00 0. -1.
         22    1    1    0    0    0 -0.13861296260E+02 -0.12414647765E+02  0.17645447547E+02  0.25644118863E+02  0.00000000000E+00 0. -1.
</event>
<event>
 5    1  0.1320187E-009  0.9118800E+02  0.7818608E-02  0.1130116E+00
         25   -1    0    0    0    0  0.00000000000E+00  0.00000000000E+00  0.99999998245E-14  0.12500000000E+03  0.12500000000E+03 0.  0.
        -13    1    3    3    0    0 -0.13615808542E+02  0.15935220973E+02  0.26142398147E+02  0.33507576077E+02  0.10566000000E+00 0. -1.
         23    2    1    0    0    0  0.32371925624E+01 -0.11153702980E+02 -0.27065851998E+02  0.95547583287E+02  0.90894971378E+02 0.  0.
         13    1    3    3    0    0  0.16853001104E+02 -0.27088923953E+02 -0.53208250144E+02  0.62040007210E+02  0.10566000000E+00 0.  1.
         22    1    1    0    0    0 -0.32371925624E+01  0.11153702980E+02  0.27065851998E+02  0.29452416713E+02  0.00000000000E+00 0.  1.
</event>
<event>
 5    1  0.1320187E-009  0.9118800E+02  0.7818608E-02  0.1130116E+00
         25   -1    0    0    0    0  0.00000000000E+00  0.00000000000E+00  0.99999998245E-14  0.12500000000E+03  0.12500000000E+03 0.  0.
        -13    1    3    3    0    0 -0.10675761409E+02 -0.31218735197E+02  0.26770422944E+02  0.42488210336E+02  0.10566000000E+00 0.  1.
         23    2    1    0    0    0 -0.28826587393E+01  0.22272279954E+02  0.15516262286E+02  0.97703139905E+02  0.93812499040E+02 0.  0.
         13    1    3    3    0    0  0.77931026696E+01  0.53491015151E+02 -0.11254160659E+02  0.55214929568E+02  0.10566000000E+00 0. -1.
         22    1    1    0    0    0  0.28826587393E+01 -0.22272279954E+02 -0.15516262286E+02  0.27296860095E+02  0.00000000000E+00 0. -1.
</event>
<event>
 5    1  0.1320187E-009  0.9118800E+02  0.7818608E-02  0.1130116E+00
         25   -1    0    0    0    0  0.00000000000E+00  0.00000000000E+00  0.99999998245E-14  0.12500000000E+03  0.12500000000E+03 0.  0.
        -13    1    3    3    0    0 -0.19194642849E+02 -0.45687428151E+02  0.25569206595E+02  0.55763526566E+02  0.10566000000E+00 0.  1.
         23    2    1    0    0    0  0.12935404682E+02 -0.15167691402E+02  0.62275620643E+01  0.10411541032E+03  0.10199927735E+03 0.  0.
         13    1    3    3    0    0  0.32130047531E+02  0.30519736749E+02 -0.19341644531E+02  0.48351883756E+02  0.10566000000E+00 0. -1.
         22    1    1    0    0    0 -0.12935404682E+02  0.15167691402E+02 -0.62275620643E+01  0.20884589678E+02  0.00000000000E+00 0.  1.
</event>
<event>
 5    1  0.1320187E-009  0.9118800E+02  0.7818608E-02  0.1130116E+00
         25   -1    0    0    0    0  0.00000000000E+00  0.00000000000E+00  0.99999998245E-14  0.12500000000E+03  0.12500000000E+03 0.  0.
        -13    1    3    3    0    0  0.47255165846E+01 -0.98906884212E+01 -0.61226538228E+02  0.62200131607E+02  0.10566000000E+00 0.  1.
         23    2    1    0    0    0 -0.52340897621E-02 -0.11443919993E+01 -0.30135780716E+02  0.94842497785E+02  0.89920100347E+02 0.  0.
         13    1    3    3    0    0 -0.47307506744E+01  0.87462964219E+01  0.31090757512E+02  0.32642366179E+02  0.10566000000E+00 0. -1.
         22    1    1    0    0    0  0.52340897621E-02  0.11443919993E+01  0.30135780716E+02  0.30157502215E+02  0.00000000000E+00 0.  1.
</event>
<event>
 5    1  0.1320187E-009  0.9118800E+02  0.7818608E-02  0.1130116E+00
         25   -1    0    0    0    0  0.00000000000E+00  0.00000000000E+00  0.99999998245E-14  0.12500000000E+03  0.12500000000E+03 0.  0.
        -13    1    3    3    0    0 -0.38289941088E+02 -0.88772373746E+01  0.30894490727E+01  0.39426904412E+02  0.10566000000E+00 0.  1.
         23    2    1    0    0    0  0.20779854647E+02 -0.13923296925E+02  0.75298556443E+01  0.98877992373E+02  0.95365077955E+02 0.  0.
         13    1    3    3    0    0  0.59069795735E+02 -0.50460595509E+01  0.44404065717E+01  0.59451087961E+02  0.10566000000E+00 0. -1.
         22    1    1    0    0    0 -0.20779854647E+02  0.13923296925E+02 -0.75298556443E+01  0.26122007627E+02  0.00000000000E+00 0. -1.
</event>
<event>
 5    1  0.1320187E-009  0.9118800E+02  0.7818608E-02  0.1130116E+00
         25   -1    0    0    0    0  0.00000000000E+00  0.00000000000E+00  0.99999998245E-14  0.12500000000E+03  0.12500000000E+03 0.  0.
        -13    1    3    3    0    0  0.46546124384E+02 -0.37148808575E+01  0.16186637952E+02  0.49420243294E+02  0.10566000000E+00 0. -1.
         23    2    1    0    0    0  0.50616553364E+01  0.19368410744E+02  0.19556575167E+02  0.97014015620E+02  0.92889740580E+02 0.  0.
         13    1    3    3    0    0 -0.41484469048E+02  0.23083291601E+02  0.33699372142E+01  0.47593772326E+02  0.10566000000E+00 0.  1.
         22    1    1    0    0    0 -0.50616553364E+01 -0.19368410744E+02 -0.19556575167E+02  0.27985984380E+02  0.00000000000E+00 0. -1.
</event>
<event>
 5    1  0.1320187E-009  0.9118800E+02  0.7818608E-02  0.1130116E+00
         25   -1    0    0    0    0  0.00000000000E+00  0.00000000000E+00  0.99999998245E-14  0.12500000000E+03  0.12500000000E+03 0.  0.
        -13    1    3    3    0    0  0.49912874767E+01  0.25960610649E+02 -0.17571448511E+02  0.31743239009E+02  0.10566000000E+00 0.  1.
         23    2    1    0    0    0 -0.13577364257E+02 -0.88016176693E+01  0.28411292231E+02  0.92304207916E+02  0.86319476244E+02 0.  0.
         13    1    3    3    0    0 -0.18568651734E+02 -0.34762228318E+02  0.45982740742E+02  0.60560968908E+02  0.10566000000E+00 0. -1.
         22    1    1    0    0    0  0.13577364257E+02  0.88016176693E+01 -0.28411292231E+02  0.32695792084E+02  0.00000000000E+00 0. -1.
</event>
<event>
 5    1  0.1320187E-009  0.9118800E+02  0.7818608E-02  0.1130116E+00
         25   -1    0    0    0    0  0.00000000000E+00  0.00000000000E+00  0.99999998245E-14  0.12500000000E+03  0.12500000000E+03 0.  0.
        -13    1    3    3    0    0 -0.27626574385E+01  0.15583314928E+00 -0.53684226596E+02  0.53755594215E+02  0.10566000000E+00 0.  1.
         23    2    1    0    0    0  0.10929845210E+02 -0.10683253121E+02 -0.52793012360E+00  0.10970712180E+03  0.10863599978E+03 0.  0.
         13    1    3    3    0    0  0.13692502648E+02 -0.10839086270E+02  0.53156296473E+02  0.55951527581E+02  0.10566000000E+00 0. -1.
         22    1    1    0    0    0 -0.10929845210E+02  0.10683253121E+02  0.52793012360E+00  0.15292878204E+02  0.00000000000E+00 0. -1.
</event>
<event>
 5    1  0.1320187E-009  0.9118800E+02  0.7818608E-02  0.1130116E+00
         25   -1    0    0    0    0  0.00000000000E+00  0.00000000000E+00  0.99999998245E-14  0.12500000000E+03  0.12500000000E+03 0.  0.
        -13    1    3    3    0    0  0.38914647240E+01 -0.94244672893E+01 -0.61402710121E+02  0.62243618594E+02  0.10566000000E+00 0.  1.
         23    2    1    0    0    0  0.55046946130E+01 -0.53244747705E+01 -0.26755561041E+02  0.97169948958E+02  0.93099340705E+02 0.  0.
         13    1    3    3    0    0  0.16132298890E+01  0.40999925187E+01  0.34647149080E+02  0.34926330365E+02  0.10566000000E+00 0. -1.
         22    1    1    0    0    0 -0.55046946130E+01  0.53244747705E+01  0.26755561041E+02  0.27830051042E+02  0.00000000000E+00 0.  1.
</event>
<event>
 5    1  0.1320187E-009  0.9118800E+02  0.7818608E-02  0.1130116E+00
         25   -1    0    0    0    0  0.00000000000E+00  0.00000000000E+00  0.99999998245E-14  0.12500000000E+03  0.12500000000E+03 0.  0.
        -13    1    3    3    0    0  0.41890196347E+02  0.19785866714E+02 -0.26671944944E+02  0.53457206088E+02  0.10566000000E+00 0.  1.
         23    2    1    0    0    0  0.18371426296E+02 -0.15089649198E+02 -0.14093949343E+02  0.97362231907E+02  0.93357152789E+02 0.  0.
         13    1    3    3    0    0 -0.23518770051E+02 -0.34875515912E+02  0.12577995600E+02  0.43905025819E+02  0.10566000000E+00 0. -1.
         22    1    1    0    0    0 -0.18371426296E+02  0.15089649198E+02  0.14093949343E+02  0.27637768093E+02  0.00000000000E+00 0.  1.
</event>
<event>
 5    1  0.1320187E-009  0.9118800E+02  0.7818608E-02  0.1130116E+00
         25   -1    0    0    0    0  0.00000000000E+00  0.00000000000E+00  0.99999998245E-14  0.12500000000E+03  0.12500000000E+03 0.  0.
        -13    1    3    3    0    0 -0.10597675171E+01 -0.10163572526E+02 -0.34078484528E+02  0.35577740027E+02  0.10566000000E+00 0.  1.
         23    2    1    0    0    0  0.14745837533E+02  0.19763549541E+02  0.15696786245E+02  0.95769421602E+02  0.91199536186E+02 0.  0.
         13    1    3    3    0    0  0.15805605050E+02  0.29927122067E+02  0.49775270773E+02  0.60191681575E+02  0.10566000000E+00 0. -1.
         22    1    1    0    0    0 -0.14745837533E+02 -0.19763549541E+02 -0.15696786245E+02  0.29230578398E+02  0.00000000000E+00 0. -1.
</event>
<event>
 5    1  0.1320187E-009  0.9118800E+02  0.7818608E-02  0.1130116E+00
         25   -1    0    0    0    0  0.00000000000E+00  0.00000000000E+00  0.99999998245E-14  0.12500000000E+03  0.12500000000E+03 0.  0.
        -13    1    3    3    0    0 -0.17118558946E+02  0.25160886946E+02 -0.12917762927E+02  0.33060475728E+02  0.10566000000E+00 0.  1.
         23    2    1    0    0    0  0.15192985535E+02 -0.20769151918E+02  0.14402700040E+02  0.95510641762E+02  0.90844154685E+02 0.  0.
         13    1    3    3    0    0  0.32311544481E+02 -0.45930038864E+02  0.27320462967E+02  0.62450166033E+02  0.10566000000E+00 0. -1.
         22    1    1    0    0    0 -0.15192985535E+02  0.20769151918E+02 -0.14402700040E+02  0.29489358238E+02  0.00000000000E+00 0. -1.
</event>
<event>
 5    1  0.1320187E-009  0.9118800E+02  0.7818608E-02  0.1130116E+00
         25   -1    0    0    0    0  0.00000000000E+00  0.00000000000E+00  0.99999998245E-14  0.12500000000E+03  0.12500000000E+03 0.  0.
        -13    1    3    3    0    0 -0.52886360268E+01  0.55475051206E+02  0.27717316493E+02  0.62239149858E+02  0.10566000000E+00 0.  1.
         23    2    1    0    0    0 -0.70221999874E+00  0.27636297754E+02  0.97636623924E+01  0.95681282944E+02  0.91078651373E+02 0.  0.
         13    1    3    3    0    0  0.45864160281E+01 -0.27838753452E+02 -0.17953654101E+02  0.33442133086E+02  0.10566000000E+00 0. -1.
         22    1    1    0    0    0  0.70221999874E+00 -0.27636297754E+02 -0.97636623924E+01  0.29318717056E+02  0.00000000000E+00 0.  1.
</event>
<event>
 5    1  0.1320187E-009  0.9118800E+02  0.7818608E-02  0.1130116E+00
         25   -1    0    0    0    0  0.00000000000E+00  0.00000000000E+00  0.99999998245E-14  0.12500000000E+03  0.12500000000E+03 0.  0.
        -13    1    3    3    0    0 -0.26207016155E+02  0.30223623129E+02 -0.30785550802E+02  0.50478078341E+02  0.10566000000E+00 0.  1.
         23    2    1    0    0    0  0.92518505630E+01  0.27778977455E+02 -0.30495915532E+01  0.95562467224E+02  0.90915437666E+02 0.  0.
         13    1    3    3    0    0  0.35458866718E+02 -0.24446456736E+01  0.27735959249E+02  0.45084388882E+02  0.10566000000E+00 0. -1.
         22    1    1    0    0    0 -0.92518505630E+01 -0.27778977455E+02  0.30495915532E+01  0.29437532776E+02  0.00000000000E+00 0.  1.
</event>
<event>
 5    1  0.1320187E-009  0.9118800E+02  0.7818608E-02  0.1130116E+00
         25   -1    0    0    0    0  0.00000000000E+00  0.00000000000E+00  0.99999998245E-14  0.12500000000E+03  0.12500000000E+03 0.  0.
        -13    1    3    3    0    0 -0.62472331435E+01 -0.21535166727E+02 -0.38972110035E+02  0.44962516083E+02  0.10566000000E+00 0.  1.
         23    2    1    0    0    0 -0.14313456557E+02 -0.22860406250E+02  0.11199297760E+02  0.95795591380E+02  0.91235397982E+02 0.  0.
         13    1    3    3    0    0 -0.80662234133E+01 -0.13252395230E+01  0.50171407795E+02  0.50833075297E+02  0.10566000000E+00 0. -1.
         22    1    1    0    0    0  0.14313456557E+02  0.22860406250E+02 -0.11199297760E+02  0.29204408620E+02  0.00000000000E+00 0. -1.
</event>
<event>
 5    1  0.1320187E-009  0.9118800E+02  0.7818608E-02  0.1130116E+00
         25   -1    0    0    0    0  0.00000000000E+00  0.00000000000E+00  0.99999998245E-14  0.12500000000E+03  0.12500000000E+03 0.  0.
        -13    1    3    3    0    0  0.20413285186E+02  0.28058906400E+02  0.16438387804E+02  0.38395783597E+02  0.10566000000E+00 0. -1.
         23    2    1    0    0    0 -0.22105223728E+02 -0.12044822788E+02  0.12278517366E+02  0.96991418087E+02  0.92859326519E+02 0.  0.
         13    1    3    3    0    0 -0.42518508914E+02 -0.40103729188E+02 -0.41598704375E+01  0.58595634489E+02  0.10566000000E+00 0.  1.
         22    1    1    0    0    0  0.22105223728E+02  0.12044822788E+02 -0.12278517366E+02  0.28008581913E+02  0.00000000000E+00 0.  1.
</event>
<event>
 5    1  0.1320187E-009  0.9118800E+02  0.7818608E-02  0.1130116E+00
         25   -1    0    0    0    0  0.00000000000E+00  0.00000000000E+00  0.99999998245E-14  0.12500000000E+03  0.12500000000E+03 0.  0.
        -13    1    3    3    0    0  0.55356299380E+02  0.19425048434E+02  0.11036498989E+02  0.59694789234E+02  0.10566000000E+00 0.  1.
         23    2    1    0    0    0  0.22081484092E+02  0.76487889439E+01  0.17787290828E+02  0.95631928442E+02  0.91010890066E+02 0.  0.
         13    1    3    3    0    0 -0.33274815288E+02 -0.11776259490E+02  0.67507918387E+01  0.35937139209E+02  0.10566000000E+00 0. -1.
         22    1    1    0    0    0 -0.22081484092E+02 -0.76487889439E+01 -0.17787290828E+02  0.29368071558E+02  0.00000000000E+00 0.  1.
</event>
<event>
 5    1  0.1320187E-009  0.9118800E+02  0.7818608E-02  0.1130116E+00
         25   -1    0    0    0    0  0.00000000000E+00  0.00000000000E+00  0.99999998245E-14  0.12500000000E+03  0.12500000000E+03 0.  0.
        -13    1    3    3    0    0 -0.29233376677E+02  0.26662212352E+02  0.59727057970E+00  0.39570592308E+02  0.10566000000E+00 0.  1.
         23    2    1    0    0    0 -0.27662655922E+01 -0.16264453440E+02 -0.24155475336E+02  0.95748134081E+02  0.91170354393E+02 0.  0.
         13    1    3    3    0    0  0.26467111085E+02 -0.42926665792E+02 -0.24752745916E+02  0.56177541773E+02  0.10566000000E+00 0. -1.
         22    1    1    0    0    0  0.27662655922E+01  0.16264453440E+02  0.24155475336E+02  0.29251865919E+02  0.00000000000E+00 0. -1.
</event>
<event>
 5    1  0.1320187E-009  0.9118800E+02  0.7818608E-02  0.1130116E+00
         25   -1    0    0    0    0  0.00000000000E+00  0.00000000000E+00  0.99999998245E-14  0.12500000000E+03  0.12500000000E+03 0.  0.
        -13    1    3    3    0    0 -0.26061930862E+02 -0.79874352486E+01 -0.53670274194E+02  0.60195787712E+02  0.10566000000E+00 0.  1.
         23    2    1    0    0    0 -0.16251224455E+02  0.73717473675E+01 -0.22769984281E+02  0.96070479788E+02  0.91611243562E+02 0.  0.
         13    1    3    3    0    0  0.98107064072E+01  0.15359182616E+02  0.30900289913E+02  0.35874692076E+02  0.10566000000E+00 0. -1.
         22    1    1    0    0    0  0.16251224455E+02 -0.73717473675E+01  0.22769984281E+02  0.28929520212E+02  0.00000000000E+00 0.  1.
</event>
<event>
 5    1  0.1320187E-009  0.9118800E+02  0.7818608E-02  0.1130116E+00
         25   -1    0    0    0    0  0.00000000000E+00  0.00000000000E+00  0.99999998245E-14  0.12500000000E+03  0.12500000000E+03 0.  0.
        -13    1    3    3    0    0  0.21477780312E+02  0.35323805014E+02  0.18017423782E+02  0.45096618184E+02  0.10566000000E+00 0.  1.
         23    2    1    0    0    0  0.24535310858E+02 -0.14111424778E+02  0.72204634787E+01  0.95789575816E+02  0.91227155792E+02 0.  0.
         13    1    3    3    0    0  0.30575305458E+01 -0.49435229793E+02 -0.10796960303E+02  0.50692957632E+02  0.10566000000E+00 0. -1.
         22    1    1    0    0    0 -0.24535310858E+02  0.14111424778E+02 -0.72204634787E+01  0.29210424184E+02  0.00000000000E+00 0. -1.
</event>
<event>
 5    1  0.1320187E-009  0.9118800E+02  0.7818608E-02  0.1130116E+00
         25   -1    0    0    0    0  0.00000000000E+00  0.00000000000E+00  0.99999998245E-14  0.12500000000E+03  0.12500000000E+03 0.  0.
        -13    1    3    3    0    0  0.26929687044E+02  0.21684287345E+02  0.26693005900E+02  0.43680019345E+02  0.10566000000E+00 0.  1.
         23    2    1    0    0    0 -0.76411728485E+01  0.32695415632E+02 -0.39775338796E+01  0.91188781424E+02  0.84688814822E+02 0.  0.
         13    1    3    3    0    0 -0.34570859892E+02  0.11011128287E+02 -0.30670539780E+02  0.47508762079E+02  0.10566000000E+00 0. -1.
         22    1    1    0    0    0  0.76411728485E+01 -0.32695415632E+02  0.39775338796E+01  0.33811218576E+02  0.00000000000E+00 0. -1.
</event>
<event>
 5    1  0.1320187E-009  0.9118800E+02  0.7818608E-02  0.1130116E+00
         25   -1    0    0    0    0  0.00000000000E+00  0.00000000000E+00  0.99999998245E-14  0.12500000000E+03  0.12500000000E+03 0.  0.
        -13    1    3    3    0    0  0.30690091477E+02  0.13135167861E+02 -0.11444169050E+02  0.35290147618E+02  0.10566000000E+00 0. -1.
         23    2    1    0    0    0 -0.93877757023E+01 -0.13301933788E+02  0.24721159247E+02  0.95399197820E+02  0.90690680089E+02 0.  0.
         13    1    3    3    0    0 -0.40077867180E+02 -0.26437101649E+02  0.36165328298E+02  0.60109050202E+02  0.10566000000E+00 0.  1.
         22    1    1    0    0    0  0.93877757023E+01  0.13301933788E+02 -0.24721159247E+02  0.29600802180E+02  0.00000000000E+00 0.  1.
</event>
<event>
 5    1  0.1320187E-009  0.9118800E+02  0.7818608E-02  0.1130116E+00
         25   -1    0    0    0    0  0.00000000000E+00  0.00000000000E+00  0.99999998245E-14  0.12500000000E+03  0.12500000000E+03 0.  0.
        -13    1    3    3    0    0  0.19212612308E+02 -0.53431137767E+01  0.51582942747E+02  0.55303566639E+02  0.10566000000E+00 0.  1.
         23    2    1    0    0    0 -0.12187921642E+02  0.27728076736E+01  0.24251872010E+02  0.97716539949E+02  0.93830352164E+02 0.  0.
         13    1    3    3    0    0 -0.31400533950E+02  0.81159214503E+01 -0.27331070737E+02  0.42412973310E+02  0.10566000000E+00 0. -1.
         22    1    1    0    0    0  0.12187921642E+02 -0.27728076736E+01 -0.24251872010E+02  0.27283460051E+02  0.00000000000E+00 0.  1.
</event>
<event>
 5    1  0.1320187E-009  0.9118800E+02  0.7818608E-02  0.1130116E+00
         25   -1    0    0    0    0  0.00000000000E+00  0.00000000000E+00  0.99999998245E-14  0.12500000000E+03  0.12500000000E+03 0.  0.
        -13    1    3    3    0    0  0.47790030085E+02  0.96364525931E+01  0.27427768661E+02  0.55937839178E+02  0.10566000000E+00 0.  1.
         23    2    1    0    0    0  0.29030880213E+02  0.59520432199E+00 -0.60266704303E+01  0.95344190610E+02  0.90614831305E+02 0.  0.
         13    1    3    3    0    0 -0.18759149873E+02 -0.90412482712E+01 -0.33454439091E+02  0.39406351432E+02  0.10566000000E+00 0. -1.
         22    1    1    0    0    0 -0.29030880213E+02 -0.59520432199E+00  0.60266704303E+01  0.29655809390E+02  0.00000000000E+00 0.  1.
</event>
<event>
 5    1  0.1320187E-009  0.9118800E+02  0.7818608E-02  0.1130116E+00
         25   -1    0    0    0    0  0.00000000000E+00  0.00000000000E+00  0.99999998245E-14  0.12500000000E+03  0.12500000000E+03 0.  0.
        -13    1    3    3    0    0  0.78096917929E+01 -0.14984566974E+02  0.53455303595E+02  0.56062547033E+02  0.10566000000E+00 0.  1.
         23    2    1    0    0    0 -0.16074060193E+02 -0.10484637552E+02  0.22217267469E+02  0.95641696073E+02  0.91024304547E+02 0.  0.
         13    1    3    3    0    0 -0.23883751986E+02  0.44999294225E+01 -0.31238036126E+02  0.39579149040E+02  0.10566000000E+00 0. -1.
         22    1    1    0    0    0  0.16074060193E+02  0.10484637552E+02 -0.22217267469E+02  0.29358303927E+02  0.00000000000E+00 0. -1.
</event>
<event>
 5    1  0.1320187E-009  0.9118800E+02  0.7818608E-02  0.1130116E+00
         25   -1    0    0    0    0  0.00000000000E+00  0.00000000000E+00  0.99999998245E-14  0.12500000000E+03  0.12500000000E+03 0.  0.
        -13    1    3    3    0    0 -0.24560453966E+02 -0.34694804629E+02 -0.34399434149E+02  0.54683430773E+02  0.10566000000E+00 0.  1.
         23    2    1    0    0    0 -0.41168187701E+01 -0.29097796348E+02  0.60614448599E+00  0.95606167990E+02  0.90975502184E+02 0.  0.
         13    1    3    3    0    0  0.20443635196E+02  0.55970082812E+01  0.35005578635E+02  0.40922737217E+02  0.10566000000E+00 0. -1.
         22    1    1    0    0    0  0.41168187701E+01  0.29097796348E+02 -0.60614448599E+00  0.29393832010E+02  0.00000000000E+00 0.  1.
</event>
<event>
 5    1  0.1320187E-009  0.9118800E+02  0.7818608E-02  0.1130116E+00
         25   -1    0    0    0    0  0.00000000000E+00  0.00000000000E+00  0.99999998245E-14  0.12500000000E+03  0.12500000000E+03 0.  0.
        -13    1    3    3    0    0 -0.18379780120E+02  0.24630623500E+02  0.43881387721E+02  0.53573046242E+02  0.10566000000E+00 0.  1.
         23    2    1    0    0    0  0.70966903842E+01  0.28604633433E+02  0.16336779571E+02  0.91303139093E+02  0.84857437936E+02 0.  0.
         13    1    3    3    0    0  0.25476470505E+02  0.39740099330E+01 -0.27544608150E+02  0.37730092850E+02  0.10566000000E+00 0. -1.
         22    1    1    0    0    0 -0.70966903842E+01 -0.28604633433E+02 -0.16336779571E+02  0.33696860907E+02  0.00000000000E+00 0.  1.
</event>
<event>
 5    1  0.1320187E-009  0.9118800E+02  0.7818608E-02  0.1130116E+00
         25   -1    0    0    0    0  0.00000000000E+00  0.00000000000E+00  0.99999998245E-14  0.12500000000E+03  0.12500000000E+03 0.  0.
        -13    1    3    3    0    0 -0.39047272600E+02 -0.29711797157E+02 -0.33730637318E+02  0.59541980532E+02  0.10566000000E+00 0.  1.
         23    2    1    0    0    0 -0.68631376750E+01 -0.20248963280E+02 -0.19778177902E+02  0.95874418568E+02  0.91343333867E+02 0.  0.
         13    1    3    3    0    0  0.32184134925E+02  0.94628338769E+01  0.13952459416E+02  0.36332438036E+02  0.10566000000E+00 0. -1.
         22    1    1    0    0    0  0.68631376750E+01  0.20248963280E+02  0.19778177902E+02  0.29125581432E+02  0.00000000000E+00 0.  1.
</event>
<event>
 5    1  0.1320187E-009  0.9118800E+02  0.7818608E-02  0.1130116E+00
         25   -1    0    0    0    0  0.00000000000E+00  0.00000000000E+00  0.99999998245E-14  0.12500000000E+03  0.12500000000E+03 0.  0.
        -13    1    3    3    0    0  0.20347087666E+02 -0.25267854722E+02  0.75198769265E+01  0.33302074586E+02  0.10566000000E+00 0.  1.
         23    2    1    0    0    0 -0.13924534109E+02  0.25344624852E+02 -0.48850650990E+01  0.95672427307E+02  0.91066496730E+02 0.  0.
         13    1    3    3    0    0 -0.34271621775E+02  0.50612479574E+02 -0.12404942025E+02  0.62370352720E+02  0.10566000000E+00 0. -1.
         22    1    1    0    0    0  0.13924534109E+02 -0.25344624852E+02  0.48850650990E+01  0.29327572693E+02  0.00000000000E+00 0. -1.
</event>
<event>
 5    1  0.1320187E-009  0.9118800E+02  0.7818608E-02  0.1130116E+00
         25   -1    0    0    0    0  0.00000000000E+00  0.00000000000E+00  0.99999998245E-14  0.12500000000E+03  0.12500000000E+03 0.  0.
        -13    1    3    3    0    0  0.28410331691E+02  0.26886516160E+02  0.20198718725E+02  0.44023074633E+02  0.10566000000E+00 0. -1.
         23    2    1    0    0    0  0.37607788849E+02  0.20624437959E+02 -0.13916357525E+02  0.79907004646E+02  0.65967803977E+02 0.  0.
         13    1    3    3    0    0  0.91974571581E+01 -0.62620782010E+01 -0.34115076250E+02  0.35883930013E+02  0.10566000000E+00 0.  1.
         22    1    1    0    0    0 -0.37607788849E+02 -0.20624437959E+02  0.13916357525E+02  0.45092995354E+02  0.00000000000E+00 0.  1.
</event>
<event>
 5    1  0.1320187E-009  0.9118800E+02  0.7818608E-02  0.1130116E+00
         25   -1    0    0    0    0  0.00000000000E+00  0.00000000000E+00  0.99999998245E-14  0.12500000000E+03  0.12500000000E+03 0.  0.
        -13    1    3    3    0    0  0.24743831503E+02  0.31106789482E+02 -0.50336143084E+01  0.40065421330E+02  0.10566000000E+00 0. -1.
         23    2    1    0    0    0  0.30141850376E+02 -0.91715209456E+01  0.19892458441E+02  0.87739325779E+02  0.79434447470E+02 0.  0.
         13    1    3    3    0    0  0.53980188737E+01 -0.40278310428E+02  0.24926072749E+02  0.47673904449E+02  0.10566000000E+00 0.  1.
         22    1    1    0    0    0 -0.30141850376E+02  0.91715209456E+01 -0.19892458441E+02  0.37260674221E+02  0.00000000000E+00 0. -1.
</event>
<event>
 5    1  0.1320187E-009  0.9118800E+02  0.7818608E-02  0.1130116E+00
         25   -1    0    0    0    0  0.00000000000E+00  0.00000000000E+00  0.99999998245E-14  0.12500000000E+03  0.12500000000E+03 0.  0.
        -13    1    3    3    0    0 -0.13007724753E+02 -0.43568333961E+02  0.38167879222E+02  0.59364962694E+02  0.10566000000E+00 0. -1.
         23    2    1    0    0    0  0.55365733696E+01 -0.25771607681E+02  0.12023391041E+02  0.96027748806E+02  0.91552920223E+02 0.  0.
         13    1    3    3    0    0  0.18544298123E+02  0.17796726280E+02 -0.26144488181E+02  0.36662786111E+02  0.10566000000E+00 0.  1.
         22    1    1    0    0    0 -0.55365733696E+01  0.25771607681E+02 -0.12023391041E+02  0.28972251194E+02  0.00000000000E+00 0. -1.
</event>
<event>
 5    1  0.1320187E-009  0.9118800E+02  0.7818608E-02  0.1130116E+00
         25   -1    0    0    0    0  0.00000000000E+00  0.00000000000E+00  0.99999998245E-14  0.12500000000E+03  0.12500000000E+03 0.  0.
        -13    1    3    3    0    0  0.36468438726E+02 -0.48398948373E+02 -0.46295245866E+01  0.60777042447E+02  0.10566000000E+00 0.  1.
         23    2    1    0    0    0  0.14785079707E+02 -0.25145515838E+02 -0.12071027967E+02  0.93430944504E+02  0.87935977427E+02 0.  0.
         13    1    3    3    0    0 -0.21683359019E+02  0.23253432534E+02 -0.74415033799E+01  0.32653902057E+02  0.10566000000E+00 0. -1.
         22    1    1    0    0    0 -0.14785079707E+02  0.25145515838E+02  0.12071027967E+02  0.31569055496E+02  0.00000000000E+00 0.  1.
</event>
<event>
 5    1  0.1320187E-009  0.9118800E+02  0.7818608E-02  0.1130116E+00
         25   -1    0    0    0    0  0.00000000000E+00  0.00000000000E+00  0.99999998245E-14  0.12500000000E+03  0.12500000000E+03 0.  0.
        -13    1    3    3    0    0 -0.27786026742E+02 -0.13633820807E+02  0.43325326577E+02  0.53245088402E+02  0.10566000000E+00 0.  1.
         23    2    1    0    0    0 -0.89746513187E+01 -0.29610952321E+02  0.15653006809E+02  0.90324800133E+02  0.83403837042E+02 0.  0.
         13    1    3    3    0    0  0.18811375423E+02 -0.15977131514E+02 -0.27672319768E+02  0.37079711731E+02  0.10566000000E+00 0. -1.
         22    1    1    0    0    0  0.89746513187E+01  0.29610952321E+02 -0.15653006809E+02  0.34675199867E+02  0.00000000000E+00 0.  1.
</event>
<event>
 5    1  0.1320187E-009  0.9118800E+02  0.7818608E-02  0.1130116E+00
         25   -1    0    0    0    0  0.00000000000E+00  0.00000000000E+00  0.99999998245E-14  0.12500000000E+03  0.12500000000E+03 0.  0.
        -13    1    3    3    0    0  0.26400587530E+01  0.20822172279E+02 -0.28814784903E+02  0.35648783453E+02  0.10566000000E+00 0.  1.
         23    2    1    0    0    0  0.79194595594E+01 -0.23370756926E+02  0.13338435412E+02  0.96949617146E+02  0.92803040287E+02 0.  0.
         13    1    3    3    0    0  0.52794008065E+01 -0.44192929205E+02  0.42153220315E+02  0.61300833694E+02  0.10566000000E+00 0. -1.
         22    1    1    0    0    0 -0.79194595594E+01  0.23370756926E+02 -0.13338435412E+02  0.28050382854E+02  0.00000000000E+00 0. -1.
</event>
<event>
 5    1  0.1320187E-009  0.9118800E+02  0.7818608E-02  0.1130116E+00
         25   -1    0    0    0    0  0.00000000000E+00  0.00000000000E+00  0.99999998245E-14  0.12500000000E+03  0.12500000000E+03 0.  0.
        -13    1    3    3    0    0  0.85824401033E+01 -0.39742479995E+01  0.61657948711E+02  0.62379217120E+02  0.10566000000E+00 0.  1.
         23    2    1    0    0    0  0.60555339187E+01 -0.54592742223E-01  0.28496732058E+02  0.95866922418E+02  0.91333075085E+02 0.  0.
         13    1    3    3    0    0 -0.25269061846E+01  0.39196552572E+01 -0.33161216653E+02  0.33487705298E+02  0.10566000000E+00 0. -1.
         22    1    1    0    0    0 -0.60555339187E+01  0.54592742223E-01 -0.28496732058E+02  0.29133077582E+02  0.00000000000E+00 0.  1.
</event>
<event>
 5    1  0.1320187E-009  0.9118800E+02  0.7818608E-02  0.1130116E+00
         25   -1    0    0    0    0  0.00000000000E+00  0.00000000000E+00  0.99999998245E-14  0.12500000000E+03  0.12500000000E+03 0.  0.
        -13    1    3    3    0    0  0.20340781986E+02  0.18768689918E+02 -0.44152710146E+02  0.52110307141E+02  0.10566000000E+00 0.  1.
         23    2    1    0    0    0  0.24518783030E+02 -0.10990882156E+02 -0.13916342212E+02  0.94740542100E+02  0.89778257530E+02 0.  0.
         13    1    3    3    0    0  0.41780010440E+01 -0.29759572074E+02  0.30236367935E+02  0.42630234959E+02  0.10566000000E+00 0. -1.
         22    1    1    0    0    0 -0.24518783030E+02  0.10990882156E+02  0.13916342212E+02  0.30259457900E+02  0.00000000000E+00 0.  1.
</event>
<event>
 5    1  0.1320187E-009  0.9118800E+02  0.7818608E-02  0.1130116E+00
         25   -1    0    0    0    0  0.00000000000E+00  0.00000000000E+00  0.99999998245E-14  0.12500000000E+03  0.12500000000E+03 0.  0.
        -13    1    3    3    0    0  0.17731046191E+02  0.18717798076E+02  0.53393783221E+02  0.59292944053E+02  0.10566000000E+00 0.  1.
         23    2    1    0    0    0  0.70072370304E+00  0.13444143330E+01  0.35436646143E+02  0.89530938080E+02  0.82205440940E+02 0.  0.
         13    1    3    3    0    0 -0.17030322488E+02 -0.17373383743E+02 -0.17957137078E+02  0.30237994027E+02  0.10566000000E+00 0. -1.
         22    1    1    0    0    0 -0.70072370304E+00 -0.13444143330E+01 -0.35436646143E+02  0.35469061920E+02  0.00000000000E+00 0.  1.
</event>
<event>
 5    1  0.1320187E-009  0.9118800E+02  0.7818608E-02  0.1130116E+00
         25   -1    0    0    0    0  0.00000000000E+00  0.00000000000E+00  0.99999998245E-14  0.12500000000E+03  0.12500000000E+03 0.  0.
        -13    1    3    3    0    0  0.55951437881E+02 -0.16481455785E+02 -0.14227823640E+02  0.60038686822E+02  0.10566000000E+00 0. -1.
         23    2    1    0    0    0  0.27538122900E+02  0.46098523659E+01 -0.78639404479E+01  0.95992405976E+02  0.91504652855E+02 0.  0.
         13    1    3    3    0    0 -0.28413314981E+02  0.21091308151E+02  0.63638831925E+01  0.35953719155E+02  0.10566000000E+00 0.  1.
         22    1    1    0    0    0 -0.27538122900E+02 -0.46098523659E+01  0.78639404479E+01  0.29007594024E+02  0.00000000000E+00 0. -1.
</event>
<event>
 4    1  0.1320187E-009  0.9118800E+02  0.7818608E-02  0.1130116E+00
         25   -1    0    0    0    0  0.00000000000E+00  0.00000000000E+00  0.99999998245E-14  0.12500000000E+03  0.12500000000E+03 0.  0.
        -13    1    1    0    0    0  0.45228258399E+01 -0.22668978933E+02 -0.13884853192E+02  0.26965512634E+02  0.10566000000E+00 0.  1.
         13    1    1    0    0    0 -0.29462279951E+02  0.10247664225E+02 -0.31786360654E+02  0.44535653691E+02  0.10566000000E+00 0. -1.
         22    1    1    0    0    0  0.24939454111E+02  0.12421314708E+02  0.45671213846E+02  0.53498833675E+02  0.00000000000E+00 0. -1.
</event>
<event>
 5    1  0.1320187E-009  0.9118800E+02  0.7818608E-02  0.1130116E+00
         25   -1    0    0    0    0  0.00000000000E+00  0.00000000000E+00  0.99999998245E-14  0.12500000000E+03  0.12500000000E+03 0.  0.
        -13    1    3    3    0    0 -0.15472359449E+02 -0.17261380577E+02  0.28916292263E+02  0.37060926710E+02  0.10566000000E+00 0.  1.
         23    2    1    0    0    0 -0.11411781280E+02  0.95792743108E+01 -0.24124812546E+02  0.96645144531E+02  0.92392024183E+02 0.  0.
         13    1    3    3    0    0  0.40605781697E+01  0.26840654888E+02 -0.53041104809E+02  0.59584217820E+02  0.10566000000E+00 0. -1.
         22    1    1    0    0    0  0.11411781280E+02 -0.95792743108E+01  0.24124812546E+02  0.28354855469E+02  0.00000000000E+00 0. -1.
</event>
<event>
 5    1  0.1320187E-009  0.9118800E+02  0.7818608E-02  0.1130116E+00
         25   -1    0    0    0    0  0.00000000000E+00  0.00000000000E+00  0.99999998245E-14  0.12500000000E+03  0.12500000000E+03 0.  0.
        -13    1    3    3    0    0 -0.16231980523E+02  0.29945073154E+02 -0.13270741939E+02  0.36555551610E+02  0.10566000000E+00 0. -1.
         23    2    1    0    0    0 -0.10165154460E+02 -0.26436265909E+02  0.52174204043E+01  0.96200208402E+02  0.91788082563E+02 0.  0.
         13    1    3    3    0    0  0.60668260629E+01 -0.56381339063E+02  0.18488162343E+02  0.59644656792E+02  0.10566000000E+00 0.  1.
         22    1    1    0    0    0  0.10165154460E+02  0.26436265909E+02 -0.52174204043E+01  0.28799791598E+02  0.00000000000E+00 0.  1.
</event>
<event>
 5    1  0.1320187E-009  0.9118800E+02  0.7818608E-02  0.1130116E+00
         25   -1    0    0    0    0  0.00000000000E+00  0.00000000000E+00  0.99999998245E-14  0.12500000000E+03  0.12500000000E+03 0.  0.
        -13    1    3    3    0    0 -0.53216721054E+02  0.27464078681E+02  0.14439883436E+01  0.59903182585E+02  0.10566000000E+00 0.  1.
         23    2    1    0    0    0 -0.21786715815E+02  0.12646199764E+02  0.13166955186E+02  0.96575432047E+02  0.92297659838E+02 0.  0.
         13    1    3    3    0    0  0.31430005239E+02 -0.14817878917E+02  0.11722966843E+02  0.36672249461E+02  0.10566000000E+00 0. -1.
         22    1    1    0    0    0  0.21786715815E+02 -0.12646199764E+02 -0.13166955186E+02  0.28424567953E+02  0.00000000000E+00 0.  1.
</event>
<event>
 5    1  0.1320187E-009  0.9118800E+02  0.7818608E-02  0.1130116E+00
         25   -1    0    0    0    0  0.00000000000E+00  0.00000000000E+00  0.99999998245E-14  0.12500000000E+03  0.12500000000E+03 0.  0.
        -13    1    3    3    0    0  0.29594547501E+02  0.30466765873E+02 -0.40127593293E+01  0.42663502740E+02  0.10566000000E+00 0.  1.
         23    2    1    0    0    0  0.16735500586E+02 -0.12991095237E+02  0.21619482188E+02  0.94730418810E+02  0.89764161571E+02 0.  0.
         13    1    3    3    0    0 -0.12859046915E+02 -0.43457861110E+02  0.25632241518E+02  0.52066916070E+02  0.10566000000E+00 0. -1.
         22    1    1    0    0    0 -0.16735500586E+02  0.12991095237E+02 -0.21619482188E+02  0.30269581190E+02  0.00000000000E+00 0. -1.
</event>
<event>
 5    1  0.1320187E-009  0.9118800E+02  0.7818608E-02  0.1130116E+00
         25   -1    0    0    0    0  0.00000000000E+00  0.00000000000E+00  0.99999998245E-14  0.12500000000E+03  0.12500000000E+03 0.  0.
        -13    1    3    3    0    0  0.25833924253E+02 -0.45580128633E+02  0.57634090290E+01  0.52708327769E+02  0.10566000000E+00 0.  1.
         23    2    1    0    0    0 -0.10958250295E+02 -0.28844545274E+02 -0.27730843466E+01  0.94019666909E+02  0.88768895044E+02 0.  0.
         13    1    3    3    0    0 -0.36792174548E+02  0.16735583359E+02 -0.85364933756E+01  0.41311339140E+02  0.10566000000E+00 0. -1.
         22    1    1    0    0    0  0.10958250295E+02  0.28844545274E+02  0.27730843466E+01  0.30980333091E+02  0.00000000000E+00 0.  1.
</event>
<event>
 5    1  0.1320187E-009  0.9118800E+02  0.7818608E-02  0.1130116E+00
         25   -1    0    0    0    0  0.00000000000E+00  0.00000000000E+00  0.99999998245E-14  0.12500000000E+03  0.12500000000E+03 0.  0.
        -13    1    3    3    0    0 -0.10778216245E+02 -0.23241266677E+02  0.18656542192E+02  0.31692335868E+02  0.10566000000E+00 0.  1.
         23    2    1    0    0    0  0.62238641521E+01  0.23025284944E+02 -0.19632173062E+02  0.94107890152E+02  0.88893039873E+02 0.  0.
         13    1    3    3    0    0  0.17002080397E+02  0.46266551621E+02 -0.38288715253E+02  0.62415554284E+02  0.10566000000E+00 0. -1.
         22    1    1    0    0    0 -0.62238641521E+01 -0.23025284944E+02  0.19632173062E+02  0.30892109848E+02  0.00000000000E+00 0. -1.
</event>
<event>
 5    1  0.1320187E-009  0.9118800E+02  0.7818608E-02  0.1130116E+00
         25   -1    0    0    0    0  0.00000000000E+00  0.00000000000E+00  0.99999998245E-14  0.12500000000E+03  0.12500000000E+03 0.  0.
        -13    1    3    3    0    0  0.31919805504E+02  0.33297534572E+02 -0.41906426763E+02  0.62319816752E+02  0.10566000000E+00 0.  1.
         23    2    1    0    0    0  0.13161506894E+02  0.17726244377E+02 -0.22467181884E+02  0.93500487857E+02  0.88034777016E+02 0.  0.
         13    1    3    3    0    0 -0.18758298610E+02 -0.15571290194E+02  0.19439244879E+02  0.31180671105E+02  0.10566000000E+00 0. -1.
         22    1    1    0    0    0 -0.13161506894E+02 -0.17726244377E+02  0.22467181884E+02  0.31499512143E+02  0.00000000000E+00 0.  1.
</event>
<event>
 5    1  0.1320187E-009  0.9118800E+02  0.7818608E-02  0.1130116E+00
         25   -1    0    0    0    0  0.00000000000E+00  0.00000000000E+00  0.99999998245E-14  0.12500000000E+03  0.12500000000E+03 0.  0.
        -13    1    3    3    0    0 -0.38796362723E+01 -0.21232836555E+02  0.25172814225E+02  0.33159714501E+02  0.10566000000E+00 0.  1.
         23    2    1    0    0    0  0.52255936849E+00  0.27029576971E+02 -0.13143296818E+02  0.94939771278E+02  0.90055220946E+02 0.  0.
         13    1    3    3    0    0  0.44021956408E+01  0.48262413527E+02 -0.38316111043E+02  0.61780056777E+02  0.10566000000E+00 0. -1.
         22    1    1    0    0    0 -0.52255936849E+00 -0.27029576971E+02  0.13143296818E+02  0.30060228722E+02  0.00000000000E+00 0. -1.
</event>
<event>
 5    1  0.1320187E-009  0.9118800E+02  0.7818608E-02  0.1130116E+00
         25   -1    0    0    0    0  0.00000000000E+00  0.00000000000E+00  0.99999998245E-14  0.12500000000E+03  0.12500000000E+03 0.  0.
        -13    1    3    3    0    0 -0.25452087799E+01  0.35607767260E+02 -0.30317361779E+02  0.46835294023E+02  0.10566000000E+00 0. -1.
         23    2    1    0    0    0  0.26169889318E+02  0.10151215114E+02  0.17943874759E+01  0.96872964934E+02  0.92699736965E+02 0.  0.
         13    1    3    3    0    0  0.28715098098E+02 -0.25456552146E+02  0.32111749255E+02  0.50037670911E+02  0.10566000000E+00 0.  1.
         22    1    1    0    0    0 -0.26169889318E+02 -0.10151215114E+02 -0.17943874759E+01  0.28127035066E+02  0.00000000000E+00 0. -1.
</event>
<event>
 5    1  0.1320187E-009  0.9118800E+02  0.7818608E-02  0.1130116E+00
         25   -1    0    0    0    0  0.00000000000E+00  0.00000000000E+00  0.99999998245E-14  0.12500000000E+03  0.12500000000E+03 0.  0.
        -13    1    3    3    0    0 -0.28318188032E+02 -0.36715042681E+02 -0.19716328573E+02  0.50385106022E+02  0.10566000000E+00 0.  1.
         23    2    1    0    0    0 -0.16037973850E+02  0.62278013258E+01 -0.24236719162E+02  0.95277606586E+02  0.90522934367E+02 0.  0.
         13    1    3    3    0    0  0.12280214182E+02  0.42942844006E+02 -0.45203905884E+01  0.44892500563E+02  0.10566000000E+00 0. -1.
         22    1    1    0    0    0  0.16037973850E+02 -0.62278013258E+01  0.24236719162E+02  0.29722393414E+02  0.00000000000E+00 0.  1.
</event>
<event>
 5    1  0.1320187E-009  0.9118800E+02  0.7818608E-02  0.1130116E+00
         25   -1    0    0    0    0  0.00000000000E+00  0.00000000000E+00  0.99999998245E-14  0.12500000000E+03  0.12500000000E+03 0.  0.
        -13    1    3    3    0    0  0.65337953236E+01  0.26700211651E+02 -0.24763274119E+02  0.36997603878E+02  0.10566000000E+00 0. -1.
         23    2    1    0    0    0  0.87164072642E+01  0.29929437461E+02  0.23839352995E+02  0.85756379710E+02  0.76250212638E+02 0.  0.
         13    1    3    3    0    0  0.21826119406E+01  0.32292258094E+01  0.48602627114E+02  0.48758775832E+02  0.10566000000E+00 0.  1.
         22    1    1    0    0    0 -0.87164072642E+01 -0.29929437461E+02 -0.23839352995E+02  0.39243620290E+02  0.00000000000E+00 0.  1.
</event>
<event>
 5    1  0.1320187E-009  0.9118800E+02  0.7818608E-02  0.1130116E+00
         25   -1    0    0    0    0  0.00000000000E+00  0.00000000000E+00  0.99999998245E-14  0.12500000000E+03  0.12500000000E+03 0.  0.
        -13    1    3    3    0    0  0.46461872833E+02 -0.76793483692E+01  0.34718755976E+02  0.58507103834E+02  0.10566000000E+00 0. -1.
         23    2    1    0    0    0  0.13478805807E+02 -0.10345965065E+02  0.27961051154E+02  0.92280929403E+02  0.86285759837E+02 0.  0.
         13    1    3    3    0    0 -0.32983067026E+02 -0.26666166957E+01 -0.67577048212E+01  0.33773825569E+02  0.10566000000E+00 0.  1.
         22    1    1    0    0    0 -0.13478805807E+02  0.10345965065E+02 -0.27961051154E+02  0.32719070597E+02  0.00000000000E+00 0. -1.
</event>
<event>
 5    1  0.1320187E-009  0.9118800E+02  0.7818608E-02  0.1130116E+00
         25   -1    0    0    0    0  0.00000000000E+00  0.00000000000E+00  0.99999998245E-14  0.12500000000E+03  0.12500000000E+03 0.  0.
        -13    1    3    3    0    0 -0.29593697266E+01 -0.26555110085E+02  0.21587942556E+02  0.34350868528E+02  0.10566000000E+00 0.  1.
         23    2    1    0    0    0 -0.10762437557E+02  0.24031860544E+02 -0.12503731488E+02  0.95850322738E+02  0.91310353654E+02 0.  0.
         13    1    3    3    0    0 -0.78030678306E+01  0.50586970629E+02 -0.34091674044E+02  0.61499454210E+02  0.10566000000E+00 0. -1.
         22    1    1    0    0    0  0.10762437557E+02 -0.24031860544E+02  0.12503731488E+02  0.29149677262E+02  0.00000000000E+00 0. -1.
</event>
<event>
 5    1  0.1320187E-009  0.9118800E+02  0.7818608E-02  0.1130116E+00
         25   -1    0    0    0    0  0.00000000000E+00  0.00000000000E+00  0.99999998245E-14  0.12500000000E+03  0.12500000000E+03 0.  0.
        -13    1    3    3    0    0 -0.24730859024E+02  0.99189475332E+01  0.32845320427E+02  0.42294528562E+02  0.10566000000E+00 0.  1.
         23    2    1    0    0    0  0.11243259998E+02  0.26612953241E+02 -0.32590530012E+01  0.95926272993E+02  0.91414267203E+02 0.  0.
         13    1    3    3    0    0  0.35974119022E+02  0.16694005708E+02 -0.36104373429E+02  0.53631744431E+02  0.10566000000E+00 0. -1.
         22    1    1    0    0    0 -0.11243259998E+02 -0.26612953241E+02  0.32590530012E+01  0.29073727007E+02  0.00000000000E+00 0. -1.
</event>
<event>
 5    1  0.1320187E-009  0.9118800E+02  0.7818608E-02  0.1130116E+00
         25   -1    0    0    0    0  0.00000000000E+00  0.00000000000E+00  0.99999998245E-14  0.12500000000E+03  0.12500000000E+03 0.  0.
        -13    1    3    3    0    0 -0.22307276747E+02 -0.19204373276E+02 -0.17736140386E+02  0.34365744406E+02  0.10566000000E+00 0. -1.
         23    2    1    0    0    0  0.17886427366E+02  0.23779855931E+02 -0.93542315509E+01  0.93808535143E+02  0.88471090113E+02 0.  0.
         13    1    3    3    0    0  0.40193704113E+02  0.42984229206E+02  0.83819088346E+01  0.59442790737E+02  0.10566000000E+00 0.  1.
         22    1    1    0    0    0 -0.17886427366E+02 -0.23779855931E+02  0.93542315509E+01  0.31191464857E+02  0.00000000000E+00 0.  1.
</event>
<event>
 5    1  0.1320187E-009  0.9118800E+02  0.7818608E-02  0.1130116E+00
         25   -1    0    0    0    0  0.00000000000E+00  0.00000000000E+00  0.99999998245E-14  0.12500000000E+03  0.12500000000E+03 0.  0.
        -13    1    3    3    0    0 -0.99746248128E+01  0.32696245415E+02 -0.18721776988E+02  0.38975039474E+02  0.10566000000E+00 0. -1.
         23    2    1    0    0    0  0.23102940163E+02 -0.48474333889E+01 -0.26386514223E+02  0.89595316871E+02  0.82303275862E+02 0.  0.
         13    1    3    3    0    0  0.33077564976E+02 -0.37543678803E+02 -0.76647372356E+01  0.50620277397E+02  0.10566000000E+00 0.  1.
         22    1    1    0    0    0 -0.23102940163E+02  0.48474333889E+01  0.26386514223E+02  0.35404683129E+02  0.00000000000E+00 0.  1.
</event>
<event>
 5    1  0.1320187E-009  0.9118800E+02  0.7818608E-02  0.1130116E+00
         25   -1    0    0    0    0  0.00000000000E+00  0.00000000000E+00  0.99999998245E-14  0.12500000000E+03  0.12500000000E+03 0.  0.
        -13    1    3    3    0    0  0.14827772025E+02 -0.15580061586E+02  0.38019203991E+02  0.43681485533E+02  0.10566000000E+00 0.  1.
         23    2    1    0    0    0  0.15004288641E+02  0.22819393138E+02  0.41294054747E-01  0.97689652400E+02  0.93794525960E+02 0.  0.
         13    1    3    3    0    0  0.17651661564E+00  0.38399454724E+02 -0.37977909936E+02  0.54008166867E+02  0.10566000000E+00 0. -1.
         22    1    1    0    0    0 -0.15004288641E+02 -0.22819393138E+02 -0.41294054747E-01  0.27310347600E+02  0.00000000000E+00 0.  1.
</event>
<event>
 5    1  0.1320187E-009  0.9118800E+02  0.7818608E-02  0.1130116E+00
         25   -1    0    0    0    0  0.00000000000E+00  0.00000000000E+00  0.99999998245E-14  0.12500000000E+03  0.12500000000E+03 0.  0.
        -13    1    3    3    0    0  0.16328404511E+02  0.14125413936E+02 -0.38566438244E+02  0.44198704003E+02  0.10566000000E+00 0.  1.
         23    2    1    0    0    0  0.88099921313E+01  0.28478347841E+02  0.85211053718E+01  0.93996105182E+02  0.88735710374E+02 0.  0.
         13    1    3    3    0    0 -0.75184123798E+01  0.14352933905E+02  0.47087543615E+02  0.49797401179E+02  0.10566000000E+00 0. -1.
         22    1    1    0    0    0 -0.88099921313E+01 -0.28478347841E+02 -0.85211053718E+01  0.31003894818E+02  0.00000000000E+00 0.  1.
</event>
<event>
 5    1  0.1320187E-009  0.9118800E+02  0.7818608E-02  0.1130116E+00
         25   -1    0    0    0    0  0.00000000000E+00  0.00000000000E+00  0.99999998245E-14  0.12500000000E+03  0.12500000000E+03 0.  0.
        -13    1    3    3    0    0  0.26055609988E+02 -0.17677429313E+02 -0.35810181857E+02  0.47684028853E+02  0.10566000000E+00 0. -1.
         23    2    1    0    0    0  0.27639823155E+02  0.10293322741E+02  0.27839769455E+01  0.95374624986E+02  0.90656804744E+02 0.  0.
         13    1    3    3    0    0  0.15842131668E+01  0.27970752054E+02  0.38594158802E+02  0.47690596133E+02  0.10566000000E+00 0.  1.
         22    1    1    0    0    0 -0.27639823155E+02 -0.10293322741E+02 -0.27839769455E+01  0.29625375014E+02  0.00000000000E+00 0. -1.
</event>
<event>
 5    1  0.1320187E-009  0.9118800E+02  0.7818608E-02  0.1130116E+00
         25   -1    0    0    0    0  0.00000000000E+00  0.00000000000E+00  0.99999998245E-14  0.12500000000E+03  0.12500000000E+03 0.  0.
        -13    1    3    3    0    0 -0.12896216527E+01  0.31694160605E+02 -0.10547037251E+02  0.33428043605E+02  0.10566000000E+00 0. -1.
         23    2    1    0    0    0 -0.80741374923E+01 -0.27561493261E+02  0.66890636892E+01  0.95511507667E+02  0.90845346148E+02 0.  0.
         13    1    3    3    0    0 -0.67845158396E+01 -0.59255653866E+02  0.17236100941E+02  0.62083464062E+02  0.10566000000E+00 0.  1.
         22    1    1    0    0    0  0.80741374923E+01  0.27561493261E+02 -0.66890636892E+01  0.29488492333E+02  0.00000000000E+00 0.  1.
</event>
<event>
 5    1  0.1320187E-009  0.9118800E+02  0.7818608E-02  0.1130116E+00
         25   -1    0    0    0    0  0.00000000000E+00  0.00000000000E+00  0.99999998245E-14  0.12500000000E+03  0.12500000000E+03 0.  0.
        -13    1    3    3    0    0 -0.28493301378E+02 -0.33130693703E+01  0.51981013616E+02  0.59370713257E+02  0.10566000000E+00 0.  1.
         23    2    1    0    0    0 -0.49033303850E+00  0.51234669306E+00  0.29518430736E+02  0.95473051652E+02  0.90792416605E+02 0.  0.
         13    1    3    3    0    0  0.28002968340E+02  0.38254160634E+01 -0.22462582880E+02  0.36102338395E+02  0.10566000000E+00 0. -1.
         22    1    1    0    0    0  0.49033303850E+00 -0.51234669306E+00 -0.29518430736E+02  0.29526948348E+02  0.00000000000E+00 0.  1.
</event>
<event>
 5    1  0.1320187E-009  0.9118800E+02  0.7818608E-02  0.1130116E+00
         25   -1    0    0    0    0  0.00000000000E+00  0.00000000000E+00  0.99999998245E-14  0.12500000000E+03  0.12500000000E+03 0.  0.
        -13    1    3    3    0    0 -0.34109306232E+02 -0.30320389771E+02 -0.40602248295E+02  0.61084568740E+02  0.10566000000E+00 0. -1.
         23    2    1    0    0    0 -0.21885631773E+02 -0.81841789399E+01 -0.14128135814E+02  0.97694947636E+02  0.93801582657E+02 0.  0.
         13    1    3    3    0    0  0.12223674458E+02  0.22136210831E+02  0.26474112481E+02  0.36610378896E+02  0.10566000000E+00 0.  1.
         22    1    1    0    0    0  0.21885631773E+02  0.81841789399E+01  0.14128135814E+02  0.27305052364E+02  0.00000000000E+00 0. -1.
</event>
<event>
 5    1  0.1320187E-009  0.9118800E+02  0.7818608E-02  0.1130116E+00
         25   -1    0    0    0    0  0.00000000000E+00  0.00000000000E+00  0.99999998245E-14  0.12500000000E+03  0.12500000000E+03 0.  0.
        -13    1    3    3    0    0 -0.11311453255E+02 -0.15038681502E+02  0.40160939160E+02  0.44351134307E+02  0.10566000000E+00 0.  1.
         23    2    1    0    0    0  0.27651659400E+02  0.52279435411E+00  0.12189368934E+02  0.94776361957E+02  0.89828116363E+02 0.  0.
         13    1    3    3    0    0  0.38963112656E+02  0.15561475856E+02 -0.27971570226E+02  0.50425227651E+02  0.10566000000E+00 0. -1.
         22    1    1    0    0    0 -0.27651659400E+02 -0.52279435411E+00 -0.12189368934E+02  0.30223638043E+02  0.00000000000E+00 0. -1.
</event>
<event>
 5    1  0.1320187E-009  0.9118800E+02  0.7818608E-02  0.1130116E+00
         25   -1    0    0    0    0  0.00000000000E+00  0.00000000000E+00  0.99999998245E-14  0.12500000000E+03  0.12500000000E+03 0.  0.
        -13    1    3    3    0    0  0.27057391452E+02 -0.15382936250E+02 -0.19194309605E+02  0.36567333033E+02  0.10566000000E+00 0. -1.
         23    2    1    0    0    0 -0.11549923150E+02  0.26482365195E+02 -0.20754274533E+01  0.96034092622E+02  0.91561581220E+02 0.  0.
         13    1    3    3    0    0 -0.38607314603E+02  0.41865301445E+02  0.17118882152E+02  0.59466759589E+02  0.10566000000E+00 0.  1.
         22    1    1    0    0    0  0.11549923150E+02 -0.26482365195E+02  0.20754274533E+01  0.28965907378E+02  0.00000000000E+00 0.  1.
</event>
<event>
 5    1  0.1320187E-009  0.9118800E+02  0.7818608E-02  0.1130116E+00
         25   -1    0    0    0    0  0.00000000000E+00  0.00000000000E+00  0.99999998245E-14  0.12500000000E+03  0.12500000000E+03 0.  0.
        -13    1    3    3    0    0  0.39838285463E+02  0.15960436795E+02  0.43278835088E+02  0.60949924216E+02  0.10566000000E+00 0.  1.
         23    2    1    0    0    0  0.24591914151E+02  0.93564753666E+01  0.12627520932E+02  0.95815069680E+02  0.91262080953E+02 0.  0.
         13    1    3    3    0    0 -0.15246371311E+02 -0.66039614287E+01 -0.30651314156E+02  0.34865145464E+02  0.10566000000E+00 0. -1.
         22    1    1    0    0    0 -0.24591914151E+02 -0.93564753666E+01 -0.12627520932E+02  0.29184930320E+02  0.00000000000E+00 0.  1.
</event>
<event>
 5    1  0.1320187E-009  0.9118800E+02  0.7818608E-02  0.1130116E+00
         25   -1    0    0    0    0  0.00000000000E+00  0.00000000000E+00  0.99999998245E-14  0.12500000000E+03  0.12500000000E+03 0.  0.
        -13    1    3    3    0    0 -0.22214196781E+02  0.66806943043E+01  0.40461824274E+02  0.46639817781E+02  0.10566000000E+00 0. -1.
         23    2    1    0    0    0  0.17065118922E+02 -0.13563895025E+02  0.20303844866E+02  0.95210007579E+02  0.90429541052E+02 0.  0.
         13    1    3    3    0    0  0.39279315703E+02 -0.20244589329E+02 -0.20157979408E+02  0.48570189799E+02  0.10566000000E+00 0.  1.
         22    1    1    0    0    0 -0.17065118922E+02  0.13563895025E+02 -0.20303844866E+02  0.29789992421E+02  0.00000000000E+00 0. -1.
</event>
<event>
 5    1  0.1320187E-009  0.9118800E+02  0.7818608E-02  0.1130116E+00
         25   -1    0    0    0    0  0.00000000000E+00  0.00000000000E+00  0.99999998245E-14  0.12500000000E+03  0.12500000000E+03 0.  0.
        -13    1    3    3    0    0 -0.87942393661E+01  0.36945408918E+02  0.28400228015E+02  0.47422420873E+02  0.10566000000E+00 0.  1.
         23    2    1    0    0    0  0.12821747812E+02 -0.57366054806E+01  0.26146664146E+02  0.95319132335E+02  0.90580257694E+02 0.  0.
         13    1    3    3    0    0  0.21615987178E+02 -0.42682014398E+02 -0.22535638692E+01  0.47896711462E+02  0.10566000000E+00 0. -1.
         22    1    1    0    0    0 -0.12821747812E+02  0.57366054806E+01 -0.26146664146E+02  0.29680867665E+02  0.00000000000E+00 0. -1.
</event>
<event>
 5    1  0.1320187E-009  0.9118800E+02  0.7818608E-02  0.1130116E+00
         25   -1    0    0    0    0  0.00000000000E+00  0.00000000000E+00  0.99999998245E-14  0.12500000000E+03  0.12500000000E+03 0.  0.
        -13    1    3    3    0    0  0.95761626197E-01 -0.33875848238E+02  0.30692278067E+02  0.45712245199E+02  0.10566000000E+00 0.  1.
         23    2    1    0    0    0  0.25923575763E+02 -0.14874609094E+02 -0.60789985000E+01  0.94500163954E+02  0.89442948233E+02 0.  0.
         13    1    3    3    0    0  0.25827814137E+02  0.19001239143E+02 -0.36771276567E+02  0.48787918755E+02  0.10566000000E+00 0. -1.
         22    1    1    0    0    0 -0.25923575763E+02  0.14874609094E+02  0.60789985000E+01  0.30499836046E+02  0.00000000000E+00 0. -1.
</event>
<event>
 5    1  0.1320187E-009  0.9118800E+02  0.7818608E-02  0.1130116E+00
         25   -1    0    0    0    0  0.00000000000E+00  0.00000000000E+00  0.99999998245E-14  0.12500000000E+03  0.12500000000E+03 0.  0.
        -13    1    3    3    0    0  0.14815852426E+01 -0.28224978550E+02  0.46793147802E+02  0.54666757305E+02  0.10566000000E+00 0.  1.
         23    2    1    0    0    0 -0.19908861984E+02 -0.53266811425E+01  0.13634858303E+02  0.10028875401E+03  0.97196648616E+02 0.  0.
         13    1    3    3    0    0 -0.21390447227E+02  0.22898297407E+02 -0.33158289499E+02  0.45621996704E+02  0.10566000000E+00 0. -1.
         22    1    1    0    0    0  0.19908861984E+02  0.53266811425E+01 -0.13634858303E+02  0.24711245991E+02  0.00000000000E+00 0.  1.
</event>
<event>
 5    1  0.1320187E-009  0.9118800E+02  0.7818608E-02  0.1130116E+00
         25   -1    0    0    0    0  0.00000000000E+00  0.00000000000E+00  0.99999998245E-14  0.12500000000E+03  0.12500000000E+03 0.  0.
        -13    1    3    3    0    0  0.27513139213E+02  0.20287122780E+02 -0.31976249129E+02  0.46808459197E+02  0.10566000000E+00 0. -1.
         23    2    1    0    0    0 -0.98830768604E+01  0.28126160400E+02 -0.24670998437E+01  0.95086078681E+02  0.90258072604E+02 0.  0.
         13    1    3    3    0    0 -0.37396216073E+02  0.78390376199E+01  0.29509149285E+02  0.48277619483E+02  0.10566000000E+00 0.  1.
         22    1    1    0    0    0  0.98830768604E+01 -0.28126160400E+02  0.24670998437E+01  0.29913921319E+02  0.00000000000E+00 0. -1.
</event>
<event>
 5    1  0.1320187E-009  0.9118800E+02  0.7818608E-02  0.1130116E+00
         25   -1    0    0    0    0  0.00000000000E+00  0.00000000000E+00  0.99999998245E-14  0.12500000000E+03  0.12500000000E+03 0.  0.
        -13    1    3    3    0    0 -0.48515817113E+02 -0.10000468436E+02 -0.14173775469E+02  0.51523790177E+02  0.10566000000E+00 0.  1.
         23    2    1    0    0    0 -0.22226382465E+02  0.10007550418E+02  0.15651374009E+02  0.96032282603E+02  0.91559110145E+02 0.  0.
         13    1    3    3    0    0  0.26289434648E+02  0.20008018853E+02  0.29825149479E+02  0.44508492426E+02  0.10566000000E+00 0. -1.
         22    1    1    0    0    0  0.22226382465E+02 -0.10007550418E+02 -0.15651374009E+02  0.28967717397E+02  0.00000000000E+00 0.  1.
</event>
<event>
 5    1  0.1320187E-009  0.9118800E+02  0.7818608E-02  0.1130116E+00
         25   -1    0    0    0    0  0.00000000000E+00  0.00000000000E+00  0.99999998245E-14  0.12500000000E+03  0.12500000000E+03 0.  0.
        -13    1    3    3    0    0 -0.61167814300E+00  0.73487087140E+01  0.44365999868E+02  0.44974779357E+02  0.10566000000E+00 0.  1.
         23    2    1    0    0    0 -0.26942750191E+02  0.29017039485E+01 -0.12941706096E+01  0.97870559327E+02  0.94035311622E+02 0.  0.
         13    1    3    3    0    0 -0.26331072048E+02 -0.44470047655E+01 -0.45660170478E+02  0.52895779970E+02  0.10566000000E+00 0. -1.
         22    1    1    0    0    0  0.26942750191E+02 -0.29017039485E+01  0.12941706096E+01  0.27129440673E+02  0.00000000000E+00 0. -1.
</event>
<event>
 5    1  0.1320187E-009  0.9118800E+02  0.7818608E-02  0.1130116E+00
         25   -1    0    0    0    0  0.00000000000E+00  0.00000000000E+00  0.99999998245E-14  0.12500000000E+03  0.12500000000E+03 0.  0.
        -13    1    3    3    0    0 -0.80909138459E+01  0.33160026745E+02  0.36863979968E+01  0.34331486347E+02  0.10566000000E+00 0. -1.
         23    2    1    0    0    0  0.70508584349E+01 -0.23304871029E+02  0.18242015802E+02  0.94576279667E+02  0.89549259722E+02 0.  0.
         13    1    3    3    0    0  0.15141772281E+02 -0.56464897774E+02  0.14555617806E+02  0.60244793320E+02  0.10566000000E+00 0.  1.
         22    1    1    0    0    0 -0.70508584349E+01  0.23304871029E+02 -0.18242015802E+02  0.30423720333E+02  0.00000000000E+00 0.  1.
</event>
<event>
 5    1  0.1320187E-009  0.9118800E+02  0.7818608E-02  0.1130116E+00
         25   -1    0    0    0    0  0.00000000000E+00  0.00000000000E+00  0.99999998245E-14  0.12500000000E+03  0.12500000000E+03 0.  0.
        -13    1    3    3    0    0  0.23933100880E+02 -0.23521616925E+02  0.29957988364E+01  0.33690440116E+02  0.10566000000E+00 0.  1.
         23    2    1    0    0    0 -0.16443346525E+02  0.23761107907E+02  0.36795009266E+01  0.95870760035E+02  0.91338327161E+02 0.  0.
         13    1    3    3    0    0 -0.40376447405E+02  0.47282724832E+02  0.68370209026E+00  0.62180319918E+02  0.10566000000E+00 0. -1.
         22    1    1    0    0    0  0.16443346525E+02 -0.23761107907E+02 -0.36795009266E+01  0.29129239965E+02  0.00000000000E+00 0. -1.
</event>
<event>
 5    1  0.1320187E-009  0.9118800E+02  0.7818608E-02  0.1130116E+00
         25   -1    0    0    0    0  0.00000000000E+00  0.00000000000E+00  0.99999998245E-14  0.12500000000E+03  0.12500000000E+03 0.  0.
        -13    1    3    3    0    0 -0.34682283223E+02 -0.25543194800E+01 -0.18346640313E+01  0.34824739392E+02  0.10566000000E+00 0. -1.
         23    2    1    0    0    0  0.21276172097E+02  0.16396283586E+01  0.20676069341E+02  0.95286977204E+02  0.90535873007E+02 0.  0.
         13    1    3    3    0    0  0.55958455320E+02  0.41939478386E+01  0.22510733373E+02  0.60462237812E+02  0.10566000000E+00 0.  1.
         22    1    1    0    0    0 -0.21276172097E+02 -0.16396283586E+01 -0.20676069341E+02  0.29713022796E+02  0.00000000000E+00 0.  1.
</event>
<event>
 5    1  0.1320187E-009  0.9118800E+02  0.7818608E-02  0.1130116E+00
         25   -1    0    0    0    0  0.00000000000E+00  0.00000000000E+00  0.99999998245E-14  0.12500000000E+03  0.12500000000E+03 0.  0.
        -13    1    3    3    0    0 -0.18939614719E+02  0.25189008831E+02 -0.15134299407E+02  0.34960740183E+02  0.10566000000E+00 0. -1.
         23    2    1    0    0    0  0.13835719705E+02 -0.23778691752E+02 -0.14529143214E+02  0.93888116037E+02  0.88583457876E+02 0.  0.
         13    1    3    3    0    0  0.32775334424E+02 -0.48967700583E+02  0.60515619265E+00  0.58927375854E+02  0.10566000000E+00 0.  1.
         22    1    1    0    0    0 -0.13835719705E+02  0.23778691752E+02  0.14529143214E+02  0.31111883963E+02  0.00000000000E+00 0.  1.
</event>
<event>
 5    1  0.1320187E-009  0.9118800E+02  0.7818608E-02  0.1130116E+00
         25   -1    0    0    0    0  0.00000000000E+00  0.00000000000E+00  0.99999998245E-14  0.12500000000E+03  0.12500000000E+03 0.  0.
        -13    1    3    3    0    0 -0.15340977189E+02 -0.38534472592E+02  0.19472414159E+02  0.45819616282E+02  0.10566000000E+00 0.  1.
         23    2    1    0    0    0 -0.73649283370E+00 -0.15285816524E+02 -0.23584619929E+02  0.96885361363E+02  0.92716451295E+02 0.  0.
         13    1    3    3    0    0  0.14604484356E+02  0.23248656068E+02 -0.43057034087E+02  0.51065745081E+02  0.10566000000E+00 0. -1.
         22    1    1    0    0    0  0.73649283370E+00  0.15285816524E+02  0.23584619929E+02  0.28114638637E+02  0.00000000000E+00 0.  1.
</event>
<event>
 5    1  0.1320187E-009  0.9118800E+02  0.7818608E-02  0.1130116E+00
         25   -1    0    0    0    0  0.00000000000E+00  0.00000000000E+00  0.99999998245E-14  0.12500000000E+03  0.12500000000E+03 0.  0.
        -13    1    3    3    0    0 -0.97262389260E+01 -0.21874680927E+02 -0.35801601895E+02  0.43068169819E+02  0.10566000000E+00 0.  1.
         23    2    1    0    0    0  0.29601576791E+02 -0.40683920695E+01 -0.93821703520E+01  0.93681789913E+02  0.88291831322E+02 0.  0.
         13    1    3    3    0    0  0.39327815717E+02  0.17806288857E+02  0.26419431543E+02  0.50613620094E+02  0.10566000000E+00 0. -1.
         22    1    1    0    0    0 -0.29601576791E+02  0.40683920695E+01  0.93821703520E+01  0.31318210087E+02  0.00000000000E+00 0. -1.
</event>
<event>
 5    1  0.1320187E-009  0.9118800E+02  0.7818608E-02  0.1130116E+00
         25   -1    0    0    0    0  0.00000000000E+00  0.00000000000E+00  0.99999998245E-14  0.12500000000E+03  0.12500000000E+03 0.  0.
        -13    1    3    3    0    0  0.41190292257E+02 -0.32436122196E+02  0.48946730578E+01  0.52656539838E+02  0.10566000000E+00 0. -1.
         23    2    1    0    0    0  0.23583907236E+02 -0.36745122780E+01 -0.19418621722E+02  0.94230118775E+02  0.89064750007E+02 0.  0.
         13    1    3    3    0    0 -0.17606385020E+02  0.28761609918E+02 -0.24313294780E+02  0.41573578937E+02  0.10566000000E+00 0.  1.
         22    1    1    0    0    0 -0.23583907236E+02  0.36745122780E+01  0.19418621722E+02  0.30769881225E+02  0.00000000000E+00 0.  1.
</event>
<event>
 5    1  0.1320187E-009  0.9118800E+02  0.7818608E-02  0.1130116E+00
         25   -1    0    0    0    0  0.00000000000E+00  0.00000000000E+00  0.99999998245E-14  0.12500000000E+03  0.12500000000E+03 0.  0.
        -13    1    3    3    0    0  0.31813775537E+02  0.15738938977E+02 -0.13812800735E+02  0.38087204442E+02  0.10566000000E+00 0. -1.
         23    2    1    0    0    0 -0.24831647910E+02  0.15284391636E+02 -0.43974775169E+01  0.95511677326E+02  0.90845579593E+02 0.  0.
         13    1    3    3    0    0 -0.56645423447E+02 -0.45454734061E+00  0.94153232177E+01  0.57424472884E+02  0.10566000000E+00 0.  1.
         22    1    1    0    0    0  0.24831647910E+02 -0.15284391636E+02  0.43974775169E+01  0.29488322674E+02  0.00000000000E+00 0.  1.
</event>
<event>
 5    1  0.1320187E-009  0.9118800E+02  0.7818608E-02  0.1130116E+00
         25   -1    0    0    0    0  0.00000000000E+00  0.00000000000E+00  0.99999998245E-14  0.12500000000E+03  0.12500000000E+03 0.  0.
        -13    1    3    3    0    0 -0.56052471286E+02  0.14593703770E+02 -0.98367177305E+00  0.57929565000E+02  0.10566000000E+00 0.  1.
         23    2    1    0    0    0 -0.24310036266E+02 -0.14846994648E+01 -0.15248695912E+02  0.96264918257E+02  0.91876164288E+02 0.  0.
         13    1    3    3    0    0  0.31742435020E+02 -0.16078403235E+02 -0.14265024139E+02  0.38335353256E+02  0.10566000000E+00 0. -1.
         22    1    1    0    0    0  0.24310036266E+02  0.14846994648E+01  0.15248695912E+02  0.28735081743E+02  0.00000000000E+00 0. -1.
</event>
<event>
 5    1  0.1320187E-009  0.9118800E+02  0.7818608E-02  0.1130116E+00
         25   -1    0    0    0    0  0.00000000000E+00  0.00000000000E+00  0.99999998245E-14  0.12500000000E+03  0.12500000000E+03 0.  0.
        -13    1    3    3    0    0 -0.14058372804E+02  0.49356988455E+02  0.17364727555E+02  0.54178363600E+02  0.10566000000E+00 0. -1.
         23    2    1    0    0    0 -0.13177247516E+02  0.70962507264E+01  0.23749633321E+02  0.96927919397E+02  0.92773810148E+02 0.  0.
         13    1    3    3    0    0  0.88112528746E+00 -0.42260737729E+02  0.63849057663E+01  0.42749555797E+02  0.10566000000E+00 0.  1.
         22    1    1    0    0    0  0.13177247516E+02 -0.70962507264E+01 -0.23749633321E+02  0.28072080603E+02  0.00000000000E+00 0.  1.
</event>
<event>
 5    1  0.1320187E-009  0.9118800E+02  0.7818608E-02  0.1130116E+00
         25   -1    0    0    0    0  0.00000000000E+00  0.00000000000E+00  0.99999998245E-14  0.12500000000E+03  0.12500000000E+03 0.  0.
        -13    1    3    3    0    0 -0.23166307461E+01  0.33678373824E+02  0.13118323968E+02  0.36217416103E+02  0.10566000000E+00 0. -1.
         23    2    1    0    0    0 -0.21799024620E+02 -0.10552435894E+02 -0.18974256124E+02  0.94233560928E+02  0.89069580846E+02 0.  0.
         13    1    3    3    0    0 -0.19482393874E+02 -0.44230809718E+02 -0.32092580092E+02  0.58016144825E+02  0.10566000000E+00 0.  1.
         22    1    1    0    0    0  0.21799024620E+02  0.10552435894E+02  0.18974256124E+02  0.30766439072E+02  0.00000000000E+00 0.  1.
</event>
<event>
 5    1  0.1320187E-009  0.9118800E+02  0.7818608E-02  0.1130116E+00
         25   -1    0    0    0    0  0.00000000000E+00  0.00000000000E+00  0.99999998245E-14  0.12500000000E+03  0.12500000000E+03 0.  0.
        -13    1    3    3    0    0  0.19506251273E+02 -0.23566582979E+02  0.28655250124E+02  0.41916729306E+02  0.10566000000E+00 0. -1.
         23    2    1    0    0    0  0.16351549799E+02 -0.67537099971E+01 -0.22800122049E+02  0.96141182543E+02  0.91707663997E+02 0.  0.
         13    1    3    3    0    0 -0.31547014742E+01  0.16812872982E+02 -0.51455372173E+02  0.54224453237E+02  0.10566000000E+00 0.  1.
         22    1    1    0    0    0 -0.16351549799E+02  0.67537099971E+01  0.22800122049E+02  0.28858817457E+02  0.00000000000E+00 0.  1.
</event>
<event>
 5    1  0.1320187E-009  0.9118800E+02  0.7818608E-02  0.1130116E+00
         25   -1    0    0    0    0  0.00000000000E+00  0.00000000000E+00  0.99999998245E-14  0.12500000000E+03  0.12500000000E+03 0.  0.
        -13    1    3    3    0    0 -0.13864591444E+02 -0.26301545141E+02  0.36802375851E+02  0.47311987963E+02  0.10566000000E+00 0.  1.
         23    2    1    0    0    0  0.68542569851E+01 -0.28290290106E+02 -0.63362580648E+01  0.95209573360E+02  0.90428940833E+02 0.  0.
         13    1    3    3    0    0  0.20718848429E+02 -0.19887449655E+01 -0.43138633916E+02  0.47897585398E+02  0.10566000000E+00 0. -1.
         22    1    1    0    0    0 -0.68542569851E+01  0.28290290106E+02  0.63362580648E+01  0.29790426640E+02  0.00000000000E+00 0. -1.
</event>
<event>
 5    1  0.1320187E-009  0.9118800E+02  0.7818608E-02  0.1130116E+00
         25   -1    0    0    0    0  0.00000000000E+00  0.00000000000E+00  0.99999998245E-14  0.12500000000E+03  0.12500000000E+03 0.  0.
        -13    1    3    3    0    0 -0.37324371051E+02 -0.13898164291E+02 -0.14066522820E+02  0.42239150954E+02  0.10566000000E+00 0.  1.
         23    2    1    0    0    0 -0.14882005802E+02  0.26729044091E+02  0.76246164624E+01  0.93471430878E+02  0.87993509530E+02 0.  0.
         13    1    3    3    0    0  0.22442365248E+02  0.40627208382E+02  0.21691139282E+02  0.51232279924E+02  0.10566000000E+00 0. -1.
         22    1    1    0    0    0  0.14882005802E+02 -0.26729044091E+02 -0.76246164624E+01  0.31528569122E+02  0.00000000000E+00 0. -1.
</event>
<event>
 5    1  0.1320187E-009  0.9118800E+02  0.7818608E-02  0.1130116E+00
         25   -1    0    0    0    0  0.00000000000E+00  0.00000000000E+00  0.99999998245E-14  0.12500000000E+03  0.12500000000E+03 0.  0.
        -13    1    3    3    0    0  0.29850238870E+02  0.59664203974E+01  0.10512523270E+02  0.32204956800E+02  0.10566000000E+00 0. -1.
         23    2    1    0    0    0 -0.27434992414E+02 -0.99641648505E+01 -0.84472750967E+01  0.94613821456E+02  0.89601648222E+02 0.  0.
         13    1    3    3    0    0 -0.57285231284E+02 -0.15930585248E+02 -0.18959798367E+02  0.62408864657E+02  0.10566000000E+00 0.  1.
         22    1    1    0    0    0  0.27434992414E+02  0.99641648505E+01  0.84472750967E+01  0.30386178544E+02  0.00000000000E+00 0.  1.
</event>
<event>
 5    1  0.1320187E-009  0.9118800E+02  0.7818608E-02  0.1130116E+00
         25   -1    0    0    0    0  0.00000000000E+00  0.00000000000E+00  0.99999998245E-14  0.12500000000E+03  0.12500000000E+03 0.  0.
        -13    1    3    3    0    0 -0.54911654296E+02 -0.16604045707E+02  0.21644839663E+02  0.61314715684E+02  0.10566000000E+00 0. -1.
         23    2    1    0    0    0 -0.28944760659E+02 -0.18283670554E+01  0.48299531798E+01  0.95598120070E+02  0.90964443700E+02 0.  0.
         13    1    3    3    0    0  0.25966893637E+02  0.14775678652E+02 -0.16814886484E+02  0.34283404386E+02  0.10566000000E+00 0.  1.
         22    1    1    0    0    0  0.28944760659E+02  0.18283670554E+01 -0.48299531798E+01  0.29401879930E+02  0.00000000000E+00 0. -1.
</event>
<event>
 5    1  0.1320187E-009  0.9118800E+02  0.7818608E-02  0.1130116E+00
         25   -1    0    0    0    0  0.00000000000E+00  0.00000000000E+00  0.99999998245E-14  0.12500000000E+03  0.12500000000E+03 0.  0.
        -13    1    3    3    0    0  0.17206359249E+02  0.30393474460E+02 -0.52198932571E+01  0.35314027497E+02  0.10566000000E+00 0.  1.
         23    2    1    0    0    0  0.20264012315E+01 -0.22841955551E+02  0.18497010936E+02  0.95538149262E+02  0.90881996652E+02 0.  0.
         13    1    3    3    0    0 -0.15179958018E+02 -0.53235430011E+02  0.23716904193E+02  0.60224121766E+02  0.10566000000E+00 0. -1.
         22    1    1    0    0    0 -0.20264012315E+01  0.22841955551E+02 -0.18497010936E+02  0.29461850738E+02  0.00000000000E+00 0. -1.
</event>
<event>
 5    1  0.1320187E-009  0.9118800E+02  0.7818608E-02  0.1130116E+00
         25   -1    0    0    0    0  0.00000000000E+00  0.00000000000E+00  0.99999998245E-14  0.12500000000E+03  0.12500000000E+03 0.  0.
        -13    1    3    3    0    0  0.23555111233E+01  0.33446952952E+02 -0.50485994004E+02  0.60606054558E+02  0.10566000000E+00 0.  1.
         23    2    1    0    0    0 -0.60132539773E+01  0.73027917728E+01 -0.25785151730E+02  0.97534311572E+02  0.93587274205E+02 0.  0.
         13    1    3    3    0    0 -0.83687651006E+01 -0.26144161179E+02  0.24700842274E+02  0.36928257015E+02  0.10566000000E+00 0. -1.
         22    1    1    0    0    0  0.60132539773E+01 -0.73027917728E+01  0.25785151730E+02  0.27465688428E+02  0.00000000000E+00 0.  1.
</event>
<event>
 5    1  0.1320187E-009  0.9118800E+02  0.7818608E-02  0.1130116E+00
         25   -1    0    0    0    0  0.00000000000E+00  0.00000000000E+00  0.99999998245E-14  0.12500000000E+03  0.12500000000E+03 0.  0.
        -13    1    3    3    0    0  0.34106142588E+01  0.10576443025E+02  0.34581186870E+02  0.36323037952E+02  0.10566000000E+00 0. -1.
         23    2    1    0    0    0  0.87071348086E+01 -0.24394655385E+02 -0.13324837344E+02  0.95871582635E+02  0.91339452915E+02 0.  0.
         13    1    3    3    0    0  0.52965205499E+01 -0.34971098410E+02 -0.47906024214E+02  0.59548544684E+02  0.10566000000E+00 0.  1.
         22    1    1    0    0    0 -0.87071348086E+01  0.24394655385E+02  0.13324837344E+02  0.29128417365E+02  0.00000000000E+00 0.  1.
</event>
<event>
 5    1  0.1320187E-009  0.9118800E+02  0.7818608E-02  0.1130116E+00
         25   -1    0    0    0    0  0.00000000000E+00  0.00000000000E+00  0.99999998245E-14  0.12500000000E+03  0.12500000000E+03 0.  0.
        -13    1    3    3    0    0 -0.20156744837E+02 -0.90267825701E+01  0.12299347915E+01  0.22120150760E+02  0.10566000000E+00 0. -1.
         23    2    1    0    0    0  0.37062423826E+02 -0.16412744198E+02  0.15584875883E+02  0.81573167416E+02  0.69052819305E+02 0.  0.
         13    1    3    3    0    0  0.57219168664E+02 -0.73859616279E+01  0.14354941092E+02  0.59453016656E+02  0.10566000000E+00 0.  1.
         22    1    1    0    0    0 -0.37062423826E+02  0.16412744198E+02 -0.15584875883E+02  0.43426832584E+02  0.00000000000E+00 0.  1.
</event>
<event>
 5    1  0.1320187E-009  0.9118800E+02  0.7818608E-02  0.1130116E+00
         25   -1    0    0    0    0  0.00000000000E+00  0.00000000000E+00  0.99999998245E-14  0.12500000000E+03  0.12500000000E+03 0.  0.
        -13    1    3    3    0    0  0.10273916051E+02  0.39615125408E+02  0.18282948540E+02  0.44823976659E+02  0.10566000000E+00 0. -1.
         23    2    1    0    0    0  0.74514491100E-01  0.92046110107E+01 -0.24806237274E+02  0.98540978402E+02  0.94922308234E+02 0.  0.
         13    1    3    3    0    0 -0.10199401560E+02 -0.30410514397E+02 -0.43089185814E+02  0.53717001743E+02  0.10566000000E+00 0.  1.
         22    1    1    0    0    0 -0.74514491100E-01 -0.92046110107E+01  0.24806237274E+02  0.26459021598E+02  0.00000000000E+00 0.  1.
</event>
<event>
 5    1  0.1320187E-009  0.9118800E+02  0.7818608E-02  0.1130116E+00
         25   -1    0    0    0    0  0.00000000000E+00  0.00000000000E+00  0.99999998245E-14  0.12500000000E+03  0.12500000000E+03 0.  0.
        -13    1    3    3    0    0  0.23212729411E+02  0.42871830341E+02  0.33505229336E+02  0.59156032663E+02  0.10566000000E+00 0.  1.
         23    2    1    0    0    0  0.87481386456E+01  0.22879957848E+02  0.32973022441E+00  0.10050242618E+03  0.97471054913E+02 0.  0.
         13    1    3    3    0    0 -0.14464590766E+02 -0.19991872494E+02 -0.33175499111E+02  0.41346393520E+02  0.10566000000E+00 0. -1.
         22    1    1    0    0    0 -0.87481386456E+01 -0.22879957848E+02 -0.32973022441E+00  0.24497573817E+02  0.00000000000E+00 0. -1.
</event>
<event>
 5    1  0.1320187E-009  0.9118800E+02  0.7818608E-02  0.1130116E+00
         25   -1    0    0    0    0  0.00000000000E+00  0.00000000000E+00  0.99999998245E-14  0.12500000000E+03  0.12500000000E+03 0.  0.
        -13    1    3    3    0    0  0.32423374132E+02  0.24442823784E+02  0.52664649914E+01  0.40944763306E+02  0.10566000000E+00 0.  1.
         23    2    1    0    0    0 -0.11315248013E+02  0.21248495443E+01  0.27754057972E+02  0.94952744600E+02  0.90073226599E+02 0.  0.
         13    1    3    3    0    0 -0.43738622145E+02 -0.22317974240E+02  0.22487592981E+02  0.54007981294E+02  0.10566000000E+00 0. -1.
         22    1    1    0    0    0  0.11315248013E+02 -0.21248495443E+01 -0.27754057972E+02  0.30047255400E+02  0.00000000000E+00 0.  1.
</event>
<event>
 5    1  0.1320187E-009  0.9118800E+02  0.7818608E-02  0.1130116E+00
         25   -1    0    0    0    0  0.00000000000E+00  0.00000000000E+00  0.99999998245E-14  0.12500000000E+03  0.12500000000E+03 0.  0.
        -13    1    3    3    0    0 -0.96741250783E+01  0.42989759376E+02 -0.32794664046E+02  0.54929129441E+02  0.10566000000E+00 0.  1.
         23    2    1    0    0    0 -0.15556335367E+02  0.25480163871E+02  0.27838335667E+01  0.95016870573E+02  0.90162174126E+02 0.  0.
         13    1    3    3    0    0 -0.58822102886E+01 -0.17509595506E+02  0.35578497612E+02  0.40087741132E+02  0.10566000000E+00 0. -1.
         22    1    1    0    0    0  0.15556335367E+02 -0.25480163871E+02 -0.27838335667E+01  0.29983129427E+02  0.00000000000E+00 0. -1.
</event>
<event>
 5    1  0.1320187E-009  0.9118800E+02  0.7818608E-02  0.1130116E+00
         25   -1    0    0    0    0  0.00000000000E+00  0.00000000000E+00  0.99999998245E-14  0.12500000000E+03  0.12500000000E+03 0.  0.
        -13    1    3    3    0    0 -0.25110359318E+02  0.51278846222E+02  0.11933810298E+02  0.58330756957E+02  0.10566000000E+00 0.  1.
         23    2    1    0    0    0 -0.14293290711E+02  0.23885965255E+02 -0.10391586504E+02  0.95287669806E+02  0.90536829254E+02 0.  0.
         13    1    3    3    0    0  0.10817068607E+02 -0.27392880967E+02 -0.22325396802E+02  0.36956912849E+02  0.10566000000E+00 0. -1.
         22    1    1    0    0    0  0.14293290711E+02 -0.23885965255E+02  0.10391586504E+02  0.29712330194E+02  0.00000000000E+00 0.  1.
</event>
<event>
 5    1  0.1320187E-009  0.9118800E+02  0.7818608E-02  0.1130116E+00
         25   -1    0    0    0    0  0.00000000000E+00  0.00000000000E+00  0.99999998245E-14  0.12500000000E+03  0.12500000000E+03 0.  0.
        -13    1    3    3    0    0  0.40201468862E+02 -0.18809269959E-02 -0.31976746314E+02  0.51368098768E+02  0.10566000000E+00 0. -1.
         23    2    1    0    0    0  0.12639541656E+02 -0.25691299310E+02 -0.13005459782E+02  0.93552538137E+02  0.88108651869E+02 0.  0.
         13    1    3    3    0    0 -0.27561927206E+02 -0.25689418383E+02  0.18971286532E+02  0.42184439369E+02  0.10566000000E+00 0.  1.
         22    1    1    0    0    0 -0.12639541656E+02  0.25691299310E+02  0.13005459782E+02  0.31447461863E+02  0.00000000000E+00 0. -1.
</event>
<event>
 5    1  0.1320187E-009  0.9118800E+02  0.7818608E-02  0.1130116E+00
         25   -1    0    0    0    0  0.00000000000E+00  0.00000000000E+00  0.99999998245E-14  0.12500000000E+03  0.12500000000E+03 0.  0.
        -13    1    3    3    0    0  0.14788941176E+02 -0.36648330509E+02 -0.36812280579E+01  0.39691000419E+02  0.10566000000E+00 0.  1.
         23    2    1    0    0    0 -0.27389182768E+02  0.24128577652E+01  0.18429800119E+01  0.97443044605E+02  0.93465293833E+02 0.  0.
         13    1    3    3    0    0 -0.42178123945E+02  0.39061188274E+02  0.55242080698E+01  0.57752044186E+02  0.10566000000E+00 0. -1.
         22    1    1    0    0    0  0.27389182768E+02 -0.24128577652E+01 -0.18429800119E+01  0.27556955395E+02  0.00000000000E+00 0. -1.
</event>
<event>
 5    1  0.1320187E-009  0.9118800E+02  0.7818608E-02  0.1130116E+00
         25   -1    0    0    0    0  0.00000000000E+00  0.00000000000E+00  0.99999998245E-14  0.12500000000E+03  0.12500000000E+03 0.  0.
        -13    1    3    3    0    0  0.20631733990E+02  0.40268467497E+02 -0.36758817070E+02  0.58296138109E+02  0.10566000000E+00 0. -1.
         23    2    1    0    0    0 -0.74580557467E+01  0.14805498392E+02 -0.17766385218E+02  0.10070041519E+03  0.97724632503E+02 0.  0.
         13    1    3    3    0    0 -0.28089789737E+02 -0.25462969106E+02  0.18992431852E+02  0.42404277082E+02  0.10566000000E+00 0.  1.
         22    1    1    0    0    0  0.74580557467E+01 -0.14805498392E+02  0.17766385218E+02  0.24299584809E+02  0.00000000000E+00 0. -1.
</event>
<event>
 5    1  0.1320187E-009  0.9118800E+02  0.7818608E-02  0.1130116E+00
         25   -1    0    0    0    0  0.00000000000E+00  0.00000000000E+00  0.99999998245E-14  0.12500000000E+03  0.12500000000E+03 0.  0.
        -13    1    3    3    0    0  0.42612858149E+02  0.31164051584E+02  0.24761006975E+02  0.58310997429E+02  0.10566000000E+00 0. -1.
         23    2    1    0    0    0  0.28492366655E+02  0.23130953724E+01  0.51267054029E+01  0.95957815576E+02  0.91457388406E+02 0.  0.
         13    1    3    3    0    0 -0.14120491493E+02 -0.28850956212E+02 -0.19634301572E+02  0.37646818147E+02  0.10566000000E+00 0.  1.
         22    1    1    0    0    0 -0.28492366655E+02 -0.23130953724E+01 -0.51267054029E+01  0.29042184424E+02  0.00000000000E+00 0. -1.
</event>
<event>
 5    1  0.1320187E-009  0.9118800E+02  0.7818608E-02  0.1130116E+00
         25   -1    0    0    0    0  0.00000000000E+00  0.00000000000E+00  0.99999998245E-14  0.12500000000E+03  0.12500000000E+03 0.  0.
        -13    1    3    3    0    0 -0.47522195496E+02  0.34805705098E+02 -0.16357336292E+02  0.61134031330E+02  0.10566000000E+00 0. -1.
         23    2    1    0    0    0 -0.29225276530E+02  0.12290008784E+02 -0.14300691333E+02  0.90219676874E+02  0.83246136358E+02 0.  0.
         13    1    3    3    0    0  0.18296918966E+02 -0.22515696314E+02  0.20566449595E+01  0.29085645544E+02  0.10566000000E+00 0.  1.
         22    1    1    0    0    0  0.29225276530E+02 -0.12290008784E+02  0.14300691333E+02  0.34780323126E+02  0.00000000000E+00 0. -1.
</event>
<event>
 5    1  0.1320187E-009  0.9118800E+02  0.7818608E-02  0.1130116E+00
         25   -1    0    0    0    0  0.00000000000E+00  0.00000000000E+00  0.99999998245E-14  0.12500000000E+03  0.12500000000E+03 0.  0.
        -13    1    3    3    0    0 -0.99931587473E+01 -0.18909722027E+02  0.35086936822E+02  0.41091910499E+02  0.10566000000E+00 0.  1.
         23    2    1    0    0    0 -0.25961762109E+02  0.41043904184E+01 -0.12176213773E+02  0.96032444108E+02  0.91559330639E+02 0.  0.
         13    1    3    3    0    0 -0.15968603361E+02  0.23014112445E+02 -0.47263150596E+02  0.54940533609E+02  0.10566000000E+00 0. -1.
         22    1    1    0    0    0  0.25961762109E+02 -0.41043904184E+01  0.12176213773E+02  0.28967555892E+02  0.00000000000E+00 0.  1.
</event>
<event>
 5    1  0.1320187E-009  0.9118800E+02  0.7818608E-02  0.1130116E+00
         25   -1    0    0    0    0  0.00000000000E+00  0.00000000000E+00  0.99999998245E-14  0.12500000000E+03  0.12500000000E+03 0.  0.
        -13    1    3    3    0    0  0.40344967711E+01  0.35316902182E+02 -0.29499689150E+02  0.46193111693E+02  0.10566000000E+00 0.  1.
         23    2    1    0    0    0 -0.24099420440E+02 -0.42841670915E+01 -0.10811252254E+02  0.98241462512E+02  0.94527062939E+02 0.  0.
         13    1    3    3    0    0 -0.28133917211E+02 -0.39601069273E+02  0.18688436897E+02  0.52048350818E+02  0.10566000000E+00 0. -1.
         22    1    1    0    0    0  0.24099420440E+02  0.42841670915E+01  0.10811252254E+02  0.26758537488E+02  0.00000000000E+00 0. -1.
</event>
<event>
 4    1  0.1320187E-009  0.9118800E+02  0.7818608E-02  0.1130116E+00
         25   -1    0    0    0    0  0.00000000000E+00  0.00000000000E+00  0.99999998245E-14  0.12500000000E+03  0.12500000000E+03 0.  0.
        -13    1    1    0    0    0  0.19250584088E+02  0.35677780833E+02  0.22613335408E+02  0.46420503392E+02  0.10566000000E+00 0.  1.
         13    1    1    0    0    0 -0.16898656629E+02  0.15684476416E+02 -0.18528311555E+01  0.23130316548E+02  0.10566000000E+00 0. -1.
         22    1    1    0    0    0 -0.23519274592E+01 -0.51362257249E+02 -0.20760504252E+02  0.55449180060E+02  0.00000000000E+00 0.  1.
</event>
<event>
 5    1  0.1320187E-009  0.9118800E+02  0.7818608E-02  0.1130116E+00
         25   -1    0    0    0    0  0.00000000000E+00  0.00000000000E+00  0.99999998245E-14  0.12500000000E+03  0.12500000000E+03 0.  0.
        -13    1    3    3    0    0 -0.69788451049E+01  0.43622152064E+02  0.47228902112E+00  0.44179527506E+02  0.10566000000E+00 0. -1.
         23    2    1    0    0    0  0.20786141057E+02  0.97898374452E+00 -0.17154383654E+02  0.98031593525E+02  0.94249129340E+02 0.  0.
         13    1    3    3    0    0  0.27764986162E+02 -0.42643168319E+02 -0.17626672675E+02  0.53852066019E+02  0.10566000000E+00 0.  1.
         22    1    1    0    0    0 -0.20786141057E+02 -0.97898374452E+00  0.17154383654E+02  0.26968406475E+02  0.00000000000E+00 0.  1.
</event>
<event>
 5    1  0.1320187E-009  0.9118800E+02  0.7818608E-02  0.1130116E+00
         25   -1    0    0    0    0  0.00000000000E+00  0.00000000000E+00  0.99999998245E-14  0.12500000000E+03  0.12500000000E+03 0.  0.
        -13    1    3    3    0    0  0.18050275368E+01  0.26881206394E+02  0.57889454181E+01  0.27556858216E+02  0.10566000000E+00 0.  1.
         23    2    1    0    0    0  0.33418106578E+02 -0.93726736162E+01 -0.22762810169E+02  0.83493827149E+02  0.72446233768E+02 0.  0.
         13    1    3    3    0    0  0.31613079042E+02 -0.36253880011E+02 -0.28551755587E+02  0.55936968933E+02  0.10566000000E+00 0. -1.
         22    1    1    0    0    0 -0.33418106578E+02  0.93726736162E+01  0.22762810169E+02  0.41506172851E+02  0.00000000000E+00 0. -1.
</event>
<event>
 5    1  0.1320187E-009  0.9118800E+02  0.7818608E-02  0.1130116E+00
         25   -1    0    0    0    0  0.00000000000E+00  0.00000000000E+00  0.99999998245E-14  0.12500000000E+03  0.12500000000E+03 0.  0.
        -13    1    3    3    0    0 -0.22239947870E+02  0.33865583016E+02  0.33091212431E+02  0.52311877222E+02  0.10566000000E+00 0.  1.
         23    2    1    0    0    0  0.14394480458E+01  0.32028371978E+02  0.12963308762E+00  0.92939035776E+02  0.87233932297E+02 0.  0.
         13    1    3    3    0    0  0.23679395915E+02 -0.18372110375E+01 -0.32961579344E+02  0.40627158554E+02  0.10566000000E+00 0. -1.
         22    1    1    0    0    0 -0.14394480458E+01 -0.32028371978E+02 -0.12963308762E+00  0.32060964224E+02  0.00000000000E+00 0.  1.
</event>
<event>
 5    1  0.1320187E-009  0.9118800E+02  0.7818608E-02  0.1130116E+00
         25   -1    0    0    0    0  0.00000000000E+00  0.00000000000E+00  0.99999998245E-14  0.12500000000E+03  0.12500000000E+03 0.  0.
        -13    1    3    3    0    0  0.26340951739E+02  0.30420549927E+02  0.23580828446E+02  0.46640349812E+02  0.10566000000E+00 0.  1.
         23    2    1    0    0    0 -0.11365926699E+02  0.27810779322E+02 -0.56597862671E+01  0.94427840822E+02  0.89341816667E+02 0.  0.
         13    1    3    3    0    0 -0.37706878438E+02 -0.26097706047E+01 -0.29240614713E+02  0.47787491009E+02  0.10566000000E+00 0. -1.
         22    1    1    0    0    0  0.11365926699E+02 -0.27810779322E+02  0.56597862671E+01  0.30572159178E+02  0.00000000000E+00 0. -1.
</event>
<event>
 5    1  0.1320187E-009  0.9118800E+02  0.7818608E-02  0.1130116E+00
         25   -1    0    0    0    0  0.00000000000E+00  0.00000000000E+00  0.99999998245E-14  0.12500000000E+03  0.12500000000E+03 0.  0.
        -13    1    3    3    0    0  0.33648217079E+01  0.34770705738E+02  0.49893123029E+02  0.60906969160E+02  0.10566000000E+00 0. -1.
         23    2    1    0    0    0  0.10882980907E+02  0.12752361737E+02  0.24085213181E+02  0.95654480797E+02  0.91041859600E+02 0.  0.
         13    1    3    3    0    0  0.75181591989E+01 -0.22018344001E+02 -0.25807909847E+02  0.34747511638E+02  0.10566000000E+00 0.  1.
         22    1    1    0    0    0 -0.10882980907E+02 -0.12752361737E+02 -0.24085213181E+02  0.29345519203E+02  0.00000000000E+00 0. -1.
</event>
<event>
 5    1  0.1320187E-009  0.9118800E+02  0.7818608E-02  0.1130116E+00
         25   -1    0    0    0    0  0.00000000000E+00  0.00000000000E+00  0.99999998245E-14  0.12500000000E+03  0.12500000000E+03 0.  0.
        -13    1    3    3    0    0  0.44549206776E+02 -0.34898824304E+02  0.52716737373E+01  0.56836268968E+02  0.10566000000E+00 0. -1.
         23    2    1    0    0    0  0.26603041791E+02 -0.10608730812E+01 -0.77150485077E+01  0.97280525660E+02  0.93247688524E+02 0.  0.
         13    1    3    3    0    0 -0.17946164985E+02  0.33837951223E+02 -0.12986722245E+02  0.40444256692E+02  0.10566000000E+00 0.  1.
         22    1    1    0    0    0 -0.26603041791E+02  0.10608730812E+01  0.77150485077E+01  0.27719474340E+02  0.00000000000E+00 0. -1.
</event>
<event>
 5    1  0.1320187E-009  0.9118800E+02  0.7818608E-02  0.1130116E+00
         25   -1    0    0    0    0  0.00000000000E+00  0.00000000000E+00  0.99999998245E-14  0.12500000000E+03  0.12500000000E+03 0.  0.
        -13    1    3    3    0    0  0.47777840037E+02 -0.59308591047E+01  0.20742980773E+01  0.48189324179E+02  0.10566000000E+00 0.  1.
         23    2    1    0    0    0  0.48243185454E+01 -0.23523386322E+01  0.26656213520E+02  0.97808801687E+02  0.93953182074E+02 0.  0.
         13    1    3    3    0    0 -0.42953521492E+02  0.35785204725E+01  0.24581915443E+02  0.49619477508E+02  0.10566000000E+00 0. -1.
         22    1    1    0    0    0 -0.48243185454E+01  0.23523386322E+01 -0.26656213520E+02  0.27191198313E+02  0.00000000000E+00 0. -1.
</event>
<event>
 5    1  0.1320187E-009  0.9118800E+02  0.7818608E-02  0.1130116E+00
         25   -1    0    0    0    0  0.00000000000E+00  0.00000000000E+00  0.99999998245E-14  0.12500000000E+03  0.12500000000E+03 0.  0.
        -13    1    3    3    0    0 -0.12048698258E+02 -0.32409427647E+02  0.45511597606E+02  0.57156441551E+02  0.10566000000E+00 0.  1.
         23    2    1    0    0    0 -0.66492243640E+01  0.12914167169E+01  0.29273432965E+02  0.94953139609E+02  0.90073774775E+02 0.  0.
         13    1    3    3    0    0  0.53994738944E+01  0.33700844363E+02 -0.16238164641E+02  0.37796698058E+02  0.10566000000E+00 0. -1.
         22    1    1    0    0    0  0.66492243640E+01 -0.12914167169E+01 -0.29273432965E+02  0.30046860391E+02  0.00000000000E+00 0.  1.
</event>
<event>
 5    1  0.1320187E-009  0.9118800E+02  0.7818608E-02  0.1130116E+00
         25   -1    0    0    0    0  0.00000000000E+00  0.00000000000E+00  0.99999998245E-14  0.12500000000E+03  0.12500000000E+03 0.  0.
        -13    1    3    3    0    0 -0.51700933810E+01  0.39663027925E+02  0.84789349678E+01  0.40887518290E+02  0.10566000000E+00 0.  1.
         23    2    1    0    0    0  0.20443949646E+02  0.46224430747E+01 -0.22527915414E+02  0.94229412908E+02  0.89063759336E+02 0.  0.
         13    1    3    3    0    0  0.25614043027E+02 -0.35040584850E+02 -0.31006850381E+02  0.53341894618E+02  0.10566000000E+00 0. -1.
         22    1    1    0    0    0 -0.20443949646E+02 -0.46224430747E+01  0.22527915414E+02  0.30770587092E+02  0.00000000000E+00 0.  1.
</event>
<event>
 5    1  0.1320187E-009  0.9118800E+02  0.7818608E-02  0.1130116E+00
         25   -1    0    0    0    0  0.00000000000E+00  0.00000000000E+00  0.99999998245E-14  0.12500000000E+03  0.12500000000E+03 0.  0.
        -13    1    3    3    0    0 -0.26777161759E+02  0.12729365498E+02 -0.47070689272E+02  0.55630154506E+02  0.10566000000E+00 0.  1.
         23    2    1    0    0    0 -0.31028528105E+02  0.60022381010E+01 -0.12650619773E+02  0.90958340240E+02  0.84347999739E+02 0.  0.
         13    1    3    3    0    0 -0.42513663466E+01 -0.67271273966E+01  0.34420069499E+02  0.35328185733E+02  0.10566000000E+00 0. -1.
         22    1    1    0    0    0  0.31028528105E+02 -0.60022381010E+01  0.12650619773E+02  0.34041659760E+02  0.00000000000E+00 0.  1.
</event>
<event>
 5    1  0.1320187E-009  0.9118800E+02  0.7818608E-02  0.1130116E+00
         25   -1    0    0    0    0  0.00000000000E+00  0.00000000000E+00  0.99999998245E-14  0.12500000000E+03  0.12500000000E+03 0.  0.
        -13    1    3    3    0    0  0.39323494890E+02  0.25643830015E+01 -0.25048150986E+02  0.46694050396E+02  0.10566000000E+00 0.  1.
         23    2    1    0    0    0 -0.51620714697E+01  0.22052221090E+02 -0.18611229117E+02  0.95685749436E+02  0.91084781160E+02 0.  0.
         13    1    3    3    0    0 -0.44485566359E+02  0.19487838089E+02  0.64369218683E+01  0.48991699040E+02  0.10566000000E+00 0. -1.
         22    1    1    0    0    0  0.51620714697E+01 -0.22052221090E+02  0.18611229117E+02  0.29314250564E+02  0.00000000000E+00 0. -1.
</event>
<event>
 5    1  0.1320187E-009  0.9118800E+02  0.7818608E-02  0.1130116E+00
         25   -1    0    0    0    0  0.00000000000E+00  0.00000000000E+00  0.99999998245E-14  0.12500000000E+03  0.12500000000E+03 0.  0.
        -13    1    3    3    0    0 -0.39868295977E+02 -0.19981370831E+02 -0.21758394314E+02  0.49620309265E+02  0.10566000000E+00 0. -1.
         23    2    1    0    0    0  0.65246118272E+00 -0.27304359403E+02  0.27670586638E+01  0.97548035377E+02  0.93605602633E+02 0.  0.
         13    1    3    3    0    0  0.40520757160E+02 -0.73229885729E+01  0.24525452978E+02  0.47927726112E+02  0.10566000000E+00 0.  1.
         22    1    1    0    0    0 -0.65246118272E+00  0.27304359403E+02 -0.27670586638E+01  0.27451964623E+02  0.00000000000E+00 0.  1.
</event>
<event>
 5    1  0.1320187E-009  0.9118800E+02  0.7818608E-02  0.1130116E+00
         25   -1    0    0    0    0  0.00000000000E+00  0.00000000000E+00  0.99999998245E-14  0.12500000000E+03  0.12500000000E+03 0.  0.
        -13    1    3    3    0    0  0.32064826352E+02 -0.60275581439E+00  0.38586548483E+02  0.50174189494E+02  0.10566000000E+00 0.  1.
         23    2    1    0    0    0  0.55044891237E+01  0.25524652377E+02  0.21561061316E+02  0.91137238084E+02  0.84612703071E+02 0.  0.
         13    1    3    3    0    0 -0.26560337228E+02  0.26127408192E+02 -0.17025487167E+02  0.40963048590E+02  0.10566000000E+00 0. -1.
         22    1    1    0    0    0 -0.55044891237E+01 -0.25524652377E+02 -0.21561061316E+02  0.33862761916E+02  0.00000000000E+00 0.  1.
</event>
<event>
 5    1  0.1320187E-009  0.9118800E+02  0.7818608E-02  0.1130116E+00
         25   -1    0    0    0    0  0.00000000000E+00  0.00000000000E+00  0.99999998245E-14  0.12500000000E+03  0.12500000000E+03 0.  0.
        -13    1    3    3    0    0 -0.70061545061E+01 -0.19115274042E+02 -0.57177756934E+02  0.60694208576E+02  0.10566000000E+00 0. -1.
         23    2    1    0    0    0  0.19197292212E+01 -0.19302177373E+01 -0.33974026565E+02  0.90917077857E+02  0.84286828533E+02 0.  0.
         13    1    3    3    0    0  0.89258837272E+01  0.17185056304E+02  0.23203730369E+02  0.30222869281E+02  0.10566000000E+00 0.  1.
         22    1    1    0    0    0 -0.19197292212E+01  0.19302177373E+01  0.33974026565E+02  0.34082922143E+02  0.00000000000E+00 0. -1.
</event>
<event>
 5    1  0.1320187E-009  0.9118800E+02  0.7818608E-02  0.1130116E+00
         25   -1    0    0    0    0  0.00000000000E+00  0.00000000000E+00  0.99999998245E-14  0.12500000000E+03  0.12500000000E+03 0.  0.
        -13    1    3    3    0    0 -0.75675473380E+01 -0.41010207608E+02 -0.24158887830E+02  0.48195102718E+02  0.10566000000E+00 0.  1.
         23    2    1    0    0    0 -0.14361232620E+01  0.26271586657E+01  0.16546547520E+02  0.10818474956E+03  0.10686995550E+03 0.  0.
         13    1    3    3    0    0  0.61314240760E+01  0.43637366274E+02  0.40705435351E+02  0.59989646837E+02  0.10566000000E+00 0. -1.
         22    1    1    0    0    0  0.14361232620E+01 -0.26271586657E+01 -0.16546547520E+02  0.16815250445E+02  0.00000000000E+00 0. -1.
</event>
<event>
 5    1  0.1320187E-009  0.9118800E+02  0.7818608E-02  0.1130116E+00
         25   -1    0    0    0    0  0.00000000000E+00  0.00000000000E+00  0.99999998245E-14  0.12500000000E+03  0.12500000000E+03 0.  0.
        -13    1    3    3    0    0  0.21141706930E+02 -0.27556132372E+02  0.30615382648E+01  0.34866837881E+02  0.10566000000E+00 0.  1.
         23    2    1    0    0    0 -0.55955143528E+01  0.19696117270E+02  0.24351439723E+02  0.93184289526E+02  0.87584658368E+02 0.  0.
         13    1    3    3    0    0 -0.26737221283E+02  0.47252249642E+02  0.21289901459E+02  0.58317451645E+02  0.10566000000E+00 0. -1.
         22    1    1    0    0    0  0.55955143528E+01 -0.19696117270E+02 -0.24351439723E+02  0.31815710474E+02  0.00000000000E+00 0. -1.
</event>
<event>
 5    1  0.1320187E-009  0.9118800E+02  0.7818608E-02  0.1130116E+00
         25   -1    0    0    0    0  0.00000000000E+00  0.00000000000E+00  0.99999998245E-14  0.12500000000E+03  0.12500000000E+03 0.  0.
        -13    1    3    3    0    0  0.39666794855E+02  0.27162059304E+02  0.22475437565E+02  0.53069657409E+02  0.10566000000E+00 0. -1.
         23    2    1    0    0    0 -0.42337083135E+01  0.17389533338E+02  0.20069840226E+02  0.98109134591E+02  0.94351913853E+02 0.  0.
         13    1    3    3    0    0 -0.43900503168E+02 -0.97725259668E+01 -0.24055973395E+01  0.45039477182E+02  0.10566000000E+00 0.  1.
         22    1    1    0    0    0  0.42337083135E+01 -0.17389533338E+02 -0.20069840226E+02  0.26890865409E+02  0.00000000000E+00 0. -1.
</event>
<event>
 5    1  0.1320187E-009  0.9118800E+02  0.7818608E-02  0.1130116E+00
         25   -1    0    0    0    0  0.00000000000E+00  0.00000000000E+00  0.99999998245E-14  0.12500000000E+03  0.12500000000E+03 0.  0.
        -13    1    3    3    0    0  0.30238274016E+01 -0.23270084444E+02 -0.18118526146E+01  0.23535809655E+02  0.10566000000E+00 0. -1.
         23    2    1    0    0    0  0.20875965058E+02  0.30220677610E+02  0.19002214810E+02  0.83645684143E+02  0.72707778372E+02 0.  0.
         13    1    3    3    0    0  0.17852137656E+02  0.53490762055E+02  0.20814067425E+02  0.60109874487E+02  0.10566000000E+00 0.  1.
         22    1    1    0    0    0 -0.20875965058E+02 -0.30220677610E+02 -0.19002214810E+02  0.41354315857E+02  0.00000000000E+00 0.  1.
</event>
<event>
 5    1  0.1320187E-009  0.9118800E+02  0.7818608E-02  0.1130116E+00
         25   -1    0    0    0    0  0.00000000000E+00  0.00000000000E+00  0.99999998245E-14  0.12500000000E+03  0.12500000000E+03 0.  0.
        -13    1    3    3    0    0 -0.27597257272E+02  0.48260972635E+02 -0.18188307500E+02  0.58494066215E+02  0.10566000000E+00 0.  1.
         23    2    1    0    0    0 -0.86982593262E+01  0.16384873344E+02 -0.22541812302E+02  0.95806557386E+02  0.91250421076E+02 0.  0.
         13    1    3    3    0    0  0.18898997945E+02 -0.31876099290E+02 -0.43535048017E+01  0.37312491171E+02  0.10566000000E+00 0. -1.
         22    1    1    0    0    0  0.86982593262E+01 -0.16384873344E+02  0.22541812302E+02  0.29193442614E+02  0.00000000000E+00 0.  1.
</event>
<event>
 5    1  0.1320187E-009  0.9118800E+02  0.7818608E-02  0.1130116E+00
         25   -1    0    0    0    0  0.00000000000E+00  0.00000000000E+00  0.99999998245E-14  0.12500000000E+03  0.12500000000E+03 0.  0.
        -13    1    3    3    0    0  0.47528267164E+02 -0.28465530083E+01 -0.93872186053E+01  0.48530094589E+02  0.10566000000E+00 0.  1.
         23    2    1    0    0    0  0.32205689036E+01 -0.32439869773E+01 -0.28028437484E+02  0.96601253137E+02  0.92332623077E+02 0.  0.
         13    1    3    3    0    0 -0.44307698260E+02 -0.39743396898E+00 -0.18641218879E+02  0.48071158548E+02  0.10566000000E+00 0. -1.
         22    1    1    0    0    0 -0.32205689036E+01  0.32439869773E+01  0.28028437484E+02  0.28398746863E+02  0.00000000000E+00 0. -1.
</event>
<event>
 5    1  0.1320187E-009  0.9118800E+02  0.7818608E-02  0.1130116E+00
         25   -1    0    0    0    0  0.00000000000E+00  0.00000000000E+00  0.99999998245E-14  0.12500000000E+03  0.12500000000E+03 0.  0.
        -13    1    3    3    0    0  0.26634852870E+02  0.20520582411E+02 -0.17474635695E+02  0.37893056707E+02  0.10566000000E+00 0. -1.
         23    2    1    0    0    0  0.21838526875E+02 -0.18895674797E+02  0.17859423074E+02  0.91045224568E+02  0.84476660339E+02 0.  0.
         13    1    3    3    0    0 -0.47963259943E+01 -0.39416257208E+02  0.35334058768E+02  0.53152167862E+02  0.10566000000E+00 0.  1.
         22    1    1    0    0    0 -0.21838526875E+02  0.18895674797E+02 -0.17859423074E+02  0.33954775432E+02  0.00000000000E+00 0.  1.
</event>
<event>
 5    1  0.1320187E-009  0.9118800E+02  0.7818608E-02  0.1130116E+00
         25   -1    0    0    0    0  0.00000000000E+00  0.00000000000E+00  0.99999998245E-14  0.12500000000E+03  0.12500000000E+03 0.  0.
        -13    1    3    3    0    0  0.32691012836E+02  0.52937403069E+01 -0.36536747194E+01  0.33317960767E+02  0.10566000000E+00 0.  1.
         23    2    1    0    0    0 -0.27717524995E+02 -0.87070144508E+01 -0.58380944772E+01  0.95366292173E+02  0.90645314513E+02 0.  0.
         13    1    3    3    0    0 -0.60408537830E+02 -0.14000754758E+02 -0.21844197578E+01  0.62048331406E+02  0.10566000000E+00 0. -1.
         22    1    1    0    0    0  0.27717524995E+02  0.87070144508E+01  0.58380944772E+01  0.29633707827E+02  0.00000000000E+00 0. -1.
</event>
<event>
 5    1  0.1320187E-009  0.9118800E+02  0.7818608E-02  0.1130116E+00
         25   -1    0    0    0    0  0.00000000000E+00  0.00000000000E+00  0.99999998245E-14  0.12500000000E+03  0.12500000000E+03 0.  0.
        -13    1    3    3    0    0 -0.32537023101E+02  0.44431642644E+02 -0.47060334714E+01  0.55271933704E+02  0.10566000000E+00 0.  1.
         23    2    1    0    0    0 -0.81712299302E+01  0.15491811665E+02 -0.22008901067E+02  0.96872487607E+02  0.92699093317E+02 0.  0.
         13    1    3    3    0    0  0.24365793171E+02 -0.28939830979E+02 -0.17302867596E+02  0.41600553903E+02  0.10566000000E+00 0. -1.
         22    1    1    0    0    0  0.81712299302E+01 -0.15491811665E+02  0.22008901067E+02  0.28127512393E+02  0.00000000000E+00 0.  1.
</event>
<event>
 5    1  0.1320187E-009  0.9118800E+02  0.7818608E-02  0.1130116E+00
         25   -1    0    0    0    0  0.00000000000E+00  0.00000000000E+00  0.99999998245E-14  0.12500000000E+03  0.12500000000E+03 0.  0.
        -13    1    3    3    0    0  0.18288696805E+02 -0.37896465410E+02  0.16921122032E+02  0.45353655379E+02  0.10566000000E+00 0. -1.
         23    2    1    0    0    0 -0.82283283664E+01 -0.15071520302E+02 -0.21609157261E+02  0.97399061801E+02  0.93406452937E+02 0.  0.
         13    1    3    3    0    0 -0.26517025171E+02  0.22824945108E+02 -0.38530279293E+02  0.52045406422E+02  0.10566000000E+00 0.  1.
         22    1    1    0    0    0  0.82283283664E+01  0.15071520302E+02  0.21609157261E+02  0.27600938199E+02  0.00000000000E+00 0.  1.
</event>
<event>
 5    1  0.1320187E-009  0.9118800E+02  0.7818608E-02  0.1130116E+00
         25   -1    0    0    0    0  0.00000000000E+00  0.00000000000E+00  0.99999998245E-14  0.12500000000E+03  0.12500000000E+03 0.  0.
        -13    1    3    3    0    0  0.24663238294E+02 -0.31719170950E+02  0.76212642083E+01  0.40895916191E+02  0.10566000000E+00 0. -1.
         23    2    1    0    0    0  0.18816050270E+02  0.16797831980E+02 -0.15955177668E+02  0.95154085684E+02  0.90352207615E+02 0.  0.
         13    1    3    3    0    0 -0.58471880245E+01  0.48517002930E+02 -0.23576441876E+02  0.54258169493E+02  0.10566000000E+00 0.  1.
         22    1    1    0    0    0 -0.18816050270E+02 -0.16797831980E+02  0.15955177668E+02  0.29845914316E+02  0.00000000000E+00 0.  1.
</event>
<event>
 5    1  0.1320187E-009  0.9118800E+02  0.7818608E-02  0.1130116E+00
         25   -1    0    0    0    0  0.00000000000E+00  0.00000000000E+00  0.99999998245E-14  0.12500000000E+03  0.12500000000E+03 0.  0.
        -13    1    3    3    0    0 -0.31372630117E+02  0.25403532785E+02  0.31955706386E+01  0.40494496344E+02  0.10566000000E+00 0. -1.
         23    2    1    0    0    0 -0.13248201285E+01 -0.70351215143E+01 -0.28960568552E+02  0.95167758818E+02  0.90371122072E+02 0.  0.
         13    1    3    3    0    0  0.30047809989E+02 -0.32438654299E+02 -0.32156139190E+02  0.54673262474E+02  0.10566000000E+00 0.  1.
         22    1    1    0    0    0  0.13248201285E+01  0.70351215143E+01  0.28960568552E+02  0.29832241182E+02  0.00000000000E+00 0.  1.
</event>
<event>
 5    1  0.1320187E-009  0.9118800E+02  0.7818608E-02  0.1130116E+00
         25   -1    0    0    0    0  0.00000000000E+00  0.00000000000E+00  0.99999998245E-14  0.12500000000E+03  0.12500000000E+03 0.  0.
        -13    1    3    3    0    0 -0.13420860659E+02  0.25238205487E+02 -0.55209622739E+02  0.62170733662E+02  0.10566000000E+00 0. -1.
         23    2    1    0    0    0 -0.71211257210E+01  0.15745816721E+02 -0.23762526054E+02  0.95618052818E+02  0.90991830427E+02 0.  0.
         13    1    3    3    0    0  0.62997349383E+01 -0.94923887661E+01  0.31447096685E+02  0.33447319156E+02  0.10566000000E+00 0.  1.
         22    1    1    0    0    0  0.71211257210E+01 -0.15745816721E+02  0.23762526054E+02  0.29381947182E+02  0.00000000000E+00 0. -1.
</event>
<event>
 4    1  0.1320187E-009  0.9118800E+02  0.7818608E-02  0.1130116E+00
         25   -1    0    0    0    0  0.00000000000E+00  0.00000000000E+00  0.99999998245E-14  0.12500000000E+03  0.12500000000E+03 0.  0.
        -13    1    1    0    0    0 -0.12586967195E+02  0.18485183850E+01 -0.60577710327E+02  0.61899264260E+02  0.10566000000E+00 0.  1.
         13    1    1    0    0    0  0.16923785802E+00 -0.38185490556E+01  0.61669034652E+01  0.72561574354E+01  0.10566000000E+00 0. -1.
         22    1    1    0    0    0  0.12417729337E+02  0.19700306706E+01  0.54410806862E+02  0.55844578305E+02  0.00000000000E+00 0.  1.
</event>
<event>
 5    1  0.1320187E-009  0.9118800E+02  0.7818608E-02  0.1130116E+00
         25   -1    0    0    0    0  0.00000000000E+00  0.00000000000E+00  0.99999998245E-14  0.12500000000E+03  0.12500000000E+03 0.  0.
        -13    1    3    3    0    0  0.12436588268E+02  0.14352276432E+02 -0.38842642625E+02  0.43236773893E+02  0.10566000000E+00 0.  1.
         23    2    1    0    0    0  0.13167729241E+02 -0.21531267236E+02  0.43436393681E+01  0.99390397014E+02  0.96034364961E+02 0.  0.
         13    1    3    3    0    0  0.73114097239E+00 -0.35883543668E+02  0.43186281993E+02  0.56153623122E+02  0.10566000000E+00 0. -1.
         22    1    1    0    0    0 -0.13167729241E+02  0.21531267236E+02 -0.43436393681E+01  0.25609602986E+02  0.00000000000E+00 0. -1.
</event>
<event>
 5    1  0.1320187E-009  0.9118800E+02  0.7818608E-02  0.1130116E+00
         25   -1    0    0    0    0  0.00000000000E+00  0.00000000000E+00  0.99999998245E-14  0.12500000000E+03  0.12500000000E+03 0.  0.
        -13    1    3    3    0    0  0.15701976124E+02  0.35675652303E+02  0.89441003018E+01  0.39991403022E+02  0.10566000000E+00 0. -1.
         23    2    1    0    0    0 -0.12429679898E+01  0.39499322810E+01 -0.30989636062E+02  0.93734931990E+02  0.88367035694E+02 0.  0.
         13    1    3    3    0    0 -0.16944944114E+02 -0.31725720022E+02 -0.39933736364E+02  0.53743528968E+02  0.10566000000E+00 0.  1.
         22    1    1    0    0    0  0.12429679898E+01 -0.39499322810E+01  0.30989636062E+02  0.31265068010E+02  0.00000000000E+00 0.  1.
</event>
<event>
 5    1  0.1320187E-009  0.9118800E+02  0.7818608E-02  0.1130116E+00
         25   -1    0    0    0    0  0.00000000000E+00  0.00000000000E+00  0.99999998245E-14  0.12500000000E+03  0.12500000000E+03 0.  0.
        -13    1    3    3    0    0 -0.68567546818E+01  0.35855611070E+02  0.21898261614E+01  0.36571114731E+02  0.10566000000E+00 0.  1.
         23    2    1    0    0    0 -0.16135809776E+02 -0.22015528942E+02 -0.90374971324E+01  0.96247187509E+02  0.91852037959E+02 0.  0.
         13    1    3    3    0    0 -0.92790550945E+01 -0.57871140013E+02 -0.11227323294E+02  0.59676072778E+02  0.10566000000E+00 0. -1.
         22    1    1    0    0    0  0.16135809776E+02  0.22015528942E+02  0.90374971324E+01  0.28752812491E+02  0.00000000000E+00 0. -1.
</event>
<event>
 5    1  0.1320187E-009  0.9118800E+02  0.7818608E-02  0.1130116E+00
         25   -1    0    0    0    0  0.00000000000E+00  0.00000000000E+00  0.99999998245E-14  0.12500000000E+03  0.12500000000E+03 0.  0.
        -13    1    3    3    0    0  0.33366191595E+02 -0.17692458526E+02  0.22640102617E+01  0.37834676380E+02  0.10566000000E+00 0. -1.
         23    2    1    0    0    0 -0.11238704007E+02  0.15557526386E+02  0.21011282880E+02  0.96542679267E+02  0.92253291631E+02 0.  0.
         13    1    3    3    0    0 -0.44604895603E+02  0.33249984912E+02  0.18747272619E+02  0.58708002887E+02  0.10566000000E+00 0.  1.
         22    1    1    0    0    0  0.11238704007E+02 -0.15557526386E+02 -0.21011282880E+02  0.28457320733E+02  0.00000000000E+00 0.  1.
</event>
<event>
 5    1  0.1320187E-009  0.9118800E+02  0.7818608E-02  0.1130116E+00
         25   -1    0    0    0    0  0.00000000000E+00  0.00000000000E+00  0.99999998245E-14  0.12500000000E+03  0.12500000000E+03 0.  0.
        -13    1    3    3    0    0  0.68588066023E+01  0.26767637158E+02  0.37002960266E+02  0.46182029617E+02  0.10566000000E+00 0. -1.
         23    2    1    0    0    0 -0.22301693977E+02  0.19612770824E+02 -0.18014574089E+01  0.95246486217E+02  0.90479951117E+02 0.  0.
         13    1    3    3    0    0 -0.29160500579E+02 -0.71548663340E+01 -0.38804417675E+02  0.49064456600E+02  0.10566000000E+00 0.  1.
         22    1    1    0    0    0  0.22301693977E+02 -0.19612770824E+02  0.18014574089E+01  0.29753513783E+02  0.00000000000E+00 0.  1.
</event>
<event>
 5    1  0.1320187E-009  0.9118800E+02  0.7818608E-02  0.1130116E+00
         25   -1    0    0    0    0  0.00000000000E+00  0.00000000000E+00  0.99999998245E-14  0.12500000000E+03  0.12500000000E+03 0.  0.
        -13    1    3    3    0    0  0.37615837261E+02  0.36694543313E+01  0.43017967840E+02  0.57262315959E+02  0.10566000000E+00 0. -1.
         23    2    1    0    0    0  0.24237786674E+02  0.12489147687E+02  0.67527215439E+01  0.96909995353E+02  0.92749656809E+02 0.  0.
         13    1    3    3    0    0 -0.13378050586E+02  0.88196933553E+01 -0.36265246296E+02  0.39647679394E+02  0.10566000000E+00 0.  1.
         22    1    1    0    0    0 -0.24237786674E+02 -0.12489147687E+02 -0.67527215439E+01  0.28090004647E+02  0.00000000000E+00 0. -1.
</event>
<event>
 5    1  0.1320187E-009  0.9118800E+02  0.7818608E-02  0.1130116E+00
         25   -1    0    0    0    0  0.00000000000E+00  0.00000000000E+00  0.99999998245E-14  0.12500000000E+03  0.12500000000E+03 0.  0.
        -13    1    3    3    0    0  0.28066278749E+02  0.55795626857E+02 -0.22834807921E+01  0.62498747409E+02  0.10566000000E+00 0.  1.
         23    2    1    0    0    0  0.13161351993E+02  0.26392159460E+02 -0.82290867074E+00  0.95496704490E+02  0.90824975213E+02 0.  0.
         13    1    3    3    0    0 -0.14904926756E+02 -0.29403467397E+02  0.14605721214E+01  0.32997957081E+02  0.10566000000E+00 0. -1.
         22    1    1    0    0    0 -0.13161351993E+02 -0.26392159460E+02  0.82290867074E+00  0.29503295510E+02  0.00000000000E+00 0.  1.
</event>
<event>
 5    1  0.1320187E-009  0.9118800E+02  0.7818608E-02  0.1130116E+00
         25   -1    0    0    0    0  0.00000000000E+00  0.00000000000E+00  0.99999998245E-14  0.12500000000E+03  0.12500000000E+03 0.  0.
        -13    1    3    3    0    0  0.25454742919E+02 -0.38328734134E+00 -0.23875168867E+02  0.34901657536E+02  0.10566000000E+00 0.  1.
         23    2    1    0    0    0 -0.18179797001E+02 -0.13333850110E+02  0.17536581304E+02  0.96437292467E+02  0.92110385499E+02 0.  0.
         13    1    3    3    0    0 -0.43634539921E+02 -0.12950562768E+02  0.41411750171E+02  0.61535634931E+02  0.10566000000E+00 0. -1.
         22    1    1    0    0    0  0.18179797001E+02  0.13333850110E+02 -0.17536581304E+02  0.28562707533E+02  0.00000000000E+00 0. -1.
</event>
<event>
 5    1  0.1320187E-009  0.9118800E+02  0.7818608E-02  0.1130116E+00
         25   -1    0    0    0    0  0.00000000000E+00  0.00000000000E+00  0.99999998245E-14  0.12500000000E+03  0.12500000000E+03 0.  0.
        -13    1    3    3    0    0  0.24373447146E+02  0.44438442220E+02  0.27481055519E+02  0.57654658521E+02  0.10566000000E+00 0. -1.
         23    2    1    0    0    0  0.10686989777E+02  0.27714570402E+02 -0.31370253090E+01  0.95131118353E+02  0.90320427303E+02 0.  0.
         13    1    3    3    0    0 -0.13686457369E+02 -0.16723871818E+02 -0.30618080828E+02  0.37476459831E+02  0.10566000000E+00 0.  1.
         22    1    1    0    0    0 -0.10686989777E+02 -0.27714570402E+02  0.31370253090E+01  0.29868881647E+02  0.00000000000E+00 0. -1.
</event>
<event>
 5    1  0.1320187E-009  0.9118800E+02  0.7818608E-02  0.1130116E+00
         25   -1    0    0    0    0  0.00000000000E+00  0.00000000000E+00  0.99999998245E-14  0.12500000000E+03  0.12500000000E+03 0.  0.
        -13    1    3    3    0    0 -0.16005148923E+02 -0.50706848677E+02  0.23977865569E+02  0.58329225060E+02  0.10566000000E+00 0. -1.
         23    2    1    0    0    0 -0.12455685626E+02 -0.13043175800E+02  0.22466448605E+02  0.96190108430E+02  0.91774327061E+02 0.  0.
         13    1    3    3    0    0  0.35494632977E+01  0.37663672877E+02 -0.15114169639E+01  0.37860883370E+02  0.10566000000E+00 0.  1.
         22    1    1    0    0    0  0.12455685626E+02  0.13043175800E+02 -0.22466448605E+02  0.28809891570E+02  0.00000000000E+00 0. -1.
</event>
<event>
 5    1  0.1320187E-009  0.9118800E+02  0.7818608E-02  0.1130116E+00
         25   -1    0    0    0    0  0.00000000000E+00  0.00000000000E+00  0.99999998245E-14  0.12500000000E+03  0.12500000000E+03 0.  0.
        -13    1    3    3    0    0 -0.21483905923E+02  0.36333874968E+02 -0.12003104659E+02  0.43883873682E+02  0.10566000000E+00 0.  1.
         23    2    1    0    0    0 -0.25633415955E+02 -0.12188679116E+02 -0.15410384101E+02  0.92702695929E+02  0.86894614231E+02 0.  0.
         13    1    3    3    0    0 -0.41495100316E+01 -0.48522554084E+02 -0.34072794415E+01  0.48818822247E+02  0.10566000000E+00 0. -1.
         22    1    1    0    0    0  0.25633415955E+02  0.12188679116E+02  0.15410384101E+02  0.32297304071E+02  0.00000000000E+00 0. -1.
</event>
<event>
 5    1  0.1320187E-009  0.9118800E+02  0.7818608E-02  0.1130116E+00
         25   -1    0    0    0    0  0.00000000000E+00  0.00000000000E+00  0.99999998245E-14  0.12500000000E+03  0.12500000000E+03 0.  0.
        -13    1    3    3    0    0 -0.16933070087E+02  0.39469978202E+02 -0.38911939805E+02  0.57954795015E+02  0.10566000000E+00 0. -1.
         23    2    1    0    0    0  0.65827973869E+01  0.13308725150E+02 -0.25282869117E+02  0.95679719351E+02  0.91076505410E+02 0.  0.
         13    1    3    3    0    0  0.23515867474E+02 -0.26161253052E+02  0.13629070688E+02  0.37724924336E+02  0.10566000000E+00 0.  1.
         22    1    1    0    0    0 -0.65827973869E+01 -0.13308725150E+02  0.25282869117E+02  0.29320280649E+02  0.00000000000E+00 0. -1.
</event>
<event>
 5    1  0.1320187E-009  0.9118800E+02  0.7818608E-02  0.1130116E+00
         25   -1    0    0    0    0  0.00000000000E+00  0.00000000000E+00  0.99999998245E-14  0.12500000000E+03  0.12500000000E+03 0.  0.
        -13    1    3    3    0    0  0.12275109293E+02 -0.48407487791E+02  0.10731698728E+02  0.51079777838E+02  0.10566000000E+00 0.  1.
         23    2    1    0    0    0  0.13727584789E+02 -0.64688062676E+01  0.25297607903E+02  0.95499813487E+02  0.90829253943E+02 0.  0.
         13    1    3    3    0    0  0.14524754968E+01  0.41938681523E+02  0.14565909175E+02  0.44420035649E+02  0.10566000000E+00 0. -1.
         22    1    1    0    0    0 -0.13727584789E+02  0.64688062676E+01 -0.25297607903E+02  0.29500186513E+02  0.00000000000E+00 0. -1.
</event>
<event>
 5    1  0.1320187E-009  0.9118800E+02  0.7818608E-02  0.1130116E+00
         25   -1    0    0    0    0  0.00000000000E+00  0.00000000000E+00  0.99999998245E-14  0.12500000000E+03  0.12500000000E+03 0.  0.
        -13    1    3    3    0    0 -0.15580379658E+02 -0.37365697981E+02 -0.46732938998E+02  0.61829785438E+02  0.10566000000E+00 0. -1.
         23    2    1    0    0    0 -0.13227373155E+02 -0.17963300030E+02 -0.19370042579E+02  0.95456098801E+02  0.90769073479E+02 0.  0.
         13    1    3    3    0    0  0.23530065029E+01  0.19402397951E+02  0.27362896419E+02  0.33626313363E+02  0.10566000000E+00 0.  1.
         22    1    1    0    0    0  0.13227373155E+02  0.17963300030E+02  0.19370042579E+02  0.29543901199E+02  0.00000000000E+00 0. -1.
</event>
<event>
 5    1  0.1320187E-009  0.9118800E+02  0.7818608E-02  0.1130116E+00
         25   -1    0    0    0    0  0.00000000000E+00  0.00000000000E+00  0.99999998245E-14  0.12500000000E+03  0.12500000000E+03 0.  0.
        -13    1    3    3    0    0  0.90563775711E+01  0.25160109576E+02  0.53169478265E+02  0.59515154974E+02  0.10566000000E+00 0. -1.
         23    2    1    0    0    0  0.16297550308E+02  0.19114106378E+02  0.23672213911E+02  0.90484309074E+02  0.83642556563E+02 0.  0.
         13    1    3    3    0    0  0.72411727372E+01 -0.60460031985E+01 -0.29497264354E+02  0.30969154100E+02  0.10566000000E+00 0.  1.
         22    1    1    0    0    0 -0.16297550308E+02 -0.19114106378E+02 -0.23672213911E+02  0.34515690926E+02  0.00000000000E+00 0. -1.
</event>
<event>
 5    1  0.1320187E-009  0.9118800E+02  0.7818608E-02  0.1130116E+00
         25   -1    0    0    0    0  0.00000000000E+00  0.00000000000E+00  0.99999998245E-14  0.12500000000E+03  0.12500000000E+03 0.  0.
        -13    1    3    3    0    0  0.29379414803E+02  0.19062359153E+02  0.80677704161E+01  0.35939165741E+02  0.10566000000E+00 0.  1.
         23    2    1    0    0    0 -0.27401831014E+02  0.61864291621E+00  0.10394999034E+02  0.95686196649E+02  0.91085394890E+02 0.  0.
         13    1    3    3    0    0 -0.56781245817E+02 -0.18443716237E+02  0.23272286182E+01  0.59747030908E+02  0.10566000000E+00 0. -1.
         22    1    1    0    0    0  0.27401831014E+02 -0.61864291621E+00 -0.10394999034E+02  0.29313803351E+02  0.00000000000E+00 0. -1.
</event>
<event>
 5    1  0.1320187E-009  0.9118800E+02  0.7818608E-02  0.1130116E+00
         25   -1    0    0    0    0  0.00000000000E+00  0.00000000000E+00  0.99999998245E-14  0.12500000000E+03  0.12500000000E+03 0.  0.
        -13    1    3    3    0    0  0.87853109038E+01 -0.49503066697E+01 -0.60077234884E+02  0.60917752250E+02  0.10566000000E+00 0. -1.
         23    2    1    0    0    0 -0.29906040795E+01 -0.92601889983E+01 -0.27849833782E+02  0.95499016038E+02  0.90828156480E+02 0.  0.
         13    1    3    3    0    0 -0.11775914983E+02 -0.43098823286E+01  0.32227401102E+02  0.34581263789E+02  0.10566000000E+00 0.  1.
         22    1    1    0    0    0  0.29906040795E+01  0.92601889983E+01  0.27849833782E+02  0.29500983962E+02  0.00000000000E+00 0. -1.
</event>
<event>
 5    1  0.1320187E-009  0.9118800E+02  0.7818608E-02  0.1130116E+00
         25   -1    0    0    0    0  0.00000000000E+00  0.00000000000E+00  0.99999998245E-14  0.12500000000E+03  0.12500000000E+03 0.  0.
        -13    1    3    3    0    0 -0.19695632570E+02 -0.15958818966E+02 -0.26436284255E+02  0.36626358464E+02  0.10566000000E+00 0.  1.
         23    2    1    0    0    0 -0.81042583946E+01  0.75261524897E+01  0.26828249012E+02  0.95981438346E+02  0.91489669288E+02 0.  0.
         13    1    3    3    0    0  0.11591374176E+02  0.23484971455E+02  0.53264533267E+02  0.59355079881E+02  0.10566000000E+00 0. -1.
         22    1    1    0    0    0  0.81042583946E+01 -0.75261524897E+01 -0.26828249012E+02  0.29018561654E+02  0.00000000000E+00 0. -1.
</event>
<event>
 5    1  0.1320187E-009  0.9118800E+02  0.7818608E-02  0.1130116E+00
         25   -1    0    0    0    0  0.00000000000E+00  0.00000000000E+00  0.99999998245E-14  0.12500000000E+03  0.12500000000E+03 0.  0.
        -13    1    3    3    0    0 -0.32783125564E+02 -0.41630627242E+02 -0.74632090187E+01  0.53512177112E+02  0.10566000000E+00 0. -1.
         23    2    1    0    0    0 -0.24093065713E+01 -0.33054045371E+02 -0.18617675814E+02  0.86986942687E+02  0.78241521405E+02 0.  0.
         13    1    3    3    0    0  0.30373818993E+02  0.85765818711E+01 -0.11154466796E+02  0.33474765576E+02  0.10566000000E+00 0.  1.
         22    1    1    0    0    0  0.24093065713E+01  0.33054045371E+02  0.18617675814E+02  0.38013057313E+02  0.00000000000E+00 0. -1.
</event>
<event>
 5    1  0.1320187E-009  0.9118800E+02  0.7818608E-02  0.1130116E+00
         25   -1    0    0    0    0  0.00000000000E+00  0.00000000000E+00  0.99999998245E-14  0.12500000000E+03  0.12500000000E+03 0.  0.
        -13    1    3    3    0    0 -0.58475917818E+02  0.89866234072E+01  0.34265215934E+01  0.59261661968E+02  0.10566000000E+00 0. -1.
         23    2    1    0    0    0 -0.26728250383E+02  0.13280927654E+02  0.12625930023E+02  0.92593264329E+02  0.86737051381E+02 0.  0.
         13    1    3    3    0    0  0.31747667434E+02  0.42943042470E+01  0.91994084294E+01  0.33331602361E+02  0.10566000000E+00 0.  1.
         22    1    1    0    0    0  0.26728250383E+02 -0.13280927654E+02 -0.12625930023E+02  0.32406735671E+02  0.00000000000E+00 0. -1.
</event>
<event>
 5    1  0.1320187E-009  0.9118800E+02  0.7818608E-02  0.1130116E+00
         25   -1    0    0    0    0  0.00000000000E+00  0.00000000000E+00  0.99999998245E-14  0.12500000000E+03  0.12500000000E+03 0.  0.
        -13    1    3    3    0    0  0.84585123592E+01 -0.48393354289E+02  0.13173402392E+02  0.50862686375E+02  0.10566000000E+00 0.  1.
         23    2    1    0    0    0  0.27346377071E+02 -0.12430024582E+02 -0.34693934200E+01  0.94761505647E+02  0.89807440738E+02 0.  0.
         13    1    3    3    0    0  0.18887864712E+02  0.35963329707E+02 -0.16642795812E+02  0.43898819272E+02  0.10566000000E+00 0. -1.
         22    1    1    0    0    0 -0.27346377071E+02  0.12430024582E+02  0.34693934200E+01  0.30238494353E+02  0.00000000000E+00 0.  1.
</event>
<event>
 4    1  0.1320187E-009  0.9118800E+02  0.7818608E-02  0.1130116E+00
         25   -1    0    0    0    0  0.00000000000E+00  0.00000000000E+00  0.99999998245E-14  0.12500000000E+03  0.12500000000E+03 0.  0.
        -13    1    1    0    0    0  0.38384774094E+01  0.23770885989E+02 -0.21704730200E+02  0.32417516971E+02  0.10566000000E+00 0. -1.
         13    1    1    0    0    0 -0.38783316415E+02  0.11293168140E+02  0.75388185621E+01  0.41091680766E+02  0.10566000000E+00 0.  1.
         22    1    1    0    0    0  0.34944839006E+02 -0.35064054129E+02  0.14165911638E+02  0.51490802263E+02  0.00000000000E+00 0. -1.
</event>
<event>
 5    1  0.1320187E-009  0.9118800E+02  0.7818608E-02  0.1130116E+00
         25   -1    0    0    0    0  0.00000000000E+00  0.00000000000E+00  0.99999998245E-14  0.12500000000E+03  0.12500000000E+03 0.  0.
        -13    1    3    3    0    0  0.46811392558E+00  0.32716281970E+02 -0.20564838337E+02  0.38645801537E+02  0.10566000000E+00 0.  1.
         23    2    1    0    0    0  0.14308744170E+02 -0.22424556581E+02 -0.25787757429E+01  0.98274525599E+02  0.94570774555E+02 0.  0.
         13    1    3    3    0    0  0.13840630245E+02 -0.55140838551E+02  0.17986062594E+02  0.59628724063E+02  0.10566000000E+00 0. -1.
         22    1    1    0    0    0 -0.14308744170E+02  0.22424556581E+02  0.25787757429E+01  0.26725474401E+02  0.00000000000E+00 0. -1.
</event>
<event>
 5    1  0.1320187E-009  0.9118800E+02  0.7818608E-02  0.1130116E+00
         25   -1    0    0    0    0  0.00000000000E+00  0.00000000000E+00  0.99999998245E-14  0.12500000000E+03  0.12500000000E+03 0.  0.
        -13    1    3    3    0    0 -0.22953962994E+02 -0.21276312990E+02 -0.39167392226E+02  0.50136430760E+02  0.10566000000E+00 0.  1.
         23    2    1    0    0    0 -0.16519586528E+02 -0.24598369916E+02  0.50492199705E+01  0.94942202943E+02  0.90058596124E+02 0.  0.
         13    1    3    3    0    0  0.64343764659E+01 -0.33220569262E+01  0.44216612196E+02  0.44805772183E+02  0.10566000000E+00 0. -1.
         22    1    1    0    0    0  0.16519586528E+02  0.24598369916E+02 -0.50492199705E+01  0.30057797057E+02  0.00000000000E+00 0. -1.
</event>
<event>
 5    1  0.1320187E-009  0.9118800E+02  0.7818608E-02  0.1130116E+00
         25   -1    0    0    0    0  0.00000000000E+00  0.00000000000E+00  0.99999998245E-14  0.12500000000E+03  0.12500000000E+03 0.  0.
        -13    1    3    3    0    0 -0.18374554868E+02  0.26579722812E+02 -0.88061305752E+01  0.33491267983E+02  0.10566000000E+00 0. -1.
         23    2    1    0    0    0  0.24468599045E+02 -0.16954870287E+02  0.19049294883E+00  0.95230615505E+02  0.90458022730E+02 0.  0.
         13    1    3    3    0    0  0.42843153913E+02 -0.43534593099E+02  0.89966235240E+01  0.61739347522E+02  0.10566000000E+00 0.  1.
         22    1    1    0    0    0 -0.24468599045E+02  0.16954870287E+02 -0.19049294883E+00  0.29769384495E+02  0.00000000000E+00 0.  1.
</event>
<event>
 5    1  0.1320187E-009  0.9118800E+02  0.7818608E-02  0.1130116E+00
         25   -1    0    0    0    0  0.00000000000E+00  0.00000000000E+00  0.99999998245E-14  0.12500000000E+03  0.12500000000E+03 0.  0.
        -13    1    3    3    0    0 -0.51554048534E+02 -0.27483018350E+01 -0.30344399224E+02  0.59884612477E+02  0.10566000000E+00 0.  1.
         23    2    1    0    0    0 -0.22925337689E+02 -0.13872946570E+02 -0.16077300657E+02  0.93750850394E+02  0.88389550279E+02 0.  0.
         13    1    3    3    0    0  0.28628710845E+02 -0.11124644735E+02  0.14267098566E+02  0.33866237917E+02  0.10566000000E+00 0. -1.
         22    1    1    0    0    0  0.22925337689E+02  0.13872946570E+02  0.16077300657E+02  0.31249149606E+02  0.00000000000E+00 0.  1.
</event>
<event>
 5    1  0.1320187E-009  0.9118800E+02  0.7818608E-02  0.1130116E+00
         25   -1    0    0    0    0  0.00000000000E+00  0.00000000000E+00  0.99999998245E-14  0.12500000000E+03  0.12500000000E+03 0.  0.
        -13    1    3    3    0    0  0.53915798098E+01 -0.10479830509E+02  0.32382423407E+02  0.34460535255E+02  0.10566000000E+00 0. -1.
         23    2    1    0    0    0  0.12952372895E+02 -0.10719238000E+02 -0.26385414834E+02  0.93713323237E+02  0.88336463644E+02 0.  0.
         13    1    3    3    0    0  0.75607930850E+01 -0.23940749159E+00 -0.58767838241E+02  0.59252787982E+02  0.10566000000E+00 0.  1.
         22    1    1    0    0    0 -0.12952372895E+02  0.10719238000E+02  0.26385414834E+02  0.31286676763E+02  0.00000000000E+00 0.  1.
</event>
<event>
 5    1  0.1320187E-009  0.9118800E+02  0.7818608E-02  0.1130116E+00
         25   -1    0    0    0    0  0.00000000000E+00  0.00000000000E+00  0.99999998245E-14  0.12500000000E+03  0.12500000000E+03 0.  0.
        -13    1    3    3    0    0 -0.26046690520E+02  0.89674667293E+01  0.28718529790E+02  0.39794605965E+02  0.10566000000E+00 0. -1.
         23    2    1    0    0    0 -0.13448239793E+02 -0.15533694146E+02 -0.20358271752E+02  0.96075788064E+02  0.91618486214E+02 0.  0.
         13    1    3    3    0    0  0.12598450726E+02 -0.24501160876E+02 -0.49076801542E+02  0.56281182100E+02  0.10566000000E+00 0.  1.
         22    1    1    0    0    0  0.13448239793E+02  0.15533694146E+02  0.20358271752E+02  0.28924211936E+02  0.00000000000E+00 0.  1.
</event>
<event>
 5    1  0.1320187E-009  0.9118800E+02  0.7818608E-02  0.1130116E+00
         25   -1    0    0    0    0  0.00000000000E+00  0.00000000000E+00  0.99999998245E-14  0.12500000000E+03  0.12500000000E+03 0.  0.
        -13    1    3    3    0    0  0.95942995781E+01 -0.13079172040E+01 -0.33535642389E+02  0.34905754630E+02  0.10566000000E+00 0. -1.
         23    2    1    0    0    0  0.89638679335E+00  0.69995234846E+01  0.27240293256E+02  0.96860518573E+02  0.92682952280E+02 0.  0.
         13    1    3    3    0    0 -0.86979127847E+01  0.83074406886E+01  0.60775935645E+02  0.61954763943E+02  0.10566000000E+00 0.  1.
         22    1    1    0    0    0 -0.89638679335E+00 -0.69995234846E+01 -0.27240293256E+02  0.28139481427E+02  0.00000000000E+00 0.  1.
</event>
<event>
 5    1  0.1320187E-009  0.9118800E+02  0.7818608E-02  0.1130116E+00
         25   -1    0    0    0    0  0.00000000000E+00  0.00000000000E+00  0.99999998245E-14  0.12500000000E+03  0.12500000000E+03 0.  0.
        -13    1    3    3    0    0 -0.30308106109E+02 -0.31609318886E+02 -0.66643529092E+00  0.43797096209E+02  0.10566000000E+00 0. -1.
         23    2    1    0    0    0  0.18171184095E+02 -0.24465846925E+02 -0.83556628677E+01  0.93399577549E+02  0.87891378344E+02 0.  0.
         13    1    3    3    0    0  0.48479290203E+02  0.71434719612E+01 -0.76892275768E+01  0.49602481340E+02  0.10566000000E+00 0.  1.
         22    1    1    0    0    0 -0.18171184095E+02  0.24465846925E+02  0.83556628677E+01  0.31600422451E+02  0.00000000000E+00 0.  1.
</event>
<event>
 5    1  0.1320187E-009  0.9118800E+02  0.7818608E-02  0.1130116E+00
         25   -1    0    0    0    0  0.00000000000E+00  0.00000000000E+00  0.99999998245E-14  0.12500000000E+03  0.12500000000E+03 0.  0.
        -13    1    3    3    0    0  0.47163966768E+01  0.34752865244E+02 -0.44964724164E+02  0.57024938610E+02  0.10566000000E+00 0. -1.
         23    2    1    0    0    0 -0.57484993445E+01  0.27229481352E+02 -0.81941115557E+01  0.95989081993E+02  0.91500112013E+02 0.  0.
         13    1    3    3    0    0 -0.10464896021E+02 -0.75233838923E+01  0.36770612609E+02  0.38964143383E+02  0.10566000000E+00 0.  1.
         22    1    1    0    0    0  0.57484993445E+01 -0.27229481352E+02  0.81941115557E+01  0.29010918007E+02  0.00000000000E+00 0. -1.
</event>
<event>
 5    1  0.1320187E-009  0.9118800E+02  0.7818608E-02  0.1130116E+00
         25   -1    0    0    0    0  0.00000000000E+00  0.00000000000E+00  0.99999998245E-14  0.12500000000E+03  0.12500000000E+03 0.  0.
        -13    1    3    3    0    0 -0.35315445897E+02 -0.32173557190E+02 -0.29294941085E+02  0.56040371504E+02  0.10566000000E+00 0.  1.
         23    2    1    0    0    0 -0.21746533953E+02 -0.17710318058E+02  0.58088461192E+01  0.96358949078E+02  0.92004006812E+02 0.  0.
         13    1    3    3    0    0  0.13568911944E+02  0.14463239132E+02  0.35103787204E+02  0.40318577574E+02  0.10566000000E+00 0. -1.
         22    1    1    0    0    0  0.21746533953E+02  0.17710318058E+02 -0.58088461192E+01  0.28641050922E+02  0.00000000000E+00 0.  1.
</event>
<event>
 5    1  0.1320187E-009  0.9118800E+02  0.7818608E-02  0.1130116E+00
         25   -1    0    0    0    0  0.00000000000E+00  0.00000000000E+00  0.99999998245E-14  0.12500000000E+03  0.12500000000E+03 0.  0.
        -13    1    3    3    0    0  0.23108288832E+02 -0.24965154910E+01  0.32261227934E+02  0.39762087397E+02  0.10566000000E+00 0. -1.
         23    2    1    0    0    0  0.87057631798E+01  0.22846104528E+02 -0.15741388264E+02  0.95922068348E+02  0.91408517585E+02 0.  0.
         13    1    3    3    0    0 -0.14402525652E+02  0.25342620019E+02 -0.48002616198E+02  0.56159980952E+02  0.10566000000E+00 0.  1.
         22    1    1    0    0    0 -0.87057631798E+01 -0.22846104528E+02  0.15741388264E+02  0.29077931652E+02  0.00000000000E+00 0.  1.
</event>
<event>
 5    1  0.1320187E-009  0.9118800E+02  0.7818608E-02  0.1130116E+00
         25   -1    0    0    0    0  0.00000000000E+00  0.00000000000E+00  0.99999998245E-14  0.12500000000E+03  0.12500000000E+03 0.  0.
        -13    1    3    3    0    0  0.26768630538E+02  0.25463419666E+02 -0.74018802963E+01  0.37679494661E+02  0.10566000000E+00 0. -1.
         23    2    1    0    0    0  0.12275140757E+02 -0.27622601918E+02  0.56837462157E+01  0.94243013990E+02  0.89082846259E+02 0.  0.
         13    1    3    3    0    0 -0.14493489780E+02 -0.53086021585E+02  0.13085626512E+02  0.56563519329E+02  0.10566000000E+00 0.  1.
         22    1    1    0    0    0 -0.12275140757E+02  0.27622601918E+02 -0.56837462157E+01  0.30756986010E+02  0.00000000000E+00 0.  1.
</event>
<event>
 5    1  0.1320187E-009  0.9118800E+02  0.7818608E-02  0.1130116E+00
         25   -1    0    0    0    0  0.00000000000E+00  0.00000000000E+00  0.99999998245E-14  0.12500000000E+03  0.12500000000E+03 0.  0.
        -13    1    3    3    0    0 -0.40352587442E+02 -0.70617873967E+01  0.81081638291E+01  0.41760670962E+02  0.10566000000E+00 0. -1.
         23    2    1    0    0    0  0.92244209278E+01 -0.14086504331E+02  0.25219504720E+02  0.94676033174E+02  0.89688395535E+02 0.  0.
         13    1    3    3    0    0  0.49577008370E+02 -0.70247169341E+01  0.17111340891E+02  0.52915362212E+02  0.10566000000E+00 0.  1.
         22    1    1    0    0    0 -0.92244209278E+01  0.14086504331E+02 -0.25219504720E+02  0.30323966826E+02  0.00000000000E+00 0.  1.
</event>
<event>
 5    1  0.1320187E-009  0.9118800E+02  0.7818608E-02  0.1130116E+00
         25   -1    0    0    0    0  0.00000000000E+00  0.00000000000E+00  0.99999998245E-14  0.12500000000E+03  0.12500000000E+03 0.  0.
        -13    1    3    3    0    0 -0.33710846301E+02 -0.33125889223E+02  0.28125992524E+02  0.54998439202E+02  0.10566000000E+00 0. -1.
         23    2    1    0    0    0 -0.64176311235E+01 -0.31147227003E+02  0.15251015950E+01  0.93161946132E+02  0.87552764280E+02 0.  0.
         13    1    3    3    0    0  0.27293215178E+02  0.19786622202E+01 -0.26600890929E+02  0.38163506930E+02  0.10566000000E+00 0.  1.
         22    1    1    0    0    0  0.64176311235E+01  0.31147227003E+02 -0.15251015950E+01  0.31838053868E+02  0.00000000000E+00 0.  1.
</event>
<event>
 5    1  0.1320187E-009  0.9118800E+02  0.7818608E-02  0.1130116E+00
         25   -1    0    0    0    0  0.00000000000E+00  0.00000000000E+00  0.99999998245E-14  0.12500000000E+03  0.12500000000E+03 0.  0.
        -13    1    3    3    0    0  0.29944060543E+02  0.23210252226E+02 -0.40491364861E+02  0.55452000528E+02  0.10566000000E+00 0.  1.
         23    2    1    0    0    0  0.10970331473E+02 -0.94777454579E+01 -0.24585755552E+02  0.96458184927E+02  0.92138733613E+02 0.  0.
         13    1    3    3    0    0 -0.18973729070E+02 -0.32687997684E+02  0.15905609310E+02  0.41006184399E+02  0.10566000000E+00 0. -1.
         22    1    1    0    0    0 -0.10970331473E+02  0.94777454579E+01  0.24585755552E+02  0.28541815073E+02  0.00000000000E+00 0.  1.
</event>
<event>
 5    1  0.1320187E-009  0.9118800E+02  0.7818608E-02  0.1130116E+00
         25   -1    0    0    0    0  0.00000000000E+00  0.00000000000E+00  0.99999998245E-14  0.12500000000E+03  0.12500000000E+03 0.  0.
        -13    1    3    3    0    0  0.25863429407E+02  0.24811908694E+00  0.27122280033E+02  0.37478097363E+02  0.10566000000E+00 0. -1.
         23    2    1    0    0    0 -0.27909068353E+02 -0.64640546365E+01  0.13370060127E+02  0.93385784740E+02  0.87871759884E+02 0.  0.
         13    1    3    3    0    0 -0.53772497760E+02 -0.67121737234E+01 -0.13752219906E+02  0.55907687377E+02  0.10566000000E+00 0.  1.
         22    1    1    0    0    0  0.27909068353E+02  0.64640546365E+01 -0.13370060127E+02  0.31614215260E+02  0.00000000000E+00 0.  1.
</event>
<event>
 5    1  0.1320187E-009  0.9118800E+02  0.7818608E-02  0.1130116E+00
         25   -1    0    0    0    0  0.00000000000E+00  0.00000000000E+00  0.99999998245E-14  0.12500000000E+03  0.12500000000E+03 0.  0.
        -13    1    3    3    0    0  0.60118332583E+02  0.92622598698E+01 -0.12769562119E+02  0.62153650345E+02  0.10566000000E+00 0. -1.
         23    2    1    0    0    0  0.28321237397E+02  0.89429939293E+01 -0.72536525646E+01  0.94427379837E+02  0.89341171692E+02 0.  0.
         13    1    3    3    0    0 -0.31797095187E+02 -0.31926594049E+00  0.55159095543E+01  0.32273729492E+02  0.10566000000E+00 0.  1.
         22    1    1    0    0    0 -0.28321237397E+02 -0.89429939293E+01  0.72536525646E+01  0.30572620163E+02  0.00000000000E+00 0. -1.
</event>
<event>
 5    1  0.1320187E-009  0.9118800E+02  0.7818608E-02  0.1130116E+00
         25   -1    0    0    0    0  0.00000000000E+00  0.00000000000E+00  0.99999998245E-14  0.12500000000E+03  0.12500000000E+03 0.  0.
        -13    1    3    3    0    0  0.14634545995E+02  0.33636245476E+02 -0.41533638859E+02  0.55413186762E+02  0.10566000000E+00 0.  1.
         23    2    1    0    0    0 -0.25461994182E+01  0.26771314150E+02 -0.32769575628E+01  0.97908952703E+02  0.94086333629E+02 0.  0.
         13    1    3    3    0    0 -0.17180745413E+02 -0.68649313265E+01  0.38256681296E+02  0.42495765941E+02  0.10566000000E+00 0. -1.
         22    1    1    0    0    0  0.25461994182E+01 -0.26771314150E+02  0.32769575628E+01  0.27091047297E+02  0.00000000000E+00 0.  1.
</event>
<event>
 5    1  0.1320187E-009  0.9118800E+02  0.7818608E-02  0.1130116E+00
         25   -1    0    0    0    0  0.00000000000E+00  0.00000000000E+00  0.99999998245E-14  0.12500000000E+03  0.12500000000E+03 0.  0.
        -13    1    3    3    0    0  0.37357329980E+01  0.44327768499E+02  0.16788563865E+02  0.47547595122E+02  0.10566000000E+00 0.  1.
         23    2    1    0    0    0 -0.17173219012E+02  0.15800813811E+02 -0.16737929997E+02  0.96281652747E+02  0.91898929193E+02 0.  0.
         13    1    3    3    0    0 -0.20908952010E+02 -0.28526954688E+02 -0.33526493862E+02  0.48734057626E+02  0.10566000000E+00 0. -1.
         22    1    1    0    0    0  0.17173219012E+02 -0.15800813811E+02  0.16737929997E+02  0.28718347253E+02  0.00000000000E+00 0.  1.
</event>
<event>
 5    1  0.1320187E-009  0.9118800E+02  0.7818608E-02  0.1130116E+00
         25   -1    0    0    0    0  0.00000000000E+00  0.00000000000E+00  0.99999998245E-14  0.12500000000E+03  0.12500000000E+03 0.  0.
        -13    1    3    3    0    0  0.50978885397E+02 -0.33418822229E+02  0.24154887271E+01  0.61004181704E+02  0.10566000000E+00 0. -1.
         23    2    1    0    0    0  0.21019208760E+02 -0.25179243480E+02 -0.34471005733E+00  0.92198776484E+02  0.86166664790E+02 0.  0.
         13    1    3    3    0    0 -0.29959676637E+02  0.82395787489E+01 -0.27601987845E+01  0.31194594780E+02  0.10566000000E+00 0.  1.
         22    1    1    0    0    0 -0.21019208760E+02  0.25179243480E+02  0.34471005733E+00  0.32801223516E+02  0.00000000000E+00 0. -1.
</event>
<event>
 5    1  0.1320187E-009  0.9118800E+02  0.7818608E-02  0.1130116E+00
         25   -1    0    0    0    0  0.00000000000E+00  0.00000000000E+00  0.99999998245E-14  0.12500000000E+03  0.12500000000E+03 0.  0.
        -13    1    3    3    0    0  0.47671126587E+02  0.29929467642E+02 -0.17685633592E+02  0.59000865612E+02  0.10566000000E+00 0.  1.
         23    2    1    0    0    0  0.20841163985E+02  0.44075885857E+01 -0.19562117247E+02  0.96078427004E+02  0.91622086589E+02 0.  0.
         13    1    3    3    0    0 -0.26829962602E+02 -0.25521879056E+02 -0.18764836553E+01  0.37077561391E+02  0.10566000000E+00 0. -1.
         22    1    1    0    0    0 -0.20841163985E+02 -0.44075885857E+01  0.19562117247E+02  0.28921572996E+02  0.00000000000E+00 0.  1.
</event>
<event>
 5    1  0.1320187E-009  0.9118800E+02  0.7818608E-02  0.1130116E+00
         25   -1    0    0    0    0  0.00000000000E+00  0.00000000000E+00  0.99999998245E-14  0.12500000000E+03  0.12500000000E+03 0.  0.
        -13    1    3    3    0    0 -0.19636370314E+02  0.21071501945E+01 -0.33227659397E+02  0.38653791975E+02  0.10566000000E+00 0.  1.
         23    2    1    0    0    0 -0.14981155708E+02 -0.12483586656E+02  0.21786957059E+02  0.95760532494E+02  0.91187351774E+02 0.  0.
         13    1    3    3    0    0  0.46552146061E+01 -0.14590736851E+02  0.55014616456E+02  0.57106740519E+02  0.10566000000E+00 0. -1.
         22    1    1    0    0    0  0.14981155708E+02  0.12483586656E+02 -0.21786957059E+02  0.29239467506E+02  0.00000000000E+00 0. -1.
</event>
<event>
 5    1  0.1320187E-009  0.9118800E+02  0.7818608E-02  0.1130116E+00
         25   -1    0    0    0    0  0.00000000000E+00  0.00000000000E+00  0.99999998245E-14  0.12500000000E+03  0.12500000000E+03 0.  0.
        -13    1    3    3    0    0  0.23422722952E+02 -0.28787111536E+02 -0.49746682075E+02  0.62065008519E+02  0.10566000000E+00 0. -1.
         23    2    1    0    0    0  0.13504000652E+02 -0.13519798325E+02 -0.17539796880E+02  0.99061853286E+02  0.95605770336E+02 0.  0.
         13    1    3    3    0    0 -0.99187222994E+01  0.15267313211E+02  0.32206885195E+02  0.36996844767E+02  0.10566000000E+00 0.  1.
         22    1    1    0    0    0 -0.13504000652E+02  0.13519798325E+02  0.17539796880E+02  0.25938146714E+02  0.00000000000E+00 0. -1.
</event>
<event>
 5    1  0.1320187E-009  0.9118800E+02  0.7818608E-02  0.1130116E+00
         25   -1    0    0    0    0  0.00000000000E+00  0.00000000000E+00  0.99999998245E-14  0.12500000000E+03  0.12500000000E+03 0.  0.
        -13    1    3    3    0    0  0.32376727764E+02  0.62208514638E+01  0.14745998446E+02  0.36116576912E+02  0.10566000000E+00 0. -1.
         23    2    1    0    0    0 -0.26924951725E+02  0.71907502918E+01  0.90480948625E+01  0.95699352639E+02  0.91103447573E+02 0.  0.
         13    1    3    3    0    0 -0.59301679489E+02  0.96989882791E+00 -0.56979035837E+01  0.59582775726E+02  0.10566000000E+00 0.  1.
         22    1    1    0    0    0  0.26924951725E+02 -0.71907502918E+01 -0.90480948625E+01  0.29300647361E+02  0.00000000000E+00 0.  1.
</event>
<event>
 5    1  0.1320187E-009  0.9118800E+02  0.7818608E-02  0.1130116E+00
         25   -1    0    0    0    0  0.00000000000E+00  0.00000000000E+00  0.99999998245E-14  0.12500000000E+03  0.12500000000E+03 0.  0.
        -13    1    3    3    0    0 -0.39112510027E+02 -0.32840769029E+02 -0.24718984888E+02  0.56739262675E+02  0.10566000000E+00 0.  1.
         23    2    1    0    0    0 -0.20917792903E+02 -0.23001217364E+02  0.55670755376E+01  0.93415155688E+02  0.87913530938E+02 0.  0.
         13    1    3    3    0    0  0.18194717124E+02  0.98395516646E+01  0.30286060425E+02  0.36675893013E+02  0.10566000000E+00 0. -1.
         22    1    1    0    0    0  0.20917792903E+02  0.23001217364E+02 -0.55670755376E+01  0.31584844312E+02  0.00000000000E+00 0.  1.
</event>
<event>
 5    1  0.1320187E-009  0.9118800E+02  0.7818608E-02  0.1130116E+00
         25   -1    0    0    0    0  0.00000000000E+00  0.00000000000E+00  0.99999998245E-14  0.12500000000E+03  0.12500000000E+03 0.  0.
        -13    1    3    3    0    0  0.94653402823E+01  0.28453314909E+02 -0.34463939466E+02  0.45683236351E+02  0.10566000000E+00 0.  1.
         23    2    1    0    0    0  0.44737254014E+01  0.29170698073E+02  0.12523738157E+02  0.92940869281E+02  0.87236559539E+02 0.  0.
         13    1    3    3    0    0 -0.49916148809E+01  0.71738316439E+00  0.46987677623E+02  0.47257632930E+02  0.10566000000E+00 0. -1.
         22    1    1    0    0    0 -0.44737254014E+01 -0.29170698073E+02 -0.12523738157E+02  0.32059130719E+02  0.00000000000E+00 0. -1.
</event>
<event>
 5    1  0.1320187E-009  0.9118800E+02  0.7818608E-02  0.1130116E+00
         25   -1    0    0    0    0  0.00000000000E+00  0.00000000000E+00  0.99999998245E-14  0.12500000000E+03  0.12500000000E+03 0.  0.
        -13    1    3    3    0    0 -0.34785322596E+02  0.29395300689E+02  0.33416734549E+02  0.56487093062E+02  0.10566000000E+00 0. -1.
         23    2    1    0    0    0 -0.15071027550E+02  0.23802615363E+02 -0.12961873933E+01  0.96797509484E+02  0.92597933946E+02 0.  0.
         13    1    3    3    0    0  0.19714295046E+02 -0.55926853260E+01 -0.34712921942E+02  0.40310416422E+02  0.10566000000E+00 0.  1.
         22    1    1    0    0    0  0.15071027550E+02 -0.23802615363E+02  0.12961873933E+01  0.28202490516E+02  0.00000000000E+00 0. -1.
</event>
<event>
 5    1  0.1320187E-009  0.9118800E+02  0.7818608E-02  0.1130116E+00
         25   -1    0    0    0    0  0.00000000000E+00  0.00000000000E+00  0.99999998245E-14  0.12500000000E+03  0.12500000000E+03 0.  0.
        -13    1    3    3    0    0 -0.34989210733E+02 -0.10304015280E+02  0.16121357679E+01  0.36510652478E+02  0.10566000000E+00 0. -1.
         23    2    1    0    0    0  0.16887457857E+02  0.35794125014E+01 -0.23537828065E+02  0.95810485158E+02  0.91255801401E+02 0.  0.
         13    1    3    3    0    0  0.51876668590E+02  0.13883427781E+02 -0.25149963833E+02  0.59299832679E+02  0.10566000000E+00 0.  1.
         22    1    1    0    0    0 -0.16887457857E+02 -0.35794125014E+01  0.23537828065E+02  0.29189514842E+02  0.00000000000E+00 0.  1.
</event>
<event>
 5    1  0.1320187E-009  0.9118800E+02  0.7818608E-02  0.1130116E+00
         25   -1    0    0    0    0  0.00000000000E+00  0.00000000000E+00  0.99999998245E-14  0.12500000000E+03  0.12500000000E+03 0.  0.
        -13    1    3    3    0    0  0.19898095940E+02 -0.55569036450E+02  0.16804818627E+02  0.61369904083E+02  0.10566000000E+00 0.  1.
         23    2    1    0    0    0  0.17109038815E+02 -0.23196086512E+02  0.92402496233E+01  0.94731867389E+02  0.89766178750E+02 0.  0.
         13    1    3    3    0    0 -0.27890571248E+01  0.32372949939E+02 -0.75645690039E+01  0.33361963306E+02  0.10566000000E+00 0. -1.
         22    1    1    0    0    0 -0.17109038815E+02  0.23196086512E+02 -0.92402496233E+01  0.30268132611E+02  0.00000000000E+00 0.  1.
</event>
<event>
 5    1  0.1320187E-009  0.9118800E+02  0.7818608E-02  0.1130116E+00
         25   -1    0    0    0    0  0.00000000000E+00  0.00000000000E+00  0.99999998245E-14  0.12500000000E+03  0.12500000000E+03 0.  0.
        -13    1    3    3    0    0 -0.20756026098E+02  0.28113937958E+02 -0.16660552462E+00  0.34946316663E+02  0.10566000000E+00 0. -1.
         23    2    1    0    0    0  0.34105807347E+01 -0.26295395784E+02 -0.12404822347E+02  0.95726129094E+02  0.91140179249E+02 0.  0.
         13    1    3    3    0    0  0.24166606833E+02 -0.54409333742E+02 -0.12238216822E+02  0.60779812430E+02  0.10566000000E+00 0.  1.
         22    1    1    0    0    0 -0.34105807347E+01  0.26295395784E+02  0.12404822347E+02  0.29273870906E+02  0.00000000000E+00 0.  1.
</event>
<event>
 5    1  0.1320187E-009  0.9118800E+02  0.7818608E-02  0.1130116E+00
         25   -1    0    0    0    0  0.00000000000E+00  0.00000000000E+00  0.99999998245E-14  0.12500000000E+03  0.12500000000E+03 0.  0.
        -13    1    3    3    0    0 -0.33632150682E+02 -0.15643102661E+02 -0.33382194428E+01  0.37242221918E+02  0.10566000000E+00 0. -1.
         23    2    1    0    0    0  0.19746239915E+02  0.11612153503E+01 -0.21219620532E+02  0.95990782372E+02  0.91502434902E+02 0.  0.
         13    1    3    3    0    0  0.53378390596E+02  0.16804318011E+02 -0.17881401090E+02  0.58748560454E+02  0.10566000000E+00 0.  1.
         22    1    1    0    0    0 -0.19746239915E+02 -0.11612153503E+01  0.21219620532E+02  0.29009217628E+02  0.00000000000E+00 0.  1.
</event>
<event>
 5    1  0.1320187E-009  0.9118800E+02  0.7818608E-02  0.1130116E+00
         25   -1    0    0    0    0  0.00000000000E+00  0.00000000000E+00  0.99999998245E-14  0.12500000000E+03  0.12500000000E+03 0.  0.
        -13    1    3    3    0    0 -0.29495881808E+01  0.17466900429E+02  0.38555424512E+02  0.42430232198E+02  0.10566000000E+00 0. -1.
         23    2    1    0    0    0 -0.54617800370E+01  0.27310967341E+02 -0.12489234702E+02  0.94476223010E+02  0.89409483571E+02 0.  0.
         13    1    3    3    0    0 -0.25121918562E+01  0.98440669127E+01 -0.51044659214E+02  0.52045990812E+02  0.10566000000E+00 0.  1.
         22    1    1    0    0    0  0.54617800370E+01 -0.27310967341E+02  0.12489234702E+02  0.30523776990E+02  0.00000000000E+00 0. -1.
</event>
<event>
 5    1  0.1320187E-009  0.9118800E+02  0.7818608E-02  0.1130116E+00
         25   -1    0    0    0    0  0.00000000000E+00  0.00000000000E+00  0.99999998245E-14  0.12500000000E+03  0.12500000000E+03 0.  0.
        -13    1    3    3    0    0 -0.15445362201E+02 -0.38622591709E+02  0.14120359698E+01  0.41620533556E+02  0.10566000000E+00 0.  1.
         23    2    1    0    0    0  0.18698519576E+02 -0.15890368978E+01 -0.21072673891E+02  0.96782678060E+02  0.92577910513E+02 0.  0.
         13    1    3    3    0    0  0.34143881777E+02  0.37033554811E+02 -0.22484709860E+02  0.55162144504E+02  0.10566000000E+00 0. -1.
         22    1    1    0    0    0 -0.18698519576E+02  0.15890368978E+01  0.21072673891E+02  0.28217321940E+02  0.00000000000E+00 0.  1.
</event>
<event>
 5    1  0.1320187E-009  0.9118800E+02  0.7818608E-02  0.1130116E+00
         25   -1    0    0    0    0  0.00000000000E+00  0.00000000000E+00  0.99999998245E-14  0.12500000000E+03  0.12500000000E+03 0.  0.
        -13    1    3    3    0    0  0.18084489373E+02  0.52105664338E+01  0.58964746966E+02  0.61895486970E+02  0.10566000000E+00 0.  1.
         23    2    1    0    0    0  0.35795861461E+01  0.63710508146E+01  0.13275804730E+02  0.10984576902E+03  0.10879541467E+03 0.  0.
         13    1    3    3    0    0 -0.14504903227E+02  0.11604843808E+01 -0.45688942236E+02  0.47950282047E+02  0.10566000000E+00 0. -1.
         22    1    1    0    0    0 -0.35795861461E+01 -0.63710508146E+01 -0.13275804730E+02  0.15154230983E+02  0.00000000000E+00 0.  1.
</event>
<event>
 5    1  0.1320187E-009  0.9118800E+02  0.7818608E-02  0.1130116E+00
         25   -1    0    0    0    0  0.00000000000E+00  0.00000000000E+00  0.99999998245E-14  0.12500000000E+03  0.12500000000E+03 0.  0.
        -13    1    3    3    0    0  0.73428409716E+00  0.21572674001E+02  0.54934815709E+02  0.59023423975E+02  0.10566000000E+00 0.  1.
         23    2    1    0    0    0 -0.13756524462E+02  0.59543235262E+01  0.26494109585E+02  0.94559340075E+02  0.89525610966E+02 0.  0.
         13    1    3    3    0    0 -0.14490808559E+02 -0.15618350475E+02 -0.28440706124E+02  0.35535916101E+02  0.10566000000E+00 0. -1.
         22    1    1    0    0    0  0.13756524462E+02 -0.59543235262E+01 -0.26494109585E+02  0.30440659925E+02  0.00000000000E+00 0.  1.
</event>
<event>
 5    1  0.1320187E-009  0.9118800E+02  0.7818608E-02  0.1130116E+00
         25   -1    0    0    0    0  0.00000000000E+00  0.00000000000E+00  0.99999998245E-14  0.12500000000E+03  0.12500000000E+03 0.  0.
        -13    1    3    3    0    0  0.44803651487E+02  0.87487136440E+01  0.29324463682E+01  0.45744044233E+02  0.10566000000E+00 0.  1.
         23    2    1    0    0    0  0.17182098255E+02 -0.28135968367E+02  0.36547825403E+01  0.91830516256E+02  0.85630771713E+02 0.  0.
         13    1    3    3    0    0 -0.27621553232E+02 -0.36884682011E+02  0.72233617212E+00  0.46086472024E+02  0.10566000000E+00 0. -1.
         22    1    1    0    0    0 -0.17182098255E+02  0.28135968367E+02 -0.36547825403E+01  0.33169483744E+02  0.00000000000E+00 0. -1.
</event>
<event>
 5    1  0.1320187E-009  0.9118800E+02  0.7818608E-02  0.1130116E+00
         25   -1    0    0    0    0  0.00000000000E+00  0.00000000000E+00  0.99999998245E-14  0.12500000000E+03  0.12500000000E+03 0.  0.
        -13    1    3    3    0    0  0.27245699292E+02 -0.26697055433E+02 -0.64763329104E+01  0.38691277450E+02  0.10566000000E+00 0. -1.
         23    2    1    0    0    0  0.94348500072E+01  0.26630741108E+02 -0.10011678522E+02  0.95025903292E+02  0.90174696135E+02 0.  0.
         13    1    3    3    0    0 -0.17810849284E+02  0.53327796541E+02 -0.35353456116E+01  0.56334625842E+02  0.10566000000E+00 0.  1.
         22    1    1    0    0    0 -0.94348500072E+01 -0.26630741108E+02  0.10011678522E+02  0.29974096708E+02  0.00000000000E+00 0.  1.
</event>
<event>
 5    1  0.1320187E-009  0.9118800E+02  0.7818608E-02  0.1130116E+00
         25   -1    0    0    0    0  0.00000000000E+00  0.00000000000E+00  0.99999998245E-14  0.12500000000E+03  0.12500000000E+03 0.  0.
        -13    1    3    3    0    0 -0.11906160183E+02 -0.10731876987E+02  0.58231259452E+02  0.60397190128E+02  0.10566000000E+00 0. -1.
         23    2    1    0    0    0 -0.57476905035E+01 -0.17551294735E+02  0.34081168807E+02  0.86236486740E+02  0.77033250516E+02 0.  0.
         13    1    3    3    0    0  0.61584696793E+01 -0.68194177476E+01 -0.24150090645E+02  0.25839296612E+02  0.10566000000E+00 0.  1.
         22    1    1    0    0    0  0.57476905035E+01  0.17551294735E+02 -0.34081168807E+02  0.38763513260E+02  0.00000000000E+00 0. -1.
</event>
<event>
 4    1  0.1320187E-009  0.9118800E+02  0.7818608E-02  0.1130116E+00
         25   -1    0    0    0    0  0.00000000000E+00  0.00000000000E+00  0.99999998245E-14  0.12500000000E+03  0.12500000000E+03 0.  0.
        -13    1    1    0    0    0  0.17792508236E+01  0.43036031821E+02  0.20300132322E+02  0.47616932962E+02  0.10566000000E+00 0. -1.
         13    1    1    0    0    0  0.24660657985E+02 -0.45822779836E+01  0.29315088816E+01  0.25253717195E+02  0.10566000000E+00 0.  1.
         22    1    1    0    0    0 -0.26439908809E+02 -0.38453753838E+02 -0.23231641204E+02  0.52129349843E+02  0.00000000000E+00 0.  1.
</event>
<event>
 5    1  0.1320187E-009  0.9118800E+02  0.7818608E-02  0.1130116E+00
         25   -1    0    0    0    0  0.00000000000E+00  0.00000000000E+00  0.99999998245E-14  0.12500000000E+03  0.12500000000E+03 0.  0.
        -13    1    3    3    0    0  0.25557568905E+02  0.44271241411E+02  0.10165045326E+02  0.52119779882E+02  0.10566000000E+00 0. -1.
         23    2    1    0    0    0 -0.53983291894E+01  0.14262336548E+02  0.23267182722E+02  0.97180618381E+02  0.93113664923E+02 0.  0.
         13    1    3    3    0    0 -0.30955898094E+02 -0.30008904863E+02  0.13102137395E+02  0.45060838499E+02  0.10566000000E+00 0.  1.
         22    1    1    0    0    0  0.53983291894E+01 -0.14262336548E+02 -0.23267182722E+02  0.27819381619E+02  0.00000000000E+00 0. -1.
</event>
<event>
 5    1  0.1320187E-009  0.9118800E+02  0.7818608E-02  0.1130116E+00
         25   -1    0    0    0    0  0.00000000000E+00  0.00000000000E+00  0.99999998245E-14  0.12500000000E+03  0.12500000000E+03 0.  0.
        -13    1    3    3    0    0 -0.16893951586E+02  0.48164878304E+02 -0.35699118051E+02  0.62287232205E+02  0.10566000000E+00 0.  1.
         23    2    1    0    0    0 -0.57368002396E+01  0.24353403219E+02 -0.14361886078E+02  0.96151032999E+02  0.91721089449E+02 0.  0.
         13    1    3    3    0    0  0.11157151346E+02 -0.23811475085E+02  0.21337231973E+02  0.33863800793E+02  0.10566000000E+00 0. -1.
         22    1    1    0    0    0  0.57368002396E+01 -0.24353403219E+02  0.14361886078E+02  0.28848967001E+02  0.00000000000E+00 0.  1.
</event>
<event>
 5    1  0.1320187E-009  0.9118800E+02  0.7818608E-02  0.1130116E+00
         25   -1    0    0    0    0  0.00000000000E+00  0.00000000000E+00  0.99999998245E-14  0.12500000000E+03  0.12500000000E+03 0.  0.
        -13    1    3    3    0    0  0.23153675570E+02 -0.10079953859E+01  0.49605975666E+01  0.23700789847E+02  0.10566000000E+00 0. -1.
         23    2    1    0    0    0 -0.32770113705E+02 -0.19989533022E+02 -0.11354139023E+02  0.84970282843E+02  0.74950455040E+02 0.  0.
         13    1    3    3    0    0 -0.55923789276E+02 -0.18981537636E+02 -0.16314736589E+02  0.61269492996E+02  0.10566000000E+00 0.  1.
         22    1    1    0    0    0  0.32770113705E+02  0.19989533022E+02  0.11354139023E+02  0.40029717157E+02  0.00000000000E+00 0.  1.
</event>
<event>
 5    1  0.1320187E-009  0.9118800E+02  0.7818608E-02  0.1130116E+00
         25   -1    0    0    0    0  0.00000000000E+00  0.00000000000E+00  0.99999998245E-14  0.12500000000E+03  0.12500000000E+03 0.  0.
        -13    1    3    3    0    0 -0.18591504824E+02  0.25023278337E+02 -0.15573380688E+02  0.34847523017E+02  0.10566000000E+00 0. -1.
         23    2    1    0    0    0  0.45291256304E+01 -0.29338512958E+02 -0.39865213065E+01  0.95047476338E+02  0.90204595695E+02 0.  0.
         13    1    3    3    0    0  0.23120630454E+02 -0.54361791295E+02  0.11586859382E+02  0.60199953321E+02  0.10566000000E+00 0.  1.
         22    1    1    0    0    0 -0.45291256304E+01  0.29338512958E+02  0.39865213065E+01  0.29952523662E+02  0.00000000000E+00 0.  1.
</event>
<event>
 5    1  0.1320187E-009  0.9118800E+02  0.7818608E-02  0.1130116E+00
         25   -1    0    0    0    0  0.00000000000E+00  0.00000000000E+00  0.99999998245E-14  0.12500000000E+03  0.12500000000E+03 0.  0.
        -13    1    3    3    0    0  0.15141300100E+02  0.31249289176E+02 -0.34076224565E+02  0.48651590800E+02  0.10566000000E+00 0.  1.
         23    2    1    0    0    0  0.27137855044E+01 -0.13955236469E+02 -0.24758102004E+02  0.96450448839E+02  0.92128237852E+02 0.  0.
         13    1    3    3    0    0 -0.12427514595E+02 -0.45204525645E+02  0.93181225617E+01  0.47798858039E+02  0.10566000000E+00 0. -1.
         22    1    1    0    0    0 -0.27137855044E+01  0.13955236469E+02  0.24758102004E+02  0.28549551161E+02  0.00000000000E+00 0.  1.
</event>
<event>
 5    1  0.1320187E-009  0.9118800E+02  0.7818608E-02  0.1130116E+00
         25   -1    0    0    0    0  0.00000000000E+00  0.00000000000E+00  0.99999998245E-14  0.12500000000E+03  0.12500000000E+03 0.  0.
        -13    1    3    3    0    0  0.51759764700E+02 -0.14093128060E+02 -0.19308005844E+02  0.57013154219E+02  0.10566000000E+00 0.  1.
         23    2    1    0    0    0  0.10113402361E+02 -0.13701322575E+02 -0.20083076258E+02  0.98668704938E+02  0.95090358263E+02 0.  0.
         13    1    3    3    0    0 -0.41646362339E+02  0.39180548462E+00 -0.77507041462E+00  0.41655550720E+02  0.10566000000E+00 0. -1.
         22    1    1    0    0    0 -0.10113402361E+02  0.13701322575E+02  0.20083076258E+02  0.26331295062E+02  0.00000000000E+00 0.  1.
</event>
<event>
 5    1  0.1320187E-009  0.9118800E+02  0.7818608E-02  0.1130116E+00
         25   -1    0    0    0    0  0.00000000000E+00  0.00000000000E+00  0.99999998245E-14  0.12500000000E+03  0.12500000000E+03 0.  0.
        -13    1    3    3    0    0 -0.21763998068E+02  0.57495296330E+01  0.23351431215E+02  0.32434999718E+02  0.10566000000E+00 0. -1.
         23    2    1    0    0    0  0.23406819812E+02  0.22224532550E+02 -0.10296051480E+02  0.91120541078E+02  0.84588032662E+02 0.  0.
         13    1    3    3    0    0  0.45170817880E+02  0.16475002916E+02 -0.33647482695E+02  0.58685541360E+02  0.10566000000E+00 0.  1.
         22    1    1    0    0    0 -0.23406819812E+02 -0.22224532550E+02  0.10296051480E+02  0.33879458922E+02  0.00000000000E+00 0.  1.
</event>
<event>
 5    1  0.1320187E-009  0.9118800E+02  0.7818608E-02  0.1130116E+00
         25   -1    0    0    0    0  0.00000000000E+00  0.00000000000E+00  0.99999998245E-14  0.12500000000E+03  0.12500000000E+03 0.  0.
        -13    1    3    3    0    0 -0.25410078836E+02  0.54177205746E+02  0.90755281677E+00  0.59847109747E+02  0.10566000000E+00 0.  1.
         23    2    1    0    0    0 -0.27371414010E+00  0.28080193054E+02 -0.47482870155E+01  0.96519859709E+02  0.92222366741E+02 0.  0.
         13    1    3    3    0    0  0.25136364696E+02 -0.26097012691E+02 -0.56558398323E+01  0.36672749962E+02  0.10566000000E+00 0. -1.
         22    1    1    0    0    0  0.27371414010E+00 -0.28080193054E+02  0.47482870155E+01  0.28480140291E+02  0.00000000000E+00 0.  1.
</event>
<event>
 5    1  0.1320187E-009  0.9118800E+02  0.7818608E-02  0.1130116E+00
         25   -1    0    0    0    0  0.00000000000E+00  0.00000000000E+00  0.99999998245E-14  0.12500000000E+03  0.12500000000E+03 0.  0.
        -13    1    3    3    0    0 -0.23412398231E+02 -0.22410198989E+02  0.89989124974E+01  0.33635531806E+02  0.10566000000E+00 0.  1.
         23    2    1    0    0    0  0.11926504345E+02  0.24618308462E+02 -0.10632734436E+02  0.95651104638E+02  0.91037224032E+02 0.  0.
         13    1    3    3    0    0  0.35338902576E+02  0.47028507451E+02 -0.19631646933E+02  0.62015572832E+02  0.10566000000E+00 0. -1.
         22    1    1    0    0    0 -0.11926504345E+02 -0.24618308462E+02  0.10632734436E+02  0.29348895362E+02  0.00000000000E+00 0. -1.
</event>
<event>
 5    1  0.1320187E-009  0.9118800E+02  0.7818608E-02  0.1130116E+00
         25   -1    0    0    0    0  0.00000000000E+00  0.00000000000E+00  0.99999998245E-14  0.12500000000E+03  0.12500000000E+03 0.  0.
        -13    1    3    3    0    0 -0.71198232237E+01  0.32817507724E+02 -0.17443082563E+02  0.37841154703E+02  0.10566000000E+00 0.  1.
         23    2    1    0    0    0  0.10480194007E+02  0.14006711784E+00  0.27172111048E+02  0.95876509412E+02  0.91346195065E+02 0.  0.
         13    1    3    3    0    0  0.17600017231E+02 -0.32677440606E+02  0.44615193612E+02  0.58035354708E+02  0.10566000000E+00 0. -1.
         22    1    1    0    0    0 -0.10480194007E+02 -0.14006711784E+00 -0.27172111048E+02  0.29123490588E+02  0.00000000000E+00 0. -1.
</event>
<event>
 5    1  0.1320187E-009  0.9118800E+02  0.7818608E-02  0.1130116E+00
         25   -1    0    0    0    0  0.00000000000E+00  0.00000000000E+00  0.99999998245E-14  0.12500000000E+03  0.12500000000E+03 0.  0.
        -13    1    3    3    0    0 -0.14366363572E+02 -0.71588715050E+01  0.44442860930E+02  0.47252734261E+02  0.10566000000E+00 0. -1.
         23    2    1    0    0    0  0.51437602255E+01 -0.31097908574E+02  0.14370224010E+02  0.90358384492E+02  0.83454155816E+02 0.  0.
         13    1    3    3    0    0  0.19510123798E+02 -0.23939037069E+02 -0.30072636920E+02  0.43105650230E+02  0.10566000000E+00 0.  1.
         22    1    1    0    0    0 -0.51437602255E+01  0.31097908574E+02 -0.14370224010E+02  0.34641615508E+02  0.00000000000E+00 0.  1.
</event>
<event>
 5    1  0.1320187E-009  0.9118800E+02  0.7818608E-02  0.1130116E+00
         25   -1    0    0    0    0  0.00000000000E+00  0.00000000000E+00  0.99999998245E-14  0.12500000000E+03  0.12500000000E+03 0.  0.
        -13    1    3    3    0    0  0.40708412067E+02  0.45942046024E+01 -0.12261582687E+02  0.42762589993E+02  0.10566000000E+00 0.  1.
         23    2    1    0    0    0 -0.53095806346E+01  0.19996846475E+02  0.15933213689E+02  0.98886156662E+02  0.95375778715E+02 0.  0.
         13    1    3    3    0    0 -0.46017992701E+02  0.15402641872E+02  0.28194796376E+02  0.56123566668E+02  0.10566000000E+00 0. -1.
         22    1    1    0    0    0  0.53095806346E+01 -0.19996846475E+02 -0.15933213689E+02  0.26113843338E+02  0.00000000000E+00 0. -1.
</event>
<event>
 5    1  0.1320187E-009  0.9118800E+02  0.7818608E-02  0.1130116E+00
         25   -1    0    0    0    0  0.00000000000E+00  0.00000000000E+00  0.99999998245E-14  0.12500000000E+03  0.12500000000E+03 0.  0.
        -13    1    3    3    0    0  0.35684282942E+02  0.26414929029E+00  0.24250266964E+02  0.43145387191E+02  0.10566000000E+00 0.  1.
         23    2    1    0    0    0  0.13903105968E+02 -0.12594780079E+02 -0.22138606844E+02  0.95982027055E+02  0.91490473624E+02 0.  0.
         13    1    3    3    0    0 -0.21781176974E+02 -0.12858929369E+02 -0.46388873809E+02  0.52836639865E+02  0.10566000000E+00 0. -1.
         22    1    1    0    0    0 -0.13903105968E+02  0.12594780079E+02  0.22138606844E+02  0.29017972945E+02  0.00000000000E+00 0. -1.
</event>
<event>
 5    1  0.1320187E-009  0.9118800E+02  0.7818608E-02  0.1130116E+00
         25   -1    0    0    0    0  0.00000000000E+00  0.00000000000E+00  0.99999998245E-14  0.12500000000E+03  0.12500000000E+03 0.  0.
        -13    1    3    3    0    0  0.42867484739E+02  0.18399970761E+02  0.79639366335E+01  0.47324577363E+02  0.10566000000E+00 0.  1.
         23    2    1    0    0    0  0.10746583968E+02  0.16355531699E+02 -0.24903604534E+02  0.93326951474E+02  0.87788028048E+02 0.  0.
         13    1    3    3    0    0 -0.32120900771E+02 -0.20444390626E+01 -0.32867541168E+02  0.46002374111E+02  0.10566000000E+00 0. -1.
         22    1    1    0    0    0 -0.10746583968E+02 -0.16355531699E+02  0.24903604534E+02  0.31673048526E+02  0.00000000000E+00 0. -1.
</event>
<event>
 5    1  0.1320187E-009  0.9118800E+02  0.7818608E-02  0.1130116E+00
         25   -1    0    0    0    0  0.00000000000E+00  0.00000000000E+00  0.99999998245E-14  0.12500000000E+03  0.12500000000E+03 0.  0.
        -13    1    3    3    0    0  0.40426189449E+02  0.55752498535E+00  0.68168686302E+00  0.40435918296E+02  0.10566000000E+00 0.  1.
         23    2    1    0    0    0 -0.72320890726E+01 -0.13905887382E+02  0.24713212827E+02  0.95735350600E+02  0.91152825793E+02 0.  0.
         13    1    3    3    0    0 -0.47658278521E+02 -0.14463412368E+02  0.24031525964E+02  0.55299432304E+02  0.10566000000E+00 0. -1.
         22    1    1    0    0    0  0.72320890726E+01  0.13905887382E+02 -0.24713212827E+02  0.29264649400E+02  0.00000000000E+00 0. -1.
</event>
<event>
 5    1  0.1320187E-009  0.9118800E+02  0.7818608E-02  0.1130116E+00
         25   -1    0    0    0    0  0.00000000000E+00  0.00000000000E+00  0.99999998245E-14  0.12500000000E+03  0.12500000000E+03 0.  0.
        -13    1    3    3    0    0 -0.41094187220E+02 -0.42673943969E+02 -0.15362332619E+02  0.61203023983E+02  0.10566000000E+00 0.  1.
         23    2    1    0    0    0 -0.25742213712E+02 -0.16685832303E+02 -0.18680544595E+01  0.94266171831E+02  0.89115335144E+02 0.  0.
         13    1    3    3    0    0  0.15351973508E+02  0.25988111666E+02  0.13494278160E+02  0.33063147848E+02  0.10566000000E+00 0. -1.
         22    1    1    0    0    0  0.25742213712E+02  0.16685832303E+02  0.18680544595E+01  0.30733828169E+02  0.00000000000E+00 0.  1.
</event>
<event>
 5    1  0.1320187E-009  0.9118800E+02  0.7818608E-02  0.1130116E+00
         25   -1    0    0    0    0  0.00000000000E+00  0.00000000000E+00  0.99999998245E-14  0.12500000000E+03  0.12500000000E+03 0.  0.
        -13    1    3    3    0    0 -0.20623201851E+02  0.44658902970E+02 -0.13022560400E+02  0.50885482335E+02  0.10566000000E+00 0. -1.
         23    2    1    0    0    0 -0.26714716290E+02  0.55242558186E+01  0.90889998075E+01  0.96245810978E+02  0.91850164641E+02 0.  0.
         13    1    3    3    0    0 -0.60915144384E+01 -0.39134647151E+02  0.22111560208E+02  0.45360328644E+02  0.10566000000E+00 0.  1.
         22    1    1    0    0    0  0.26714716290E+02 -0.55242558186E+01 -0.90889998075E+01  0.28754189022E+02  0.00000000000E+00 0. -1.
</event>
<event>
 5    1  0.1320187E-009  0.9118800E+02  0.7818608E-02  0.1130116E+00
         25   -1    0    0    0    0  0.00000000000E+00  0.00000000000E+00  0.99999998245E-14  0.12500000000E+03  0.12500000000E+03 0.  0.
        -13    1    3    3    0    0  0.30003339720E+02  0.54191688565E+01  0.13186413523E+02  0.33218375202E+02  0.10566000000E+00 0.  1.
         23    2    1    0    0    0 -0.25756981983E+02  0.53503110993E+01 -0.13941093082E+02  0.95227495469E+02  0.90453711186E+02 0.  0.
         13    1    3    3    0    0 -0.55760321702E+02 -0.68857757126E-01 -0.27127506604E+02  0.62009120267E+02  0.10566000000E+00 0. -1.
         22    1    1    0    0    0  0.25756981983E+02 -0.53503110993E+01  0.13941093082E+02  0.29772504531E+02  0.00000000000E+00 0. -1.
</event>
<event>
 5    1  0.1320187E-009  0.9118800E+02  0.7818608E-02  0.1130116E+00
         25   -1    0    0    0    0  0.00000000000E+00  0.00000000000E+00  0.99999998245E-14  0.12500000000E+03  0.12500000000E+03 0.  0.
        -13    1    3    3    0    0 -0.26841496624E+02 -0.50196725100E+01  0.53828161557E+02  0.60358472428E+02  0.10566000000E+00 0.  1.
         23    2    1    0    0    0 -0.58252242661E-02 -0.34921863528E+01  0.24936446072E+02  0.99820211634E+02  0.96592199004E+02 0.  0.
         13    1    3    3    0    0  0.26835671400E+02  0.15274861572E+01 -0.28891715485E+02  0.39461739206E+02  0.10566000000E+00 0. -1.
         22    1    1    0    0    0  0.58252242661E-02  0.34921863528E+01 -0.24936446072E+02  0.25179788366E+02  0.00000000000E+00 0.  1.
</event>
<event>
 5    1  0.1320187E-009  0.9118800E+02  0.7818608E-02  0.1130116E+00
         25   -1    0    0    0    0  0.00000000000E+00  0.00000000000E+00  0.99999998245E-14  0.12500000000E+03  0.12500000000E+03 0.  0.
        -13    1    3    3    0    0  0.23562917633E+02  0.43252481320E+02  0.52552099797E+01  0.49533994626E+02  0.10566000000E+00 0.  1.
         23    2    1    0    0    0  0.91598352019E+01  0.17529519815E+02 -0.25890193500E+02  0.92419503298E+02  0.86486275353E+02 0.  0.
         13    1    3    3    0    0 -0.14403082431E+02 -0.25722961504E+02 -0.31145403480E+02  0.42885508672E+02  0.10566000000E+00 0. -1.
         22    1    1    0    0    0 -0.91598352019E+01 -0.17529519815E+02  0.25890193500E+02  0.32580496702E+02  0.00000000000E+00 0.  1.
</event>
<event>
 5    1  0.1320187E-009  0.9118800E+02  0.7818608E-02  0.1130116E+00
         25   -1    0    0    0    0  0.00000000000E+00  0.00000000000E+00  0.99999998245E-14  0.12500000000E+03  0.12500000000E+03 0.  0.
        -13    1    3    3    0    0 -0.13159174917E+02  0.31390359654E+02 -0.14048245698E+02  0.36822315719E+02  0.10566000000E+00 0. -1.
         23    2    1    0    0    0  0.54702230134E+01 -0.31666683671E+01  0.29137097434E+02  0.95185212138E+02  0.90395260022E+02 0.  0.
         13    1    3    3    0    0  0.18629397930E+02 -0.34557028021E+02  0.43185343132E+02  0.58362896419E+02  0.10566000000E+00 0.  1.
         22    1    1    0    0    0 -0.54702230134E+01  0.31666683671E+01 -0.29137097434E+02  0.29814787862E+02  0.00000000000E+00 0.  1.
</event>
<event>
 5    1  0.1320187E-009  0.9118800E+02  0.7818608E-02  0.1130116E+00
         25   -1    0    0    0    0  0.00000000000E+00  0.00000000000E+00  0.99999998245E-14  0.12500000000E+03  0.12500000000E+03 0.  0.
        -13    1    3    3    0    0  0.57473094403E+02 -0.84026275715E+01 -0.16600172294E+02  0.60409747679E+02  0.10566000000E+00 0.  1.
         23    2    1    0    0    0  0.27240182359E+02  0.61481553441E+01 -0.13132227669E+02  0.94140921067E+02  0.88939475300E+02 0.  0.
         13    1    3    3    0    0 -0.30232912045E+02  0.14550782916E+02  0.34679446253E+01  0.33731173388E+02  0.10566000000E+00 0. -1.
         22    1    1    0    0    0 -0.27240182359E+02 -0.61481553441E+01  0.13132227669E+02  0.30859078933E+02  0.00000000000E+00 0.  1.
</event>
<event>
 5    1  0.1320187E-009  0.9118800E+02  0.7818608E-02  0.1130116E+00
         25   -1    0    0    0    0  0.00000000000E+00  0.00000000000E+00  0.99999998245E-14  0.12500000000E+03  0.12500000000E+03 0.  0.
        -13    1    3    3    0    0 -0.11047312401E+02 -0.37086691016E+02  0.42498549515E+02  0.57476983539E+02  0.10566000000E+00 0. -1.
         23    2    1    0    0    0  0.91593415938E+01 -0.22202515852E+02  0.32719076383E+02  0.84412031241E+02  0.74013565042E+02 0.  0.
         13    1    3    3    0    0  0.20206653994E+02  0.14884175163E+02 -0.97794731321E+01  0.26935047702E+02  0.10566000000E+00 0.  1.
         22    1    1    0    0    0 -0.91593415938E+01  0.22202515852E+02 -0.32719076383E+02  0.40587968759E+02  0.00000000000E+00 0. -1.
</event>
<event>
 5    1  0.1320187E-009  0.9118800E+02  0.7818608E-02  0.1130116E+00
         25   -1    0    0    0    0  0.00000000000E+00  0.00000000000E+00  0.99999998245E-14  0.12500000000E+03  0.12500000000E+03 0.  0.
        -13    1    3    3    0    0  0.13799537081E+02 -0.23931073326E+02  0.39460214809E+02  0.48168902946E+02  0.10566000000E+00 0.  1.
         23    2    1    0    0    0 -0.80717183855E+01 -0.31128964947E+02  0.12050466978E+01  0.92818992652E+02  0.87061749138E+02 0.  0.
         13    1    3    3    0    0 -0.21871255467E+02 -0.71978916214E+01 -0.38255168111E+02  0.44650089706E+02  0.10566000000E+00 0. -1.
         22    1    1    0    0    0  0.80717183855E+01  0.31128964947E+02 -0.12050466978E+01  0.32181007348E+02  0.00000000000E+00 0. -1.
</event>
<event>
 5    1  0.1320187E-009  0.9118800E+02  0.7818608E-02  0.1130116E+00
         25   -1    0    0    0    0  0.00000000000E+00  0.00000000000E+00  0.99999998245E-14  0.12500000000E+03  0.12500000000E+03 0.  0.
        -13    1    3    3    0    0  0.58556022375E+01  0.45605494943E+02  0.15510818750E+02  0.48525724198E+02  0.10566000000E+00 0. -1.
         23    2    1    0    0    0 -0.17715541561E+02  0.41418816860E+01  0.21768626295E+02  0.96629792255E+02  0.92371251284E+02 0.  0.
         13    1    3    3    0    0 -0.23571143798E+02 -0.41463613257E+02  0.62578075455E+01  0.48104068057E+02  0.10566000000E+00 0.  1.
         22    1    1    0    0    0  0.17715541561E+02 -0.41418816860E+01 -0.21768626295E+02  0.28370207745E+02  0.00000000000E+00 0. -1.
</event>
<event>
 5    1  0.1320187E-009  0.9118800E+02  0.7818608E-02  0.1130116E+00
         25   -1    0    0    0    0  0.00000000000E+00  0.00000000000E+00  0.99999998245E-14  0.12500000000E+03  0.12500000000E+03 0.  0.
        -13    1    3    3    0    0 -0.72285981496E+01 -0.51998077348E+02 -0.15457165470E+02  0.54726481776E+02  0.10566000000E+00 0. -1.
         23    2    1    0    0    0 -0.23159123264E+02 -0.18174813888E+02 -0.14637177326E+02  0.92122715892E+02  0.86056254701E+02 0.  0.
         13    1    3    3    0    0 -0.15930525114E+02  0.33823263460E+02  0.81998814438E+00  0.37396234117E+02  0.10566000000E+00 0.  1.
         22    1    1    0    0    0  0.23159123264E+02  0.18174813888E+02  0.14637177326E+02  0.32877284108E+02  0.00000000000E+00 0. -1.
</event>
<event>
 5    1  0.1320187E-009  0.9118800E+02  0.7818608E-02  0.1130116E+00
         25   -1    0    0    0    0  0.00000000000E+00  0.00000000000E+00  0.99999998245E-14  0.12500000000E+03  0.12500000000E+03 0.  0.
        -13    1    3    3    0    0  0.59345358498E+02  0.91593013096E-01 -0.69776979949E+01  0.59754325349E+02  0.10566000000E+00 0.  1.
         23    2    1    0    0    0  0.25651448697E+02 -0.12629662413E+02 -0.60113584289E+01  0.95782853954E+02  0.91217944992E+02 0.  0.
         13    1    3    3    0    0 -0.33693909801E+02 -0.12721255426E+02  0.96633956599E+00  0.36028528605E+02  0.10566000000E+00 0. -1.
         22    1    1    0    0    0 -0.25651448697E+02  0.12629662413E+02  0.60113584289E+01  0.29217146046E+02  0.00000000000E+00 0.  1.
</event>
<event>
 5    1  0.1320187E-009  0.9118800E+02  0.7818608E-02  0.1130116E+00
         25   -1    0    0    0    0  0.00000000000E+00  0.00000000000E+00  0.99999998245E-14  0.12500000000E+03  0.12500000000E+03 0.  0.
        -13    1    3    3    0    0 -0.30313050099E+02 -0.37862441278E+02  0.10644722155E+02  0.49656487387E+02  0.10566000000E+00 0. -1.
         23    2    1    0    0    0 -0.14358865303E+02  0.44555413159E+01  0.23882223537E+02  0.96779626822E+02  0.92573790597E+02 0.  0.
         13    1    3    3    0    0  0.15954184796E+02  0.42317982594E+02  0.13237501382E+02  0.47123139435E+02  0.10566000000E+00 0.  1.
         22    1    1    0    0    0  0.14358865303E+02 -0.44555413159E+01 -0.23882223537E+02  0.28220373178E+02  0.00000000000E+00 0. -1.
</event>
<event>
 5    1  0.1320187E-009  0.9118800E+02  0.7818608E-02  0.1130116E+00
         25   -1    0    0    0    0  0.00000000000E+00  0.00000000000E+00  0.99999998245E-14  0.12500000000E+03  0.12500000000E+03 0.  0.
        -13    1    3    3    0    0 -0.33086134671E+02  0.17126994319E+01  0.10853316935E+02  0.34863036290E+02  0.10566000000E+00 0. -1.
         23    2    1    0    0    0  0.26853973858E+02 -0.86347891067E+01  0.76446266514E+01  0.95774398012E+02  0.91206356703E+02 0.  0.
         13    1    3    3    0    0  0.59940108529E+02 -0.10347488539E+02 -0.32086902837E+01  0.60911361723E+02  0.10566000000E+00 0.  1.
         22    1    1    0    0    0 -0.26853973858E+02  0.86347891067E+01 -0.76446266514E+01  0.29225601988E+02  0.00000000000E+00 0.  1.
</event>
<event>
 5    1  0.1320187E-009  0.9118800E+02  0.7818608E-02  0.1130116E+00
         25   -1    0    0    0    0  0.00000000000E+00  0.00000000000E+00  0.99999998245E-14  0.12500000000E+03  0.12500000000E+03 0.  0.
        -13    1    3    3    0    0 -0.40018840588E+02 -0.11729507617E+02 -0.21217181680E+02  0.46789623993E+02  0.10566000000E+00 0. -1.
         23    2    1    0    0    0 -0.10549631109E+02 -0.25438158695E+02  0.13485966526E+02  0.94336244074E+02  0.89213569699E+02 0.  0.
         13    1    3    3    0    0  0.29469209479E+02 -0.13708651078E+02  0.34703148205E+02  0.47546620081E+02  0.10566000000E+00 0.  1.
         22    1    1    0    0    0  0.10549631109E+02  0.25438158695E+02 -0.13485966526E+02  0.30663755926E+02  0.00000000000E+00 0. -1.
</event>
<event>
 5    1  0.1320187E-009  0.9118800E+02  0.7818608E-02  0.1130116E+00
         25   -1    0    0    0    0  0.00000000000E+00  0.00000000000E+00  0.99999998245E-14  0.12500000000E+03  0.12500000000E+03 0.  0.
        -13    1    3    3    0    0  0.17953750014E+02  0.29901498069E+02  0.19072527369E+02  0.39751845122E+02  0.10566000000E+00 0.  1.
         23    2    1    0    0    0 -0.25924251741E+02 -0.25087319521E+01  0.16094384643E+02  0.94383178130E+02  0.89279306295E+02 0.  0.
         13    1    3    3    0    0 -0.43878001755E+02 -0.32410230022E+02 -0.29781427257E+01  0.54631333008E+02  0.10566000000E+00 0. -1.
         22    1    1    0    0    0  0.25924251741E+02  0.25087319521E+01 -0.16094384643E+02  0.30616821870E+02  0.00000000000E+00 0. -1.
</event>
<event>
 4    1  0.1320187E-009  0.9118800E+02  0.7818608E-02  0.1130116E+00
         25   -1    0    0    0    0  0.00000000000E+00  0.00000000000E+00  0.99999998245E-14  0.12500000000E+03  0.12500000000E+03 0.  0.
        -13    1    1    0    0    0  0.13868401499E+02 -0.16341969355E+02  0.12854154891E+02  0.24992658613E+02  0.10566000000E+00 0. -1.
         13    1    1    0    0    0 -0.50194384200E+01  0.10068545336E+02  0.42313344182E+02  0.43783565719E+02  0.10566000000E+00 0.  1.
         22    1    1    0    0    0 -0.88489630793E+01  0.62734240188E+01 -0.55167499072E+02  0.56223775668E+02  0.00000000000E+00 0.  1.
</event>
<event>
 5    1  0.1320187E-009  0.9118800E+02  0.7818608E-02  0.1130116E+00
         25   -1    0    0    0    0  0.00000000000E+00  0.00000000000E+00  0.99999998245E-14  0.12500000000E+03  0.12500000000E+03 0.  0.
        -13    1    3    3    0    0  0.22901958046E+02 -0.75627109303E+01 -0.13120712504E+02  0.27456484473E+02  0.10566000000E+00 0. -1.
         23    2    1    0    0    0 -0.74793840204E+01  0.65482836104E+01 -0.48096768237E+02  0.75886658448E+02  0.57850363975E+02 0.  0.
         13    1    3    3    0    0 -0.30381342066E+02  0.14110994541E+02 -0.34976055732E+02  0.48430173975E+02  0.10566000000E+00 0.  1.
         22    1    1    0    0    0  0.74793840204E+01 -0.65482836104E+01  0.48096768237E+02  0.49113341552E+02  0.00000000000E+00 0. -1.
</event>
<event>
 5    1  0.1320187E-009  0.9118800E+02  0.7818608E-02  0.1130116E+00
         25   -1    0    0    0    0  0.00000000000E+00  0.00000000000E+00  0.99999998245E-14  0.12500000000E+03  0.12500000000E+03 0.  0.
        -13    1    3    3    0    0  0.32825095304E+02  0.14563708952E+02 -0.66502642840E+01  0.36521578269E+02  0.10566000000E+00 0. -1.
         23    2    1    0    0    0 -0.25888964856E+02  0.12037328659E+02 -0.81491941636E+01  0.95309174008E+02  0.90566514242E+02 0.  0.
         13    1    3    3    0    0 -0.58714060161E+02 -0.25263802931E+01 -0.14989298796E+01  0.58787595739E+02  0.10566000000E+00 0.  1.
         22    1    1    0    0    0  0.25888964856E+02 -0.12037328659E+02  0.81491941636E+01  0.29690825992E+02  0.00000000000E+00 0.  1.
</event>
<event>
 5    1  0.1320187E-009  0.9118800E+02  0.7818608E-02  0.1130116E+00
         25   -1    0    0    0    0  0.00000000000E+00  0.00000000000E+00  0.99999998245E-14  0.12500000000E+03  0.12500000000E+03 0.  0.
        -13    1    3    3    0    0  0.34812090369E+01  0.10426681359E+02  0.35254082604E+02  0.36928254830E+02  0.10566000000E+00 0.  1.
         23    2    1    0    0    0 -0.21688254366E+02 -0.15754331065E+02 -0.11246117511E+02  0.95930179157E+02  0.91419608342E+02 0.  0.
         13    1    3    3    0    0 -0.25169463403E+02 -0.26181012424E+02 -0.46500200115E+02  0.59001924327E+02  0.10566000000E+00 0. -1.
         22    1    1    0    0    0  0.21688254366E+02  0.15754331065E+02  0.11246117511E+02  0.29069820843E+02  0.00000000000E+00 0. -1.
</event>
<event>
 5    1  0.1320187E-009  0.9118800E+02  0.7818608E-02  0.1130116E+00
         25   -1    0    0    0    0  0.00000000000E+00  0.00000000000E+00  0.99999998245E-14  0.12500000000E+03  0.12500000000E+03 0.  0.
        -13    1    3    3    0    0 -0.75698077771E+01 -0.22425553566E+02 -0.21998555893E+02  0.32313388370E+02  0.10566000000E+00 0.  1.
         23    2    1    0    0    0  0.37441305376E+02  0.22196408882E+01 -0.16831321420E+02  0.83889520379E+02  0.73125782695E+02 0.  0.
         13    1    3    3    0    0  0.45011113153E+02  0.24645194454E+02  0.51672344727E+01  0.51576132010E+02  0.10566000000E+00 0. -1.
         22    1    1    0    0    0 -0.37441305376E+02 -0.22196408882E+01  0.16831321420E+02  0.41110479621E+02  0.00000000000E+00 0. -1.
</event>
<event>
 5    1  0.1320187E-009  0.9118800E+02  0.7818608E-02  0.1130116E+00
         25   -1    0    0    0    0  0.00000000000E+00  0.00000000000E+00  0.99999998245E-14  0.12500000000E+03  0.12500000000E+03 0.  0.
        -13    1    3    3    0    0  0.40001639361E+02 -0.27542787683E+00  0.10311177189E+01  0.40016014043E+02  0.10566000000E+00 0. -1.
         23    2    1    0    0    0 -0.62612527264E+01  0.21098464334E+02 -0.20108987815E+02  0.95188594902E+02  0.90399937641E+02 0.  0.
         13    1    3    3    0    0 -0.46262892088E+02  0.21373892211E+02 -0.21140105534E+02  0.55172580859E+02  0.10566000000E+00 0.  1.
         22    1    1    0    0    0  0.62612527264E+01 -0.21098464334E+02  0.20108987815E+02  0.29811405098E+02  0.00000000000E+00 0. -1.
</event>
<event>
 5    1  0.1320187E-009  0.9118800E+02  0.7818608E-02  0.1130116E+00
         25   -1    0    0    0    0  0.00000000000E+00  0.00000000000E+00  0.99999998245E-14  0.12500000000E+03  0.12500000000E+03 0.  0.
        -13    1    3    3    0    0  0.20378630012E+01  0.23364289182E+02 -0.50864546619E+02  0.56011214604E+02  0.10566000000E+00 0. -1.
         23    2    1    0    0    0  0.12338008856E+02 -0.61068672694E+01 -0.24602954469E+02  0.96807347429E+02  0.92611213453E+02 0.  0.
         13    1    3    3    0    0  0.10300145855E+02 -0.29471156451E+02  0.26261592150E+02  0.40796132826E+02  0.10566000000E+00 0.  1.
         22    1    1    0    0    0 -0.12338008856E+02  0.61068672694E+01  0.24602954469E+02  0.28192652571E+02  0.00000000000E+00 0. -1.
</event>
<event>
 5    1  0.1320187E-009  0.9118800E+02  0.7818608E-02  0.1130116E+00
         25   -1    0    0    0    0  0.00000000000E+00  0.00000000000E+00  0.99999998245E-14  0.12500000000E+03  0.12500000000E+03 0.  0.
        -13    1    3    3    0    0  0.28095111557E+02 -0.14897829714E+02  0.19922865856E+02  0.37526155832E+02  0.10566000000E+00 0. -1.
         23    2    1    0    0    0 -0.22524431347E+02 -0.24769785772E+02  0.55634523388E+01  0.91061168308E+02  0.84500248976E+02 0.  0.
         13    1    3    3    0    0 -0.50619542904E+02 -0.98719560578E+01 -0.14359413517E+02  0.53535012476E+02  0.10566000000E+00 0.  1.
         22    1    1    0    0    0  0.22524431347E+02  0.24769785772E+02 -0.55634523388E+01  0.33938831692E+02  0.00000000000E+00 0. -1.
</event>
<event>
 5    1  0.1320187E-009  0.9118800E+02  0.7818608E-02  0.1130116E+00
         25   -1    0    0    0    0  0.00000000000E+00  0.00000000000E+00  0.99999998245E-14  0.12500000000E+03  0.12500000000E+03 0.  0.
        -13    1    3    3    0    0  0.90895091089E+01  0.60717605258E+02 -0.81888471789E+01  0.61937994367E+02  0.10566000000E+00 0.  1.
         23    2    1    0    0    0 -0.11452378939E+00  0.29787331847E+02 -0.77874127706E+01  0.94211332411E+02  0.89038379942E+02 0.  0.
         13    1    3    3    0    0 -0.92040328983E+01 -0.30930273411E+02  0.40143440831E+00  0.32273338044E+02  0.10566000000E+00 0. -1.
         22    1    1    0    0    0  0.11452378939E+00 -0.29787331847E+02  0.77874127706E+01  0.30788667589E+02  0.00000000000E+00 0.  1.
</event>
<event>
 5    1  0.1320187E-009  0.9118800E+02  0.7818608E-02  0.1130116E+00
         25   -1    0    0    0    0  0.00000000000E+00  0.00000000000E+00  0.99999998245E-14  0.12500000000E+03  0.12500000000E+03 0.  0.
        -13    1    3    3    0    0 -0.23469915191E+02 -0.45365770191E+02  0.22070963728E+02  0.55641968225E+02  0.10566000000E+00 0. -1.
         23    2    1    0    0    0 -0.21905906136E+02 -0.65719390079E+01  0.20156880961E+02  0.94514610778E+02  0.89463135952E+02 0.  0.
         13    1    3    3    0    0  0.15640090545E+01  0.38793831183E+02 -0.19140827666E+01  0.38872642553E+02  0.10566000000E+00 0.  1.
         22    1    1    0    0    0  0.21905906136E+02  0.65719390079E+01 -0.20156880961E+02  0.30485389222E+02  0.00000000000E+00 0. -1.
</event>
<event>
 5    1  0.1320187E-009  0.9118800E+02  0.7818608E-02  0.1130116E+00
         25   -1    0    0    0    0  0.00000000000E+00  0.00000000000E+00  0.99999998245E-14  0.12500000000E+03  0.12500000000E+03 0.  0.
        -13    1    3    3    0    0 -0.50823603191E+01  0.78571065985E+01 -0.20340862427E+02  0.22390318418E+02  0.10566000000E+00 0.  1.
         23    2    1    0    0    0  0.14721613072E+02  0.34308501880E+02  0.26143641319E+02  0.79422712081E+02  0.65043662414E+02 0.  0.
         13    1    3    3    0    0  0.19803973391E+02  0.26451395282E+02  0.46484503746E+02  0.57032393663E+02  0.10566000000E+00 0. -1.
         22    1    1    0    0    0 -0.14721613072E+02 -0.34308501880E+02 -0.26143641319E+02  0.45577287919E+02  0.00000000000E+00 0. -1.
</event>
<event>
 5    1  0.1320187E-009  0.9118800E+02  0.7818608E-02  0.1130116E+00
         25   -1    0    0    0    0  0.00000000000E+00  0.00000000000E+00  0.99999998245E-14  0.12500000000E+03  0.12500000000E+03 0.  0.
        -13    1    3    3    0    0  0.21856635543E+02  0.36393228399E+02 -0.36588776322E+02  0.56043994392E+02  0.10566000000E+00 0. -1.
         23    2    1    0    0    0 -0.90068131277E+01  0.20880733362E+02 -0.21382336819E+02  0.93785707820E+02  0.88438831715E+02 0.  0.
         13    1    3    3    0    0 -0.30863448671E+02 -0.15512495038E+02  0.15206439503E+02  0.37741713429E+02  0.10566000000E+00 0.  1.
         22    1    1    0    0    0  0.90068131277E+01 -0.20880733362E+02  0.21382336819E+02  0.31214292180E+02  0.00000000000E+00 0. -1.
</event>
<event>
 5    1  0.1320187E-009  0.9118800E+02  0.7818608E-02  0.1130116E+00
         25   -1    0    0    0    0  0.00000000000E+00  0.00000000000E+00  0.99999998245E-14  0.12500000000E+03  0.12500000000E+03 0.  0.
        -13    1    3    3    0    0 -0.19994333530E+02  0.18956759905E+02  0.28622423283E+02  0.39728911362E+02  0.10566000000E+00 0.  1.
         23    2    1    0    0    0  0.30886037979E+01 -0.27741629001E+02  0.64014489688E+01  0.96362332463E+02  0.92008603488E+02 0.  0.
         13    1    3    3    0    0  0.23082937328E+02 -0.46698388906E+02 -0.22220974314E+02  0.56633421101E+02  0.10566000000E+00 0. -1.
         22    1    1    0    0    0 -0.30886037979E+01  0.27741629001E+02 -0.64014489688E+01  0.28637667537E+02  0.00000000000E+00 0. -1.
</event>
<event>
 5    1  0.1320187E-009  0.9118800E+02  0.7818608E-02  0.1130116E+00
         25   -1    0    0    0    0  0.00000000000E+00  0.00000000000E+00  0.99999998245E-14  0.12500000000E+03  0.12500000000E+03 0.  0.
        -13    1    3    3    0    0  0.22804519207E+02 -0.26716942448E+02 -0.76692038753E+00  0.35134604608E+02  0.10566000000E+00 0.  1.
         23    2    1    0    0    0 -0.24292861575E+02  0.70225321865E+01 -0.16046172916E+02  0.95051064342E+02  0.90209567593E+02 0.  0.
         13    1    3    3    0    0 -0.47097380782E+02  0.33739474635E+02 -0.15279252528E+02  0.59916459734E+02  0.10566000000E+00 0. -1.
         22    1    1    0    0    0  0.24292861575E+02 -0.70225321865E+01  0.16046172916E+02  0.29948935658E+02  0.00000000000E+00 0. -1.
</event>
<event>
 5    1  0.1320187E-009  0.9118800E+02  0.7818608E-02  0.1130116E+00
         25   -1    0    0    0    0  0.00000000000E+00  0.00000000000E+00  0.99999998245E-14  0.12500000000E+03  0.12500000000E+03 0.  0.
        -13    1    3    3    0    0 -0.27764187296E+02  0.83374162303E+01  0.12376629263E+02  0.31520703063E+02  0.10566000000E+00 0.  1.
         23    2    1    0    0    0  0.25226042415E+02 -0.95442600509E+01 -0.15375584828E+02  0.93953990198E+02  0.88676364097E+02 0.  0.
         13    1    3    3    0    0  0.52990229712E+02 -0.17881676281E+02 -0.27752214090E+02  0.62433287135E+02  0.10566000000E+00 0. -1.
         22    1    1    0    0    0 -0.25226042415E+02  0.95442600509E+01  0.15375584828E+02  0.31046009802E+02  0.00000000000E+00 0. -1.
</event>
<event>
 5    1  0.1320187E-009  0.9118800E+02  0.7818608E-02  0.1130116E+00
         25   -1    0    0    0    0  0.00000000000E+00  0.00000000000E+00  0.99999998245E-14  0.12500000000E+03  0.12500000000E+03 0.  0.
        -13    1    3    3    0    0 -0.11628789112E+02 -0.14237929011E+02  0.52568990023E+02  0.55690728446E+02  0.10566000000E+00 0.  1.
         23    2    1    0    0    0 -0.22255619399E+02  0.43168275232E+01  0.19361633049E+02  0.95186908429E+02  0.90397605650E+02 0.  0.
         13    1    3    3    0    0 -0.10626830287E+02  0.18554756535E+02 -0.33207356974E+02  0.39496179983E+02  0.10566000000E+00 0. -1.
         22    1    1    0    0    0  0.22255619399E+02 -0.43168275232E+01 -0.19361633049E+02  0.29813091571E+02  0.00000000000E+00 0.  1.
</event>
<event>
 5    1  0.1320187E-009  0.9118800E+02  0.7818608E-02  0.1130116E+00
         25   -1    0    0    0    0  0.00000000000E+00  0.00000000000E+00  0.99999998245E-14  0.12500000000E+03  0.12500000000E+03 0.  0.
        -13    1    3    3    0    0 -0.24882244749E+02  0.24087965301E+02  0.74026525718E+01  0.35414214734E+02  0.10566000000E+00 0. -1.
         23    2    1    0    0    0  0.80198189488E+00 -0.28035347266E+02  0.13559516994E+02  0.93847401836E+02  0.88525987478E+02 0.  0.
         13    1    3    3    0    0  0.25684226644E+02 -0.52123312567E+02  0.61568644220E+01  0.58433187101E+02  0.10566000000E+00 0.  1.
         22    1    1    0    0    0 -0.80198189488E+00  0.28035347266E+02 -0.13559516994E+02  0.31152598164E+02  0.00000000000E+00 0.  1.
</event>
<event>
 5    1  0.1320187E-009  0.9118800E+02  0.7818608E-02  0.1130116E+00
         25   -1    0    0    0    0  0.00000000000E+00  0.00000000000E+00  0.99999998245E-14  0.12500000000E+03  0.12500000000E+03 0.  0.
        -13    1    3    3    0    0 -0.52483009855E+01 -0.24051582943E+02 -0.46576836328E+02  0.52682408370E+02  0.10566000000E+00 0. -1.
         23    2    1    0    0    0  0.32329915488E+01 -0.27100990176E+02 -0.25888657133E+01  0.97584345191E+02  0.93654077850E+02 0.  0.
         13    1    3    3    0    0  0.84812925342E+01 -0.30494072332E+01  0.43987970614E+02  0.44901936822E+02  0.10566000000E+00 0.  1.
         22    1    1    0    0    0 -0.32329915488E+01  0.27100990176E+02  0.25888657133E+01  0.27415654809E+02  0.00000000000E+00 0.  1.
</event>
<event>
 5    1  0.1320187E-009  0.9118800E+02  0.7818608E-02  0.1130116E+00
         25   -1    0    0    0    0  0.00000000000E+00  0.00000000000E+00  0.99999998245E-14  0.12500000000E+03  0.12500000000E+03 0.  0.
        -13    1    3    3    0    0 -0.99728141928E+01 -0.19580325390E+01 -0.38688144497E+02  0.40000932526E+02  0.10566000000E+00 0.  1.
         23    2    1    0    0    0  0.29207432168E+02  0.80053045891E-01  0.95641486098E+00  0.95776803191E+02  0.91209652986E+02 0.  0.
         13    1    3    3    0    0  0.39180246361E+02  0.20380855848E+01  0.39644559358E+02  0.55775870665E+02  0.10566000000E+00 0. -1.
         22    1    1    0    0    0 -0.29207432168E+02 -0.80053045891E-01 -0.95641486098E+00  0.29223196809E+02  0.00000000000E+00 0. -1.
</event>
<event>
 5    1  0.1320187E-009  0.9118800E+02  0.7818608E-02  0.1130116E+00
         25   -1    0    0    0    0  0.00000000000E+00  0.00000000000E+00  0.99999998245E-14  0.12500000000E+03  0.12500000000E+03 0.  0.
        -13    1    3    3    0    0 -0.29062806683E+02  0.88474185708E+01  0.24356651754E+02  0.38938171456E+02  0.10566000000E+00 0. -1.
         23    2    1    0    0    0 -0.17099469254E+02  0.21749303831E+02 -0.22722998561E+02  0.89198341805E+02  0.81698136156E+02 0.  0.
         13    1    3    3    0    0  0.11963337429E+02  0.12901885260E+02 -0.47079650315E+02  0.50260170349E+02  0.10566000000E+00 0.  1.
         22    1    1    0    0    0  0.17099469254E+02 -0.21749303831E+02  0.22722998561E+02  0.35801658195E+02  0.00000000000E+00 0.  1.
</event>
<event>
 5    1  0.1320187E-009  0.9118800E+02  0.7818608E-02  0.1130116E+00
         25   -1    0    0    0    0  0.00000000000E+00  0.00000000000E+00  0.99999998245E-14  0.12500000000E+03  0.12500000000E+03 0.  0.
        -13    1    3    3    0    0  0.47721468835E+02  0.27481018481E+02 -0.18303520913E+02  0.58030810837E+02  0.10566000000E+00 0.  1.
         23    2    1    0    0    0  0.15307719861E+02  0.57638140587E+01 -0.22401836326E+02  0.97262117770E+02  0.93223009190E+02 0.  0.
         13    1    3    3    0    0 -0.32413748974E+02 -0.21717204422E+02 -0.40983154124E+01  0.39231306933E+02  0.10566000000E+00 0. -1.
         22    1    1    0    0    0 -0.15307719861E+02 -0.57638140587E+01  0.22401836326E+02  0.27737882230E+02  0.00000000000E+00 0.  1.
</event>
<event>
 5    1  0.1320187E-009  0.9118800E+02  0.7818608E-02  0.1130116E+00
         25   -1    0    0    0    0  0.00000000000E+00  0.00000000000E+00  0.99999998245E-14  0.12500000000E+03  0.12500000000E+03 0.  0.
        -13    1    3    3    0    0 -0.31506378598E+02  0.20544356109E+02 -0.86693448058E+01  0.38599108328E+02  0.10566000000E+00 0.  1.
         23    2    1    0    0    0  0.23694310933E+02  0.19609165080E+02 -0.30803660144E+01  0.94089995462E+02  0.88867873079E+02 0.  0.
         13    1    3    3    0    0  0.55200689531E+02 -0.93519102908E+00  0.55889787914E+01  0.55490887134E+02  0.10566000000E+00 0. -1.
         22    1    1    0    0    0 -0.23694310933E+02 -0.19609165080E+02  0.30803660144E+01  0.30910004538E+02  0.00000000000E+00 0. -1.
</event>
<event>
 5    1  0.1320187E-009  0.9118800E+02  0.7818608E-02  0.1130116E+00
         25   -1    0    0    0    0  0.00000000000E+00  0.00000000000E+00  0.99999998245E-14  0.12500000000E+03  0.12500000000E+03 0.  0.
        -13    1    3    3    0    0 -0.12229873690E+02  0.41852218808E+02  0.29937310949E+02  0.52890753262E+02  0.10566000000E+00 0. -1.
         23    2    1    0    0    0 -0.24366238012E+02  0.27290952379E+01  0.13333960317E+02  0.97090216529E+02  0.92992226192E+02 0.  0.
         13    1    3    3    0    0 -0.12136364321E+02 -0.39123123571E+02 -0.16603350632E+02  0.44199463267E+02  0.10566000000E+00 0.  1.
         22    1    1    0    0    0  0.24366238012E+02 -0.27290952379E+01 -0.13333960317E+02  0.27909783471E+02  0.00000000000E+00 0. -1.
</event>
<event>
 5    1  0.1320187E-009  0.9118800E+02  0.7818608E-02  0.1130116E+00
         25   -1    0    0    0    0  0.00000000000E+00  0.00000000000E+00  0.99999998245E-14  0.12500000000E+03  0.12500000000E+03 0.  0.
        -13    1    3    3    0    0  0.32058432723E+02  0.20965114028E+02  0.13521710309E+01  0.38329083545E+02  0.10566000000E+00 0.  1.
         23    2    1    0    0    0 -0.24046115401E+02  0.11749228460E+02  0.11120312652E+02  0.96018602712E+02  0.91540431931E+02 0.  0.
         13    1    3    3    0    0 -0.56104548124E+02 -0.92158855681E+01  0.97681416213E+01  0.57689519167E+02  0.10566000000E+00 0. -1.
         22    1    1    0    0    0  0.24046115401E+02 -0.11749228460E+02 -0.11120312652E+02  0.28981397288E+02  0.00000000000E+00 0. -1.
</event>
<event>
 5    1  0.1320187E-009  0.9118800E+02  0.7818608E-02  0.1130116E+00
         25   -1    0    0    0    0  0.00000000000E+00  0.00000000000E+00  0.99999998245E-14  0.12500000000E+03  0.12500000000E+03 0.  0.
        -13    1    3    3    0    0 -0.18992752920E+02 -0.40361897994E+02  0.32916931940E+02  0.55437740264E+02  0.10566000000E+00 0. -1.
         23    2    1    0    0    0  0.92311585774E+01 -0.13267300271E+02  0.24804417186E+02  0.95394347548E+02  0.90683994657E+02 0.  0.
         13    1    3    3    0    0  0.28223911498E+02  0.27094597723E+02 -0.81125147533E+01  0.39956607284E+02  0.10566000000E+00 0.  1.
         22    1    1    0    0    0 -0.92311585774E+01  0.13267300271E+02 -0.24804417186E+02  0.29605652452E+02  0.00000000000E+00 0. -1.
</event>
<event>
 5    1  0.1320187E-009  0.9118800E+02  0.7818608E-02  0.1130116E+00
         25   -1    0    0    0    0  0.00000000000E+00  0.00000000000E+00  0.99999998245E-14  0.12500000000E+03  0.12500000000E+03 0.  0.
        -13    1    3    3    0    0 -0.33431260602E+02 -0.16248509732E+02 -0.17029480941E+02  0.40886154614E+02  0.10566000000E+00 0.  1.
         23    2    1    0    0    0 -0.14001004336E+01 -0.13448742467E+02  0.26645315178E+02  0.95120211244E+02  0.90305331023E+02 0.  0.
         13    1    3    3    0    0  0.32031160169E+02  0.27997672650E+01  0.43674796119E+02  0.54234056630E+02  0.10566000000E+00 0. -1.
         22    1    1    0    0    0  0.14001004336E+01  0.13448742467E+02 -0.26645315178E+02  0.29879788756E+02  0.00000000000E+00 0. -1.
</event>
<event>
 5    1  0.1320187E-009  0.9118800E+02  0.7818608E-02  0.1130116E+00
         25   -1    0    0    0    0  0.00000000000E+00  0.00000000000E+00  0.99999998245E-14  0.12500000000E+03  0.12500000000E+03 0.  0.
        -13    1    3    3    0    0 -0.46742504076E+01 -0.28708256026E+02  0.22547291980E+02  0.36802229832E+02  0.10566000000E+00 0.  1.
         23    2    1    0    0    0 -0.97332234911E+01  0.26507717777E+02 -0.26916334122E+00  0.96760538423E+02  0.92548012435E+02 0.  0.
         13    1    3    3    0    0 -0.50589730835E+01  0.55215973802E+02 -0.22816455322E+02  0.59958308591E+02  0.10566000000E+00 0. -1.
         22    1    1    0    0    0  0.97332234911E+01 -0.26507717777E+02  0.26916334122E+00  0.28239461577E+02  0.00000000000E+00 0. -1.
</event>
<event>
 5    1  0.1320187E-009  0.9118800E+02  0.7818608E-02  0.1130116E+00
         25   -1    0    0    0    0  0.00000000000E+00  0.00000000000E+00  0.99999998245E-14  0.12500000000E+03  0.12500000000E+03 0.  0.
        -13    1    3    3    0    0  0.14839935507E+02  0.44679727423E+02 -0.13000188335E+02  0.48841762757E+02  0.10566000000E+00 0. -1.
         23    2    1    0    0    0  0.29626021277E+02  0.19428865966E+01 -0.73343354358E+01  0.94417841454E+02  0.89327825248E+02 0.  0.
         13    1    3    3    0    0  0.14786085770E+02 -0.42736840827E+02  0.56658528995E+01  0.45576078697E+02  0.10566000000E+00 0.  1.
         22    1    1    0    0    0 -0.29626021277E+02 -0.19428865966E+01  0.73343354358E+01  0.30582158546E+02  0.00000000000E+00 0.  1.
</event>
<event>
 5    1  0.1320187E-009  0.9118800E+02  0.7818608E-02  0.1130116E+00
         25   -1    0    0    0    0  0.00000000000E+00  0.00000000000E+00  0.99999998245E-14  0.12500000000E+03  0.12500000000E+03 0.  0.
        -13    1    3    3    0    0  0.22159837127E+02  0.38430056481E+02 -0.21359498017E+02  0.49235829862E+02  0.10566000000E+00 0.  1.
         23    2    1    0    0    0  0.69713190841E+01  0.22413993101E+02  0.18709827708E+02  0.94982604554E+02  0.90114655514E+02 0.  0.
         13    1    3    3    0    0 -0.15188518043E+02 -0.16016063380E+02  0.40069325725E+02  0.45746774691E+02  0.10566000000E+00 0. -1.
         22    1    1    0    0    0 -0.69713190841E+01 -0.22413993101E+02 -0.18709827708E+02  0.30017395446E+02  0.00000000000E+00 0. -1.
</event>
<event>
 5    1  0.1320187E-009  0.9118800E+02  0.7818608E-02  0.1130116E+00
         25   -1    0    0    0    0  0.00000000000E+00  0.00000000000E+00  0.99999998245E-14  0.12500000000E+03  0.12500000000E+03 0.  0.
        -13    1    3    3    0    0  0.20735656688E+02  0.96598359286E+01  0.24074945271E+02  0.33209848574E+02  0.10566000000E+00 0. -1.
         23    2    1    0    0    0 -0.86832340240E+01 -0.82195013311E+01 -0.27382304843E+02  0.95121088143E+02  0.90306544811E+02 0.  0.
         13    1    3    3    0    0 -0.29418890712E+02 -0.17879337260E+02 -0.51457250114E+02  0.61911239569E+02  0.10566000000E+00 0.  1.
         22    1    1    0    0    0  0.86832340240E+01  0.82195013311E+01  0.27382304843E+02  0.29878911857E+02  0.00000000000E+00 0.  1.
</event>
<event>
 5    1  0.1320187E-009  0.9118800E+02  0.7818608E-02  0.1130116E+00
         25   -1    0    0    0    0  0.00000000000E+00  0.00000000000E+00  0.99999998245E-14  0.12500000000E+03  0.12500000000E+03 0.  0.
        -13    1    3    3    0    0  0.31003845275E+02 -0.15404534598E+02 -0.52020042223E+02  0.62487071182E+02  0.10566000000E+00 0. -1.
         23    2    1    0    0    0  0.13896734541E+02 -0.65612794688E+01 -0.24604641372E+02  0.95990380971E+02  0.91501886553E+02 0.  0.
         13    1    3    3    0    0 -0.17107110734E+02  0.88432551295E+01  0.27415400851E+02  0.33503309789E+02  0.10566000000E+00 0.  1.
         22    1    1    0    0    0 -0.13896734541E+02  0.65612794688E+01  0.24604641372E+02  0.29009619029E+02  0.00000000000E+00 0. -1.
</event>
<event>
 5    1  0.1320187E-009  0.9118800E+02  0.7818608E-02  0.1130116E+00
         25   -1    0    0    0    0  0.00000000000E+00  0.00000000000E+00  0.99999998245E-14  0.12500000000E+03  0.12500000000E+03 0.  0.
        -13    1    3    3    0    0  0.23732983010E+02  0.25873852902E+02  0.46885349083E+01  0.35421805010E+02  0.10566000000E+00 0.  1.
         23    2    1    0    0    0 -0.39701530716E+01  0.51450321095E+01  0.39774308508E+02  0.84698274378E+02  0.74495426668E+02 0.  0.
         13    1    3    3    0    0 -0.27703136082E+02 -0.20728820793E+02  0.35085773600E+02  0.49276469368E+02  0.10566000000E+00 0. -1.
         22    1    1    0    0    0  0.39701530716E+01 -0.51450321095E+01 -0.39774308508E+02  0.40301725622E+02  0.00000000000E+00 0. -1.
</event>
<event>
 5    1  0.1320187E-009  0.9118800E+02  0.7818608E-02  0.1130116E+00
         25   -1    0    0    0    0  0.00000000000E+00  0.00000000000E+00  0.99999998245E-14  0.12500000000E+03  0.12500000000E+03 0.  0.
        -13    1    3    3    0    0  0.28414787995E+02 -0.18666446465E+02  0.16935000139E+02  0.37982124666E+02  0.10566000000E+00 0. -1.
         23    2    1    0    0    0 -0.22580711116E+02 -0.13979371208E+02 -0.10927896705E+02  0.96281882717E+02  0.91899241994E+02 0.  0.
         13    1    3    3    0    0 -0.50995499112E+02  0.46870752563E+01 -0.27862896844E+02  0.58299758050E+02  0.10566000000E+00 0.  1.
         22    1    1    0    0    0  0.22580711116E+02  0.13979371208E+02  0.10927896705E+02  0.28718117283E+02  0.00000000000E+00 0.  1.
</event>
<event>
 5    1  0.1320187E-009  0.9118800E+02  0.7818608E-02  0.1130116E+00
         25   -1    0    0    0    0  0.00000000000E+00  0.00000000000E+00  0.99999998245E-14  0.12500000000E+03  0.12500000000E+03 0.  0.
        -13    1    3    3    0    0 -0.29508449989E+02 -0.74948122449E+01  0.29681751676E+01  0.30589901262E+02  0.10566000000E+00 0.  1.
         23    2    1    0    0    0  0.13130891807E+02  0.20793989886E+02 -0.25852837197E+02  0.89318358696E+02  0.81881558814E+02 0.  0.
         13    1    3    3    0    0  0.42639341796E+02  0.28288802131E+02 -0.28821012365E+02  0.58728457434E+02  0.10566000000E+00 0. -1.
         22    1    1    0    0    0 -0.13130891807E+02 -0.20793989886E+02  0.25852837197E+02  0.35681641304E+02  0.00000000000E+00 0. -1.
</event>
<event>
 5    1  0.1320187E-009  0.9118800E+02  0.7818608E-02  0.1130116E+00
         25   -1    0    0    0    0  0.00000000000E+00  0.00000000000E+00  0.99999998245E-14  0.12500000000E+03  0.12500000000E+03 0.  0.
        -13    1    3    3    0    0 -0.11916005017E+02  0.49331878521E+01  0.57745113254E+02  0.59167869547E+02  0.10566000000E+00 0.  1.
         23    2    1    0    0    0 -0.10758234349E+02  0.15287717980E+02  0.23450971107E+02  0.95009968770E+02  0.90152605023E+02 0.  0.
         13    1    3    3    0    0  0.11577706678E+01  0.10354530128E+02 -0.34294142147E+02  0.35842099223E+02  0.10566000000E+00 0. -1.
         22    1    1    0    0    0  0.10758234349E+02 -0.15287717980E+02 -0.23450971107E+02  0.29990031230E+02  0.00000000000E+00 0.  1.
</event>
<event>
 5    1  0.1320187E-009  0.9118800E+02  0.7818608E-02  0.1130116E+00
         25   -1    0    0    0    0  0.00000000000E+00  0.00000000000E+00  0.99999998245E-14  0.12500000000E+03  0.12500000000E+03 0.  0.
        -13    1    3    3    0    0 -0.48353597492E+01 -0.32876295362E+02  0.19734131255E+02  0.38648138390E+02  0.10566000000E+00 0.  1.
         23    2    1    0    0    0  0.18412877203E+02 -0.32096789093E+01 -0.22825728745E+02  0.95498305500E+02  0.90827178615E+02 0.  0.
         13    1    3    3    0    0  0.23248236953E+02  0.29666616452E+02 -0.42559860000E+02  0.56850167110E+02  0.10566000000E+00 0. -1.
         22    1    1    0    0    0 -0.18412877203E+02  0.32096789093E+01  0.22825728745E+02  0.29501694500E+02  0.00000000000E+00 0. -1.
</event>
<event>
 5    1  0.1320187E-009  0.9118800E+02  0.7818608E-02  0.1130116E+00
         25   -1    0    0    0    0  0.00000000000E+00  0.00000000000E+00  0.99999998245E-14  0.12500000000E+03  0.12500000000E+03 0.  0.
        -13    1    3    3    0    0  0.49051999107E+02  0.48216310364E+01  0.37998967428E+02  0.62235676520E+02  0.10566000000E+00 0. -1.
         23    2    1    0    0    0  0.25929447906E+02  0.48818534882E+01  0.16051626318E+02  0.94115967400E+02  0.88904397248E+02 0.  0.
         13    1    3    3    0    0 -0.23122551201E+02  0.60222451818E-01 -0.21947341110E+02  0.31880290880E+02  0.10566000000E+00 0.  1.
         22    1    1    0    0    0 -0.25929447906E+02 -0.48818534882E+01 -0.16051626318E+02  0.30884032600E+02  0.00000000000E+00 0. -1.
</event>
<event>
 5    1  0.1320187E-009  0.9118800E+02  0.7818608E-02  0.1130116E+00
         25   -1    0    0    0    0  0.00000000000E+00  0.00000000000E+00  0.99999998245E-14  0.12500000000E+03  0.12500000000E+03 0.  0.
        -13    1    3    3    0    0  0.16327828047E+02 -0.49456899595E+01 -0.57308690766E+02  0.59794272462E+02  0.10566000000E+00 0.  1.
         23    2    1    0    0    0  0.72594984854E+01 -0.14863540295E+02 -0.22767427409E+02  0.96857844802E+02  0.92679346138E+02 0.  0.
         13    1    3    3    0    0 -0.90683295619E+01 -0.99178503351E+01  0.34541263357E+02  0.37063572341E+02  0.10566000000E+00 0. -1.
         22    1    1    0    0    0 -0.72594984854E+01  0.14863540295E+02  0.22767427409E+02  0.28142155198E+02  0.00000000000E+00 0.  1.
</event>
<event>
 5    1  0.1320187E-009  0.9118800E+02  0.7818608E-02  0.1130116E+00
         25   -1    0    0    0    0  0.00000000000E+00  0.00000000000E+00  0.99999998245E-14  0.12500000000E+03  0.12500000000E+03 0.  0.
        -13    1    3    3    0    0 -0.83001401163E+01  0.15551784639E+02 -0.36633165260E+02  0.40654031686E+02  0.10566000000E+00 0. -1.
         23    2    1    0    0    0 -0.20779785548E+02 -0.13917683169E+02  0.10705105297E+02  0.97795208664E+02  0.93935095496E+02 0.  0.
         13    1    3    3    0    0 -0.12479645432E+02 -0.29469467808E+02  0.47338270557E+02  0.57141176977E+02  0.10566000000E+00 0.  1.
         22    1    1    0    0    0  0.20779785548E+02  0.13917683169E+02 -0.10705105297E+02  0.27204791336E+02  0.00000000000E+00 0.  1.
</event>
<event>
 5    1  0.1320187E-009  0.9118800E+02  0.7818608E-02  0.1130116E+00
         25   -1    0    0    0    0  0.00000000000E+00  0.00000000000E+00  0.99999998245E-14  0.12500000000E+03  0.12500000000E+03 0.  0.
        -13    1    3    3    0    0 -0.29490526476E+02  0.15501844434E+02 -0.39750818164E+02  0.51866531033E+02  0.10566000000E+00 0. -1.
         23    2    1    0    0    0  0.20625279620E+01  0.27283269628E+02 -0.13989909359E+02  0.94269748015E+02  0.89120351232E+02 0.  0.
         13    1    3    3    0    0  0.31553054438E+02  0.11781425194E+02  0.25760908804E+02  0.42403216982E+02  0.10566000000E+00 0.  1.
         22    1    1    0    0    0 -0.20625279620E+01 -0.27283269628E+02  0.13989909359E+02  0.30730251985E+02  0.00000000000E+00 0.  1.
</event>
<event>
 5    1  0.1320187E-009  0.9118800E+02  0.7818608E-02  0.1130116E+00
         25   -1    0    0    0    0  0.00000000000E+00  0.00000000000E+00  0.99999998245E-14  0.12500000000E+03  0.12500000000E+03 0.  0.
        -13    1    3    3    0    0 -0.46075275332E+01  0.87332147452E+01 -0.33218445942E+02  0.34655081368E+02  0.10566000000E+00 0. -1.
         23    2    1    0    0    0 -0.10285348811E+02 -0.21663433855E+02  0.18363327423E+02  0.94795620175E+02  0.89854911072E+02 0.  0.
         13    1    3    3    0    0 -0.56778212782E+01 -0.30396648600E+02  0.51581773365E+02  0.60140538808E+02  0.10566000000E+00 0.  1.
         22    1    1    0    0    0  0.10285348811E+02  0.21663433855E+02 -0.18363327423E+02  0.30204379825E+02  0.00000000000E+00 0.  1.
</event>
<event>
 5    1  0.1320187E-009  0.9118800E+02  0.7818608E-02  0.1130116E+00
         25   -1    0    0    0    0  0.00000000000E+00  0.00000000000E+00  0.99999998245E-14  0.12500000000E+03  0.12500000000E+03 0.  0.
        -13    1    3    3    0    0 -0.28901672152E+02  0.11192604821E+02 -0.47856255855E+02  0.57015905188E+02  0.10566000000E+00 0.  1.
         23    2    1    0    0    0 -0.24905718387E+02  0.22074147735E+02 -0.22698146494E+02  0.84716397122E+02  0.74525829619E+02 0.  0.
         13    1    3    3    0    0  0.39959537654E+01  0.10881542915E+02  0.25158109361E+02  0.27700491934E+02  0.10566000000E+00 0. -1.
         22    1    1    0    0    0  0.24905718387E+02 -0.22074147735E+02  0.22698146494E+02  0.40283602878E+02  0.00000000000E+00 0.  1.
</event>
<event>
 5    1  0.1320187E-009  0.9118800E+02  0.7818608E-02  0.1130116E+00
         25   -1    0    0    0    0  0.00000000000E+00  0.00000000000E+00  0.99999998245E-14  0.12500000000E+03  0.12500000000E+03 0.  0.
        -13    1    3    3    0    0  0.31479997012E+01 -0.58804096625E+01  0.26026955376E+02  0.26868246874E+02  0.10566000000E+00 0.  1.
         23    2    1    0    0    0 -0.18096921959E+02  0.35693977922E+02 -0.74170787348E+01  0.84298996312E+02  0.73822415823E+02 0.  0.
         13    1    3    3    0    0 -0.21244921660E+02  0.41574387584E+02 -0.33444034111E+02  0.57430749438E+02  0.10566000000E+00 0. -1.
         22    1    1    0    0    0  0.18096921959E+02 -0.35693977922E+02  0.74170787348E+01  0.40701003688E+02  0.00000000000E+00 0. -1.
</event>
<event>
 5    1  0.1320187E-009  0.9118800E+02  0.7818608E-02  0.1130116E+00
         25   -1    0    0    0    0  0.00000000000E+00  0.00000000000E+00  0.99999998245E-14  0.12500000000E+03  0.12500000000E+03 0.  0.
        -13    1    3    3    0    0 -0.25446354948E+02  0.51844743134E+01 -0.48127064397E+02  0.54686572809E+02  0.10566000000E+00 0.  1.
         23    2    1    0    0    0 -0.21756573425E+02 -0.15387387356E+02 -0.13512162084E+02  0.95121936123E+02  0.90307718556E+02 0.  0.
         13    1    3    3    0    0  0.36897815236E+01 -0.20571861669E+02  0.34614902313E+02  0.40435363315E+02  0.10566000000E+00 0. -1.
         22    1    1    0    0    0  0.21756573425E+02  0.15387387356E+02  0.13512162084E+02  0.29878063877E+02  0.00000000000E+00 0.  1.
</event>
<event>
 5    1  0.1320187E-009  0.9118800E+02  0.7818608E-02  0.1130116E+00
         25   -1    0    0    0    0  0.00000000000E+00  0.00000000000E+00  0.99999998245E-14  0.12500000000E+03  0.12500000000E+03 0.  0.
        -13    1    3    3    0    0  0.39223707945E+02 -0.22517662617E+02 -0.37004442920E+02  0.58437011855E+02  0.10566000000E+00 0. -1.
         23    2    1    0    0    0  0.11661908527E+02 -0.10937568564E+01 -0.28236587876E+02  0.94430385847E+02  0.89345377395E+02 0.  0.
         13    1    3    3    0    0 -0.27561799418E+02  0.21423905761E+02  0.87678550440E+01  0.35993373992E+02  0.10566000000E+00 0.  1.
         22    1    1    0    0    0 -0.11661908527E+02  0.10937568564E+01  0.28236587876E+02  0.30569614153E+02  0.00000000000E+00 0. -1.
</event>
<event>
 5    1  0.1320187E-009  0.9118800E+02  0.7818608E-02  0.1130116E+00
         25   -1    0    0    0    0  0.00000000000E+00  0.00000000000E+00  0.99999998245E-14  0.12500000000E+03  0.12500000000E+03 0.  0.
        -13    1    3    3    0    0  0.21613822097E+02 -0.48811704737E+02 -0.10573332385E+02  0.54420091389E+02  0.10566000000E+00 0. -1.
         23    2    1    0    0    0  0.14984544981E+02 -0.10351375782E+02 -0.23260258901E+02  0.95458043176E+02  0.90771751079E+02 0.  0.
         13    1    3    3    0    0 -0.66292771161E+01  0.38460328955E+02 -0.12686926516E+02  0.41037951787E+02  0.10566000000E+00 0.  1.
         22    1    1    0    0    0 -0.14984544981E+02  0.10351375782E+02  0.23260258901E+02  0.29541956824E+02  0.00000000000E+00 0. -1.
</event>
<event>
 5    1  0.1320187E-009  0.9118800E+02  0.7818608E-02  0.1130116E+00
         25   -1    0    0    0    0  0.00000000000E+00  0.00000000000E+00  0.99999998245E-14  0.12500000000E+03  0.12500000000E+03 0.  0.
        -13    1    3    3    0    0  0.29217352136E+02  0.53742171740E+02  0.12021336444E+02  0.62340984778E+02  0.10566000000E+00 0.  1.
         23    2    1    0    0    0  0.12411911419E+02  0.23915560101E+02  0.21565457414E+01  0.97969272123E+02  0.94166437922E+02 0.  0.
         13    1    3    3    0    0 -0.16805440717E+02 -0.29826611639E+02 -0.98647907024E+01  0.35628287346E+02  0.10566000000E+00 0. -1.
         22    1    1    0    0    0 -0.12411911419E+02 -0.23915560101E+02 -0.21565457414E+01  0.27030727877E+02  0.00000000000E+00 0.  1.
</event>
<event>
 5    1  0.1320187E-009  0.9118800E+02  0.7818608E-02  0.1130116E+00
         25   -1    0    0    0    0  0.00000000000E+00  0.00000000000E+00  0.99999998245E-14  0.12500000000E+03  0.12500000000E+03 0.  0.
        -13    1    3    3    0    0 -0.44495906620E+02 -0.64003054497E+01 -0.18817968050E+02  0.48733732684E+02  0.10566000000E+00 0.  1.
         23    2    1    0    0    0 -0.50373631599E+01 -0.28323719505E+02 -0.73452904803E+01  0.95308900215E+02  0.90566136352E+02 0.  0.
         13    1    3    3    0    0  0.39458543460E+02 -0.21923414055E+02  0.11472677569E+02  0.46575167531E+02  0.10566000000E+00 0. -1.
         22    1    1    0    0    0  0.50373631599E+01  0.28323719505E+02  0.73452904803E+01  0.29691099785E+02  0.00000000000E+00 0.  1.
</event>
<event>
 5    1  0.1320187E-009  0.9118800E+02  0.7818608E-02  0.1130116E+00
         25   -1    0    0    0    0  0.00000000000E+00  0.00000000000E+00  0.99999998245E-14  0.12500000000E+03  0.12500000000E+03 0.  0.
        -13    1    3    3    0    0 -0.26046069032E+02 -0.37017106509E+01 -0.32102511087E+02  0.41505213599E+02  0.10566000000E+00 0. -1.
         23    2    1    0    0    0 -0.17918106551E+02 -0.26171450675E+02  0.11529652473E+02  0.91251870289E+02  0.84781882335E+02 0.  0.
         13    1    3    3    0    0  0.81279624812E+01 -0.22469740024E+02  0.43632163560E+02  0.49746656690E+02  0.10566000000E+00 0.  1.
         22    1    1    0    0    0  0.17918106551E+02  0.26171450675E+02 -0.11529652473E+02  0.33748129711E+02  0.00000000000E+00 0.  1.
</event>
<event>
 5    1  0.1320187E-009  0.9118800E+02  0.7818608E-02  0.1130116E+00
         25   -1    0    0    0    0  0.00000000000E+00  0.00000000000E+00  0.99999998245E-14  0.12500000000E+03  0.12500000000E+03 0.  0.
        -13    1    3    3    0    0  0.35360671542E+02 -0.22446404490E+02 -0.35858665144E+02  0.55136858782E+02  0.10566000000E+00 0.  1.
         23    2    1    0    0    0  0.42395939443E+01 -0.28001378677E+02 -0.15942206906E+02  0.92500687305E+02  0.86603532412E+02 0.  0.
         13    1    3    3    0    0 -0.31121077598E+02 -0.55549741871E+01  0.19916458238E+02  0.37363828522E+02  0.10566000000E+00 0. -1.
         22    1    1    0    0    0 -0.42395939443E+01  0.28001378677E+02  0.15942206906E+02  0.32499312695E+02  0.00000000000E+00 0.  1.
</event>
<event>
 5    1  0.1320187E-009  0.9118800E+02  0.7818608E-02  0.1130116E+00
         25   -1    0    0    0    0  0.00000000000E+00  0.00000000000E+00  0.99999998245E-14  0.12500000000E+03  0.12500000000E+03 0.  0.
        -13    1    3    3    0    0  0.47534821354E+02  0.24689385360E+02  0.94268424334E-01  0.53564400876E+02  0.10566000000E+00 0.  1.
         23    2    1    0    0    0  0.24634984246E+02 -0.29473173026E+01 -0.18561213678E+02  0.94014716698E+02  0.88761924126E+02 0.  0.
         13    1    3    3    0    0 -0.22899837108E+02 -0.27636702663E+02 -0.18655482102E+02  0.40450315822E+02  0.10566000000E+00 0. -1.
         22    1    1    0    0    0 -0.24634984246E+02  0.29473173026E+01  0.18561213678E+02  0.30985283302E+02  0.00000000000E+00 0.  1.
</event>
<event>
 5    1  0.1320187E-009  0.9118800E+02  0.7818608E-02  0.1130116E+00
         25   -1    0    0    0    0  0.00000000000E+00  0.00000000000E+00  0.99999998245E-14  0.12500000000E+03  0.12500000000E+03 0.  0.
        -13    1    3    3    0    0  0.17024032746E+01  0.35314174514E+02  0.32504983615E+02  0.48026807331E+02  0.10566000000E+00 0. -1.
         23    2    1    0    0    0  0.13261421783E+02 -0.25945305754E+01  0.34742775873E+02  0.87721891518E+02  0.79407007749E+02 0.  0.
         13    1    3    3    0    0  0.11559018508E+02 -0.37908705089E+02  0.22377922578E+01  0.39695084188E+02  0.10566000000E+00 0.  1.
         22    1    1    0    0    0 -0.13261421783E+02  0.25945305754E+01 -0.34742775873E+02  0.37278108482E+02  0.00000000000E+00 0. -1.
</event>
<event>
 5    1  0.1320187E-009  0.9118800E+02  0.7818608E-02  0.1130116E+00
         25   -1    0    0    0    0  0.00000000000E+00  0.00000000000E+00  0.99999998245E-14  0.12500000000E+03  0.12500000000E+03 0.  0.
        -13    1    3    3    0    0  0.36065393452E+02  0.32598537133E+01  0.14907192184E+02  0.39160883467E+02  0.10566000000E+00 0. -1.
         23    2    1    0    0    0  0.38393268424E+01 -0.88373228323E+01 -0.28705181240E+02  0.94720863033E+02  0.89750853802E+02 0.  0.
         13    1    3    3    0    0 -0.32226066610E+02 -0.12097176546E+02 -0.43612373425E+02  0.55559979565E+02  0.10566000000E+00 0.  1.
         22    1    1    0    0    0 -0.38393268424E+01  0.88373228323E+01  0.28705181240E+02  0.30279136967E+02  0.00000000000E+00 0.  1.
</event>
<event>
 5    1  0.1320187E-009  0.9118800E+02  0.7818608E-02  0.1130116E+00
         25   -1    0    0    0    0  0.00000000000E+00  0.00000000000E+00  0.99999998245E-14  0.12500000000E+03  0.12500000000E+03 0.  0.
        -13    1    3    3    0    0 -0.10814312111E+01 -0.47781051982E+02 -0.47460043726E+01  0.48028472217E+02  0.10566000000E+00 0.  1.
         23    2    1    0    0    0  0.12704538149E+02 -0.11953937579E+02  0.23531906363E+02  0.95707466304E+02  0.91114579383E+02 0.  0.
         13    1    3    3    0    0  0.13785969360E+02  0.35827114402E+02  0.28277910736E+02  0.47678994088E+02  0.10566000000E+00 0. -1.
         22    1    1    0    0    0 -0.12704538149E+02  0.11953937579E+02 -0.23531906363E+02  0.29292533696E+02  0.00000000000E+00 0. -1.
</event>
<event>
 5    1  0.1320187E-009  0.9118800E+02  0.7818608E-02  0.1130116E+00
         25   -1    0    0    0    0  0.00000000000E+00  0.00000000000E+00  0.99999998245E-14  0.12500000000E+03  0.12500000000E+03 0.  0.
        -13    1    3    3    0    0 -0.15000158256E+01 -0.39591498033E+02 -0.47218537194E+02  0.61638771749E+02  0.10566000000E+00 0. -1.
         23    2    1    0    0    0  0.59313223919E+01 -0.18390588077E+02 -0.17219908916E+02  0.99117195318E+02  0.95678100051E+02 0.  0.
         13    1    3    3    0    0  0.74313382174E+01  0.21200909956E+02  0.29998628277E+02  0.37478423569E+02  0.10566000000E+00 0.  1.
         22    1    1    0    0    0 -0.59313223919E+01  0.18390588077E+02  0.17219908916E+02  0.25882804682E+02  0.00000000000E+00 0. -1.
</event>
<event>
 5    1  0.1320187E-009  0.9118800E+02  0.7818608E-02  0.1130116E+00
         25   -1    0    0    0    0  0.00000000000E+00  0.00000000000E+00  0.99999998245E-14  0.12500000000E+03  0.12500000000E+03 0.  0.
        -13    1    3    3    0    0  0.26998060518E+02  0.47128017353E+02  0.14025964205E+02  0.56095312882E+02  0.10566000000E+00 0. -1.
         23    2    1    0    0    0  0.32377283960E+01  0.16801011104E+02  0.23653717623E+02  0.95806589499E+02  0.91250465066E+02 0.  0.
         13    1    3    3    0    0 -0.23760332122E+02 -0.30327006249E+02  0.96277534188E+01  0.39711276617E+02  0.10566000000E+00 0.  1.
         22    1    1    0    0    0 -0.32377283960E+01 -0.16801011104E+02 -0.23653717623E+02  0.29193410501E+02  0.00000000000E+00 0. -1.
</event>
<event>
 5    1  0.1320187E-009  0.9118800E+02  0.7818608E-02  0.1130116E+00
         25   -1    0    0    0    0  0.00000000000E+00  0.00000000000E+00  0.99999998245E-14  0.12500000000E+03  0.12500000000E+03 0.  0.
        -13    1    3    3    0    0  0.46160148819E+02 -0.23079755005E+02  0.71369244046E+01  0.52099724415E+02  0.10566000000E+00 0.  1.
         23    2    1    0    0    0  0.17879536616E+01 -0.26518863745E+02  0.97680716773E+01  0.96682829645E+02  0.92442995469E+02 0.  0.
         13    1    3    3    0    0 -0.44372195157E+02 -0.34391087399E+01  0.26311472727E+01  0.44583105231E+02  0.10566000000E+00 0. -1.
         22    1    1    0    0    0 -0.17879536616E+01  0.26518863745E+02 -0.97680716773E+01  0.28317170355E+02  0.00000000000E+00 0.  1.
</event>
<event>
 5    1  0.1320187E-009  0.9118800E+02  0.7818608E-02  0.1130116E+00
         25   -1    0    0    0    0  0.00000000000E+00  0.00000000000E+00  0.99999998245E-14  0.12500000000E+03  0.12500000000E+03 0.  0.
        -13    1    3    3    0    0 -0.23281038756E+02  0.26556543990E+02 -0.29361890872E+02  0.45928080669E+02  0.10566000000E+00 0.  1.
         23    2    1    0    0    0  0.21916144638E+02  0.77004361140E+01 -0.16328701146E+02  0.96605623915E+02  0.92338540051E+02 0.  0.
         13    1    3    3    0    0  0.45197183394E+02 -0.18856107876E+02  0.13033189727E+02  0.50677543247E+02  0.10566000000E+00 0. -1.
         22    1    1    0    0    0 -0.21916144638E+02 -0.77004361140E+01  0.16328701146E+02  0.28394376085E+02  0.00000000000E+00 0.  1.
</event>
<event>
 5    1  0.1320187E-009  0.9118800E+02  0.7818608E-02  0.1130116E+00
         25   -1    0    0    0    0  0.00000000000E+00  0.00000000000E+00  0.99999998245E-14  0.12500000000E+03  0.12500000000E+03 0.  0.
        -13    1    3    3    0    0 -0.25863836029E+02  0.22781600965E+02  0.14096316496E+02  0.37237839081E+02  0.10566000000E+00 0.  1.
         23    2    1    0    0    0  0.11682594117E+02  0.48537127887E+01 -0.26666248130E+02  0.95485083051E+02  0.90808979528E+02 0.  0.
         13    1    3    3    0    0  0.37546430146E+02 -0.17927888176E+02 -0.40762564627E+02  0.58247243970E+02  0.10566000000E+00 0. -1.
         22    1    1    0    0    0 -0.11682594117E+02 -0.48537127887E+01  0.26666248130E+02  0.29514916949E+02  0.00000000000E+00 0. -1.
</event>
<event>
 5    1  0.1320187E-009  0.9118800E+02  0.7818608E-02  0.1130116E+00
         25   -1    0    0    0    0  0.00000000000E+00  0.00000000000E+00  0.99999998245E-14  0.12500000000E+03  0.12500000000E+03 0.  0.
        -13    1    3    3    0    0  0.51294042967E+02  0.48920797961E+01  0.14710642073E+02  0.53585683189E+02  0.10566000000E+00 0.  1.
         23    2    1    0    0    0  0.14861920825E+02  0.23985016427E+02  0.10337759313E+02  0.94949592828E+02  0.90068852590E+02 0.  0.
         13    1    3    3    0    0 -0.36432122142E+02  0.19092936631E+02 -0.43728827606E+01  0.41363909639E+02  0.10566000000E+00 0. -1.
         22    1    1    0    0    0 -0.14861920825E+02 -0.23985016427E+02 -0.10337759313E+02  0.30050407172E+02  0.00000000000E+00 0.  1.
</event>
<event>
 5    1  0.1320187E-009  0.9118800E+02  0.7818608E-02  0.1130116E+00
         25   -1    0    0    0    0  0.00000000000E+00  0.00000000000E+00  0.99999998245E-14  0.12500000000E+03  0.12500000000E+03 0.  0.
        -13    1    3    3    0    0 -0.33026129092E+02 -0.35031118123E+02  0.36070752988E+02  0.60158248187E+02  0.10566000000E+00 0. -1.
         23    2    1    0    0    0 -0.12445432660E+02 -0.50464621652E+01  0.22143913590E+02  0.99101959851E+02  0.95658193390E+02 0.  0.
         13    1    3    3    0    0  0.20580696432E+02  0.29984655958E+02 -0.13926839398E+02  0.38943711664E+02  0.10566000000E+00 0.  1.
         22    1    1    0    0    0  0.12445432660E+02  0.50464621652E+01 -0.22143913590E+02  0.25898040149E+02  0.00000000000E+00 0. -1.
</event>
<event>
 5    1  0.1320187E-009  0.9118800E+02  0.7818608E-02  0.1130116E+00
         25   -1    0    0    0    0  0.00000000000E+00  0.00000000000E+00  0.99999998245E-14  0.12500000000E+03  0.12500000000E+03 0.  0.
        -13    1    3    3    0    0 -0.25991004273E+02  0.27927085292E+01 -0.35412129011E+02  0.44015469657E+02  0.10566000000E+00 0.  1.
         23    2    1    0    0    0 -0.26837091766E+02 -0.62285957468E+01  0.13891942333E+02  0.94145325132E+02  0.88945664780E+02 0.  0.
         13    1    3    3    0    0 -0.84608749257E+00 -0.90213042760E+01  0.49304071343E+02  0.50129855475E+02  0.10566000000E+00 0. -1.
         22    1    1    0    0    0  0.26837091766E+02  0.62285957468E+01 -0.13891942333E+02  0.30854674868E+02  0.00000000000E+00 0.  1.
</event>
<event>
 5    1  0.1320187E-009  0.9118800E+02  0.7818608E-02  0.1130116E+00
         25   -1    0    0    0    0  0.00000000000E+00  0.00000000000E+00  0.99999998245E-14  0.12500000000E+03  0.12500000000E+03 0.  0.
        -13    1    3    3    0    0  0.22070420657E+02  0.56331928248E+02  0.15605848537E+02  0.62481543521E+02  0.10566000000E+00 0.  1.
         23    2    1    0    0    0  0.10965887428E+02  0.28852111710E+02  0.90196762714E+01  0.92843358427E+02  0.87096725580E+02 0.  0.
         13    1    3    3    0    0 -0.11104533229E+02 -0.27479816538E+02 -0.65861722658E+01  0.30361814906E+02  0.10566000000E+00 0. -1.
         22    1    1    0    0    0 -0.10965887428E+02 -0.28852111710E+02 -0.90196762714E+01  0.32156641573E+02  0.00000000000E+00 0.  1.
</event>
<event>
 5    1  0.1320187E-009  0.9118800E+02  0.7818608E-02  0.1130116E+00
         25   -1    0    0    0    0  0.00000000000E+00  0.00000000000E+00  0.99999998245E-14  0.12500000000E+03  0.12500000000E+03 0.  0.
        -13    1    3    3    0    0 -0.28824355342E+02  0.22630287549E+02  0.99473878311E+01  0.37972820070E+02  0.10566000000E+00 0. -1.
         23    2    1    0    0    0  0.21782114100E+02  0.73650765574E-01  0.21304881265E+02  0.94530935610E+02  0.89485942486E+02 0.  0.
         13    1    3    3    0    0  0.50606469441E+02 -0.22556636783E+02  0.11357493434E+02  0.56558115540E+02  0.10566000000E+00 0.  1.
         22    1    1    0    0    0 -0.21782114100E+02 -0.73650765574E-01 -0.21304881265E+02  0.30469064390E+02  0.00000000000E+00 0. -1.
</event>
<event>
 5    1  0.1320187E-009  0.9118800E+02  0.7818608E-02  0.1130116E+00
         25   -1    0    0    0    0  0.00000000000E+00  0.00000000000E+00  0.99999998245E-14  0.12500000000E+03  0.12500000000E+03 0.  0.
        -13    1    3    3    0    0 -0.34080094886E+02  0.85198932185E+01 -0.19885983744E+02  0.40367127238E+02  0.10566000000E+00 0.  1.
         23    2    1    0    0    0  0.15045481025E+01  0.15256774874E+02  0.23536600685E+02  0.96910777577E+02  0.92750711017E+02 0.  0.
         13    1    3    3    0    0  0.35584642989E+02  0.67368816555E+01  0.43422584429E+02  0.56543650339E+02  0.10566000000E+00 0. -1.
         22    1    1    0    0    0 -0.15045481025E+01 -0.15256774874E+02 -0.23536600685E+02  0.28089222423E+02  0.00000000000E+00 0. -1.
</event>
<event>
 5    1  0.1320187E-009  0.9118800E+02  0.7818608E-02  0.1130116E+00
         25   -1    0    0    0    0  0.00000000000E+00  0.00000000000E+00  0.99999998245E-14  0.12500000000E+03  0.12500000000E+03 0.  0.
        -13    1    3    3    0    0 -0.31446808829E+02 -0.35152641752E+02  0.63431941644E+01  0.47590516743E+02  0.10566000000E+00 0.  1.
         23    2    1    0    0    0 -0.12610679674E+02 -0.40337003004E+01 -0.25714841259E+02  0.96076773331E+02  0.91619830456E+02 0.  0.
         13    1    3    3    0    0  0.18836129155E+02  0.31118941452E+02 -0.32058035424E+02  0.48486256587E+02  0.10566000000E+00 0. -1.
         22    1    1    0    0    0  0.12610679674E+02  0.40337003004E+01  0.25714841259E+02  0.28923226669E+02  0.00000000000E+00 0. -1.
</event>
<event>
 4    1  0.1320187E-009  0.9118800E+02  0.7818608E-02  0.1130116E+00
         25   -1    0    0    0    0  0.00000000000E+00  0.00000000000E+00  0.99999998245E-14  0.12500000000E+03  0.12500000000E+03 0.  0.
        -13    1    1    0    0    0 -0.47338065313E+02 -0.18258997293E+02 -0.23753338688E+02  0.56022456860E+02  0.10566000000E+00 0. -1.
         13    1    1    0    0    0  0.11703187122E+02 -0.11871095257E+02  0.12426794452E+00  0.16670755770E+02  0.10566000000E+00 0.  1.
         22    1    1    0    0    0  0.35634878191E+02  0.30130092550E+02  0.23629070743E+02  0.52306787370E+02  0.00000000000E+00 0. -1.
</event>
<event>
 5    1  0.1320187E-009  0.9118800E+02  0.7818608E-02  0.1130116E+00
         25   -1    0    0    0    0  0.00000000000E+00  0.00000000000E+00  0.99999998245E-14  0.12500000000E+03  0.12500000000E+03 0.  0.
        -13    1    3    3    0    0 -0.10201924216E+02 -0.27631781231E+02  0.34019433570E+02  0.44999195728E+02  0.10566000000E+00 0.  1.
         23    2    1    0    0    0 -0.17336515924E+02 -0.19576477523E+02 -0.14774288467E+02  0.94965472264E+02  0.90090887808E+02 0.  0.
         13    1    3    3    0    0 -0.71345917083E+01  0.80553037076E+01 -0.48793722037E+02  0.49966276536E+02  0.10566000000E+00 0. -1.
         22    1    1    0    0    0  0.17336515924E+02  0.19576477523E+02  0.14774288467E+02  0.30034527736E+02  0.00000000000E+00 0. -1.
</event>
<event>
 5    1  0.1320187E-009  0.9118800E+02  0.7818608E-02  0.1130116E+00
         25   -1    0    0    0    0  0.00000000000E+00  0.00000000000E+00  0.99999998245E-14  0.12500000000E+03  0.12500000000E+03 0.  0.
        -13    1    3    3    0    0 -0.54898521487E+02 -0.10544821943E+02 -0.28454710623E+00  0.55902889570E+02  0.10566000000E+00 0. -1.
         23    2    1    0    0    0 -0.22383609603E+02  0.57602899618E+00 -0.19529198327E+02  0.95288935133E+02  0.90538576216E+02 0.  0.
         13    1    3    3    0    0  0.32514911884E+02  0.11120850939E+02 -0.19244651220E+02  0.39386045563E+02  0.10566000000E+00 0.  1.
         22    1    1    0    0    0  0.22383609603E+02 -0.57602899618E+00  0.19529198327E+02  0.29711064867E+02  0.00000000000E+00 0. -1.
</event>
<event>
 5    1  0.1320187E-009  0.9118800E+02  0.7818608E-02  0.1130116E+00
         25   -1    0    0    0    0  0.00000000000E+00  0.00000000000E+00  0.99999998245E-14  0.12500000000E+03  0.12500000000E+03 0.  0.
        -13    1    3    3    0    0 -0.94559340266E+00 -0.17800648316E+02  0.29156414285E+02  0.34174038177E+02  0.10566000000E+00 0. -1.
         23    2    1    0    0    0 -0.37236600433E+01  0.56192494320E+01 -0.28102752723E+02  0.96100063686E+02  0.91651600759E+02 0.  0.
         13    1    3    3    0    0 -0.27780666406E+01  0.23419897748E+02 -0.57259167009E+02  0.61926025509E+02  0.10566000000E+00 0.  1.
         22    1    1    0    0    0  0.37236600433E+01 -0.56192494320E+01  0.28102752723E+02  0.28899936314E+02  0.00000000000E+00 0.  1.
</event>
<event>
 5    1  0.1320187E-009  0.9118800E+02  0.7818608E-02  0.1130116E+00
         25   -1    0    0    0    0  0.00000000000E+00  0.00000000000E+00  0.99999998245E-14  0.12500000000E+03  0.12500000000E+03 0.  0.
        -13    1    3    3    0    0  0.41927259746E+02  0.78122288625E+01  0.19080903454E+02  0.46722778923E+02  0.10566000000E+00 0. -1.
         23    2    1    0    0    0 -0.74534858728E+01  0.12785783013E+02  0.24217269834E+02  0.96618547305E+02  0.92356032971E+02 0.  0.
         13    1    3    3    0    0 -0.49380745619E+02  0.49735541501E+01  0.51363663793E+01  0.49895768382E+02  0.10566000000E+00 0.  1.
         22    1    1    0    0    0  0.74534858728E+01 -0.12785783013E+02 -0.24217269834E+02  0.28381452695E+02  0.00000000000E+00 0. -1.
</event>
<event>
 5    1  0.1320187E-009  0.9118800E+02  0.7818608E-02  0.1130116E+00
         25   -1    0    0    0    0  0.00000000000E+00  0.00000000000E+00  0.99999998245E-14  0.12500000000E+03  0.12500000000E+03 0.  0.
        -13    1    3    3    0    0  0.49724395035E+02 -0.72391756537E+01  0.22167559632E+02  0.54921152481E+02  0.10566000000E+00 0. -1.
         23    2    1    0    0    0  0.11369170615E+02 -0.33302907152E+01  0.28632442938E+02  0.94013459933E+02  0.88760154255E+02 0.  0.
         13    1    3    3    0    0 -0.38355224420E+02  0.39088849385E+01  0.64648833054E+01  0.39092307453E+02  0.10566000000E+00 0.  1.
         22    1    1    0    0    0 -0.11369170615E+02  0.33302907152E+01 -0.28632442938E+02  0.30986540067E+02  0.00000000000E+00 0. -1.
</event>
<event>
 5    1  0.1320187E-009  0.9118800E+02  0.7818608E-02  0.1130116E+00
         25   -1    0    0    0    0  0.00000000000E+00  0.00000000000E+00  0.99999998245E-14  0.12500000000E+03  0.12500000000E+03 0.  0.
        -13    1    3    3    0    0 -0.21206276950E+02  0.42716217077E+02 -0.16331138911E+02  0.50409311100E+02  0.10566000000E+00 0.  1.
         23    2    1    0    0    0 -0.11613155238E+02 -0.40317805538E+00 -0.26784840844E+02  0.95803157256E+02  0.91245763267E+02 0.  0.
         13    1    3    3    0    0  0.95931217114E+01 -0.43119395132E+02 -0.10453701933E+02  0.45393846156E+02  0.10566000000E+00 0. -1.
         22    1    1    0    0    0  0.11613155238E+02  0.40317805538E+00  0.26784840844E+02  0.29196842744E+02  0.00000000000E+00 0. -1.
</event>
<event>
 5    1  0.1320187E-009  0.9118800E+02  0.7818608E-02  0.1130116E+00
         25   -1    0    0    0    0  0.00000000000E+00  0.00000000000E+00  0.99999998245E-14  0.12500000000E+03  0.12500000000E+03 0.  0.
        -13    1    3    3    0    0 -0.30250455398E+02 -0.32320280182E+02  0.41036188458E+02  0.60362823742E+02  0.10566000000E+00 0. -1.
         23    2    1    0    0    0 -0.75534498884E+01 -0.23876088516E+02  0.15536660076E+02  0.95529506038E+02  0.90870107899E+02 0.  0.
         13    1    3    3    0    0  0.22697005510E+02  0.84441916666E+01 -0.25499528382E+02  0.35166682297E+02  0.10566000000E+00 0.  1.
         22    1    1    0    0    0  0.75534498884E+01  0.23876088516E+02 -0.15536660076E+02  0.29470493962E+02  0.00000000000E+00 0. -1.
</event>
<event>
 5    1  0.1320187E-009  0.9118800E+02  0.7818608E-02  0.1130116E+00
         25   -1    0    0    0    0  0.00000000000E+00  0.00000000000E+00  0.99999998245E-14  0.12500000000E+03  0.12500000000E+03 0.  0.
        -13    1    3    3    0    0 -0.23467633246E+02  0.51669812689E+02 -0.73037366913E+01  0.57217611687E+02  0.10566000000E+00 0.  1.
         23    2    1    0    0    0 -0.97389776254E+01  0.39382002895E+02  0.10769117216E+02  0.83026630791E+02  0.71635589602E+02 0.  0.
         13    1    3    3    0    0  0.13728655621E+02 -0.12287809794E+02  0.18072853907E+02  0.25809019103E+02  0.10566000000E+00 0. -1.
         22    1    1    0    0    0  0.97389776254E+01 -0.39382002895E+02 -0.10769117216E+02  0.41973369209E+02  0.00000000000E+00 0.  1.
</event>
<event>
 5    1  0.1320187E-009  0.9118800E+02  0.7818608E-02  0.1130116E+00
         25   -1    0    0    0    0  0.00000000000E+00  0.00000000000E+00  0.99999998245E-14  0.12500000000E+03  0.12500000000E+03 0.  0.
        -13    1    3    3    0    0  0.48074835013E+01 -0.67623593036E+01  0.45487525865E+02  0.46238161451E+02  0.10566000000E+00 0. -1.
         23    2    1    0    0    0 -0.10206355588E+02 -0.26637712105E+02  0.19378568224E+01  0.96408170929E+02  0.92070857127E+02 0.  0.
         13    1    3    3    0    0 -0.15013839090E+02 -0.19875352802E+02 -0.43549669043E+02  0.50170009478E+02  0.10566000000E+00 0.  1.
         22    1    1    0    0    0  0.10206355588E+02  0.26637712105E+02 -0.19378568224E+01  0.28591829071E+02  0.00000000000E+00 0.  1.
</event>
<event>
 5    1  0.1320187E-009  0.9118800E+02  0.7818608E-02  0.1130116E+00
         25   -1    0    0    0    0  0.00000000000E+00  0.00000000000E+00  0.99999998245E-14  0.12500000000E+03  0.12500000000E+03 0.  0.
        -13    1    3    3    0    0 -0.19624269288E+02  0.27923330029E+02  0.42691470656E+01  0.34395655041E+02  0.10566000000E+00 0.  1.
         23    2    1    0    0    0  0.21284581387E+02 -0.16096019867E+02  0.13333091401E+02  0.95169033092E+02  0.90372884611E+02 0.  0.
         13    1    3    3    0    0  0.40908850675E+02 -0.44019349896E+02  0.90639443354E+01  0.60773378051E+02  0.10566000000E+00 0. -1.
         22    1    1    0    0    0 -0.21284581387E+02  0.16096019867E+02 -0.13333091401E+02  0.29830966908E+02  0.00000000000E+00 0. -1.
</event>
<event>
 5    1  0.1320187E-009  0.9118800E+02  0.7818608E-02  0.1130116E+00
         25   -1    0    0    0    0  0.00000000000E+00  0.00000000000E+00  0.99999998245E-14  0.12500000000E+03  0.12500000000E+03 0.  0.
        -13    1    3    3    0    0 -0.50965564105E+02  0.59098792489E+01 -0.12249490070E+02  0.52749185475E+02  0.10566000000E+00 0.  1.
         23    2    1    0    0    0 -0.18935287097E+02 -0.19820923803E+02  0.46898583208E+01  0.97189770067E+02  0.93125949749E+02 0.  0.
         13    1    3    3    0    0  0.32030277008E+02 -0.25730803052E+02  0.16939348390E+02  0.44440584592E+02  0.10566000000E+00 0. -1.
         22    1    1    0    0    0  0.18935287097E+02  0.19820923803E+02 -0.46898583208E+01  0.27810229933E+02  0.00000000000E+00 0.  1.
</event>
<event>
 5    1  0.1320187E-009  0.9118800E+02  0.7818608E-02  0.1130116E+00
         25   -1    0    0    0    0  0.00000000000E+00  0.00000000000E+00  0.99999998245E-14  0.12500000000E+03  0.12500000000E+03 0.  0.
        -13    1    3    3    0    0 -0.51592880439E+02 -0.26354852730E+02 -0.20436770955E+02  0.61433511584E+02  0.10566000000E+00 0. -1.
         23    2    1    0    0    0 -0.30126503623E+02 -0.10947536661E+02 -0.18645187103E+02  0.87917689101E+02  0.79714630246E+02 0.  0.
         13    1    3    3    0    0  0.21466376816E+02  0.15407316069E+02  0.17915838521E+01  0.26484177518E+02  0.10566000000E+00 0.  1.
         22    1    1    0    0    0  0.30126503623E+02  0.10947536661E+02  0.18645187103E+02  0.37082310899E+02  0.00000000000E+00 0. -1.
</event>
<event>
 5    1  0.1320187E-009  0.9118800E+02  0.7818608E-02  0.1130116E+00
         25   -1    0    0    0    0  0.00000000000E+00  0.00000000000E+00  0.99999998245E-14  0.12500000000E+03  0.12500000000E+03 0.  0.
        -13    1    3    3    0    0  0.26790565416E+02 -0.40666134777E+01 -0.13248268563E+02  0.30162883224E+02  0.10566000000E+00 0.  1.
         23    2    1    0    0    0 -0.32810686931E+02 -0.65408653175E+01 -0.10716551953E+02  0.89869264429E+02  0.82718293667E+02 0.  0.
         13    1    3    3    0    0 -0.59601252347E+02 -0.24742518398E+01  0.25317166098E+01  0.59706381204E+02  0.10566000000E+00 0. -1.
         22    1    1    0    0    0  0.32810686931E+02  0.65408653175E+01  0.10716551953E+02  0.35130735571E+02  0.00000000000E+00 0. -1.
</event>
<event>
 5    1  0.1320187E-009  0.9118800E+02  0.7818608E-02  0.1130116E+00
         25   -1    0    0    0    0  0.00000000000E+00  0.00000000000E+00  0.99999998245E-14  0.12500000000E+03  0.12500000000E+03 0.  0.
        -13    1    3    3    0    0  0.31142142270E+01  0.38594637317E+02  0.14325788600E+02  0.41285393821E+02  0.10566000000E+00 0.  1.
         23    2    1    0    0    0  0.28795383333E+02 -0.64543991703E+01 -0.13535006933E+01  0.95459090500E+02  0.90773193317E+02 0.  0.
         13    1    3    3    0    0  0.25681169106E+02 -0.45049036488E+02 -0.15679289293E+02  0.54173696679E+02  0.10566000000E+00 0. -1.
         22    1    1    0    0    0 -0.28795383333E+02  0.64543991703E+01  0.13535006933E+01  0.29540909500E+02  0.00000000000E+00 0. -1.
</event>
<event>
 5    1  0.1320187E-009  0.9118800E+02  0.7818608E-02  0.1130116E+00
         25   -1    0    0    0    0  0.00000000000E+00  0.00000000000E+00  0.99999998245E-14  0.12500000000E+03  0.12500000000E+03 0.  0.
        -13    1    3    3    0    0 -0.53561651901E+02 -0.76197159832E+00  0.22596139777E+02  0.58138006949E+02  0.10566000000E+00 0. -1.
         23    2    1    0    0    0 -0.16001071329E+02 -0.16816190728E+01  0.24422249579E+02  0.95754343897E+02  0.91178868025E+02 0.  0.
         13    1    3    3    0    0  0.37560580572E+02 -0.91964747451E+00  0.18261098018E+01  0.37616336949E+02  0.10566000000E+00 0.  1.
         22    1    1    0    0    0  0.16001071329E+02  0.16816190728E+01 -0.24422249579E+02  0.29245656103E+02  0.00000000000E+00 0. -1.
</event>
<event>
 5    1  0.1320187E-009  0.9118800E+02  0.7818608E-02  0.1130116E+00
         25   -1    0    0    0    0  0.00000000000E+00  0.00000000000E+00  0.99999998245E-14  0.12500000000E+03  0.12500000000E+03 0.  0.
        -13    1    3    3    0    0  0.10583132036E+02  0.21250842783E+01  0.38437306574E+02  0.39924383121E+02  0.10566000000E+00 0.  1.
         23    2    1    0    0    0 -0.26771418502E+02  0.93755183342E+01 -0.33456696106E+01  0.96437739974E+02  0.92110992794E+02 0.  0.
         13    1    3    3    0    0 -0.37354550538E+02  0.72504340560E+01 -0.41782976185E+02  0.56513356853E+02  0.10566000000E+00 0. -1.
         22    1    1    0    0    0  0.26771418502E+02 -0.93755183342E+01  0.33456696106E+01  0.28562260026E+02  0.00000000000E+00 0. -1.
</event>
<event>
 5    1  0.1320187E-009  0.9118800E+02  0.7818608E-02  0.1130116E+00
         25   -1    0    0    0    0  0.00000000000E+00  0.00000000000E+00  0.99999998245E-14  0.12500000000E+03  0.12500000000E+03 0.  0.
        -13    1    3    3    0    0 -0.47457416538E+02  0.20382699791E+02 -0.22891678277E+02  0.56495140796E+02  0.10566000000E+00 0.  1.
         23    2    1    0    0    0 -0.86246368997E+01  0.17525512218E+02 -0.22187868879E+02  0.95439393349E+02  0.90746065134E+02 0.  0.
         13    1    3    3    0    0  0.38832779638E+02 -0.28571875723E+01  0.70380939784E+00  0.38944252553E+02  0.10566000000E+00 0. -1.
         22    1    1    0    0    0  0.86246368997E+01 -0.17525512218E+02  0.22187868879E+02  0.29560606651E+02  0.00000000000E+00 0.  1.
</event>
<event>
 5    1  0.1320187E-009  0.9118800E+02  0.7818608E-02  0.1130116E+00
         25   -1    0    0    0    0  0.00000000000E+00  0.00000000000E+00  0.99999998245E-14  0.12500000000E+03  0.12500000000E+03 0.  0.
        -13    1    3    3    0    0  0.50194136044E+02  0.25535928753E+02 -0.64331725552E+01  0.56682729501E+02  0.10566000000E+00 0. -1.
         23    2    1    0    0    0  0.12026291463E+02  0.27237215083E+02 -0.38849796821E+01  0.94973501054E+02  0.90102026967E+02 0.  0.
         13    1    3    3    0    0 -0.38167844582E+02  0.17012863298E+01  0.25481928730E+01  0.38290771553E+02  0.10566000000E+00 0.  1.
         22    1    1    0    0    0 -0.12026291463E+02 -0.27237215083E+02  0.38849796821E+01  0.30026498946E+02  0.00000000000E+00 0. -1.
</event>
<event>
 5    1  0.1320187E-009  0.9118800E+02  0.7818608E-02  0.1130116E+00
         25   -1    0    0    0    0  0.00000000000E+00  0.00000000000E+00  0.99999998245E-14  0.12500000000E+03  0.12500000000E+03 0.  0.
        -13    1    3    3    0    0 -0.73611931245E+01  0.28184061243E+02  0.35123584666E+02  0.45631193675E+02  0.10566000000E+00 0.  1.
         23    2    1    0    0    0 -0.20499122409E+02 -0.15388793417E+02  0.13781784718E+02  0.95897309877E+02  0.91374654414E+02 0.  0.
         13    1    3    3    0    0 -0.13137929284E+02 -0.43572854660E+02 -0.21341799948E+02  0.50266116203E+02  0.10566000000E+00 0. -1.
         22    1    1    0    0    0  0.20499122409E+02  0.15388793417E+02 -0.13781784718E+02  0.29102690123E+02  0.00000000000E+00 0. -1.
</event>
<event>
 5    1  0.1320187E-009  0.9118800E+02  0.7818608E-02  0.1130116E+00
         25   -1    0    0    0    0  0.00000000000E+00  0.00000000000E+00  0.99999998245E-14  0.12500000000E+03  0.12500000000E+03 0.  0.
        -13    1    3    3    0    0  0.37561310675E+02 -0.44679457939E+02 -0.21825865587E+02  0.62317618649E+02  0.10566000000E+00 0.  1.
         23    2    1    0    0    0  0.18206299901E+02 -0.26615162765E+02 -0.13104143897E+02  0.90192603769E+02  0.83205474233E+02 0.  0.
         13    1    3    3    0    0 -0.19355010774E+02  0.18064295174E+02  0.87217216908E+01  0.27874985121E+02  0.10566000000E+00 0. -1.
         22    1    1    0    0    0 -0.18206299901E+02  0.26615162765E+02  0.13104143897E+02  0.34807396231E+02  0.00000000000E+00 0.  1.
</event>
<event>
 5    1  0.1320187E-009  0.9118800E+02  0.7818608E-02  0.1130116E+00
         25   -1    0    0    0    0  0.00000000000E+00  0.00000000000E+00  0.99999998245E-14  0.12500000000E+03  0.12500000000E+03 0.  0.
        -13    1    3    3    0    0  0.68290823310E+01 -0.83131159839E+01 -0.58621564364E+02  0.59600698279E+02  0.10566000000E+00 0. -1.
         23    2    1    0    0    0 -0.10269848822E+02 -0.33853862635E+01 -0.27495550983E+02  0.95454510347E+02  0.90766885960E+02 0.  0.
         13    1    3    3    0    0 -0.17098931153E+02  0.49277297204E+01  0.31126013381E+02  0.35853812068E+02  0.10566000000E+00 0.  1.
         22    1    1    0    0    0  0.10269848822E+02  0.33853862635E+01  0.27495550983E+02  0.29545489653E+02  0.00000000000E+00 0. -1.
</event>
<event>
 5    1  0.1320187E-009  0.9118800E+02  0.7818608E-02  0.1130116E+00
         25   -1    0    0    0    0  0.00000000000E+00  0.00000000000E+00  0.99999998245E-14  0.12500000000E+03  0.12500000000E+03 0.  0.
        -13    1    3    3    0    0 -0.16574879316E+02  0.36361938207E+02  0.46614634350E+02  0.61399124376E+02  0.10566000000E+00 0.  1.
         23    2    1    0    0    0 -0.47677486884E+01  0.11678415259E+02  0.27405183507E+02  0.94831127075E+02  0.89904292271E+02 0.  0.
         13    1    3    3    0    0  0.11807130627E+02 -0.24683522947E+02 -0.19209450843E+02  0.33432002699E+02  0.10566000000E+00 0. -1.
         22    1    1    0    0    0  0.47677486884E+01 -0.11678415259E+02 -0.27405183507E+02  0.30168872925E+02  0.00000000000E+00 0.  1.
</event>
<event>
 5    1  0.1320187E-009  0.9118800E+02  0.7818608E-02  0.1130116E+00
         25   -1    0    0    0    0  0.00000000000E+00  0.00000000000E+00  0.99999998245E-14  0.12500000000E+03  0.12500000000E+03 0.  0.
        -13    1    3    3    0    0  0.86194202279E+01 -0.29187157433E+02  0.44651297158E+02  0.54036414259E+02  0.10566000000E+00 0. -1.
         23    2    1    0    0    0 -0.12324716241E+02  0.15353202138E+01  0.27175215392E+02  0.95121108284E+02  0.90306572690E+02 0.  0.
         13    1    3    3    0    0 -0.20944136469E+02  0.30722477647E+02 -0.17476081766E+02  0.41084694024E+02  0.10566000000E+00 0.  1.
         22    1    1    0    0    0  0.12324716241E+02 -0.15353202138E+01 -0.27175215392E+02  0.29878891716E+02  0.00000000000E+00 0. -1.
</event>
<event>
 5    1  0.1320187E-009  0.9118800E+02  0.7818608E-02  0.1130116E+00
         25   -1    0    0    0    0  0.00000000000E+00  0.00000000000E+00  0.99999998245E-14  0.12500000000E+03  0.12500000000E+03 0.  0.
        -13    1    3    3    0    0 -0.17200087383E+01 -0.36600796769E+02 -0.20400431979E+02  0.41937638741E+02  0.10566000000E+00 0.  1.
         23    2    1    0    0    0  0.30521363943E+02 -0.36731496170E+01  0.38591181971E+01  0.94017126048E+02  0.88765317056E+02 0.  0.
         13    1    3    3    0    0  0.32241372682E+02  0.32927647152E+02  0.24259550176E+02  0.52079487307E+02  0.10566000000E+00 0. -1.
         22    1    1    0    0    0 -0.30521363943E+02  0.36731496170E+01 -0.38591181971E+01  0.30982873952E+02  0.00000000000E+00 0. -1.
</event>
<event>
 4    1  0.1320187E-009  0.9118800E+02  0.7818608E-02  0.1130116E+00
         25   -1    0    0    0    0  0.00000000000E+00  0.00000000000E+00  0.99999998245E-14  0.12500000000E+03  0.12500000000E+03 0.  0.
        -13    1    1    0    0    0 -0.12244032185E+02  0.15078391221E+00 -0.28988829574E+02  0.31469071547E+02  0.10566000000E+00 0. -1.
         13    1    1    0    0    0  0.35125919611E+02 -0.13773415769E+02 -0.16214630069E+02  0.41066563075E+02  0.10566000000E+00 0.  1.
         22    1    1    0    0    0 -0.22881887426E+02  0.13622631857E+02  0.45203459643E+02  0.52464365379E+02  0.00000000000E+00 0.  1.
</event>
<event>
 5    1  0.1320187E-009  0.9118800E+02  0.7818608E-02  0.1130116E+00
         25   -1    0    0    0    0  0.00000000000E+00  0.00000000000E+00  0.99999998245E-14  0.12500000000E+03  0.12500000000E+03 0.  0.
        -13    1    3    3    0    0 -0.33091227807E+00 -0.50950083697E+01 -0.51865697892E+02  0.52116507894E+02  0.10566000000E+00 0. -1.
         23    2    1    0    0    0  0.20401222564E+02 -0.15541437896E+02 -0.16222895321E+02  0.94653196106E+02  0.89656561537E+02 0.  0.
         13    1    3    3    0    0  0.20732134842E+02 -0.10446429526E+02  0.35642802571E+02  0.42536688212E+02  0.10566000000E+00 0.  1.
         22    1    1    0    0    0 -0.20401222564E+02  0.15541437896E+02  0.16222895321E+02  0.30346803894E+02  0.00000000000E+00 0. -1.
</event>
<event>
 5    1  0.1320187E-009  0.9118800E+02  0.7818608E-02  0.1130116E+00
         25   -1    0    0    0    0  0.00000000000E+00  0.00000000000E+00  0.99999998245E-14  0.12500000000E+03  0.12500000000E+03 0.  0.
        -13    1    3    3    0    0 -0.50041205749E+02  0.28228376863E+02 -0.20027711251E+02  0.60844752569E+02  0.10566000000E+00 0.  1.
         23    2    1    0    0    0 -0.26997737153E+02  0.99232078345E+01 -0.37315307185E+00  0.96233924350E+02  0.91833986559E+02 0.  0.
         13    1    3    3    0    0  0.23043468596E+02 -0.18305169028E+02  0.19654558179E+02  0.35389171781E+02  0.10566000000E+00 0. -1.
         22    1    1    0    0    0  0.26997737153E+02 -0.99232078345E+01  0.37315307185E+00  0.28766075650E+02  0.00000000000E+00 0.  1.
</event>
<event>
 5    1  0.1320187E-009  0.9118800E+02  0.7818608E-02  0.1130116E+00
         25   -1    0    0    0    0  0.00000000000E+00  0.00000000000E+00  0.99999998245E-14  0.12500000000E+03  0.12500000000E+03 0.  0.
        -13    1    3    3    0    0 -0.41314622676E+02  0.96486930619E+01 -0.16620008197E+02  0.45565679641E+02  0.10566000000E+00 0. -1.
         23    2    1    0    0    0 -0.65187065936E+01  0.27855671917E+02  0.11812068619E+02  0.94049120228E+02  0.88810360077E+02 0.  0.
         13    1    3    3    0    0  0.34795916082E+02  0.18206978855E+02  0.28432076815E+02  0.48483440587E+02  0.10566000000E+00 0.  1.
         22    1    1    0    0    0  0.65187065936E+01 -0.27855671917E+02 -0.11812068619E+02  0.30950879772E+02  0.00000000000E+00 0.  1.
</event>
<event>
 5    1  0.1320187E-009  0.9118800E+02  0.7818608E-02  0.1130116E+00
         25   -1    0    0    0    0  0.00000000000E+00  0.00000000000E+00  0.99999998245E-14  0.12500000000E+03  0.12500000000E+03 0.  0.
        -13    1    3    3    0    0 -0.27378994561E+02 -0.40991556041E+02 -0.46386038166E+01  0.49512067411E+02  0.10566000000E+00 0.  1.
         23    2    1    0    0    0  0.98259345801E+01 -0.21249138016E+02  0.16226257455E+02  0.96515507942E+02  0.92216468082E+02 0.  0.
         13    1    3    3    0    0  0.37204929142E+02  0.19742418025E+02  0.20864861271E+02  0.47003440531E+02  0.10566000000E+00 0. -1.
         22    1    1    0    0    0 -0.98259345801E+01  0.21249138016E+02 -0.16226257455E+02  0.28484492058E+02  0.00000000000E+00 0.  1.
</event>
<event>
 5    1  0.1320187E-009  0.9118800E+02  0.7818608E-02  0.1130116E+00
         25   -1    0    0    0    0  0.00000000000E+00  0.00000000000E+00  0.99999998245E-14  0.12500000000E+03  0.12500000000E+03 0.  0.
        -13    1    3    3    0    0  0.32567352128E+02  0.99451291004E+01 -0.37352000461E+02  0.50544249128E+02  0.10566000000E+00 0. -1.
         23    2    1    0    0    0  0.14179580228E+02  0.22260013707E+02  0.48204106385E+01  0.98170816927E+02  0.94433596944E+02 0.  0.
         13    1    3    3    0    0 -0.18387771900E+02  0.12314884606E+02  0.42172411100E+02  0.47626567799E+02  0.10566000000E+00 0.  1.
         22    1    1    0    0    0 -0.14179580228E+02 -0.22260013707E+02 -0.48204106385E+01  0.26829183073E+02  0.00000000000E+00 0. -1.
</event>
<event>
 5    1  0.1320187E-009  0.9118800E+02  0.7818608E-02  0.1130116E+00
         25   -1    0    0    0    0  0.00000000000E+00  0.00000000000E+00  0.99999998245E-14  0.12500000000E+03  0.12500000000E+03 0.  0.
        -13    1    3    3    0    0  0.37759698148E+02  0.19290707375E+02 -0.25621079996E+02  0.49541670334E+02  0.10566000000E+00 0. -1.
         23    2    1    0    0    0  0.28250610171E+02 -0.11701709122E+02  0.48581541590E+01  0.94038271475E+02  0.88795089216E+02 0.  0.
         13    1    3    3    0    0 -0.95090879774E+01 -0.30992416497E+02  0.30479234155E+02  0.44496601142E+02  0.10566000000E+00 0.  1.
         22    1    1    0    0    0 -0.28250610171E+02  0.11701709122E+02 -0.48581541590E+01  0.30961728525E+02  0.00000000000E+00 0.  1.
</event>
<event>
 5    1  0.1320187E-009  0.9118800E+02  0.7818608E-02  0.1130116E+00
         25   -1    0    0    0    0  0.00000000000E+00  0.00000000000E+00  0.99999998245E-14  0.12500000000E+03  0.12500000000E+03 0.  0.
        -13    1    3    3    0    0 -0.10880893660E+02 -0.19884205857E+01  0.52784665488E+02  0.53931250106E+02  0.10566000000E+00 0.  1.
         23    2    1    0    0    0 -0.21010534997E+02  0.16104349048E+02  0.25105124093E+02  0.88516306453E+02  0.80647855602E+02 0.  0.
         13    1    3    3    0    0 -0.10129641337E+02  0.18092769634E+02 -0.27679541395E+02  0.34585056347E+02  0.10566000000E+00 0. -1.
         22    1    1    0    0    0  0.21010534997E+02 -0.16104349048E+02 -0.25105124093E+02  0.36483693547E+02  0.00000000000E+00 0.  1.
</event>
<event>
 5    1  0.1320187E-009  0.9118800E+02  0.7818608E-02  0.1130116E+00
         25   -1    0    0    0    0  0.00000000000E+00  0.00000000000E+00  0.99999998245E-14  0.12500000000E+03  0.12500000000E+03 0.  0.
        -13    1    3    3    0    0  0.13064608728E+02  0.24274249606E+02  0.34313512512E+02  0.44015355276E+02  0.10566000000E+00 0. -1.
         23    2    1    0    0    0  0.32208509260E+02  0.11139904099E+02 -0.58641986950E+01  0.90418583626E+02  0.83544275127E+02 0.  0.
         13    1    3    3    0    0  0.19143900532E+02 -0.13134345507E+02 -0.40177711207E+02  0.46403228350E+02  0.10566000000E+00 0.  1.
         22    1    1    0    0    0 -0.32208509260E+02 -0.11139904099E+02  0.58641986950E+01  0.34581416374E+02  0.00000000000E+00 0.  1.
</event>
<event>
 5    1  0.1320187E-009  0.9118800E+02  0.7818608E-02  0.1130116E+00
         25   -1    0    0    0    0  0.00000000000E+00  0.00000000000E+00  0.99999998245E-14  0.12500000000E+03  0.12500000000E+03 0.  0.
        -13    1    3    3    0    0 -0.13272567706E+02  0.16363848120E+02  0.50081204027E+02  0.54332998626E+02  0.10566000000E+00 0. -1.
         23    2    1    0    0    0 -0.26567962035E+02  0.16985065825E+02  0.18899581103E+02  0.88236659107E+02  0.80213245644E+02 0.  0.
         13    1    3    3    0    0 -0.13295394329E+02  0.62121770461E+00 -0.31181622924E+02  0.33903660481E+02  0.10566000000E+00 0.  1.
         22    1    1    0    0    0  0.26567962035E+02 -0.16985065825E+02 -0.18899581103E+02  0.36763340893E+02  0.00000000000E+00 0. -1.
</event>
<event>
 5    1  0.1320187E-009  0.9118800E+02  0.7818608E-02  0.1130116E+00
         25   -1    0    0    0    0  0.00000000000E+00  0.00000000000E+00  0.99999998245E-14  0.12500000000E+03  0.12500000000E+03 0.  0.
        -13    1    3    3    0    0  0.25147700122E+02  0.21027958588E+02 -0.38387523047E+02  0.50479648905E+02  0.10566000000E+00 0.  1.
         23    2    1    0    0    0 -0.15391200863E+02  0.14413076114E+02 -0.21484182024E+02  0.94896912047E+02  0.89995711074E+02 0.  0.
         13    1    3    3    0    0 -0.40538900986E+02 -0.66148824744E+01  0.16903341023E+02  0.44417263142E+02  0.10566000000E+00 0. -1.
         22    1    1    0    0    0  0.15391200863E+02 -0.14413076114E+02  0.21484182024E+02  0.30103087953E+02  0.00000000000E+00 0.  1.
</event>
<event>
 5    1  0.1320187E-009  0.9118800E+02  0.7818608E-02  0.1130116E+00
         25   -1    0    0    0    0  0.00000000000E+00  0.00000000000E+00  0.99999998245E-14  0.12500000000E+03  0.12500000000E+03 0.  0.
        -13    1    3    3    0    0 -0.37764704962E+02  0.18215036335E+02  0.61422569964E+01  0.42375688485E+02  0.10566000000E+00 0. -1.
         23    2    1    0    0    0  0.11408340185E+02  0.29283764085E+02  0.70670254994E+01  0.92787705543E+02  0.87016816684E+02 0.  0.
         13    1    3    3    0    0  0.49173045147E+02  0.11068727750E+02  0.92476850302E+00  0.50412017058E+02  0.10566000000E+00 0.  1.
         22    1    1    0    0    0 -0.11408340185E+02 -0.29283764085E+02 -0.70670254994E+01  0.32212294457E+02  0.00000000000E+00 0.  1.
</event>
<event>
 5    1  0.1320187E-009  0.9118800E+02  0.7818608E-02  0.1130116E+00
         25   -1    0    0    0    0  0.00000000000E+00  0.00000000000E+00  0.99999998245E-14  0.12500000000E+03  0.12500000000E+03 0.  0.
        -13    1    3    3    0    0  0.12518362505E+02  0.19664926816E+02  0.34864747057E+02  0.41940201452E+02  0.10566000000E+00 0. -1.
         23    2    1    0    0    0  0.27100994521E+02 -0.67705146638E+01 -0.94054534389E+01  0.95525157724E+02  0.90864126205E+02 0.  0.
         13    1    3    3    0    0  0.14582632016E+02 -0.26435441479E+02 -0.44270200495E+02  0.53584956272E+02  0.10566000000E+00 0.  1.
         22    1    1    0    0    0 -0.27100994521E+02  0.67705146638E+01  0.94054534389E+01  0.29474842276E+02  0.00000000000E+00 0.  1.
</event>
<event>
 5    1  0.1320187E-009  0.9118800E+02  0.7818608E-02  0.1130116E+00
         25   -1    0    0    0    0  0.00000000000E+00  0.00000000000E+00  0.99999998245E-14  0.12500000000E+03  0.12500000000E+03 0.  0.
        -13    1    3    3    0    0  0.20702081616E+02 -0.60005847361E+01  0.42581757667E+02  0.47726307740E+02  0.10566000000E+00 0. -1.
         23    2    1    0    0    0 -0.21169941119E+02 -0.37167571683E+01  0.21252290175E+02  0.94773512798E+02  0.89824151538E+02 0.  0.
         13    1    3    3    0    0 -0.41872022735E+02  0.22838275678E+01 -0.21329467492E+02  0.47047205059E+02  0.10566000000E+00 0.  1.
         22    1    1    0    0    0  0.21169941119E+02  0.37167571683E+01 -0.21252290175E+02  0.30226487202E+02  0.00000000000E+00 0.  1.
</event>
<event>
 5    1  0.1320187E-009  0.9118800E+02  0.7818608E-02  0.1130116E+00
         25   -1    0    0    0    0  0.00000000000E+00  0.00000000000E+00  0.99999998245E-14  0.12500000000E+03  0.12500000000E+03 0.  0.
        -13    1    3    3    0    0  0.21236649205E+02  0.21625453917E+02 -0.29998740223E+02  0.42644942321E+02  0.10566000000E+00 0. -1.
         23    2    1    0    0    0 -0.25001868242E+02  0.16982161750E+02 -0.11541485396E+02  0.92647363037E+02  0.86814980040E+02 0.  0.
         13    1    3    3    0    0 -0.46238517446E+02 -0.46432921670E+01  0.18457254826E+02  0.50002420717E+02  0.10566000000E+00 0.  1.
         22    1    1    0    0    0  0.25001868242E+02 -0.16982161750E+02  0.11541485396E+02  0.32352636963E+02  0.00000000000E+00 0.  1.
</event>
<event>
 5    1  0.1320187E-009  0.9118800E+02  0.7818608E-02  0.1130116E+00
         25   -1    0    0    0    0  0.00000000000E+00  0.00000000000E+00  0.99999998245E-14  0.12500000000E+03  0.12500000000E+03 0.  0.
        -13    1    3    3    0    0  0.15281298615E+02 -0.30795296511E+02  0.15331128543E+00  0.34378816776E+02  0.10566000000E+00 0. -1.
         23    2    1    0    0    0 -0.23215156022E+02  0.17343610193E+02  0.44139431900E+00  0.96018296934E+02  0.91540014385E+02 0.  0.
         13    1    3    3    0    0 -0.38496454637E+02  0.48138906704E+02  0.28808303357E+00  0.61639480158E+02  0.10566000000E+00 0.  1.
         22    1    1    0    0    0  0.23215156022E+02 -0.17343610193E+02 -0.44139431900E+00  0.28981703066E+02  0.00000000000E+00 0.  1.
</event>
<event>
 5    1  0.1320187E-009  0.9118800E+02  0.7818608E-02  0.1130116E+00
         25   -1    0    0    0    0  0.00000000000E+00  0.00000000000E+00  0.99999998245E-14  0.12500000000E+03  0.12500000000E+03 0.  0.
        -13    1    3    3    0    0 -0.10755390650E+02 -0.50157642350E+02 -0.16804695037E+02  0.53980333951E+02  0.10566000000E+00 0.  1.
         23    2    1    0    0    0  0.10382917324E+02 -0.26986910325E+02  0.91290476389E+01  0.94677767037E+02  0.89690812012E+02 0.  0.
         13    1    3    3    0    0  0.21138307974E+02  0.23170732025E+02  0.25933742676E+02  0.40697433086E+02  0.10566000000E+00 0. -1.
         22    1    1    0    0    0 -0.10382917324E+02  0.26986910325E+02 -0.91290476389E+01  0.30322232963E+02  0.00000000000E+00 0.  1.
</event>
<event>
 5    1  0.1320187E-009  0.9118800E+02  0.7818608E-02  0.1130116E+00
         25   -1    0    0    0    0  0.00000000000E+00  0.00000000000E+00  0.99999998245E-14  0.12500000000E+03  0.12500000000E+03 0.  0.
        -13    1    3    3    0    0 -0.20364253342E+02 -0.29367677956E+02 -0.36368690245E+02  0.50988784226E+02  0.10566000000E+00 0. -1.
         23    2    1    0    0    0  0.41467250425E+01 -0.44111211579E+01 -0.38493160888E+02  0.86033645877E+02  0.76703399334E+02 0.  0.
         13    1    3    3    0    0  0.24510978384E+02  0.24956556798E+02 -0.21244706435E+01  0.35044861651E+02  0.10566000000E+00 0.  1.
         22    1    1    0    0    0 -0.41467250425E+01  0.44111211579E+01  0.38493160888E+02  0.38966354123E+02  0.00000000000E+00 0. -1.
</event>
<event>
 5    1  0.1320187E-009  0.9118800E+02  0.7818608E-02  0.1130116E+00
         25   -1    0    0    0    0  0.00000000000E+00  0.00000000000E+00  0.99999998245E-14  0.12500000000E+03  0.12500000000E+03 0.  0.
        -13    1    3    3    0    0 -0.70181680055E+01 -0.13781403682E+02 -0.31570612216E+02  0.35155319503E+02  0.10566000000E+00 0.  1.
         23    2    1    0    0    0 -0.92467637738E+01  0.18595226152E+02  0.20052128140E+02  0.96131800907E+02  0.91694875684E+02 0.  0.
         13    1    3    3    0    0 -0.22285957683E+01  0.32376629834E+02  0.51622740356E+02  0.60976481404E+02  0.10566000000E+00 0. -1.
         22    1    1    0    0    0  0.92467637738E+01 -0.18595226152E+02 -0.20052128140E+02  0.28868199093E+02  0.00000000000E+00 0. -1.
</event>
<event>
 5    1  0.1320187E-009  0.9118800E+02  0.7818608E-02  0.1130116E+00
         25   -1    0    0    0    0  0.00000000000E+00  0.00000000000E+00  0.99999998245E-14  0.12500000000E+03  0.12500000000E+03 0.  0.
        -13    1    3    3    0    0  0.28366724223E+00  0.55050695752E+02 -0.18628824349E+01  0.55083037905E+02  0.10566000000E+00 0. -1.
         23    2    1    0    0    0  0.16110212365E+02  0.19717637704E+02 -0.14362142044E+02  0.95766537955E+02  0.91195583713E+02 0.  0.
         13    1    3    3    0    0  0.15826545123E+02 -0.35333058047E+02 -0.12499259609E+02  0.40683500050E+02  0.10566000000E+00 0.  1.
         22    1    1    0    0    0 -0.16110212365E+02 -0.19717637704E+02  0.14362142044E+02  0.29233462045E+02  0.00000000000E+00 0. -1.
</event>
<event>
 5    1  0.1320187E-009  0.9118800E+02  0.7818608E-02  0.1130116E+00
         25   -1    0    0    0    0  0.00000000000E+00  0.00000000000E+00  0.99999998245E-14  0.12500000000E+03  0.12500000000E+03 0.  0.
        -13    1    3    3    0    0  0.12422276353E+02  0.16247293316E+01  0.29185780559E+02  0.31761197176E+02  0.10566000000E+00 0. -1.
         23    2    1    0    0    0  0.27466068976E+02 -0.29383374111E+02 -0.96014738153E+01  0.83648386747E+02  0.72712424570E+02 0.  0.
         13    1    3    3    0    0  0.15043792623E+02 -0.31008103443E+02 -0.38787254374E+02  0.51887189571E+02  0.10566000000E+00 0.  1.
         22    1    1    0    0    0 -0.27466068976E+02  0.29383374111E+02  0.96014738153E+01  0.41351613253E+02  0.00000000000E+00 0.  1.
</event>
<event>
 5    1  0.1320187E-009  0.9118800E+02  0.7818608E-02  0.1130116E+00
         25   -1    0    0    0    0  0.00000000000E+00  0.00000000000E+00  0.99999998245E-14  0.12500000000E+03  0.12500000000E+03 0.  0.
        -13    1    3    3    0    0 -0.42345011563E+02 -0.41612969807E+02  0.46194616290E+01  0.59549054150E+02  0.10566000000E+00 0.  1.
         23    2    1    0    0    0 -0.24984941655E+02 -0.10489113225E+02  0.11002077783E+02  0.95754239259E+02  0.91178724573E+02 0.  0.
         13    1    3    3    0    0  0.17360069908E+02  0.31123856582E+02  0.63826161543E+01  0.36205185109E+02  0.10566000000E+00 0. -1.
         22    1    1    0    0    0  0.24984941655E+02  0.10489113225E+02 -0.11002077783E+02  0.29245760741E+02  0.00000000000E+00 0.  1.
</event>
<event>
 5    1  0.1320187E-009  0.9118800E+02  0.7818608E-02  0.1130116E+00
         25   -1    0    0    0    0  0.00000000000E+00  0.00000000000E+00  0.99999998245E-14  0.12500000000E+03  0.12500000000E+03 0.  0.
        -13    1    3    3    0    0  0.16159710266E+02  0.28495585420E+02  0.12789418228E+02  0.35166959023E+02  0.10566000000E+00 0. -1.
         23    2    1    0    0    0 -0.18592880340E+02 -0.12877834723E+02 -0.16851130494E+02  0.96795489272E+02  0.92595206777E+02 0.  0.
         13    1    3    3    0    0 -0.34752590605E+02 -0.41373420143E+02 -0.29640548722E+02  0.61628530249E+02  0.10566000000E+00 0.  1.
         22    1    1    0    0    0  0.18592880340E+02  0.12877834723E+02  0.16851130494E+02  0.28204510728E+02  0.00000000000E+00 0.  1.
</event>
<event>
 5    1  0.1320187E-009  0.9118800E+02  0.7818608E-02  0.1130116E+00
         25   -1    0    0    0    0  0.00000000000E+00  0.00000000000E+00  0.99999998245E-14  0.12500000000E+03  0.12500000000E+03 0.  0.
        -13    1    3    3    0    0 -0.31648635550E+02  0.47227917229E+02 -0.24960967329E+02  0.62090042294E+02  0.10566000000E+00 0.  1.
         23    2    1    0    0    0 -0.13607215083E+02  0.24711515600E+02 -0.75200996215E+01  0.95804671541E+02  0.91247837701E+02 0.  0.
         13    1    3    3    0    0  0.18041420467E+02 -0.22516401630E+02  0.17440867707E+02  0.33714629247E+02  0.10566000000E+00 0. -1.
         22    1    1    0    0    0  0.13607215083E+02 -0.24711515600E+02  0.75200996215E+01  0.29195328459E+02  0.00000000000E+00 0.  1.
</event>
<event>
 5    1  0.1320187E-009  0.9118800E+02  0.7818608E-02  0.1130116E+00
         25   -1    0    0    0    0  0.00000000000E+00  0.00000000000E+00  0.99999998245E-14  0.12500000000E+03  0.12500000000E+03 0.  0.
        -13    1    3    3    0    0 -0.35773659343E+02  0.10582949093E+02  0.18830322064E+01  0.37353855071E+02  0.10566000000E+00 0. -1.
         23    2    1    0    0    0  0.85359496810E+01 -0.26483265850E+02  0.94451666889E+01  0.95615701798E+02  0.90988600657E+02 0.  0.
         13    1    3    3    0    0  0.44309609024E+02 -0.37066214943E+02  0.75621344825E+01  0.58261846727E+02  0.10566000000E+00 0.  1.
         22    1    1    0    0    0 -0.85359496810E+01  0.26483265850E+02 -0.94451666889E+01  0.29384298202E+02  0.00000000000E+00 0.  1.
</event>
<event>
 5    1  0.1320187E-009  0.9118800E+02  0.7818608E-02  0.1130116E+00
         25   -1    0    0    0    0  0.00000000000E+00  0.00000000000E+00  0.99999998245E-14  0.12500000000E+03  0.12500000000E+03 0.  0.
        -13    1    3    3    0    0 -0.19504944882E+02  0.76892501670E+01  0.37884359882E+02  0.43298999188E+02  0.10566000000E+00 0. -1.
         23    2    1    0    0    0  0.18085231666E+01 -0.27701332910E+02  0.35564615636E+01  0.97012806145E+02  0.92888112998E+02 0.  0.
         13    1    3    3    0    0  0.21313468048E+02 -0.35390583077E+02 -0.34327898319E+02  0.53713806957E+02  0.10566000000E+00 0.  1.
         22    1    1    0    0    0 -0.18085231666E+01  0.27701332910E+02 -0.35564615636E+01  0.27987193855E+02  0.00000000000E+00 0.  1.
</event>
<event>
 5    1  0.1320187E-009  0.9118800E+02  0.7818608E-02  0.1130116E+00
         25   -1    0    0    0    0  0.00000000000E+00  0.00000000000E+00  0.99999998245E-14  0.12500000000E+03  0.12500000000E+03 0.  0.
        -13    1    3    3    0    0  0.16571525503E+02 -0.31054844917E+02 -0.17234814254E+02  0.39192714077E+02  0.10566000000E+00 0.  1.
         23    2    1    0    0    0  0.23148705061E+02  0.17999858868E+02  0.77988674962E+01  0.94657294130E+02  0.89662274856E+02 0.  0.
         13    1    3    3    0    0  0.65771795586E+01  0.49054703785E+02  0.25033681750E+02  0.55464580053E+02  0.10566000000E+00 0. -1.
         22    1    1    0    0    0 -0.23148705061E+02 -0.17999858868E+02 -0.77988674962E+01  0.30342705870E+02  0.00000000000E+00 0. -1.
</event>
<event>
 5    1  0.1320187E-009  0.9118800E+02  0.7818608E-02  0.1130116E+00
         25   -1    0    0    0    0  0.00000000000E+00  0.00000000000E+00  0.99999998245E-14  0.12500000000E+03  0.12500000000E+03 0.  0.
        -13    1    3    3    0    0  0.11040604929E+02 -0.17520448532E+02 -0.19812769265E+02  0.28660391902E+02  0.10566000000E+00 0. -1.
         23    2    1    0    0    0  0.17070839641E+02  0.24418959556E+02  0.21826168112E+02  0.88066535956E+02  0.79947695333E+02 0.  0.
         13    1    3    3    0    0  0.60302347115E+01  0.41939408088E+02  0.41638937378E+02  0.59406144054E+02  0.10566000000E+00 0.  1.
         22    1    1    0    0    0 -0.17070839641E+02 -0.24418959556E+02 -0.21826168112E+02  0.36933464044E+02  0.00000000000E+00 0.  1.
</event>
<event>
 5    1  0.1320187E-009  0.9118800E+02  0.7818608E-02  0.1130116E+00
         25   -1    0    0    0    0  0.00000000000E+00  0.00000000000E+00  0.99999998245E-14  0.12500000000E+03  0.12500000000E+03 0.  0.
        -13    1    3    3    0    0 -0.44418423043E+01  0.32398745499E+02 -0.41067010685E+02  0.52496849463E+02  0.10566000000E+00 0. -1.
         23    2    1    0    0    0  0.18751054451E+02  0.13041290937E+01 -0.23019537950E+02  0.95281286650E+02  0.90528015899E+02 0.  0.
         13    1    3    3    0    0  0.23192896755E+02 -0.31094616405E+02  0.18047472735E+02  0.42784437187E+02  0.10566000000E+00 0.  1.
         22    1    1    0    0    0 -0.18751054451E+02 -0.13041290937E+01  0.23019537950E+02  0.29718713350E+02  0.00000000000E+00 0. -1.
</event>
<event>
 5    1  0.1320187E-009  0.9118800E+02  0.7818608E-02  0.1130116E+00
         25   -1    0    0    0    0  0.00000000000E+00  0.00000000000E+00  0.99999998245E-14  0.12500000000E+03  0.12500000000E+03 0.  0.
        -13    1    3    3    0    0 -0.27823506685E+02 -0.13728756464E+02 -0.47773379621E+02  0.56964315521E+02  0.10566000000E+00 0. -1.
         23    2    1    0    0    0 -0.52539763646E+01  0.10134731801E+02 -0.26627865467E+02  0.96028284904E+02  0.91553652171E+02 0.  0.
         13    1    3    3    0    0  0.22569530321E+02  0.23863488265E+02  0.21145514154E+02  0.39063969383E+02  0.10566000000E+00 0.  1.
         22    1    1    0    0    0  0.52539763646E+01 -0.10134731801E+02  0.26627865467E+02  0.28971715096E+02  0.00000000000E+00 0. -1.
</event>
<event>
 5    1  0.1320187E-009  0.9118800E+02  0.7818608E-02  0.1130116E+00
         25   -1    0    0    0    0  0.00000000000E+00  0.00000000000E+00  0.99999998245E-14  0.12500000000E+03  0.12500000000E+03 0.  0.
        -13    1    3    3    0    0  0.27086146924E+02  0.54680806121E+02  0.43366252775E+01  0.61175709199E+02  0.10566000000E+00 0.  1.
         23    2    1    0    0    0  0.55194819416E+01  0.27874033235E+02  0.71591975300E+01  0.95696749003E+02  0.91099875142E+02 0.  0.
         13    1    3    3    0    0 -0.21566664983E+02 -0.26806772886E+02  0.28225722524E+01  0.34521039804E+02  0.10566000000E+00 0. -1.
         22    1    1    0    0    0 -0.55194819416E+01 -0.27874033235E+02 -0.71591975300E+01  0.29303250997E+02  0.00000000000E+00 0.  1.
</event>
<event>
 5    1  0.1320187E-009  0.9118800E+02  0.7818608E-02  0.1130116E+00
         25   -1    0    0    0    0  0.00000000000E+00  0.00000000000E+00  0.99999998245E-14  0.12500000000E+03  0.12500000000E+03 0.  0.
        -13    1    3    3    0    0 -0.90346251198E+01  0.34734596282E+02 -0.28070085978E+02  0.45563774216E+02  0.10566000000E+00 0. -1.
         23    2    1    0    0    0 -0.27777497864E+02  0.66703353173E+01  0.83713278038E+01  0.95231528591E+02  0.90459284475E+02 0.  0.
         13    1    3    3    0    0 -0.18742872744E+02 -0.28064260965E+02  0.36441413782E+02  0.49667754375E+02  0.10566000000E+00 0.  1.
         22    1    1    0    0    0  0.27777497864E+02 -0.66703353173E+01 -0.83713278038E+01  0.29768471409E+02  0.00000000000E+00 0.  1.
</event>
<event>
 5    1  0.1320187E-009  0.9118800E+02  0.7818608E-02  0.1130116E+00
         25   -1    0    0    0    0  0.00000000000E+00  0.00000000000E+00  0.99999998245E-14  0.12500000000E+03  0.12500000000E+03 0.  0.
        -13    1    3    3    0    0 -0.32724038743E+02  0.30473848252E+02  0.29619546564E+02  0.53636245596E+02  0.10566000000E+00 0.  1.
         23    2    1    0    0    0 -0.22043628398E+02 -0.84496603956E+01  0.16940355126E+02  0.95943263337E+02  0.91437496872E+02 0.  0.
         13    1    3    3    0    0  0.10680410345E+02 -0.38923508647E+02 -0.12679191438E+02  0.42307017741E+02  0.10566000000E+00 0. -1.
         22    1    1    0    0    0  0.22043628398E+02  0.84496603956E+01 -0.16940355126E+02  0.29056736663E+02  0.00000000000E+00 0.  1.
</event>
<event>
 5    1  0.1320187E-009  0.9118800E+02  0.7818608E-02  0.1130116E+00
         25   -1    0    0    0    0  0.00000000000E+00  0.00000000000E+00  0.99999998245E-14  0.12500000000E+03  0.12500000000E+03 0.  0.
        -13    1    3    3    0    0  0.18073688140E+02  0.80682414233E+01 -0.29557878890E+02  0.35572940434E+02  0.10566000000E+00 0. -1.
         23    2    1    0    0    0  0.30033602605E+00 -0.18847867452E+02  0.21775542299E+02  0.96198844612E+02  0.91786225291E+02 0.  0.
         13    1    3    3    0    0 -0.17773352114E+02 -0.26916108876E+02  0.51333421189E+02  0.60625904178E+02  0.10566000000E+00 0.  1.
         22    1    1    0    0    0 -0.30033602605E+00  0.18847867452E+02 -0.21775542299E+02  0.28801155388E+02  0.00000000000E+00 0.  1.
</event>
<event>
 5    1  0.1320187E-009  0.9118800E+02  0.7818608E-02  0.1130116E+00
         25   -1    0    0    0    0  0.00000000000E+00  0.00000000000E+00  0.99999998245E-14  0.12500000000E+03  0.12500000000E+03 0.  0.
        -13    1    3    3    0    0 -0.18606075301E+01  0.17585613900E+02  0.35634600367E+02  0.39781296912E+02  0.10566000000E+00 0.  1.
         23    2    1    0    0    0  0.23107612993E+02 -0.19084018734E+02  0.29474383105E+01  0.94886067313E+02  0.89980646965E+02 0.  0.
         13    1    3    3    0    0  0.24968220523E+02 -0.36669632634E+02 -0.32687162057E+02  0.55104770401E+02  0.10566000000E+00 0. -1.
         22    1    1    0    0    0 -0.23107612993E+02  0.19084018734E+02 -0.29474383105E+01  0.30113932687E+02  0.00000000000E+00 0. -1.
</event>
<event>
 5    1  0.1320187E-009  0.9118800E+02  0.7818608E-02  0.1130116E+00
         25   -1    0    0    0    0  0.00000000000E+00  0.00000000000E+00  0.99999998245E-14  0.12500000000E+03  0.12500000000E+03 0.  0.
        -13    1    3    3    0    0 -0.20522815155E+02 -0.70750105394E+01 -0.23710973484E+02  0.32147521578E+02  0.10566000000E+00 0. -1.
         23    2    1    0    0    0  0.17467520354E+02  0.82291620036E+01  0.23458320722E+02  0.94617008283E+02  0.89606093938E+02 0.  0.
         13    1    3    3    0    0  0.37990335508E+02  0.15304172543E+02  0.47169294206E+02  0.62469486705E+02  0.10566000000E+00 0.  1.
         22    1    1    0    0    0 -0.17467520354E+02 -0.82291620036E+01 -0.23458320722E+02  0.30382991717E+02  0.00000000000E+00 0.  1.
</event>
<event>
 5    1  0.1320187E-009  0.9118800E+02  0.7818608E-02  0.1130116E+00
         25   -1    0    0    0    0  0.00000000000E+00  0.00000000000E+00  0.99999998245E-14  0.12500000000E+03  0.12500000000E+03 0.  0.
        -13    1    3    3    0    0 -0.38996669813E+00 -0.49096335754E+02  0.25324132686E+02  0.55244231543E+02  0.10566000000E+00 0.  1.
         23    2    1    0    0    0 -0.10900729603E+01 -0.93883177425E+01  0.28391327715E+02  0.95076827399E+02  0.90245259430E+02 0.  0.
         13    1    3    3    0    0 -0.70010626216E+00  0.39708018012E+02  0.30671950297E+01  0.39832595855E+02  0.10566000000E+00 0. -1.
         22    1    1    0    0    0  0.10900729603E+01  0.93883177425E+01 -0.28391327715E+02  0.29923172601E+02  0.00000000000E+00 0. -1.
</event>
<event>
 5    1  0.1320187E-009  0.9118800E+02  0.7818608E-02  0.1130116E+00
         25   -1    0    0    0    0  0.00000000000E+00  0.00000000000E+00  0.99999998245E-14  0.12500000000E+03  0.12500000000E+03 0.  0.
        -13    1    3    3    0    0  0.97386479737E+00 -0.57464244707E+02  0.27687377112E+01  0.57539246649E+02  0.10566000000E+00 0.  1.
         23    2    1    0    0    0  0.17641471743E+02 -0.21903871137E+02  0.70159071984E+00  0.96866508827E+02  0.92691030886E+02 0.  0.
         13    1    3    3    0    0  0.16667606946E+02  0.35560373570E+02 -0.20671469914E+01  0.39327262178E+02  0.10566000000E+00 0. -1.
         22    1    1    0    0    0 -0.17641471743E+02  0.21903871137E+02 -0.70159071984E+00  0.28133491173E+02  0.00000000000E+00 0.  1.
</event>
<event>
 5    1  0.1320187E-009  0.9118800E+02  0.7818608E-02  0.1130116E+00
         25   -1    0    0    0    0  0.00000000000E+00  0.00000000000E+00  0.99999998245E-14  0.12500000000E+03  0.12500000000E+03 0.  0.
        -13    1    3    3    0    0  0.48733276672E+02  0.17061926931E+02 -0.33819789263E+02  0.61723827778E+02  0.10566000000E+00 0.  1.
         23    2    1    0    0    0  0.17459079327E+02  0.12994280254E+02 -0.16366169220E+02  0.97769093566E+02  0.93900337547E+02 0.  0.
         13    1    3    3    0    0 -0.31274197345E+02 -0.40676466765E+01  0.17453620043E+02  0.36045265787E+02  0.10566000000E+00 0. -1.
         22    1    1    0    0    0 -0.17459079327E+02 -0.12994280254E+02  0.16366169220E+02  0.27230906434E+02  0.00000000000E+00 0.  1.
</event>
<event>
 5    1  0.1320187E-009  0.9118800E+02  0.7818608E-02  0.1130116E+00
         25   -1    0    0    0    0  0.00000000000E+00  0.00000000000E+00  0.99999998245E-14  0.12500000000E+03  0.12500000000E+03 0.  0.
        -13    1    3    3    0    0 -0.31989841638E+01  0.50606213022E+02 -0.59700625119E+01  0.51057566594E+02  0.10566000000E+00 0. -1.
         23    2    1    0    0    0 -0.25246968566E+02  0.13067054989E+02 -0.10199133012E+02  0.94797687803E+02  0.89857787368E+02 0.  0.
         13    1    3    3    0    0 -0.22047984402E+02 -0.37539158033E+02 -0.42290705004E+01  0.43740121209E+02  0.10566000000E+00 0.  1.
         22    1    1    0    0    0  0.25246968566E+02 -0.13067054989E+02  0.10199133012E+02  0.30202312197E+02  0.00000000000E+00 0. -1.
</event>
<event>
 5    1  0.1320187E-009  0.9118800E+02  0.7818608E-02  0.1130116E+00
         25   -1    0    0    0    0  0.00000000000E+00  0.00000000000E+00  0.99999998245E-14  0.12500000000E+03  0.12500000000E+03 0.  0.
        -13    1    3    3    0    0 -0.21064982562E+02  0.26350657270E+02  0.61711598751E+01  0.34295553752E+02  0.10566000000E+00 0. -1.
         23    2    1    0    0    0  0.16560786327E+02 -0.63392380008E+01 -0.25933629031E+02  0.93583464594E+02  0.88152516405E+02 0.  0.
         13    1    3    3    0    0  0.37625768890E+02 -0.32689895270E+02 -0.32104788906E+02  0.59287910842E+02  0.10566000000E+00 0.  1.
         22    1    1    0    0    0 -0.16560786327E+02  0.63392380008E+01  0.25933629031E+02  0.31416535406E+02  0.00000000000E+00 0.  1.
</event>
<event>
 5    1  0.1320187E-009  0.9118800E+02  0.7818608E-02  0.1130116E+00
         25   -1    0    0    0    0  0.00000000000E+00  0.00000000000E+00  0.99999998245E-14  0.12500000000E+03  0.12500000000E+03 0.  0.
        -13    1    3    3    0    0  0.91160966242E+01  0.34349396988E+02  0.88064419853E+01  0.36613506737E+02  0.10566000000E+00 0.  1.
         23    2    1    0    0    0 -0.17814975117E+02 -0.33949679399E+01 -0.25084496261E+02  0.94046307193E+02  0.88806400660E+02 0.  0.
         13    1    3    3    0    0 -0.26931071741E+02 -0.37744364928E+02 -0.33890938246E+02  0.57432800456E+02  0.10566000000E+00 0. -1.
         22    1    1    0    0    0  0.17814975117E+02  0.33949679399E+01  0.25084496261E+02  0.30953692807E+02  0.00000000000E+00 0. -1.
</event>
<event>
 5    1  0.1320187E-009  0.9118800E+02  0.7818608E-02  0.1130116E+00
         25   -1    0    0    0    0  0.00000000000E+00  0.00000000000E+00  0.99999998245E-14  0.12500000000E+03  0.12500000000E+03 0.  0.
        -13    1    3    3    0    0 -0.23254623483E+02 -0.27654040450E+02  0.17074835252E+02  0.39963541252E+02  0.10566000000E+00 0.  1.
         23    2    1    0    0    0  0.34669925832E+01 -0.89576369143E+01 -0.27885441731E+02  0.95506659104E+02  0.90838674451E+02 0.  0.
         13    1    3    3    0    0  0.26721616066E+02  0.18696403535E+02 -0.44960276983E+02  0.55543117852E+02  0.10566000000E+00 0. -1.
         22    1    1    0    0    0 -0.34669925832E+01  0.89576369143E+01  0.27885441731E+02  0.29493340896E+02  0.00000000000E+00 0. -1.
</event>
<event>
 5    1  0.1320187E-009  0.9118800E+02  0.7818608E-02  0.1130116E+00
         25   -1    0    0    0    0  0.00000000000E+00  0.00000000000E+00  0.99999998245E-14  0.12500000000E+03  0.12500000000E+03 0.  0.
        -13    1    3    3    0    0  0.21959036763E+02 -0.31844381587E+02 -0.12585737794E+02  0.40677707581E+02  0.10566000000E+00 0.  1.
         23    2    1    0    0    0  0.16539762736E+02  0.18042795730E+02  0.13301708224E+02  0.97142475508E+02  0.93062446116E+02 0.  0.
         13    1    3    3    0    0 -0.54192740265E+01  0.49887177317E+02  0.25887446018E+02  0.56464767927E+02  0.10566000000E+00 0. -1.
         22    1    1    0    0    0 -0.16539762736E+02 -0.18042795730E+02 -0.13301708224E+02  0.27857524492E+02  0.00000000000E+00 0. -1.
</event>
<event>
 5    1  0.1320187E-009  0.9118800E+02  0.7818608E-02  0.1130116E+00
         25   -1    0    0    0    0  0.00000000000E+00  0.00000000000E+00  0.99999998245E-14  0.12500000000E+03  0.12500000000E+03 0.  0.
        -13    1    3    3    0    0  0.21444684962E+02  0.75990175300E+01  0.32933015328E+02  0.40027668470E+02  0.10566000000E+00 0. -1.
         23    2    1    0    0    0 -0.27990637493E+02  0.61401264013E+01  0.90545772508E+01  0.94947341071E+02  0.90065727488E+02 0.  0.
         13    1    3    3    0    0 -0.49435322455E+02 -0.14588911287E+01 -0.23878438077E+02  0.54919672601E+02  0.10566000000E+00 0.  1.
         22    1    1    0    0    0  0.27990637493E+02 -0.61401264013E+01 -0.90545772508E+01  0.30052658929E+02  0.00000000000E+00 0.  1.
</event>
<event>
 5    1  0.1320187E-009  0.9118800E+02  0.7818608E-02  0.1130116E+00
         25   -1    0    0    0    0  0.00000000000E+00  0.00000000000E+00  0.99999998245E-14  0.12500000000E+03  0.12500000000E+03 0.  0.
        -13    1    3    3    0    0 -0.16937085731E+02 -0.12135787862E+02  0.47952413729E+02  0.52283719899E+02  0.10566000000E+00 0. -1.
         23    2    1    0    0    0  0.83965757978E+01 -0.24869922427E+02  0.21334037295E+02  0.91174614947E+02  0.84667902636E+02 0.  0.
         13    1    3    3    0    0  0.25333661529E+02 -0.12734134566E+02 -0.26618376434E+02  0.38890895048E+02  0.10566000000E+00 0.  1.
         22    1    1    0    0    0 -0.83965757978E+01  0.24869922427E+02 -0.21334037295E+02  0.33825385053E+02  0.00000000000E+00 0. -1.
</event>
<event>
 5    1  0.1320187E-009  0.9118800E+02  0.7818608E-02  0.1130116E+00
         25   -1    0    0    0    0  0.00000000000E+00  0.00000000000E+00  0.99999998245E-14  0.12500000000E+03  0.12500000000E+03 0.  0.
        -13    1    3    3    0    0 -0.11322234444E+02  0.37231181463E+02  0.17043754089E+01  0.38952149177E+02  0.10566000000E+00 0. -1.
         23    2    1    0    0    0  0.43657765373E+01 -0.12843122335E+02  0.25149157094E+02  0.96425782625E+02  0.92094764543E+02 0.  0.
         13    1    3    3    0    0  0.15688010982E+02 -0.50074303798E+02  0.23444781685E+02  0.57473633448E+02  0.10566000000E+00 0.  1.
         22    1    1    0    0    0 -0.43657765373E+01  0.12843122335E+02 -0.25149157094E+02  0.28574217375E+02  0.00000000000E+00 0.  1.
</event>
<event>
 5    1  0.1320187E-009  0.9118800E+02  0.7818608E-02  0.1130116E+00
         25   -1    0    0    0    0  0.00000000000E+00  0.00000000000E+00  0.99999998245E-14  0.12500000000E+03  0.12500000000E+03 0.  0.
        -13    1    3    3    0    0 -0.50787323132E+02  0.15082805735E+02  0.31167748910E+02  0.61467739148E+02  0.10566000000E+00 0. -1.
         23    2    1    0    0    0 -0.26892858917E+02  0.39832781046E+01  0.77163622406E+01  0.96739875948E+02  0.92520100449E+02 0.  0.
         13    1    3    3    0    0  0.23894464215E+02 -0.11099527630E+02 -0.23451386669E+02  0.35272136801E+02  0.10566000000E+00 0.  1.
         22    1    1    0    0    0  0.26892858917E+02 -0.39832781046E+01 -0.77163622406E+01  0.28260124052E+02  0.00000000000E+00 0. -1.
</event>
<event>
 5    1  0.1320187E-009  0.9118800E+02  0.7818608E-02  0.1130116E+00
         25   -1    0    0    0    0  0.00000000000E+00  0.00000000000E+00  0.99999998245E-14  0.12500000000E+03  0.12500000000E+03 0.  0.
        -13    1    3    3    0    0 -0.45202510769E+02 -0.39429676497E+02  0.71386278765E+01  0.60406436251E+02  0.10566000000E+00 0. -1.
         23    2    1    0    0    0 -0.21926817639E+02 -0.12990375385E+02 -0.73203101123E+01  0.98483549925E+02  0.94846652452E+02 0.  0.
         13    1    3    3    0    0  0.23275693130E+02  0.26439301112E+02 -0.14458937989E+02  0.38077113675E+02  0.10566000000E+00 0.  1.
         22    1    1    0    0    0  0.21926817639E+02  0.12990375385E+02  0.73203101123E+01  0.26516450075E+02  0.00000000000E+00 0. -1.
</event>
<event>
 5    1  0.1320187E-009  0.9118800E+02  0.7818608E-02  0.1130116E+00
         25   -1    0    0    0    0  0.00000000000E+00  0.00000000000E+00  0.99999998245E-14  0.12500000000E+03  0.12500000000E+03 0.  0.
        -13    1    3    3    0    0 -0.36087268954E+01  0.43928474209E+02  0.23070638307E+02  0.49749364540E+02  0.10566000000E+00 0. -1.
         23    2    1    0    0    0  0.20605488142E+02  0.41713184344E+00  0.13234531872E+02  0.10050687904E+03  0.97476765231E+02 0.  0.
         13    1    3    3    0    0  0.24214215037E+02 -0.43511342366E+02 -0.98361064353E+01  0.50757514500E+02  0.10566000000E+00 0.  1.
         22    1    1    0    0    0 -0.20605488142E+02 -0.41713184344E+00 -0.13234531872E+02  0.24493120961E+02  0.00000000000E+00 0. -1.
</event>
<event>
 5    1  0.1320187E-009  0.9118800E+02  0.7818608E-02  0.1130116E+00
         25   -1    0    0    0    0  0.00000000000E+00  0.00000000000E+00  0.99999998245E-14  0.12500000000E+03  0.12500000000E+03 0.  0.
        -13    1    3    3    0    0 -0.39346877347E+02 -0.23573549275E+02  0.51676874129E+00  0.45871202255E+02  0.10566000000E+00 0.  1.
         23    2    1    0    0    0  0.26288978292E+01 -0.13721016034E+02 -0.25280492742E+02  0.96116082363E+02  0.91673445395E+02 0.  0.
         13    1    3    3    0    0  0.41975775176E+02  0.98525332411E+01 -0.25797261483E+02  0.50244880107E+02  0.10566000000E+00 0. -1.
         22    1    1    0    0    0 -0.26288978292E+01  0.13721016034E+02  0.25280492742E+02  0.28883917637E+02  0.00000000000E+00 0. -1.
</event>
<event>
 5    1  0.1320187E-009  0.9118800E+02  0.7818608E-02  0.1130116E+00
         25   -1    0    0    0    0  0.00000000000E+00  0.00000000000E+00  0.99999998245E-14  0.12500000000E+03  0.12500000000E+03 0.  0.
        -13    1    3    3    0    0  0.22416553452E+02  0.23785708674E+02 -0.14779554709E+02  0.35870715176E+02  0.10566000000E+00 0. -1.
         23    2    1    0    0    0 -0.25549945766E+02 -0.11437170975E+02 -0.86778527965E+01  0.95692769873E+02  0.91094415132E+02 0.  0.
         13    1    3    3    0    0 -0.47966499217E+02 -0.35222879649E+02  0.61017019122E+01  0.59822054698E+02  0.10566000000E+00 0.  1.
         22    1    1    0    0    0  0.25549945766E+02  0.11437170975E+02  0.86778527965E+01  0.29307230127E+02  0.00000000000E+00 0.  1.
</event>
<event>
 5    1  0.1320187E-009  0.9118800E+02  0.7818608E-02  0.1130116E+00
         25   -1    0    0    0    0  0.00000000000E+00  0.00000000000E+00  0.99999998245E-14  0.12500000000E+03  0.12500000000E+03 0.  0.
        -13    1    3    3    0    0  0.29078163111E+02  0.24261075903E+00 -0.17489218164E+02  0.33933498875E+02  0.10566000000E+00 0. -1.
         23    2    1    0    0    0 -0.14117727293E+02 -0.17506689208E+02  0.20832162954E+02  0.94344276158E+02  0.89224823001E+02 0.  0.
         13    1    3    3    0    0 -0.43195890404E+02 -0.17749299967E+02  0.38321381118E+02  0.60410777283E+02  0.10566000000E+00 0.  1.
         22    1    1    0    0    0  0.14117727293E+02  0.17506689208E+02 -0.20832162954E+02  0.30655723842E+02  0.00000000000E+00 0.  1.
</event>
<event>
 5    1  0.1320187E-009  0.9118800E+02  0.7818608E-02  0.1130116E+00
         25   -1    0    0    0    0  0.00000000000E+00  0.00000000000E+00  0.99999998245E-14  0.12500000000E+03  0.12500000000E+03 0.  0.
        -13    1    3    3    0    0 -0.10979980843E+02  0.39309262893E+02  0.26443304861E+02  0.48631652907E+02  0.10566000000E+00 0. -1.
         23    2    1    0    0    0 -0.96771911224E+01  0.25739856850E+02 -0.15982553588E+02  0.93193864147E+02  0.87598322112E+02 0.  0.
         13    1    3    3    0    0  0.13027897210E+01 -0.13569406042E+02 -0.42425858449E+02  0.44562211240E+02  0.10566000000E+00 0.  1.
         22    1    1    0    0    0  0.96771911224E+01 -0.25739856850E+02  0.15982553588E+02  0.31806135853E+02  0.00000000000E+00 0. -1.
</event>
<event>
 5    1  0.1320187E-009  0.9118800E+02  0.7818608E-02  0.1130116E+00
         25   -1    0    0    0    0  0.00000000000E+00  0.00000000000E+00  0.99999998245E-14  0.12500000000E+03  0.12500000000E+03 0.  0.
        -13    1    3    3    0    0  0.33324395639E+02 -0.40844885338E+02  0.22919760351E+02  0.57481706495E+02  0.10566000000E+00 0.  1.
         23    2    1    0    0    0  0.10309460688E+01 -0.23087599987E+02  0.19975660359E+02  0.94452870351E+02  0.89376829144E+02 0.  0.
         13    1    3    3    0    0 -0.32293449570E+02  0.17757285351E+02 -0.29440999914E+01  0.36971163857E+02  0.10566000000E+00 0. -1.
         22    1    1    0    0    0 -0.10309460688E+01  0.23087599987E+02 -0.19975660359E+02  0.30547129649E+02  0.00000000000E+00 0.  1.
</event>
<event>
 5    1  0.1320187E-009  0.9118800E+02  0.7818608E-02  0.1130116E+00
         25   -1    0    0    0    0  0.00000000000E+00  0.00000000000E+00  0.99999998245E-14  0.12500000000E+03  0.12500000000E+03 0.  0.
        -13    1    3    3    0    0 -0.37585132442E+02 -0.34546705301E+02 -0.19276825594E+02  0.54568527531E+02  0.10566000000E+00 0.  1.
         23    2    1    0    0    0  0.17851653768E+01 -0.14994397407E+02 -0.21665315196E+02  0.98591579912E+02  0.94988920291E+02 0.  0.
         13    1    3    3    0    0  0.39370297819E+02  0.19552307894E+02 -0.23884896016E+01  0.44023052381E+02  0.10566000000E+00 0. -1.
         22    1    1    0    0    0 -0.17851653768E+01  0.14994397407E+02  0.21665315196E+02  0.26408420088E+02  0.00000000000E+00 0. -1.
</event>
<event>
 5    1  0.1320187E-009  0.9118800E+02  0.7818608E-02  0.1130116E+00
         25   -1    0    0    0    0  0.00000000000E+00  0.00000000000E+00  0.99999998245E-14  0.12500000000E+03  0.12500000000E+03 0.  0.
        -13    1    3    3    0    0 -0.43376994845E+02 -0.11616567849E+02 -0.13039720918E+02  0.46760601108E+02  0.10566000000E+00 0.  1.
         23    2    1    0    0    0 -0.87678660500E+01 -0.19232898185E+02  0.20500984087E+02  0.95553944301E+02  0.90903718710E+02 0.  0.
         13    1    3    3    0    0  0.34609128795E+02 -0.76163303357E+01  0.33540705005E+02  0.48793343193E+02  0.10566000000E+00 0. -1.
         22    1    1    0    0    0  0.87678660500E+01  0.19232898185E+02 -0.20500984087E+02  0.29446055699E+02  0.00000000000E+00 0. -1.
</event>
<event>
 5    1  0.1320187E-009  0.9118800E+02  0.7818608E-02  0.1130116E+00
         25   -1    0    0    0    0  0.00000000000E+00  0.00000000000E+00  0.99999998245E-14  0.12500000000E+03  0.12500000000E+03 0.  0.
        -13    1    3    3    0    0  0.32980388071E+02  0.46338086809E+02  0.75462277115E+00  0.56881498802E+02  0.10566000000E+00 0. -1.
         23    2    1    0    0    0 -0.32944542753E+01  0.24210758427E+02  0.63892438030E+01  0.99744571100E+02  0.96494262912E+02 0.  0.
         13    1    3    3    0    0 -0.36274842346E+02 -0.22127328382E+02  0.56346210319E+01  0.42863072298E+02  0.10566000000E+00 0.  1.
         22    1    1    0    0    0  0.32944542753E+01 -0.24210758427E+02 -0.63892438030E+01  0.25255428900E+02  0.00000000000E+00 0.  1.
</event>
<event>
 5    1  0.1320187E-009  0.9118800E+02  0.7818608E-02  0.1130116E+00
         25   -1    0    0    0    0  0.00000000000E+00  0.00000000000E+00  0.99999998245E-14  0.12500000000E+03  0.12500000000E+03 0.  0.
        -13    1    3    3    0    0  0.44285162935E+02  0.10367109379E+02 -0.41260847588E+02  0.61409456281E+02  0.10566000000E+00 0.  1.
         23    2    1    0    0    0  0.25106594649E+02  0.55274925431E+01 -0.12247847287E+02  0.96523623267E+02  0.92227467800E+02 0.  0.
         13    1    3    3    0    0 -0.19178568286E+02 -0.48396168362E+01  0.29013000301E+02  0.35114166986E+02  0.10566000000E+00 0. -1.
         22    1    1    0    0    0 -0.25106594649E+02 -0.55274925431E+01  0.12247847287E+02  0.28476376733E+02  0.00000000000E+00 0.  1.
</event>
<event>
 5    1  0.1320187E-009  0.9118800E+02  0.7818608E-02  0.1130116E+00
         25   -1    0    0    0    0  0.00000000000E+00  0.00000000000E+00  0.99999998245E-14  0.12500000000E+03  0.12500000000E+03 0.  0.
        -13    1    3    3    0    0  0.53659234564E+02 -0.15053627339E+02  0.74377054640E+01  0.56225045813E+02  0.10566000000E+00 0. -1.
         23    2    1    0    0    0  0.13606048628E+02 -0.21492240217E+02  0.11671929238E+02  0.97012951550E+02  0.92888308669E+02 0.  0.
         13    1    3    3    0    0 -0.40053185936E+02 -0.64386128782E+01  0.42342237737E+01  0.40787905737E+02  0.10566000000E+00 0.  1.
         22    1    1    0    0    0 -0.13606048628E+02  0.21492240217E+02 -0.11671929238E+02  0.27987048450E+02  0.00000000000E+00 0. -1.
</event>
<event>
 5    1  0.1320187E-009  0.9118800E+02  0.7818608E-02  0.1130116E+00
         25   -1    0    0    0    0  0.00000000000E+00  0.00000000000E+00  0.99999998245E-14  0.12500000000E+03  0.12500000000E+03 0.  0.
        -13    1    3    3    0    0  0.28397237766E+02 -0.19882123396E+01 -0.19772467362E+02  0.34660030737E+02  0.10566000000E+00 0.  1.
         23    2    1    0    0    0 -0.26376986047E+02  0.12087013577E+02  0.34197968880E+01  0.95784656413E+02  0.91220414948E+02 0.  0.
         13    1    3    3    0    0 -0.54774223813E+02  0.14075225917E+02  0.23192264250E+02  0.61124625676E+02  0.10566000000E+00 0. -1.
         22    1    1    0    0    0  0.26376986047E+02 -0.12087013577E+02 -0.34197968880E+01  0.29215343587E+02  0.00000000000E+00 0. -1.
</event>
<event>
 5    1  0.1320187E-009  0.9118800E+02  0.7818608E-02  0.1130116E+00
         25   -1    0    0    0    0  0.00000000000E+00  0.00000000000E+00  0.99999998245E-14  0.12500000000E+03  0.12500000000E+03 0.  0.
        -13    1    3    3    0    0 -0.25854346300E+02  0.32966641133E+02  0.14562007508E+02  0.44354367056E+02  0.10566000000E+00 0.  1.
         23    2    1    0    0    0 -0.20591989873E+02 -0.15634255518E+02  0.18211294396E+02  0.93375464650E+02  0.87857078045E+02 0.  0.
         13    1    3    3    0    0  0.52623564277E+01 -0.48600896652E+02  0.36492868878E+01  0.49021097594E+02  0.10566000000E+00 0. -1.
         22    1    1    0    0    0  0.20591989873E+02  0.15634255518E+02 -0.18211294396E+02  0.31624535350E+02  0.00000000000E+00 0.  1.
</event>
<event>
 5    1  0.1320187E-009  0.9118800E+02  0.7818608E-02  0.1130116E+00
         25   -1    0    0    0    0  0.00000000000E+00  0.00000000000E+00  0.99999998245E-14  0.12500000000E+03  0.12500000000E+03 0.  0.
        -13    1    3    3    0    0  0.83790945444E+01 -0.22650749544E+00 -0.51953875883E+02  0.52625819845E+02  0.10566000000E+00 0.  1.
         23    2    1    0    0    0  0.28466322762E+02 -0.38618104245E+01 -0.38044389002E+02  0.77327988863E+02  0.60885114894E+02 0.  0.
         13    1    3    3    0    0  0.20087228217E+02 -0.36353029291E+01  0.13909486881E+02  0.24702169018E+02  0.10566000000E+00 0. -1.
         22    1    1    0    0    0 -0.28466322762E+02  0.38618104245E+01  0.38044389002E+02  0.47672011137E+02  0.00000000000E+00 0.  1.
</event>
<event>
 5    1  0.1320187E-009  0.9118800E+02  0.7818608E-02  0.1130116E+00
         25   -1    0    0    0    0  0.00000000000E+00  0.00000000000E+00  0.99999998245E-14  0.12500000000E+03  0.12500000000E+03 0.  0.
        -13    1    3    3    0    0 -0.87317378394E+01 -0.15331536108E+02 -0.30616979332E+02  0.35337088626E+02  0.10566000000E+00 0.  1.
         23    2    1    0    0    0  0.46142381748E+01 -0.65902549512E+01  0.27886120978E+02  0.95976588804E+02  0.91483043243E+02 0.  0.
         13    1    3    3    0    0  0.13345976014E+02  0.87412811571E+01  0.58503100309E+02  0.60639500178E+02  0.10566000000E+00 0. -1.
         22    1    1    0    0    0 -0.46142381748E+01  0.65902549512E+01 -0.27886120978E+02  0.29023411196E+02  0.00000000000E+00 0. -1.
</event>
<event>
 5    1  0.1320187E-009  0.9118800E+02  0.7818608E-02  0.1130116E+00
         25   -1    0    0    0    0  0.00000000000E+00  0.00000000000E+00  0.99999998245E-14  0.12500000000E+03  0.12500000000E+03 0.  0.
        -13    1    3    3    0    0 -0.51497552846E+02  0.16508298118E+02 -0.99087201882E-01  0.54079042504E+02  0.10566000000E+00 0.  1.
         23    2    1    0    0    0 -0.27286057403E+02  0.84712581839E+01 -0.22969702022E+02  0.88340780767E+02  0.80375339450E+02 0.  0.
         13    1    3    3    0    0  0.24211495443E+02 -0.80370399339E+01 -0.22870614820E+02  0.34261738262E+02  0.10566000000E+00 0. -1.
         22    1    1    0    0    0  0.27286057403E+02 -0.84712581839E+01  0.22969702022E+02  0.36659219233E+02  0.00000000000E+00 0.  1.
</event>
<event>
 5    1  0.1320187E-009  0.9118800E+02  0.7818608E-02  0.1130116E+00
         25   -1    0    0    0    0  0.00000000000E+00  0.00000000000E+00  0.99999998245E-14  0.12500000000E+03  0.12500000000E+03 0.  0.
        -13    1    3    3    0    0 -0.17996526257E+02  0.34610628129E+02 -0.10231966448E+02  0.40329577710E+02  0.10566000000E+00 0.  1.
         23    2    1    0    0    0  0.23795242924E+01 -0.12881971777E+02 -0.27271440723E+02  0.94745433207E+02  0.89785067253E+02 0.  0.
         13    1    3    3    0    0  0.20376050550E+02 -0.47492599906E+02 -0.17039474276E+02  0.54415855497E+02  0.10566000000E+00 0. -1.
         22    1    1    0    0    0 -0.23795242924E+01  0.12881971777E+02  0.27271440723E+02  0.30254566793E+02  0.00000000000E+00 0. -1.
</event>
<event>
 5    1  0.1320187E-009  0.9118800E+02  0.7818608E-02  0.1130116E+00
         25   -1    0    0    0    0  0.00000000000E+00  0.00000000000E+00  0.99999998245E-14  0.12500000000E+03  0.12500000000E+03 0.  0.
        -13    1    3    3    0    0 -0.53679600123E+02  0.31774942448E+02 -0.16744820634E+00  0.62379368704E+02  0.10566000000E+00 0. -1.
         23    2    1    0    0    0 -0.26996106051E+02  0.17594843038E+02  0.22795405494E+01  0.92695750302E+02  0.86884622203E+02 0.  0.
         13    1    3    3    0    0  0.26683494072E+02 -0.14180099409E+02  0.24469887557E+01  0.30316381598E+02  0.10566000000E+00 0.  1.
         22    1    1    0    0    0  0.26996106051E+02 -0.17594843038E+02 -0.22795405494E+01  0.32304249698E+02  0.00000000000E+00 0. -1.
</event>
<event>
 5    1  0.1320187E-009  0.9118800E+02  0.7818608E-02  0.1130116E+00
         25   -1    0    0    0    0  0.00000000000E+00  0.00000000000E+00  0.99999998245E-14  0.12500000000E+03  0.12500000000E+03 0.  0.
        -13    1    3    3    0    0 -0.90558333420E+01 -0.39495579410E+02  0.17668979787E+02  0.44205349464E+02  0.10566000000E+00 0. -1.
         23    2    1    0    0    0 -0.27499341612E+02  0.63601431975E+01 -0.23402369503E+00  0.96773771458E+02  0.92565883913E+02 0.  0.
         13    1    3    3    0    0 -0.18443508270E+02  0.45855722608E+02 -0.17903003482E+02  0.52568421994E+02  0.10566000000E+00 0.  1.
         22    1    1    0    0    0  0.27499341612E+02 -0.63601431975E+01  0.23402369503E+00  0.28226228542E+02  0.00000000000E+00 0.  1.
</event>
<event>
 5    1  0.1320187E-009  0.9118800E+02  0.7818608E-02  0.1130116E+00
         25   -1    0    0    0    0  0.00000000000E+00  0.00000000000E+00  0.99999998245E-14  0.12500000000E+03  0.12500000000E+03 0.  0.
        -13    1    3    3    0    0  0.32639695500E+02  0.75215113015E+01  0.63087594974E+01  0.34084226044E+02  0.10566000000E+00 0.  1.
         23    2    1    0    0    0 -0.19425186940E+02  0.44901580867E+01 -0.23521332017E+02  0.94165725772E+02  0.88974330248E+02 0.  0.
         13    1    3    3    0    0 -0.52064882440E+02 -0.30313532148E+01 -0.29830091514E+02  0.60081499728E+02  0.10566000000E+00 0. -1.
         22    1    1    0    0    0  0.19425186940E+02 -0.44901580867E+01  0.23521332017E+02  0.30834274228E+02  0.00000000000E+00 0. -1.
</event>
<event>
 5    1  0.1320187E-009  0.9118800E+02  0.7818608E-02  0.1130116E+00
         25   -1    0    0    0    0  0.00000000000E+00  0.00000000000E+00  0.99999998245E-14  0.12500000000E+03  0.12500000000E+03 0.  0.
        -13    1    3    3    0    0 -0.56986163353E+01  0.12368424392E+01  0.31459902311E+02  0.31995947006E+02  0.10566000000E+00 0.  1.
         23    2    1    0    0    0  0.33141020344E+02 -0.10460442305E+01 -0.11452687230E+02  0.89920298138E+02  0.82795377494E+02 0.  0.
         13    1    3    3    0    0  0.38839636679E+02 -0.22828866697E+01 -0.42912589541E+02  0.57924351132E+02  0.10566000000E+00 0. -1.
         22    1    1    0    0    0 -0.33141020344E+02  0.10460442305E+01  0.11452687230E+02  0.35079701862E+02  0.00000000000E+00 0. -1.
</event>
<event>
 5    1  0.1320187E-009  0.9118800E+02  0.7818608E-02  0.1130116E+00
         25   -1    0    0    0    0  0.00000000000E+00  0.00000000000E+00  0.99999998245E-14  0.12500000000E+03  0.12500000000E+03 0.  0.
        -13    1    3    3    0    0 -0.40087095776E+02  0.91811909025E+01  0.30521831276E+02  0.51213893258E+02  0.10566000000E+00 0.  1.
         23    2    1    0    0    0 -0.22579842992E+02 -0.19846449765E+02  0.31700409655E+01  0.94771205158E+02  0.89820940151E+02 0.  0.
         13    1    3    3    0    0  0.17507252784E+02 -0.29027640668E+02 -0.27351790311E+02  0.43557311901E+02  0.10566000000E+00 0. -1.
         22    1    1    0    0    0  0.22579842992E+02  0.19846449765E+02 -0.31700409655E+01  0.30228794842E+02  0.00000000000E+00 0.  1.
</event>
<event>
 5    1  0.1320187E-009  0.9118800E+02  0.7818608E-02  0.1130116E+00
         25   -1    0    0    0    0  0.00000000000E+00  0.00000000000E+00  0.99999998245E-14  0.12500000000E+03  0.12500000000E+03 0.  0.
        -13    1    3    3    0    0 -0.25609237722E+02 -0.21527146798E+02  0.31759869596E+02  0.46129725630E+02  0.10566000000E+00 0.  1.
         23    2    1    0    0    0 -0.16681454014E+02 -0.13770897541E+02 -0.17741148101E+02  0.97023994870E+02  0.92903168501E+02 0.  0.
         13    1    3    3    0    0  0.89277837080E+01  0.77562492566E+01 -0.49501017696E+02  0.50894269240E+02  0.10566000000E+00 0. -1.
         22    1    1    0    0    0  0.16681454014E+02  0.13770897541E+02  0.17741148101E+02  0.27976005130E+02  0.00000000000E+00 0. -1.
</event>
<event>
 5    1  0.1320187E-009  0.9118800E+02  0.7818608E-02  0.1130116E+00
         25   -1    0    0    0    0  0.00000000000E+00  0.00000000000E+00  0.99999998245E-14  0.12500000000E+03  0.12500000000E+03 0.  0.
        -13    1    3    3    0    0 -0.28140387074E+02 -0.52720459599E+01  0.25275381049E+02  0.38190730609E+02  0.10566000000E+00 0.  1.
         23    2    1    0    0    0  0.76458248200E+00  0.87711778352E+01 -0.25355643495E+02  0.98159232425E+02  0.94418261508E+02 0.  0.
         13    1    3    3    0    0  0.28904969556E+02  0.14043223795E+02 -0.50631024544E+02  0.59968501815E+02  0.10566000000E+00 0. -1.
         22    1    1    0    0    0 -0.76458248200E+00 -0.87711778352E+01  0.25355643495E+02  0.26840767575E+02  0.00000000000E+00 0. -1.
</event>
<event>
 5    1  0.1320187E-009  0.9118800E+02  0.7818608E-02  0.1130116E+00
         25   -1    0    0    0    0  0.00000000000E+00  0.00000000000E+00  0.99999998245E-14  0.12500000000E+03  0.12500000000E+03 0.  0.
        -13    1    3    3    0    0  0.12341499152E+01  0.11115916905E+01  0.43495946601E+02  0.43527776153E+02  0.10566000000E+00 0.  1.
         23    2    1    0    0    0  0.83573403424E+01  0.30589774616E+02  0.44334537580E+01  0.92980709550E+02  0.87293627417E+02 0.  0.
         13    1    3    3    0    0  0.71231904271E+01  0.29478182926E+02 -0.39062492843E+02  0.49452933397E+02  0.10566000000E+00 0. -1.
         22    1    1    0    0    0 -0.83573403424E+01 -0.30589774616E+02 -0.44334537580E+01  0.32019290450E+02  0.00000000000E+00 0. -1.
</event>
<event>
 5    1  0.1320187E-009  0.9118800E+02  0.7818608E-02  0.1130116E+00
         25   -1    0    0    0    0  0.00000000000E+00  0.00000000000E+00  0.99999998245E-14  0.12500000000E+03  0.12500000000E+03 0.  0.
        -13    1    3    3    0    0 -0.39622342388E+02  0.36271063262E+02  0.23213495391E+02  0.58518352495E+02  0.10566000000E+00 0.  1.
         23    2    1    0    0    0 -0.27817940250E+02  0.66500994861E+01  0.30716085220E+01  0.96233762814E+02  0.91833766685E+02 0.  0.
         13    1    3    3    0    0  0.11804402138E+02 -0.29620963775E+02 -0.20141886869E+02  0.37715410319E+02  0.10566000000E+00 0. -1.
         22    1    1    0    0    0  0.27817940250E+02 -0.66500994861E+01 -0.30716085220E+01  0.28766237186E+02  0.00000000000E+00 0.  1.
</event>
<event>
 5    1  0.1320187E-009  0.9118800E+02  0.7818608E-02  0.1130116E+00
         25   -1    0    0    0    0  0.00000000000E+00  0.00000000000E+00  0.99999998245E-14  0.12500000000E+03  0.12500000000E+03 0.  0.
        -13    1    3    3    0    0  0.11804230143E+02 -0.54268320327E+02  0.19302257261E+02  0.58796077588E+02  0.10566000000E+00 0.  1.
         23    2    1    0    0    0  0.70113332324E+01 -0.19638855203E+02  0.23003957344E+02  0.93951240268E+02  0.88672487655E+02 0.  0.
         13    1    3    3    0    0 -0.47928969103E+01  0.34629465123E+02  0.37017000832E+01  0.35155162680E+02  0.10566000000E+00 0. -1.
         22    1    1    0    0    0 -0.70113332324E+01  0.19638855203E+02 -0.23003957344E+02  0.31048759732E+02  0.00000000000E+00 0.  1.
</event>
<event>
 5    1  0.1320187E-009  0.9118800E+02  0.7818608E-02  0.1130116E+00
         25   -1    0    0    0    0  0.00000000000E+00  0.00000000000E+00  0.99999998245E-14  0.12500000000E+03  0.12500000000E+03 0.  0.
        -13    1    3    3    0    0  0.34704938695E+02  0.11248728879E+02  0.13927253745E+01  0.36509142954E+02  0.10566000000E+00 0.  1.
         23    2    1    0    0    0 -0.19297424719E+02  0.25034816502E+01 -0.21667828707E+02  0.95876936596E+02  0.91346779631E+02 0.  0.
         13    1    3    3    0    0 -0.54002363414E+02 -0.87452472287E+01 -0.23060554082E+02  0.59367793642E+02  0.10566000000E+00 0. -1.
         22    1    1    0    0    0  0.19297424719E+02 -0.25034816502E+01  0.21667828707E+02  0.29123063404E+02  0.00000000000E+00 0. -1.
</event>
<event>
 5    1  0.1320187E-009  0.9118800E+02  0.7818608E-02  0.1130116E+00
         25   -1    0    0    0    0  0.00000000000E+00  0.00000000000E+00  0.99999998245E-14  0.12500000000E+03  0.12500000000E+03 0.  0.
        -13    1    3    3    0    0 -0.10113204158E+02 -0.62306018811E+01  0.31313538920E+02  0.33490986577E+02  0.10566000000E+00 0.  1.
         23    2    1    0    0    0  0.18316522201E+02 -0.17088821356E+01 -0.23351580593E+02  0.95272713210E+02  0.90516177021E+02 0.  0.
         13    1    3    3    0    0  0.28429726359E+02  0.45217197454E+01 -0.54665119514E+02  0.61781726633E+02  0.10566000000E+00 0. -1.
         22    1    1    0    0    0 -0.18316522201E+02  0.17088821356E+01  0.23351580593E+02  0.29727286790E+02  0.00000000000E+00 0. -1.
</event>
<event>
 5    1  0.1320187E-009  0.9118800E+02  0.7818608E-02  0.1130116E+00
         25   -1    0    0    0    0  0.00000000000E+00  0.00000000000E+00  0.99999998245E-14  0.12500000000E+03  0.12500000000E+03 0.  0.
        -13    1    3    3    0    0  0.21565073120E+01  0.43252180491E+00  0.43213354202E+02  0.43269420430E+02  0.10566000000E+00 0.  1.
         23    2    1    0    0    0 -0.19198054014E+02 -0.24158387056E+02  0.45719844592E+01  0.93805513549E+02  0.88466820826E+02 0.  0.
         13    1    3    3    0    0 -0.21354561326E+02 -0.24590908861E+02 -0.38641369743E+02  0.50536093119E+02  0.10566000000E+00 0. -1.
         22    1    1    0    0    0  0.19198054014E+02  0.24158387056E+02 -0.45719844592E+01  0.31194486451E+02  0.00000000000E+00 0.  1.
</event>
<event>
 5    1  0.1320187E-009  0.9118800E+02  0.7818608E-02  0.1130116E+00
         25   -1    0    0    0    0  0.00000000000E+00  0.00000000000E+00  0.99999998245E-14  0.12500000000E+03  0.12500000000E+03 0.  0.
        -13    1    3    3    0    0 -0.34293896696E+01  0.15508765616E+02  0.32195603988E+02  0.35900565519E+02  0.10566000000E+00 0. -1.
         23    2    1    0    0    0 -0.95521141482E+01 -0.24392860857E+02 -0.12368542322E+02  0.96030440378E+02  0.91556595036E+02 0.  0.
         13    1    3    3    0    0 -0.61227244786E+01 -0.39901626473E+02 -0.44564146310E+02  0.60129874859E+02  0.10566000000E+00 0.  1.
         22    1    1    0    0    0  0.95521141482E+01  0.24392860857E+02  0.12368542322E+02  0.28969559622E+02  0.00000000000E+00 0.  1.
</event>
<event>
 5    1  0.1320187E-009  0.9118800E+02  0.7818608E-02  0.1130116E+00
         25   -1    0    0    0    0  0.00000000000E+00  0.00000000000E+00  0.99999998245E-14  0.12500000000E+03  0.12500000000E+03 0.  0.
        -13    1    3    3    0    0 -0.22278746434E+02 -0.34759080746E+02 -0.27846294864E+02  0.49799232310E+02  0.10566000000E+00 0.  1.
         23    2    1    0    0    0 -0.28786988911E+02 -0.34919488101E+01  0.49563247671E+01  0.95581475355E+02  0.90941568267E+02 0.  0.
         13    1    3    3    0    0 -0.65082424773E+01  0.31267131936E+02  0.32802619631E+02  0.45782243046E+02  0.10566000000E+00 0. -1.
         22    1    1    0    0    0  0.28786988911E+02  0.34919488101E+01 -0.49563247671E+01  0.29418524645E+02  0.00000000000E+00 0.  1.
</event>
<event>
 5    1  0.1320187E-009  0.9118800E+02  0.7818608E-02  0.1130116E+00
         25   -1    0    0    0    0  0.00000000000E+00  0.00000000000E+00  0.99999998245E-14  0.12500000000E+03  0.12500000000E+03 0.  0.
        -13    1    3    3    0    0  0.24997852486E+02 -0.23531412142E+02  0.14044420979E+01  0.34359912805E+02  0.10566000000E+00 0.  1.
         23    2    1    0    0    0 -0.21585891922E+02  0.17954748939E+02 -0.21533972993E+01  0.96840439288E+02  0.92655867715E+02 0.  0.
         13    1    3    3    0    0 -0.46583744408E+02  0.41486161082E+02 -0.35578393972E+01  0.62480526483E+02  0.10566000000E+00 0. -1.
         22    1    1    0    0    0  0.21585891922E+02 -0.17954748939E+02  0.21533972993E+01  0.28159560712E+02  0.00000000000E+00 0. -1.
</event>
<event>
 5    1  0.1320187E-009  0.9118800E+02  0.7818608E-02  0.1130116E+00
         25   -1    0    0    0    0  0.00000000000E+00  0.00000000000E+00  0.99999998245E-14  0.12500000000E+03  0.12500000000E+03 0.  0.
        -13    1    3    3    0    0 -0.27420397406E+02 -0.25333142994E+02  0.14436619695E+01  0.37359625958E+02  0.10566000000E+00 0.  1.
         23    2    1    0    0    0  0.26725114396E+02 -0.57493087295E+01 -0.96752153108E+01  0.96001791751E+02  0.91517473401E+02 0.  0.
         13    1    3    3    0    0  0.54145511802E+02  0.19583834264E+02 -0.11118877280E+02  0.58642165792E+02  0.10566000000E+00 0. -1.
         22    1    1    0    0    0 -0.26725114396E+02  0.57493087295E+01  0.96752153108E+01  0.28998208249E+02  0.00000000000E+00 0. -1.
</event>
<event>
 5    1  0.1320187E-009  0.9118800E+02  0.7818608E-02  0.1130116E+00
         25   -1    0    0    0    0  0.00000000000E+00  0.00000000000E+00  0.99999998245E-14  0.12500000000E+03  0.12500000000E+03 0.  0.
        -13    1    3    3    0    0  0.62330417223E+01 -0.11779354028E+02 -0.37930446896E+02  0.40203656006E+02  0.10566000000E+00 0.  1.
         23    2    1    0    0    0 -0.34163657621E+02 -0.35318652607E+01 -0.20770158542E+02  0.84862373511E+02  0.74770270682E+02 0.  0.
         13    1    3    3    0    0 -0.40396699344E+02  0.82474887673E+01  0.17160288354E+02  0.44658717506E+02  0.10566000000E+00 0. -1.
         22    1    1    0    0    0  0.34163657621E+02  0.35318652607E+01  0.20770158542E+02  0.40137626489E+02  0.00000000000E+00 0. -1.
</event>
<event>
 5    1  0.1320187E-009  0.9118800E+02  0.7818608E-02  0.1130116E+00
         25   -1    0    0    0    0  0.00000000000E+00  0.00000000000E+00  0.99999998245E-14  0.12500000000E+03  0.12500000000E+03 0.  0.
        -13    1    3    3    0    0 -0.26373824870E+02 -0.23817606729E+02 -0.10064441934E+02  0.36934552712E+02  0.10566000000E+00 0. -1.
         23    2    1    0    0    0  0.25939374488E+02  0.41230633552E+01 -0.11659491958E+02  0.96263358704E+02  0.91874042449E+02 0.  0.
         13    1    3    3    0    0  0.52313199358E+02  0.27940670084E+02 -0.15950500240E+01  0.59328805992E+02  0.10566000000E+00 0.  1.
         22    1    1    0    0    0 -0.25939374488E+02 -0.41230633552E+01  0.11659491958E+02  0.28736641296E+02  0.00000000000E+00 0.  1.
</event>
<event>
 5    1  0.1320187E-009  0.9118800E+02  0.7818608E-02  0.1130116E+00
         25   -1    0    0    0    0  0.00000000000E+00  0.00000000000E+00  0.99999998245E-14  0.12500000000E+03  0.12500000000E+03 0.  0.
        -13    1    3    3    0    0 -0.14267876035E+02 -0.19104389299E+02 -0.56689805719E+02  0.61500367589E+02  0.10566000000E+00 0. -1.
         23    2    1    0    0    0 -0.74911230247E+01 -0.15565701016E+02 -0.21970138221E+02  0.97051924113E+02  0.92940739336E+02 0.  0.
         13    1    3    3    0    0  0.67767530107E+01  0.35386882825E+01  0.34719667498E+02  0.35551556525E+02  0.10566000000E+00 0.  1.
         22    1    1    0    0    0  0.74911230247E+01  0.15565701016E+02  0.21970138221E+02  0.27948075887E+02  0.00000000000E+00 0. -1.
</event>
<event>
 5    1  0.1320187E-009  0.9118800E+02  0.7818608E-02  0.1130116E+00
         25   -1    0    0    0    0  0.00000000000E+00  0.00000000000E+00  0.99999998245E-14  0.12500000000E+03  0.12500000000E+03 0.  0.
        -13    1    3    3    0    0 -0.38053328494E+02 -0.35398294909E+01 -0.24334517579E-01  0.38217770193E+02  0.10566000000E+00 0.  1.
         23    2    1    0    0    0  0.95106676553E+01  0.27044263883E+02 -0.77789939527E+01  0.95295492680E+02  0.90547629289E+02 0.  0.
         13    1    3    3    0    0  0.47563996150E+02  0.30584093374E+02 -0.77546594351E+01  0.57077722486E+02  0.10566000000E+00 0. -1.
         22    1    1    0    0    0 -0.95106676553E+01 -0.27044263883E+02  0.77789939527E+01  0.29704507320E+02  0.00000000000E+00 0. -1.
</event>
<event>
 5    1  0.1320187E-009  0.9118800E+02  0.7818608E-02  0.1130116E+00
         25   -1    0    0    0    0  0.00000000000E+00  0.00000000000E+00  0.99999998245E-14  0.12500000000E+03  0.12500000000E+03 0.  0.
        -13    1    3    3    0    0  0.16181491953E+02 -0.29991238856E+02  0.15695192916E+02  0.37518866383E+02  0.10566000000E+00 0. -1.
         23    2    1    0    0    0 -0.11422610173E+02  0.21860211942E+02  0.14736652077E+02  0.96268243984E+02  0.91880688918E+02 0.  0.
         13    1    3    3    0    0 -0.27604102126E+02  0.51851450798E+02 -0.95854083877E+00  0.58749377602E+02  0.10566000000E+00 0.  1.
         22    1    1    0    0    0  0.11422610173E+02 -0.21860211942E+02 -0.14736652077E+02  0.28731756016E+02  0.00000000000E+00 0.  1.
</event>
<event>
 5    1  0.1320187E-009  0.9118800E+02  0.7818608E-02  0.1130116E+00
         25   -1    0    0    0    0  0.00000000000E+00  0.00000000000E+00  0.99999998245E-14  0.12500000000E+03  0.12500000000E+03 0.  0.
        -13    1    3    3    0    0 -0.13300721745E+01  0.41369222778E+02  0.95773623069E+01  0.42484334972E+02  0.10566000000E+00 0. -1.
         23    2    1    0    0    0  0.28577677090E+02 -0.14836542158E+01  0.98300780962E+01  0.94742516743E+02  0.89781006820E+02 0.  0.
         13    1    3    3    0    0  0.29907749265E+02 -0.42852876993E+02  0.25271578934E+00  0.52258181771E+02  0.10566000000E+00 0.  1.
         22    1    1    0    0    0 -0.28577677090E+02  0.14836542158E+01 -0.98300780962E+01  0.30257483257E+02  0.00000000000E+00 0.  1.
</event>
<event>
 5    1  0.1320187E-009  0.9118800E+02  0.7818608E-02  0.1130116E+00
         25   -1    0    0    0    0  0.00000000000E+00  0.00000000000E+00  0.99999998245E-14  0.12500000000E+03  0.12500000000E+03 0.  0.
        -13    1    3    3    0    0  0.48099283235E+02  0.23545332473E+02 -0.19011176093E+02  0.56827455595E+02  0.10566000000E+00 0. -1.
         23    2    1    0    0    0  0.24305352057E+02 -0.79607707163E+01 -0.37744047248E+01  0.99147144451E+02  0.95717219520E+02 0.  0.
         13    1    3    3    0    0 -0.23793931178E+02 -0.31506103189E+02  0.15236771368E+02  0.42319688855E+02  0.10566000000E+00 0.  1.
         22    1    1    0    0    0 -0.24305352057E+02  0.79607707163E+01  0.37744047248E+01  0.25852855549E+02  0.00000000000E+00 0. -1.
</event>
<event>
 5    1  0.1320187E-009  0.9118800E+02  0.7818608E-02  0.1130116E+00
         25   -1    0    0    0    0  0.00000000000E+00  0.00000000000E+00  0.99999998245E-14  0.12500000000E+03  0.12500000000E+03 0.  0.
        -13    1    3    3    0    0 -0.52474065862E+01  0.67530155140E+00 -0.34802850386E+02  0.35202853110E+02  0.10566000000E+00 0.  1.
         23    2    1    0    0    0 -0.94954626781E+01 -0.13531163419E+02  0.24006393851E+02  0.95852733565E+02  0.91313653914E+02 0.  0.
         13    1    3    3    0    0 -0.42480560919E+01 -0.14206464970E+02  0.58809244236E+02  0.60649880455E+02  0.10566000000E+00 0. -1.
         22    1    1    0    0    0  0.94954626781E+01  0.13531163419E+02 -0.24006393851E+02  0.29147266435E+02  0.00000000000E+00 0. -1.
</event>
<event>
 5    1  0.1320187E-009  0.9118800E+02  0.7818608E-02  0.1130116E+00
         25   -1    0    0    0    0  0.00000000000E+00  0.00000000000E+00  0.99999998245E-14  0.12500000000E+03  0.12500000000E+03 0.  0.
        -13    1    3    3    0    0 -0.22862115308E+02 -0.27165291263E+02 -0.43000045051E+02  0.55764185677E+02  0.10566000000E+00 0.  1.
         23    2    1    0    0    0 -0.19857474620E+01 -0.27803856296E+02 -0.89244351973E+01  0.95731532983E+02  0.91147590455E+02 0.  0.
         13    1    3    3    0    0  0.20876367846E+02 -0.63856503324E+00  0.34075609854E+02  0.39967347306E+02  0.10566000000E+00 0. -1.
         22    1    1    0    0    0  0.19857474620E+01  0.27803856296E+02  0.89244351973E+01  0.29268467017E+02  0.00000000000E+00 0.  1.
</event>
<event>
 5    1  0.1320187E-009  0.9118800E+02  0.7818608E-02  0.1130116E+00
         25   -1    0    0    0    0  0.00000000000E+00  0.00000000000E+00  0.99999998245E-14  0.12500000000E+03  0.12500000000E+03 0.  0.
        -13    1    3    3    0    0 -0.76799144682E+01 -0.33354917952E+02 -0.65107997315E+01  0.34841545818E+02  0.10566000000E+00 0.  1.
         23    2    1    0    0    0  0.15667897490E+02  0.20428930142E+02  0.12366596438E+02  0.96438541599E+02  0.92112080640E+02 0.  0.
         13    1    3    3    0    0  0.23347811958E+02  0.53783848094E+02  0.18877396170E+02  0.61596995781E+02  0.10566000000E+00 0. -1.
         22    1    1    0    0    0 -0.15667897490E+02 -0.20428930142E+02 -0.12366596438E+02  0.28561458401E+02  0.00000000000E+00 0. -1.
</event>
<event>
 5    1  0.1320187E-009  0.9118800E+02  0.7818608E-02  0.1130116E+00
         25   -1    0    0    0    0  0.00000000000E+00  0.00000000000E+00  0.99999998245E-14  0.12500000000E+03  0.12500000000E+03 0.  0.
        -13    1    3    3    0    0  0.47262594522E+02  0.23039110308E+02  0.58929577106E+01  0.52908331663E+02  0.10566000000E+00 0.  1.
         23    2    1    0    0    0  0.71568629942E+01  0.22202267549E+02 -0.14113924192E+02  0.97735293356E+02  0.93855331970E+02 0.  0.
         13    1    3    3    0    0 -0.40105731528E+02 -0.83684275828E+00 -0.20006881903E+02  0.44826961694E+02  0.10566000000E+00 0. -1.
         22    1    1    0    0    0 -0.71568629942E+01 -0.22202267549E+02  0.14113924192E+02  0.27264706644E+02  0.00000000000E+00 0.  1.
</event>
<event>
 5    1  0.1320187E-009  0.9118800E+02  0.7818608E-02  0.1130116E+00
         25   -1    0    0    0    0  0.00000000000E+00  0.00000000000E+00  0.99999998245E-14  0.12500000000E+03  0.12500000000E+03 0.  0.
        -13    1    3    3    0    0 -0.46856485320E+02 -0.17915303486E+02 -0.10757142146E+02  0.51305122422E+02  0.10566000000E+00 0.  1.
         23    2    1    0    0    0 -0.25232109600E+02 -0.65425551846E+01  0.21107706008E+02  0.91458985761E+02  0.85086699550E+02 0.  0.
         13    1    3    3    0    0  0.21624375720E+02  0.11372748301E+02  0.31864848154E+02  0.40153863340E+02  0.10566000000E+00 0. -1.
         22    1    1    0    0    0  0.25232109600E+02  0.65425551846E+01 -0.21107706008E+02  0.33541014239E+02  0.00000000000E+00 0.  1.
</event>
<event>
 5    1  0.1320187E-009  0.9118800E+02  0.7818608E-02  0.1130116E+00
         25   -1    0    0    0    0  0.00000000000E+00  0.00000000000E+00  0.99999998245E-14  0.12500000000E+03  0.12500000000E+03 0.  0.
        -13    1    3    3    0    0  0.24951929629E+02  0.28922928564E+02 -0.32331719406E+02  0.50044838222E+02  0.10566000000E+00 0.  1.
         23    2    1    0    0    0 -0.14826841526E+02  0.22951635363E+02 -0.11356884159E+02  0.95409602685E+02  0.90705020099E+02 0.  0.
         13    1    3    3    0    0 -0.39778771155E+02 -0.59712932012E+01  0.20974835247E+02  0.45364764463E+02  0.10566000000E+00 0. -1.
         22    1    1    0    0    0  0.14826841526E+02 -0.22951635363E+02  0.11356884159E+02  0.29590397315E+02  0.00000000000E+00 0. -1.
</event>
<event>
 5    1  0.1320187E-009  0.9118800E+02  0.7818608E-02  0.1130116E+00
         25   -1    0    0    0    0  0.00000000000E+00  0.00000000000E+00  0.99999998245E-14  0.12500000000E+03  0.12500000000E+03 0.  0.
        -13    1    3    3    0    0  0.54441992022E+02  0.11593549361E+02 -0.29182002840E+01  0.55739285419E+02  0.10566000000E+00 0. -1.
         23    2    1    0    0    0  0.25695057212E+02 -0.13984067171E+02  0.57599097865E+01  0.95184456059E+02  0.90394214498E+02 0.  0.
         13    1    3    3    0    0 -0.28746934810E+02 -0.25577616532E+02  0.86781100705E+01  0.39445170640E+02  0.10566000000E+00 0.  1.
         22    1    1    0    0    0 -0.25695057212E+02  0.13984067171E+02 -0.57599097865E+01  0.29815543941E+02  0.00000000000E+00 0. -1.
</event>
<event>
 5    1  0.1320187E-009  0.9118800E+02  0.7818608E-02  0.1130116E+00
         25   -1    0    0    0    0  0.00000000000E+00  0.00000000000E+00  0.99999998245E-14  0.12500000000E+03  0.12500000000E+03 0.  0.
        -13    1    3    3    0    0 -0.21128532808E+02 -0.29480241726E+02 -0.15820109270E+01  0.36304455284E+02  0.10566000000E+00 0.  1.
         23    2    1    0    0    0 -0.73405992227E+01  0.27276091313E+02  0.83389121548E+01  0.95548225687E+02  0.90895854810E+02 0.  0.
         13    1    3    3    0    0  0.13787933585E+02  0.56756333040E+02  0.99209230818E+01  0.59243770402E+02  0.10566000000E+00 0. -1.
         22    1    1    0    0    0  0.73405992227E+01 -0.27276091313E+02 -0.83389121548E+01  0.29451774313E+02  0.00000000000E+00 0. -1.
</event>
<event>
 5    1  0.1320187E-009  0.9118800E+02  0.7818608E-02  0.1130116E+00
         25   -1    0    0    0    0  0.00000000000E+00  0.00000000000E+00  0.99999998245E-14  0.12500000000E+03  0.12500000000E+03 0.  0.
        -13    1    3    3    0    0 -0.11418669598E+02 -0.37453181966E+02  0.78720766317E+01  0.39938798296E+02  0.10566000000E+00 0.  1.
         23    2    1    0    0    0  0.18272293324E+02 -0.10614800700E+02 -0.25380904291E+02  0.91973631749E+02  0.85839431133E+02 0.  0.
         13    1    3    3    0    0  0.29690962922E+02  0.26838381266E+02 -0.33252980923E+02  0.52034833453E+02  0.10566000000E+00 0. -1.
         22    1    1    0    0    0 -0.18272293324E+02  0.10614800700E+02  0.25380904291E+02  0.33026368251E+02  0.00000000000E+00 0. -1.
</event>
<event>
 5    1  0.1320187E-009  0.9118800E+02  0.7818608E-02  0.1130116E+00
         25   -1    0    0    0    0  0.00000000000E+00  0.00000000000E+00  0.99999998245E-14  0.12500000000E+03  0.12500000000E+03 0.  0.
        -13    1    3    3    0    0  0.16601028759E+02  0.59464423642E+01  0.44675963220E+02  0.48030273644E+02  0.10566000000E+00 0. -1.
         23    2    1    0    0    0  0.11105223337E+02 -0.24906483517E+02  0.73718647112E+01  0.96751047880E+02  0.92535193144E+02 0.  0.
         13    1    3    3    0    0 -0.54958054213E+01 -0.30852925881E+02 -0.37304098509E+02  0.48720774237E+02  0.10566000000E+00 0.  1.
         22    1    1    0    0    0 -0.11105223337E+02  0.24906483517E+02 -0.73718647112E+01  0.28248952120E+02  0.00000000000E+00 0.  1.
</event>
<event>
 5    1  0.1320187E-009  0.9118800E+02  0.7818608E-02  0.1130116E+00
         25   -1    0    0    0    0  0.00000000000E+00  0.00000000000E+00  0.99999998245E-14  0.12500000000E+03  0.12500000000E+03 0.  0.
        -13    1    3    3    0    0 -0.22299641868E+02  0.18653122323E+02 -0.20243704299E+02  0.35426426967E+02  0.10566000000E+00 0. -1.
         23    2    1    0    0    0  0.24747997711E+02  0.46441276332E+01  0.14847741751E+02  0.95768394719E+02  0.91198128707E+02 0.  0.
         13    1    3    3    0    0  0.47047639580E+02 -0.14008994690E+02  0.35091446050E+02  0.60341967752E+02  0.10566000000E+00 0.  1.
         22    1    1    0    0    0 -0.24747997711E+02 -0.46441276332E+01 -0.14847741751E+02  0.29231605281E+02  0.00000000000E+00 0.  1.
</event>
<event>
 5    1  0.1320187E-009  0.9118800E+02  0.7818608E-02  0.1130116E+00
         25   -1    0    0    0    0  0.00000000000E+00  0.00000000000E+00  0.99999998245E-14  0.12500000000E+03  0.12500000000E+03 0.  0.
        -13    1    3    3    0    0  0.62202415361E+01 -0.39370806582E+02 -0.79393629360E+01  0.40642298946E+02  0.10566000000E+00 0.  1.
         23    2    1    0    0    0 -0.23460135651E+02  0.82512683556E+01 -0.12916676262E+02  0.96976761074E+02  0.92839594293E+02 0.  0.
         13    1    3    3    0    0 -0.29680377187E+02  0.47622074938E+02 -0.49773133258E+01  0.56334462129E+02  0.10566000000E+00 0. -1.
         22    1    1    0    0    0  0.23460135651E+02 -0.82512683556E+01  0.12916676262E+02  0.28023238926E+02  0.00000000000E+00 0. -1.
</event>
<event>
 5    1  0.1320187E-009  0.9118800E+02  0.7818608E-02  0.1130116E+00
         25   -1    0    0    0    0  0.00000000000E+00  0.00000000000E+00  0.99999998245E-14  0.12500000000E+03  0.12500000000E+03 0.  0.
        -13    1    3    3    0    0 -0.86670060464E+01 -0.53389560599E+02 -0.16554952293E+02  0.56565358518E+02  0.10566000000E+00 0. -1.
         23    2    1    0    0    0  0.97561642983E+00 -0.16110088393E+02 -0.24285878157E+02  0.95840256289E+02  0.91296572073E+02 0.  0.
         13    1    3    3    0    0  0.96426224762E+01  0.37279472206E+02 -0.77309258644E+01  0.39274897771E+02  0.10566000000E+00 0.  1.
         22    1    1    0    0    0 -0.97561642983E+00  0.16110088393E+02  0.24285878157E+02  0.29159743711E+02  0.00000000000E+00 0. -1.
</event>
<event>
 5    1  0.1320187E-009  0.9118800E+02  0.7818608E-02  0.1130116E+00
         25   -1    0    0    0    0  0.00000000000E+00  0.00000000000E+00  0.99999998245E-14  0.12500000000E+03  0.12500000000E+03 0.  0.
        -13    1    3    3    0    0 -0.22683173115E+02  0.17532143033E+02 -0.16508555540E+02  0.33082411520E+02  0.10566000000E+00 0.  1.
         23    2    1    0    0    0  0.94348092511E+01 -0.28380838456E+02  0.76943372906E+01  0.94118121116E+02  0.88907425331E+02 0.  0.
         13    1    3    3    0    0  0.32117982367E+02 -0.45912981489E+02  0.24202892831E+02  0.61035709596E+02  0.10566000000E+00 0. -1.
         22    1    1    0    0    0 -0.94348092511E+01  0.28380838456E+02 -0.76943372906E+01  0.30881878884E+02  0.00000000000E+00 0. -1.
</event>
<event>
 5    1  0.1320187E-009  0.9118800E+02  0.7818608E-02  0.1130116E+00
         25   -1    0    0    0    0  0.00000000000E+00  0.00000000000E+00  0.99999998245E-14  0.12500000000E+03  0.12500000000E+03 0.  0.
        -13    1    3    3    0    0 -0.20717009395E+02 -0.48271414230E+01  0.34646055463E+02  0.40655332931E+02  0.10566000000E+00 0. -1.
         23    2    1    0    0    0 -0.37263791899E+02  0.16419001025E+02  0.32796584753E+00  0.84277999276E+02  0.73786853972E+02 0.  0.
         13    1    3    3    0    0 -0.16546782504E+02  0.21246142448E+02 -0.34318089615E+02  0.43622666345E+02  0.10566000000E+00 0.  1.
         22    1    1    0    0    0  0.37263791899E+02 -0.16419001025E+02 -0.32796584753E+00  0.40722000724E+02  0.00000000000E+00 0.  1.
</event>
<event>
 5    1  0.1320187E-009  0.9118800E+02  0.7818608E-02  0.1130116E+00
         25   -1    0    0    0    0  0.00000000000E+00  0.00000000000E+00  0.99999998245E-14  0.12500000000E+03  0.12500000000E+03 0.  0.
        -13    1    3    3    0    0  0.36363027117E+02 -0.40551653429E+01 -0.28225487387E+02  0.46210425332E+02  0.10566000000E+00 0. -1.
         23    2    1    0    0    0 -0.18048512409E+02  0.21132581907E+01 -0.11610491911E+02  0.10343571975E+03  0.10116288814E+03 0.  0.
         13    1    3    3    0    0 -0.54411539526E+02  0.61684235336E+01  0.16614995476E+02  0.57225294417E+02  0.10566000000E+00 0.  1.
         22    1    1    0    0    0  0.18048512409E+02 -0.21132581907E+01  0.11610491911E+02  0.21564280251E+02  0.00000000000E+00 0.  1.
</event>
<event>
 5    1  0.1320187E-009  0.9118800E+02  0.7818608E-02  0.1130116E+00
         25   -1    0    0    0    0  0.00000000000E+00  0.00000000000E+00  0.99999998245E-14  0.12500000000E+03  0.12500000000E+03 0.  0.
        -13    1    3    3    0    0  0.20647420593E+02  0.18251528781E+02  0.19721532436E+02  0.33887819134E+02  0.10566000000E+00 0. -1.
         23    2    1    0    0    0 -0.25873836141E+02 -0.43312957692E+01 -0.13643845921E+02  0.95430251079E+02  0.90733471056E+02 0.  0.
         13    1    3    3    0    0 -0.46521256734E+02 -0.22582824550E+02 -0.33365378357E+02  0.61542431945E+02  0.10566000000E+00 0.  1.
         22    1    1    0    0    0  0.25873836141E+02  0.43312957692E+01  0.13643845921E+02  0.29569748921E+02  0.00000000000E+00 0.  1.
</event>
<event>
 5    1  0.1320187E-009  0.9118800E+02  0.7818608E-02  0.1130116E+00
         25   -1    0    0    0    0  0.00000000000E+00  0.00000000000E+00  0.99999998245E-14  0.12500000000E+03  0.12500000000E+03 0.  0.
        -13    1    3    3    0    0  0.53308976486E+02  0.10344936053E+02 -0.88597088820E+01  0.55021543794E+02  0.10566000000E+00 0. -1.
         23    2    1    0    0    0  0.18460258148E+02 -0.79047515129E+01 -0.20756394401E+02  0.96119312060E+02  0.91677849096E+02 0.  0.
         13    1    3    3    0    0 -0.34848718338E+02 -0.18249687566E+02 -0.11896685519E+02  0.41097768266E+02  0.10566000000E+00 0.  1.
         22    1    1    0    0    0 -0.18460258148E+02  0.79047515129E+01  0.20756394401E+02  0.28880687940E+02  0.00000000000E+00 0. -1.
</event>
<event>
 5    1  0.1320187E-009  0.9118800E+02  0.7818608E-02  0.1130116E+00
         25   -1    0    0    0    0  0.00000000000E+00  0.00000000000E+00  0.99999998245E-14  0.12500000000E+03  0.12500000000E+03 0.  0.
        -13    1    3    3    0    0 -0.99703669791E+01 -0.71297603736E+01  0.36886593330E+02  0.38869957965E+02  0.10566000000E+00 0.  1.
         23    2    1    0    0    0  0.60230295811E+01  0.27749886131E+02 -0.55332700059E+01  0.96069909392E+02  0.91610465276E+02 0.  0.
         13    1    3    3    0    0  0.15993396560E+02  0.34879646505E+02 -0.42419863336E+02  0.57199951427E+02  0.10566000000E+00 0. -1.
         22    1    1    0    0    0 -0.60230295811E+01 -0.27749886131E+02  0.55332700059E+01  0.28930090608E+02  0.00000000000E+00 0.  1.
</event>
<event>
 5    1  0.1320187E-009  0.9118800E+02  0.7818608E-02  0.1130116E+00
         25   -1    0    0    0    0  0.00000000000E+00  0.00000000000E+00  0.99999998245E-14  0.12500000000E+03  0.12500000000E+03 0.  0.
        -13    1    3    3    0    0  0.30626593918E+02  0.40000941649E+02  0.16509168405E+02  0.53015350543E+02  0.10566000000E+00 0. -1.
         23    2    1    0    0    0 -0.68308096110E+01  0.28451450988E+02 -0.47921494533E+00  0.95736120042E+02  0.91153880940E+02 0.  0.
         13    1    3    3    0    0 -0.37457403529E+02 -0.11549490661E+02 -0.16988383350E+02  0.42720769498E+02  0.10566000000E+00 0.  1.
         22    1    1    0    0    0  0.68308096110E+01 -0.28451450988E+02  0.47921494533E+00  0.29263879958E+02  0.00000000000E+00 0. -1.
</event>
<event>
 5    1  0.1320187E-009  0.9118800E+02  0.7818608E-02  0.1130116E+00
         25   -1    0    0    0    0  0.00000000000E+00  0.00000000000E+00  0.99999998245E-14  0.12500000000E+03  0.12500000000E+03 0.  0.
        -13    1    3    3    0    0  0.21597823980E+02 -0.27339466602E+02 -0.85172851878E+01  0.35867363240E+02  0.10566000000E+00 0.  1.
         23    2    1    0    0    0 -0.27527062958E+02  0.25600763013E+01  0.89019408526E+01  0.95956278876E+02  0.91455288087E+02 0.  0.
         13    1    3    3    0    0 -0.49124886938E+02  0.29899542903E+02  0.17419226040E+02  0.60088915637E+02  0.10566000000E+00 0. -1.
         22    1    1    0    0    0  0.27527062958E+02 -0.25600763013E+01 -0.89019408526E+01  0.29043721124E+02  0.00000000000E+00 0. -1.
</event>
<event>
 5    1  0.1320187E-009  0.9118800E+02  0.7818608E-02  0.1130116E+00
         25   -1    0    0    0    0  0.00000000000E+00  0.00000000000E+00  0.99999998245E-14  0.12500000000E+03  0.12500000000E+03 0.  0.
        -13    1    3    3    0    0  0.17097591591E+01  0.13272874599E+02  0.37969246325E+02  0.40258754415E+02  0.10566000000E+00 0. -1.
         23    2    1    0    0    0 -0.50023831247E+01 -0.29641759229E+02  0.56188900205E+01  0.94418475313E+02  0.89328712228E+02 0.  0.
         13    1    3    3    0    0 -0.67121422838E+01 -0.42914633828E+02 -0.32350356305E+02  0.54159720898E+02  0.10566000000E+00 0.  1.
         22    1    1    0    0    0  0.50023831247E+01  0.29641759229E+02 -0.56188900205E+01  0.30581524687E+02  0.00000000000E+00 0.  1.
</event>
<event>
 5    1  0.1320187E-009  0.9118800E+02  0.7818608E-02  0.1130116E+00
         25   -1    0    0    0    0  0.00000000000E+00  0.00000000000E+00  0.99999998245E-14  0.12500000000E+03  0.12500000000E+03 0.  0.
        -13    1    3    3    0    0  0.65460963126E+01 -0.36313135856E+02  0.21876438635E+02  0.42896211301E+02  0.10566000000E+00 0.  1.
         23    2    1    0    0    0 -0.28091127905E+02 -0.24937841235E+01 -0.17108831768E+01  0.96746548044E+02  0.92529114396E+02 0.  0.
         13    1    3    3    0    0 -0.34637224217E+02  0.33819351732E+02 -0.23587321811E+02  0.53850336743E+02  0.10566000000E+00 0. -1.
         22    1    1    0    0    0  0.28091127905E+02  0.24937841235E+01  0.17108831768E+01  0.28253451956E+02  0.00000000000E+00 0.  1.
</event>
<event>
 5    1  0.1320187E-009  0.9118800E+02  0.7818608E-02  0.1130116E+00
         25   -1    0    0    0    0  0.00000000000E+00  0.00000000000E+00  0.99999998245E-14  0.12500000000E+03  0.12500000000E+03 0.  0.
        -13    1    3    3    0    0  0.18880715810E+02 -0.66395418480E+01 -0.31460088470E+02  0.37286904887E+02  0.10566000000E+00 0. -1.
         23    2    1    0    0    0 -0.27975045975E+02  0.93521395185E+01 -0.85833888744E+00  0.95490637816E+02  0.90816625427E+02 0.  0.
         13    1    3    3    0    0 -0.46855761785E+02  0.15991681366E+02  0.30601749583E+02  0.58203732929E+02  0.10566000000E+00 0.  1.
         22    1    1    0    0    0  0.27975045975E+02 -0.93521395185E+01  0.85833888744E+00  0.29509362184E+02  0.00000000000E+00 0.  1.
</event>
<event>
 5    1  0.1320187E-009  0.9118800E+02  0.7818608E-02  0.1130116E+00
         25   -1    0    0    0    0  0.00000000000E+00  0.00000000000E+00  0.99999998245E-14  0.12500000000E+03  0.12500000000E+03 0.  0.
        -13    1    3    3    0    0  0.27810130786E+01  0.23308978667E+02 -0.38473669313E+02  0.45069689534E+02  0.10566000000E+00 0.  1.
         23    2    1    0    0    0  0.59911811197E+01  0.28952742287E+01  0.18321554266E+02  0.10550753441E+03  0.10369128991E+03 0.  0.
         13    1    3    3    0    0  0.32101680411E+01 -0.20413704439E+02  0.56795223579E+02  0.60437844876E+02  0.10566000000E+00 0. -1.
         22    1    1    0    0    0 -0.59911811197E+01 -0.28952742287E+01 -0.18321554266E+02  0.19492465590E+02  0.00000000000E+00 0. -1.
</event>
<event>
 5    1  0.1320187E-009  0.9118800E+02  0.7818608E-02  0.1130116E+00
         25   -1    0    0    0    0  0.00000000000E+00  0.00000000000E+00  0.99999998245E-14  0.12500000000E+03  0.12500000000E+03 0.  0.
        -13    1    3    3    0    0  0.52299665280E+01  0.25478426121E+02 -0.14507490452E+02  0.29782229445E+02  0.10566000000E+00 0.  1.
         23    2    1    0    0    0  0.67486524416E+01 -0.19299137093E+02  0.27185875350E+02  0.90984226882E+02  0.84386353876E+02 0.  0.
         13    1    3    3    0    0  0.15186859136E+01 -0.44777563214E+02  0.41693365802E+02  0.61201997436E+02  0.10566000000E+00 0. -1.
         22    1    1    0    0    0 -0.67486524416E+01  0.19299137093E+02 -0.27185875350E+02  0.34015773118E+02  0.00000000000E+00 0. -1.
</event>
<event>
 5    1  0.1320187E-009  0.9118800E+02  0.7818608E-02  0.1130116E+00
         25   -1    0    0    0    0  0.00000000000E+00  0.00000000000E+00  0.99999998245E-14  0.12500000000E+03  0.12500000000E+03 0.  0.
        -13    1    3    3    0    0 -0.22185629209E+02  0.43330740403E+02  0.32062239355E+02  0.58290252734E+02  0.10566000000E+00 0. -1.
         23    2    1    0    0    0 -0.48245997991E+00  0.27558615346E+02  0.39408033231E+01  0.97156868383E+02  0.93081776389E+02 0.  0.
         13    1    3    3    0    0  0.21703169230E+02 -0.15772125057E+02 -0.28121436032E+02  0.38866615648E+02  0.10566000000E+00 0.  1.
         22    1    1    0    0    0  0.48245997991E+00 -0.27558615346E+02 -0.39408033231E+01  0.27843131617E+02  0.00000000000E+00 0. -1.
</event>
<event>
 5    1  0.1320187E-009  0.9118800E+02  0.7818608E-02  0.1130116E+00
         25   -1    0    0    0    0  0.00000000000E+00  0.00000000000E+00  0.99999998245E-14  0.12500000000E+03  0.12500000000E+03 0.  0.
        -13    1    3    3    0    0 -0.54739993327E+01  0.40383080861E+02 -0.83170412009E+01  0.41592574179E+02  0.10566000000E+00 0.  1.
         23    2    1    0    0    0  0.13561106556E+02  0.10492906110E+02  0.27893451321E+02  0.92257835804E+02  0.86252298236E+02 0.  0.
         13    1    3    3    0    0  0.19035105889E+02 -0.29890174750E+02  0.36210492522E+02  0.50665261625E+02  0.10566000000E+00 0. -1.
         22    1    1    0    0    0 -0.13561106556E+02 -0.10492906110E+02 -0.27893451321E+02  0.32742164196E+02  0.00000000000E+00 0. -1.
</event>
<event>
 5    1  0.1320187E-009  0.9118800E+02  0.7818608E-02  0.1130116E+00
         25   -1    0    0    0    0  0.00000000000E+00  0.00000000000E+00  0.99999998245E-14  0.12500000000E+03  0.12500000000E+03 0.  0.
        -13    1    3    3    0    0 -0.36554369792E+02 -0.18807816572E+02  0.44146447860E+02  0.60323096222E+02  0.10566000000E+00 0.  1.
         23    2    1    0    0    0 -0.11100357166E+02 -0.22129602088E+01  0.28143837245E+02  0.94665354840E+02  0.89673511752E+02 0.  0.
         13    1    3    3    0    0  0.25454012626E+02  0.16594856363E+02 -0.16002610614E+02  0.34342258618E+02  0.10566000000E+00 0. -1.
         22    1    1    0    0    0  0.11100357166E+02  0.22129602088E+01 -0.28143837245E+02  0.30334645160E+02  0.00000000000E+00 0.  1.
</event>
<event>
 5    1  0.1320187E-009  0.9118800E+02  0.7818608E-02  0.1130116E+00
         25   -1    0    0    0    0  0.00000000000E+00  0.00000000000E+00  0.99999998245E-14  0.12500000000E+03  0.12500000000E+03 0.  0.
        -13    1    3    3    0    0  0.12543986638E+02  0.13775760255E+01 -0.23846613554E+02  0.26980019617E+02  0.10566000000E+00 0.  1.
         23    2    1    0    0    0 -0.78836085049E+01  0.31983040321E+01  0.34834414530E+02  0.89141711315E+02  0.81611444227E+02 0.  0.
         13    1    3    3    0    0 -0.20427595143E+02  0.18207280066E+01  0.58681028084E+02  0.62161691699E+02  0.10566000000E+00 0. -1.
         22    1    1    0    0    0  0.78836085049E+01 -0.31983040321E+01 -0.34834414530E+02  0.35858288685E+02  0.00000000000E+00 0. -1.
</event>
<event>
 5    1  0.1320187E-009  0.9118800E+02  0.7818608E-02  0.1130116E+00
         25   -1    0    0    0    0  0.00000000000E+00  0.00000000000E+00  0.99999998245E-14  0.12500000000E+03  0.12500000000E+03 0.  0.
        -13    1    3    3    0    0  0.23156185936E+02  0.35391851618E+02 -0.24771259849E+02  0.49014473236E+02  0.10566000000E+00 0. -1.
         23    2    1    0    0    0  0.11917588954E+02 -0.10817179631E+02 -0.23411134889E+02  0.96590115480E+02  0.92317543675E+02 0.  0.
         13    1    3    3    0    0 -0.11238596982E+02 -0.46209031248E+02  0.13601249606E+01  0.47575642244E+02  0.10566000000E+00 0.  1.
         22    1    1    0    0    0 -0.11917588954E+02  0.10817179631E+02  0.23411134889E+02  0.28409884520E+02  0.00000000000E+00 0.  1.
</event>
<event>
 5    1  0.1320187E-009  0.9118800E+02  0.7818608E-02  0.1130116E+00
         25   -1    0    0    0    0  0.00000000000E+00  0.00000000000E+00  0.99999998245E-14  0.12500000000E+03  0.12500000000E+03 0.  0.
        -13    1    3    3    0    0  0.11685727395E+02 -0.30331897481E+02 -0.67831091652E+01  0.33205450810E+02  0.10566000000E+00 0.  1.
         23    2    1    0    0    0 -0.34184424376E+02 -0.10986054220E+02 -0.18873479397E+02  0.84435526852E+02  0.74053235669E+02 0.  0.
         13    1    3    3    0    0 -0.45870151770E+02  0.19345843261E+02 -0.12090370231E+02  0.51230076042E+02  0.10566000000E+00 0. -1.
         22    1    1    0    0    0  0.34184424376E+02  0.10986054220E+02  0.18873479397E+02  0.40564473148E+02  0.00000000000E+00 0. -1.
</event>
<event>
 5    1  0.1320187E-009  0.9118800E+02  0.7818608E-02  0.1130116E+00
         25   -1    0    0    0    0  0.00000000000E+00  0.00000000000E+00  0.99999998245E-14  0.12500000000E+03  0.12500000000E+03 0.  0.
        -13    1    3    3    0    0 -0.23364760433E+02 -0.27948752585E+02  0.25307294035E+02  0.44356680406E+02  0.10566000000E+00 0. -1.
         23    2    1    0    0    0  0.23604499239E+02 -0.12095394296E+02  0.45973018601E+01  0.98081490905E+02  0.94315283630E+02 0.  0.
         13    1    3    3    0    0  0.46969259673E+02  0.15853358289E+02 -0.20709992175E+02  0.53724810499E+02  0.10566000000E+00 0.  1.
         22    1    1    0    0    0 -0.23604499239E+02  0.12095394296E+02 -0.45973018601E+01  0.26918509095E+02  0.00000000000E+00 0.  1.
</event>
<event>
 5    1  0.1320187E-009  0.9118800E+02  0.7818608E-02  0.1130116E+00
         25   -1    0    0    0    0  0.00000000000E+00  0.00000000000E+00  0.99999998245E-14  0.12500000000E+03  0.12500000000E+03 0.  0.
        -13    1    3    3    0    0  0.15070670877E+02  0.24717940402E+02  0.26549780858E+02  0.39281086111E+02  0.10566000000E+00 0.  1.
         23    2    1    0    0    0  0.22868053360E+02 -0.82279815645E+01 -0.17654588513E+02  0.94961157801E+02  0.90084901344E+02 0.  0.
         13    1    3    3    0    0  0.77973824829E+01 -0.32945921967E+02 -0.44204369371E+02  0.55680071689E+02  0.10566000000E+00 0. -1.
         22    1    1    0    0    0 -0.22868053360E+02  0.82279815645E+01  0.17654588513E+02  0.30038842199E+02  0.00000000000E+00 0. -1.
</event>
<event>
 5    1  0.1320187E-009  0.9118800E+02  0.7818608E-02  0.1130116E+00
         25   -1    0    0    0    0  0.00000000000E+00  0.00000000000E+00  0.99999998245E-14  0.12500000000E+03  0.12500000000E+03 0.  0.
        -13    1    3    3    0    0 -0.10839291271E+01  0.36122961341E+02  0.22873192807E+02  0.42769584422E+02  0.10566000000E+00 0. -1.
         23    2    1    0    0    0 -0.30013467636E+02 -0.31441020560E+01  0.99211808469E+01  0.93233296572E+02  0.87654572859E+02 0.  0.
         13    1    3    3    0    0 -0.28929538509E+02 -0.39267063397E+02 -0.12952011960E+02  0.50463712150E+02  0.10566000000E+00 0.  1.
         22    1    1    0    0    0  0.30013467636E+02  0.31441020560E+01 -0.99211808469E+01  0.31766703428E+02  0.00000000000E+00 0. -1.
</event>
<event>
 5    1  0.1320187E-009  0.9118800E+02  0.7818608E-02  0.1130116E+00
         25   -1    0    0    0    0  0.00000000000E+00  0.00000000000E+00  0.99999998245E-14  0.12500000000E+03  0.12500000000E+03 0.  0.
        -13    1    3    3    0    0  0.41608913863E+02  0.21457826565E+02 -0.22652653015E+02  0.52008594352E+02  0.10566000000E+00 0. -1.
         23    2    1    0    0    0  0.89030131186E+01  0.27446360620E+02  0.55601729143E+01  0.95614937865E+02  0.90987551160E+02 0.  0.
         13    1    3    3    0    0 -0.32705900745E+02  0.59885340548E+01  0.28212825929E+02  0.43606343513E+02  0.10566000000E+00 0.  1.
         22    1    1    0    0    0 -0.89030131186E+01 -0.27446360620E+02 -0.55601729143E+01  0.29385062135E+02  0.00000000000E+00 0.  1.
</event>
<event>
 5    1  0.1320187E-009  0.9118800E+02  0.7818608E-02  0.1130116E+00
         25   -1    0    0    0    0  0.00000000000E+00  0.00000000000E+00  0.99999998245E-14  0.12500000000E+03  0.12500000000E+03 0.  0.
        -13    1    3    3    0    0 -0.48337028320E+02 -0.19813953216E+02 -0.17954667158E+02  0.55239861384E+02  0.10566000000E+00 0.  1.
         23    2    1    0    0    0 -0.13747980161E+02 -0.28360862557E+02 -0.53589827846E+01  0.93030261497E+02  0.87364554450E+02 0.  0.
         13    1    3    3    0    0  0.34589048159E+02 -0.85469093406E+01  0.12595684374E+02  0.37790400113E+02  0.10566000000E+00 0. -1.
         22    1    1    0    0    0  0.13747980161E+02  0.28360862557E+02  0.53589827846E+01  0.31969738503E+02  0.00000000000E+00 0.  1.
</event>
<event>
 5    1  0.1320187E-009  0.9118800E+02  0.7818608E-02  0.1130116E+00
         25   -1    0    0    0    0  0.00000000000E+00  0.00000000000E+00  0.99999998245E-14  0.12500000000E+03  0.12500000000E+03 0.  0.
        -13    1    3    3    0    0 -0.10322743376E+02  0.26759893445E+02 -0.38516087332E+02  0.48022401808E+02  0.10566000000E+00 0.  1.
         23    2    1    0    0    0 -0.14938154018E+02  0.22998062906E+02  0.91737169493E+01  0.96082593035E+02  0.91627770128E+02 0.  0.
         13    1    3    3    0    0 -0.46154106427E+01 -0.37618305385E+01  0.47689804281E+02  0.48060191227E+02  0.10566000000E+00 0. -1.
         22    1    1    0    0    0  0.14938154018E+02 -0.22998062906E+02 -0.91737169493E+01  0.28917406965E+02  0.00000000000E+00 0. -1.
</event>
<event>
 5    1  0.1320187E-009  0.9118800E+02  0.7818608E-02  0.1130116E+00
         25   -1    0    0    0    0  0.00000000000E+00  0.00000000000E+00  0.99999998245E-14  0.12500000000E+03  0.12500000000E+03 0.  0.
        -13    1    3    3    0    0  0.57660681597E+01 -0.32711602107E+02 -0.19608704914E+02  0.38572126294E+02  0.10566000000E+00 0.  1.
         23    2    1    0    0    0 -0.25342585789E+02  0.13276638247E+02 -0.79722697205E+01  0.95300288518E+02  0.90554249649E+02 0.  0.
         13    1    3    3    0    0 -0.31108653949E+02  0.45988240353E+02  0.11636435193E+02  0.56728162224E+02  0.10566000000E+00 0. -1.
         22    1    1    0    0    0  0.25342585789E+02 -0.13276638247E+02  0.79722697205E+01  0.29699711482E+02  0.00000000000E+00 0. -1.
</event>
<event>
 5    1  0.1320187E-009  0.9118800E+02  0.7818608E-02  0.1130116E+00
         25   -1    0    0    0    0  0.00000000000E+00  0.00000000000E+00  0.99999998245E-14  0.12500000000E+03  0.12500000000E+03 0.  0.
        -13    1    3    3    0    0  0.70727136017E+01  0.33021628124E+02 -0.52080492752E+02  0.62071250116E+02  0.10566000000E+00 0.  1.
         23    2    1    0    0    0  0.18559325081E+01  0.10792068624E+02 -0.26308921273E+02  0.96503112991E+02  0.92199665117E+02 0.  0.
         13    1    3    3    0    0 -0.52167810936E+01 -0.22229559500E+02  0.25771571478E+02  0.34431862875E+02  0.10566000000E+00 0. -1.
         22    1    1    0    0    0 -0.18559325081E+01 -0.10792068624E+02  0.26308921273E+02  0.28496887009E+02  0.00000000000E+00 0.  1.
</event>
<event>
 5    1  0.1320187E-009  0.9118800E+02  0.7818608E-02  0.1130116E+00
         25   -1    0    0    0    0  0.00000000000E+00  0.00000000000E+00  0.99999998245E-14  0.12500000000E+03  0.12500000000E+03 0.  0.
        -13    1    3    3    0    0  0.39915167640E+02 -0.24180223575E+02  0.25660883225E+02  0.53257824888E+02  0.10566000000E+00 0.  1.
         23    2    1    0    0    0  0.22838737446E+02 -0.12651866932E+02 -0.12060969756E+02  0.96239877322E+02  0.91842089101E+02 0.  0.
         13    1    3    3    0    0 -0.17076430194E+02  0.11528356643E+02 -0.37721852981E+02  0.42982052434E+02  0.10566000000E+00 0. -1.
         22    1    1    0    0    0 -0.22838737446E+02  0.12651866932E+02  0.12060969756E+02  0.28760122678E+02  0.00000000000E+00 0.  1.
</event>
<event>
 5    1  0.1320187E-009  0.9118800E+02  0.7818608E-02  0.1130116E+00
         25   -1    0    0    0    0  0.00000000000E+00  0.00000000000E+00  0.99999998245E-14  0.12500000000E+03  0.12500000000E+03 0.  0.
        -13    1    3    3    0    0  0.22416343213E+02 -0.10337620076E+02  0.28263072210E+02  0.37525607878E+02  0.10566000000E+00 0. -1.
         23    2    1    0    0    0 -0.29000157596E+02  0.24181166736E+01  0.46306860215E+01  0.95533074781E+02  0.90875016893E+02 0.  0.
         13    1    3    3    0    0 -0.51416500809E+02  0.12755736749E+02 -0.23632386188E+02  0.58007466903E+02  0.10566000000E+00 0.  1.
         22    1    1    0    0    0  0.29000157596E+02 -0.24181166736E+01 -0.46306860215E+01  0.29466925219E+02  0.00000000000E+00 0.  1.
</event>
<event>
 5    1  0.1320187E-009  0.9118800E+02  0.7818608E-02  0.1130116E+00
         25   -1    0    0    0    0  0.00000000000E+00  0.00000000000E+00  0.99999998245E-14  0.12500000000E+03  0.12500000000E+03 0.  0.
        -13    1    3    3    0    0  0.29258975523E+02 -0.12937746298E+02  0.50279926670E+02  0.59594925269E+02  0.10566000000E+00 0.  1.
         23    2    1    0    0    0  0.63434142639E+01 -0.17357494113E+02  0.22986645077E+02  0.95505808059E+02  0.90837503349E+02 0.  0.
         13    1    3    3    0    0 -0.22915561259E+02 -0.44197478151E+01 -0.27293281593E+02  0.35910882789E+02  0.10566000000E+00 0. -1.
         22    1    1    0    0    0 -0.63434142639E+01  0.17357494113E+02 -0.22986645077E+02  0.29494191941E+02  0.00000000000E+00 0.  1.
</event>
<event>
 5    1  0.1320187E-009  0.9118800E+02  0.7818608E-02  0.1130116E+00
         25   -1    0    0    0    0  0.00000000000E+00  0.00000000000E+00  0.99999998245E-14  0.12500000000E+03  0.12500000000E+03 0.  0.
        -13    1    3    3    0    0 -0.29887311405E+02  0.32862404289E+02 -0.37471268052E+02  0.58114508448E+02  0.10566000000E+00 0.  1.
         23    2    1    0    0    0 -0.24707799505E+02  0.27722689054E+01 -0.16251775872E+02  0.95296783839E+02  0.90549411704E+02 0.  0.
         13    1    3    3    0    0  0.51795118998E+01 -0.30090135384E+02  0.21219492179E+02  0.37182275392E+02  0.10566000000E+00 0. -1.
         22    1    1    0    0    0  0.24707799505E+02 -0.27722689054E+01  0.16251775872E+02  0.29703216161E+02  0.00000000000E+00 0.  1.
</event>
<event>
 5    1  0.1320187E-009  0.9118800E+02  0.7818608E-02  0.1130116E+00
         25   -1    0    0    0    0  0.00000000000E+00  0.00000000000E+00  0.99999998245E-14  0.12500000000E+03  0.12500000000E+03 0.  0.
        -13    1    3    3    0    0 -0.42985942541E+02 -0.29580266692E+01 -0.41451439045E+01  0.43286655680E+02  0.10566000000E+00 0.  1.
         23    2    1    0    0    0 -0.58982412020E+01  0.27474866143E+02  0.12738706837E+02  0.94146601958E+02  0.88947459152E+02 0.  0.
         13    1    3    3    0    0  0.37087701339E+02  0.30432892812E+02  0.16883850742E+02  0.50859946278E+02  0.10566000000E+00 0. -1.
         22    1    1    0    0    0  0.58982412020E+01 -0.27474866143E+02 -0.12738706837E+02  0.30853398042E+02  0.00000000000E+00 0. -1.
</event>
<event>
 5    1  0.1320187E-009  0.9118800E+02  0.7818608E-02  0.1130116E+00
         25   -1    0    0    0    0  0.00000000000E+00  0.00000000000E+00  0.99999998245E-14  0.12500000000E+03  0.12500000000E+03 0.  0.
        -13    1    3    3    0    0 -0.24852284538E+02  0.14634054619E+02  0.16467474501E+02  0.33211149962E+02  0.10566000000E+00 0. -1.
         23    2    1    0    0    0  0.15376861390E+02 -0.25941550139E+02 -0.53492646408E+01  0.94372781353E+02  0.89264748576E+02 0.  0.
         13    1    3    3    0    0  0.40229145928E+02 -0.40575604758E+02 -0.21816739141E+02  0.61161631391E+02  0.10566000000E+00 0.  1.
         22    1    1    0    0    0 -0.15376861390E+02  0.25941550139E+02  0.53492646408E+01  0.30627218647E+02  0.00000000000E+00 0.  1.
</event>
<event>
 5    1  0.1320187E-009  0.9118800E+02  0.7818608E-02  0.1130116E+00
         25   -1    0    0    0    0  0.00000000000E+00  0.00000000000E+00  0.99999998245E-14  0.12500000000E+03  0.12500000000E+03 0.  0.
        -13    1    3    3    0    0 -0.12011597432E+02 -0.80124159936E+01  0.34065249264E+02  0.36999049371E+02  0.10566000000E+00 0.  1.
         23    2    1    0    0    0  0.22798517975E+02  0.16674590831E+02 -0.66506308429E+01  0.95981983323E+02  0.91490413873E+02 0.  0.
         13    1    3    3    0    0  0.34810115407E+02  0.24687006825E+02 -0.40715880107E+02  0.58982933952E+02  0.10566000000E+00 0. -1.
         22    1    1    0    0    0 -0.22798517975E+02 -0.16674590831E+02  0.66506308429E+01  0.29018016677E+02  0.00000000000E+00 0. -1.
</event>
<event>
 5    1  0.1320187E-009  0.9118800E+02  0.7818608E-02  0.1130116E+00
         25   -1    0    0    0    0  0.00000000000E+00  0.00000000000E+00  0.99999998245E-14  0.12500000000E+03  0.12500000000E+03 0.  0.
        -13    1    3    3    0    0  0.33637250391E+02  0.60870598001E+01 -0.13964637894E+02  0.36926131484E+02  0.10566000000E+00 0. -1.
         23    2    1    0    0    0 -0.20476109367E+02  0.19029226977E+02  0.66582659742E+01  0.96264742216E+02  0.91875924779E+02 0.  0.
         13    1    3    3    0    0 -0.54113359758E+02  0.12942167177E+02  0.20622903868E+02  0.59338610731E+02  0.10566000000E+00 0.  1.
         22    1    1    0    0    0  0.20476109367E+02 -0.19029226977E+02 -0.66582659742E+01  0.28735257784E+02  0.00000000000E+00 0.  1.
</event>
<event>
 5    1  0.1320187E-009  0.9118800E+02  0.7818608E-02  0.1130116E+00
         25   -1    0    0    0    0  0.00000000000E+00  0.00000000000E+00  0.99999998245E-14  0.12500000000E+03  0.12500000000E+03 0.  0.
        -13    1    3    3    0    0  0.11100453984E+02  0.40176554790E+01  0.54834091321E+02  0.56090555080E+02  0.10566000000E+00 0.  1.
         23    2    1    0    0    0 -0.97881492486E+01 -0.11807577373E+02  0.23483300583E+02  0.96951966996E+02  0.92806205336E+02 0.  0.
         13    1    3    3    0    0 -0.20888603233E+02 -0.15825232852E+02 -0.31350790737E+02  0.40861411916E+02  0.10566000000E+00 0. -1.
         22    1    1    0    0    0  0.97881492486E+01  0.11807577373E+02 -0.23483300583E+02  0.28048033004E+02  0.00000000000E+00 0.  1.
</event>
<event>
 5    1  0.1320187E-009  0.9118800E+02  0.7818608E-02  0.1130116E+00
         25   -1    0    0    0    0  0.00000000000E+00  0.00000000000E+00  0.99999998245E-14  0.12500000000E+03  0.12500000000E+03 0.  0.
        -13    1    3    3    0    0  0.32209397429E+02  0.27100182891E+01  0.53004470815E+02  0.62082804160E+02  0.10566000000E+00 0.  1.
         23    2    1    0    0    0  0.17961046902E+02  0.48107613240E+01  0.22540717177E+02  0.95779689236E+02  0.91213608134E+02 0.  0.
         13    1    3    3    0    0 -0.14248350528E+02  0.21007430349E+01 -0.30463753638E+02  0.33696885076E+02  0.10566000000E+00 0. -1.
         22    1    1    0    0    0 -0.17961046902E+02 -0.48107613240E+01 -0.22540717177E+02  0.29220310764E+02  0.00000000000E+00 0.  1.
</event>
<event>
 5    1  0.1320187E-009  0.9118800E+02  0.7818608E-02  0.1130116E+00
         25   -1    0    0    0    0  0.00000000000E+00  0.00000000000E+00  0.99999998245E-14  0.12500000000E+03  0.12500000000E+03 0.  0.
        -13    1    3    3    0    0  0.17340853080E+02 -0.14484736834E+01 -0.58561097721E+02  0.61091870096E+02  0.10566000000E+00 0. -1.
         23    2    1    0    0    0 -0.37600148685E+00 -0.48706228486E+01 -0.27955373444E+02  0.96621006916E+02  0.92359361892E+02 0.  0.
         13    1    3    3    0    0 -0.17716854567E+02 -0.34221491652E+01  0.30605724277E+02  0.35529136820E+02  0.10566000000E+00 0.  1.
         22    1    1    0    0    0  0.37600148685E+00  0.48706228486E+01  0.27955373444E+02  0.28378993084E+02  0.00000000000E+00 0. -1.
</event>
<event>
 5    1  0.1320187E-009  0.9118800E+02  0.7818608E-02  0.1130116E+00
         25   -1    0    0    0    0  0.00000000000E+00  0.00000000000E+00  0.99999998245E-14  0.12500000000E+03  0.12500000000E+03 0.  0.
        -13    1    3    3    0    0  0.11930120216E+02  0.40474290513E+02 -0.29400648573E+02  0.51428642423E+02  0.10566000000E+00 0.  1.
         23    2    1    0    0    0 -0.18600929559E+02  0.23686074451E+02 -0.38445701167E+01  0.94638751298E+02  0.89636420190E+02 0.  0.
         13    1    3    3    0    0 -0.30531049775E+02 -0.16788216062E+02  0.25556078456E+02  0.43210108875E+02  0.10566000000E+00 0. -1.
         22    1    1    0    0    0  0.18600929559E+02 -0.23686074451E+02  0.38445701167E+01  0.30361248702E+02  0.00000000000E+00 0.  1.
</event>
<event>
 5    1  0.1320187E-009  0.9118800E+02  0.7818608E-02  0.1130116E+00
         25   -1    0    0    0    0  0.00000000000E+00  0.00000000000E+00  0.99999998245E-14  0.12500000000E+03  0.12500000000E+03 0.  0.
        -13    1    3    3    0    0 -0.34973779025E+02 -0.43801476323E+02 -0.82842958863E+01  0.56660173577E+02  0.10566000000E+00 0. -1.
         23    2    1    0    0    0 -0.26663716467E+02 -0.63480716842E+01 -0.11745555444E+02  0.95180377892E+02  0.90388574903E+02 0.  0.
         13    1    3    3    0    0  0.83100625579E+01  0.37453404639E+02 -0.34612595580E+01  0.38520204316E+02  0.10566000000E+00 0.  1.
         22    1    1    0    0    0  0.26663716467E+02  0.63480716842E+01  0.11745555444E+02  0.29819622108E+02  0.00000000000E+00 0. -1.
</event>
<event>
 5    1  0.1320187E-009  0.9118800E+02  0.7818608E-02  0.1130116E+00
         25   -1    0    0    0    0  0.00000000000E+00  0.00000000000E+00  0.99999998245E-14  0.12500000000E+03  0.12500000000E+03 0.  0.
        -13    1    3    3    0    0 -0.63413093598E+01  0.66555687151E+01 -0.32879674533E+02  0.34140781490E+02  0.10566000000E+00 0. -1.
         23    2    1    0    0    0  0.14035020440E+01  0.24541361101E+02  0.21771345560E+02  0.92163439429E+02  0.86115386878E+02 0.  0.
         13    1    3    3    0    0  0.77448114038E+01  0.17885792385E+02  0.54651020093E+02  0.58022657938E+02  0.10566000000E+00 0.  1.
         22    1    1    0    0    0 -0.14035020440E+01 -0.24541361101E+02 -0.21771345560E+02  0.32836560571E+02  0.00000000000E+00 0.  1.
</event>
<event>
 5    1  0.1320187E-009  0.9118800E+02  0.7818608E-02  0.1130116E+00
         25   -1    0    0    0    0  0.00000000000E+00  0.00000000000E+00  0.99999998245E-14  0.12500000000E+03  0.12500000000E+03 0.  0.
        -13    1    3    3    0    0  0.24503998781E+02 -0.10657356835E+02  0.61684930761E+01  0.27424198837E+02  0.10566000000E+00 0.  1.
         23    2    1    0    0    0 -0.31358799590E+02 -0.49361148426E+01 -0.17940960606E+02  0.88536077982E+02  0.80678494628E+02 0.  0.
         13    1    3    3    0    0 -0.55862798371E+02  0.57212419921E+01 -0.24109453682E+02  0.61111879145E+02  0.10566000000E+00 0. -1.
         22    1    1    0    0    0  0.31358799590E+02  0.49361148426E+01  0.17940960606E+02  0.36463922018E+02  0.00000000000E+00 0. -1.
</event>
<event>
 5    1  0.1320187E-009  0.9118800E+02  0.7818608E-02  0.1130116E+00
         25   -1    0    0    0    0  0.00000000000E+00  0.00000000000E+00  0.99999998245E-14  0.12500000000E+03  0.12500000000E+03 0.  0.
        -13    1    3    3    0    0 -0.23021210249E+02 -0.32204754671E+02  0.25070360903E+02  0.46857832905E+02  0.10566000000E+00 0. -1.
         23    2    1    0    0    0 -0.24920857710E+01  0.10838100935E+02  0.28238135049E+02  0.94650911144E+02  0.89653375765E+02 0.  0.
         13    1    3    3    0    0  0.20529124478E+02  0.43042855605E+02  0.31677741454E+01  0.47793078239E+02  0.10566000000E+00 0.  1.
         22    1    1    0    0    0  0.24920857710E+01 -0.10838100935E+02 -0.28238135049E+02  0.30349088856E+02  0.00000000000E+00 0.  1.
</event>
<event>
 5    1  0.1320187E-009  0.9118800E+02  0.7818608E-02  0.1130116E+00
         25   -1    0    0    0    0  0.00000000000E+00  0.00000000000E+00  0.99999998245E-14  0.12500000000E+03  0.12500000000E+03 0.  0.
        -13    1    3    3    0    0 -0.53540935356E+02 -0.15987245966E+02 -0.20271185540E+02  0.59440355985E+02  0.10566000000E+00 0. -1.
         23    2    1    0    0    0 -0.28396746311E+02  0.58145024545E+01 -0.77712880989E+01  0.94990392229E+02  0.90125457320E+02 0.  0.
         13    1    3    3    0    0  0.25144189044E+02  0.21801748421E+02  0.12499897441E+02  0.35550036244E+02  0.10566000000E+00 0.  1.
         22    1    1    0    0    0  0.28396746311E+02 -0.58145024545E+01  0.77712880989E+01  0.30009607771E+02  0.00000000000E+00 0. -1.
</event>
<event>
 5    1  0.1320187E-009  0.9118800E+02  0.7818608E-02  0.1130116E+00
         25   -1    0    0    0    0  0.00000000000E+00  0.00000000000E+00  0.99999998245E-14  0.12500000000E+03  0.12500000000E+03 0.  0.
        -13    1    3    3    0    0  0.26174236468E+02  0.18476320861E+02  0.42767889036E+02  0.53437520375E+02  0.10566000000E+00 0. -1.
         23    2    1    0    0    0 -0.50613571976E+01 -0.75039216639E+01  0.26141130559E+02  0.97336217107E+02  0.93322313928E+02 0.  0.
         13    1    3    3    0    0 -0.31235593666E+02 -0.25980242525E+02 -0.16626758477E+02  0.43898696732E+02  0.10566000000E+00 0.  1.
         22    1    1    0    0    0  0.50613571976E+01  0.75039216639E+01 -0.26141130559E+02  0.27663782893E+02  0.00000000000E+00 0.  1.
</event>
<event>
 5    1  0.1320187E-009  0.9118800E+02  0.7818608E-02  0.1130116E+00
         25   -1    0    0    0    0  0.00000000000E+00  0.00000000000E+00  0.99999998245E-14  0.12500000000E+03  0.12500000000E+03 0.  0.
        -13    1    3    3    0    0 -0.40247106776E+02 -0.13945002916E+02  0.28248693465E+01  0.42688215716E+02  0.10566000000E+00 0.  1.
         23    2    1    0    0    0 -0.59710829480E+01  0.20548274585E+02 -0.19365689541E+02  0.96139727108E+02  0.91705680179E+02 0.  0.
         13    1    3    3    0    0  0.34276023828E+02  0.34493277501E+02 -0.22190558888E+02  0.53451511392E+02  0.10566000000E+00 0. -1.
         22    1    1    0    0    0  0.59710829480E+01 -0.20548274585E+02  0.19365689541E+02  0.28860272892E+02  0.00000000000E+00 0. -1.
</event>
<event>
 5    1  0.1320187E-009  0.9118800E+02  0.7818608E-02  0.1130116E+00
         25   -1    0    0    0    0  0.00000000000E+00  0.00000000000E+00  0.99999998245E-14  0.12500000000E+03  0.12500000000E+03 0.  0.
        -13    1    3    3    0    0 -0.16225819031E+02  0.26896991855E+02  0.12480970311E+02  0.33801052617E+02  0.10566000000E+00 0.  1.
         23    2    1    0    0    0  0.79288973935E+01 -0.19531578093E+02 -0.20445985102E+02  0.95633552079E+02  0.91013120042E+02 0.  0.
         13    1    3    3    0    0  0.24154716424E+02 -0.46428569948E+02 -0.32926955413E+02  0.61832499462E+02  0.10566000000E+00 0. -1.
         22    1    1    0    0    0 -0.79288973935E+01  0.19531578093E+02  0.20445985102E+02  0.29366447921E+02  0.00000000000E+00 0. -1.
</event>
<event>
 5    1  0.1320187E-009  0.9118800E+02  0.7818608E-02  0.1130116E+00
         25   -1    0    0    0    0  0.00000000000E+00  0.00000000000E+00  0.99999998245E-14  0.12500000000E+03  0.12500000000E+03 0.  0.
        -13    1    3    3    0    0  0.15082670066E+02  0.44003682269E+02  0.13829905097E+02  0.48529253328E+02  0.10566000000E+00 0.  1.
         23    2    1    0    0    0 -0.21479371363E+02  0.14395941486E+02  0.14040213508E+02  0.95576639880E+02  0.90934921620E+02 0.  0.
         13    1    3    3    0    0 -0.36562041429E+02 -0.29607740783E+02  0.21030841012E+00  0.47047386552E+02  0.10566000000E+00 0. -1.
         22    1    1    0    0    0  0.21479371363E+02 -0.14395941486E+02 -0.14040213508E+02  0.29423360120E+02  0.00000000000E+00 0.  1.
</event>
<event>
 5    1  0.1320187E-009  0.9118800E+02  0.7818608E-02  0.1130116E+00
         25   -1    0    0    0    0  0.00000000000E+00  0.00000000000E+00  0.99999998245E-14  0.12500000000E+03  0.12500000000E+03 0.  0.
        -13    1    3    3    0    0 -0.49056932383E+02  0.37387429018E+02  0.73497421187E+01  0.62116280769E+02  0.10566000000E+00 0.  1.
         23    2    1    0    0    0 -0.23496717094E+02  0.18786482824E+02 -0.12926807988E+01  0.94888562393E+02  0.89984113033E+02 0.  0.
         13    1    3    3    0    0  0.25560215288E+02 -0.18600946194E+02 -0.86424229175E+01  0.32772281624E+02  0.10566000000E+00 0. -1.
         22    1    1    0    0    0  0.23496717094E+02 -0.18786482824E+02  0.12926807988E+01  0.30111437607E+02  0.00000000000E+00 0.  1.
</event>
<event>
 5    1  0.1320187E-009  0.9118800E+02  0.7818608E-02  0.1130116E+00
         25   -1    0    0    0    0  0.00000000000E+00  0.00000000000E+00  0.99999998245E-14  0.12500000000E+03  0.12500000000E+03 0.  0.
        -13    1    3    3    0    0  0.58232817731E+02 -0.57060677372E+01 -0.94992734245E+01  0.59277884826E+02  0.10566000000E+00 0. -1.
         23    2    1    0    0    0  0.24293102327E+02 -0.16168268783E+02 -0.76024739973E+01  0.94844314848E+02  0.89922626252E+02 0.  0.
         13    1    3    3    0    0 -0.33939715403E+02 -0.10462201046E+02  0.18967994272E+01  0.35566430022E+02  0.10566000000E+00 0.  1.
         22    1    1    0    0    0 -0.24293102327E+02  0.16168268783E+02  0.76024739973E+01  0.30155685152E+02  0.00000000000E+00 0. -1.
</event>
<event>
 5    1  0.1320187E-009  0.9118800E+02  0.7818608E-02  0.1130116E+00
         25   -1    0    0    0    0  0.00000000000E+00  0.00000000000E+00  0.99999998245E-14  0.12500000000E+03  0.12500000000E+03 0.  0.
        -13    1    3    3    0    0  0.35166410558E+02  0.46067356021E+01  0.44742099710E+02  0.57094352566E+02  0.10566000000E+00 0. -1.
         23    2    1    0    0    0  0.18460219498E+02  0.68206067405E+01 -0.43797156203E+00  0.10531517845E+03  0.10345914466E+03 0.  0.
         13    1    3    3    0    0 -0.16706191060E+02  0.22138711384E+01 -0.45180071272E+02  0.48220825888E+02  0.10566000000E+00 0.  1.
         22    1    1    0    0    0 -0.18460219498E+02 -0.68206067405E+01  0.43797156203E+00  0.19684821546E+02  0.00000000000E+00 0. -1.
</event>
<event>
 5    1  0.1320187E-009  0.9118800E+02  0.7818608E-02  0.1130116E+00
         25   -1    0    0    0    0  0.00000000000E+00  0.00000000000E+00  0.99999998245E-14  0.12500000000E+03  0.12500000000E+03 0.  0.
        -13    1    3    3    0    0 -0.31551421642E+02  0.11301750727E+02  0.12890125618E+02  0.35908053130E+02  0.10566000000E+00 0. -1.
         23    2    1    0    0    0  0.27120374651E+02  0.77395065555E+01  0.11027996839E+02  0.94717473731E+02  0.89746133247E+02 0.  0.
         13    1    3    3    0    0  0.58671796293E+02 -0.35622441715E+01 -0.18621287783E+01  0.58809420601E+02  0.10566000000E+00 0.  1.
         22    1    1    0    0    0 -0.27120374651E+02 -0.77395065555E+01 -0.11027996839E+02  0.30282526269E+02  0.00000000000E+00 0.  1.
</event>
<event>
 5    1  0.1320187E-009  0.9118800E+02  0.7818608E-02  0.1130116E+00
         25   -1    0    0    0    0  0.00000000000E+00  0.00000000000E+00  0.99999998245E-14  0.12500000000E+03  0.12500000000E+03 0.  0.
        -13    1    3    3    0    0 -0.28588393701E+02 -0.35529852687E+02 -0.40198041711E+02  0.60791121126E+02  0.10566000000E+00 0.  1.
         23    2    1    0    0    0 -0.68729234939E+01 -0.24478175956E+02 -0.17144162556E+02  0.94335028367E+02  0.89211866318E+02 0.  0.
         13    1    3    3    0    0  0.21715470207E+02  0.11051676731E+02  0.23053879155E+02  0.33543907241E+02  0.10566000000E+00 0. -1.
         22    1    1    0    0    0  0.68729234939E+01  0.24478175956E+02  0.17144162556E+02  0.30664971633E+02  0.00000000000E+00 0.  1.
</event>
<event>
 5    1  0.1320187E-009  0.9118800E+02  0.7818608E-02  0.1130116E+00
         25   -1    0    0    0    0  0.00000000000E+00  0.00000000000E+00  0.99999998245E-14  0.12500000000E+03  0.12500000000E+03 0.  0.
        -13    1    3    3    0    0 -0.14530777687E+02 -0.23747406767E+02  0.26795189401E+02  0.38640343780E+02  0.10566000000E+00 0.  1.
         23    2    1    0    0    0 -0.57194889151E+01  0.11071938408E+02 -0.22289943133E+02  0.99462930112E+02  0.96128728942E+02 0.  0.
         13    1    3    3    0    0  0.88112887719E+01  0.34819345175E+02 -0.49085132534E+02  0.60822586333E+02  0.10566000000E+00 0. -1.
         22    1    1    0    0    0  0.57194889151E+01 -0.11071938408E+02  0.22289943133E+02  0.25537069888E+02  0.00000000000E+00 0. -1.
</event>
<event>
 5    1  0.1320187E-009  0.9118800E+02  0.7818608E-02  0.1130116E+00
         25   -1    0    0    0    0  0.00000000000E+00  0.00000000000E+00  0.99999998245E-14  0.12500000000E+03  0.12500000000E+03 0.  0.
        -13    1    3    3    0    0 -0.69002649353E+01 -0.59582652239E+02  0.54468871762E+00  0.59983447332E+02  0.10566000000E+00 0. -1.
         23    2    1    0    0    0 -0.15254710096E+02 -0.24759269589E+02 -0.17292070595E+01  0.95867238927E+02  0.91333508264E+02 0.  0.
         13    1    3    3    0    0 -0.83544451607E+01  0.34823382651E+02 -0.22738957771E+01  0.35883791595E+02  0.10566000000E+00 0.  1.
         22    1    1    0    0    0  0.15254710096E+02  0.24759269589E+02  0.17292070595E+01  0.29132761073E+02  0.00000000000E+00 0. -1.
</event>
<event>
 5    1  0.1320187E-009  0.9118800E+02  0.7818608E-02  0.1130116E+00
         25   -1    0    0    0    0  0.00000000000E+00  0.00000000000E+00  0.99999998245E-14  0.12500000000E+03  0.12500000000E+03 0.  0.
        -13    1    3    3    0    0  0.30821337651E+02  0.35395081739E+02  0.13946180974E+02  0.48961962724E+02  0.10566000000E+00 0.  1.
         23    2    1    0    0    0 -0.76641045432E+01  0.23750222800E+02 -0.12500032577E+02  0.97088310765E+02  0.92989664433E+02 0.  0.
         13    1    3    3    0    0 -0.38485442195E+02 -0.11644858939E+02 -0.26446213551E+02  0.48126348042E+02  0.10566000000E+00 0. -1.
         22    1    1    0    0    0  0.76641045432E+01 -0.23750222800E+02  0.12500032577E+02  0.27911689235E+02  0.00000000000E+00 0.  1.
</event>
<event>
 5    1  0.1320187E-009  0.9118800E+02  0.7818608E-02  0.1130116E+00
         25   -1    0    0    0    0  0.00000000000E+00  0.00000000000E+00  0.99999998245E-14  0.12500000000E+03  0.12500000000E+03 0.  0.
        -13    1    3    3    0    0  0.27695486453E+02  0.20458306730E+02 -0.14295247777E+02  0.37282000445E+02  0.10566000000E+00 0.  1.
         23    2    1    0    0    0 -0.12854868629E+02 -0.21993380847E+02 -0.13878307195E+02  0.95990279920E+02  0.91501748508E+02 0.  0.
         13    1    3    3    0    0 -0.40550355082E+02 -0.42451687577E+02  0.41694058278E+00  0.58708279475E+02  0.10566000000E+00 0. -1.
         22    1    1    0    0    0  0.12854868629E+02  0.21993380847E+02  0.13878307195E+02  0.29009720080E+02  0.00000000000E+00 0. -1.
</event>
<event>
 5    1  0.1320187E-009  0.9118800E+02  0.7818608E-02  0.1130116E+00
         25   -1    0    0    0    0  0.00000000000E+00  0.00000000000E+00  0.99999998245E-14  0.12500000000E+03  0.12500000000E+03 0.  0.
        -13    1    3    3    0    0 -0.18915756338E+02  0.56290561025E+02 -0.11967416860E+02  0.60577746151E+02  0.10566000000E+00 0. -1.
         23    2    1    0    0    0 -0.82371147684E+01  0.23563027961E+02 -0.16169613402E+02  0.95259072913E+02  0.90497338239E+02 0.  0.
         13    1    3    3    0    0  0.10678641570E+02 -0.32727533063E+02 -0.42021965420E+01  0.34681326763E+02  0.10566000000E+00 0.  1.
         22    1    1    0    0    0  0.82371147684E+01 -0.23563027961E+02  0.16169613402E+02  0.29740927087E+02  0.00000000000E+00 0. -1.
</event>
<event>
 5    1  0.1320187E-009  0.9118800E+02  0.7818608E-02  0.1130116E+00
         25   -1    0    0    0    0  0.00000000000E+00  0.00000000000E+00  0.99999998245E-14  0.12500000000E+03  0.12500000000E+03 0.  0.
        -13    1    3    3    0    0 -0.22474933590E+02  0.35385538656E+02  0.37874270284E+02  0.56495402463E+02  0.10566000000E+00 0. -1.
         23    2    1    0    0    0 -0.24744874132E+02  0.14461660544E+02  0.44478596889E+01  0.95996002391E+02  0.91509565608E+02 0.  0.
         13    1    3    3    0    0 -0.22699405420E+01 -0.20923878112E+02 -0.33426410596E+02  0.39500599928E+02  0.10566000000E+00 0.  1.
         22    1    1    0    0    0  0.24744874132E+02 -0.14461660544E+02 -0.44478596889E+01  0.29003997609E+02  0.00000000000E+00 0. -1.
</event>
<event>
 5    1  0.1320187E-009  0.9118800E+02  0.7818608E-02  0.1130116E+00
         25   -1    0    0    0    0  0.00000000000E+00  0.00000000000E+00  0.99999998245E-14  0.12500000000E+03  0.12500000000E+03 0.  0.
        -13    1    3    3    0    0 -0.13032833766E+02  0.32150055491E+02  0.62419729333E+01  0.35248463997E+02  0.10566000000E+00 0. -1.
         23    2    1    0    0    0  0.48637477042E+01 -0.16823015596E+02 -0.23820580726E+02  0.95434987543E+02  0.90739996065E+02 0.  0.
         13    1    3    3    0    0  0.17896581470E+02 -0.48973071087E+02 -0.30062553659E+02  0.60186523546E+02  0.10566000000E+00 0.  1.
         22    1    1    0    0    0 -0.48637477042E+01  0.16823015596E+02  0.23820580726E+02  0.29565012457E+02  0.00000000000E+00 0.  1.
</event>
<event>
 5    1  0.1320187E-009  0.9118800E+02  0.7818608E-02  0.1130116E+00
         25   -1    0    0    0    0  0.00000000000E+00  0.00000000000E+00  0.99999998245E-14  0.12500000000E+03  0.12500000000E+03 0.  0.
        -13    1    3    3    0    0 -0.28592257513E+02 -0.58702813394E+01  0.28050225080E+02  0.40482140306E+02  0.10566000000E+00 0.  1.
         23    2    1    0    0    0  0.18240825131E+02 -0.22476596680E+02  0.37012650231E+01  0.95817394521E+02  0.91265265190E+02 0.  0.
         13    1    3    3    0    0  0.46833082643E+02 -0.16606315341E+02 -0.24348960057E+02  0.55335254215E+02  0.10566000000E+00 0. -1.
         22    1    1    0    0    0 -0.18240825131E+02  0.22476596680E+02 -0.37012650231E+01  0.29182605479E+02  0.00000000000E+00 0. -1.
</event>
<event>
 5    1  0.1320187E-009  0.9118800E+02  0.7818608E-02  0.1130116E+00
         25   -1    0    0    0    0  0.00000000000E+00  0.00000000000E+00  0.99999998245E-14  0.12500000000E+03  0.12500000000E+03 0.  0.
        -13    1    3    3    0    0  0.54845980998E+02 -0.21562805176E+02 -0.16987844580E+02  0.61332163064E+02  0.10566000000E+00 0.  1.
         23    2    1    0    0    0  0.24604303434E+02 -0.18447412205E+02 -0.11147584815E+02  0.92289949378E+02  0.86298825858E+02 0.  0.
         13    1    3    3    0    0 -0.30241677564E+02  0.31153929712E+01  0.58402597647E+01  0.30957786313E+02  0.10566000000E+00 0. -1.
         22    1    1    0    0    0 -0.24604303434E+02  0.18447412205E+02  0.11147584815E+02  0.32710050622E+02  0.00000000000E+00 0.  1.
</event>
<event>
 5    1  0.1320187E-009  0.9118800E+02  0.7818608E-02  0.1130116E+00
         25   -1    0    0    0    0  0.00000000000E+00  0.00000000000E+00  0.99999998245E-14  0.12500000000E+03  0.12500000000E+03 0.  0.
        -13    1    3    3    0    0 -0.14131775953E+01  0.88377582356E+01  0.42381157665E+02  0.43316010096E+02  0.10566000000E+00 0. -1.
         23    2    1    0    0    0 -0.37541566160E+01 -0.28901603963E+02  0.71640656710E+01  0.94987998392E+02  0.90122137115E+02 0.  0.
         13    1    3    3    0    0 -0.23409790208E+01 -0.37739362199E+02 -0.35217091994E+02  0.51671988297E+02  0.10566000000E+00 0.  1.
         22    1    1    0    0    0  0.37541566160E+01  0.28901603963E+02 -0.71640656710E+01  0.30012001608E+02  0.00000000000E+00 0.  1.
</event>
<event>
 5    1  0.1320187E-009  0.9118800E+02  0.7818608E-02  0.1130116E+00
         25   -1    0    0    0    0  0.00000000000E+00  0.00000000000E+00  0.99999998245E-14  0.12500000000E+03  0.12500000000E+03 0.  0.
        -13    1    3    3    0    0 -0.34557979860E+02  0.24112261002E+02  0.23634711709E+01  0.42204884346E+02  0.10566000000E+00 0.  1.
         23    2    1    0    0    0 -0.21048232815E+02 -0.22650774833E+02 -0.10137353831E+02  0.92459999265E+02  0.86544785032E+02 0.  0.
         13    1    3    3    0    0  0.13509747045E+02 -0.46763035835E+02 -0.12500825002E+02  0.50255114919E+02  0.10566000000E+00 0. -1.
         22    1    1    0    0    0  0.21048232815E+02  0.22650774833E+02  0.10137353831E+02  0.32540000735E+02  0.00000000000E+00 0. -1.
</event>
<event>
 5    1  0.1320187E-009  0.9118800E+02  0.7818608E-02  0.1130116E+00
         25   -1    0    0    0    0  0.00000000000E+00  0.00000000000E+00  0.99999998245E-14  0.12500000000E+03  0.12500000000E+03 0.  0.
        -13    1    3    3    0    0 -0.48414926778E+02  0.18606659074E+02 -0.87437078762E+01  0.52599206156E+02  0.10566000000E+00 0.  1.
         23    2    1    0    0    0 -0.91588778518E+01  0.27527447677E+02  0.58223104140E+01  0.95410395108E+02  0.90706112126E+02 0.  0.
         13    1    3    3    0    0  0.39256048926E+02  0.89207886032E+01  0.14566018290E+02  0.42811188952E+02  0.10566000000E+00 0. -1.
         22    1    1    0    0    0  0.91588778518E+01 -0.27527447677E+02 -0.58223104140E+01  0.29589604892E+02  0.00000000000E+00 0.  1.
</event>
<event>
 5    1  0.1320187E-009  0.9118800E+02  0.7818608E-02  0.1130116E+00
         25   -1    0    0    0    0  0.00000000000E+00  0.00000000000E+00  0.99999998245E-14  0.12500000000E+03  0.12500000000E+03 0.  0.
        -13    1    3    3    0    0 -0.30463912128E+02 -0.15013346303E+02  0.26666744828E+02  0.43180747482E+02  0.10566000000E+00 0. -1.
         23    2    1    0    0    0  0.22510443126E+01 -0.30198444191E+02 -0.84921826574E+01  0.93549556468E+02  0.88104421666E+02 0.  0.
         13    1    3    3    0    0  0.32714956441E+02 -0.15185097888E+02 -0.35158927485E+02  0.50368808986E+02  0.10566000000E+00 0.  1.
         22    1    1    0    0    0 -0.22510443126E+01  0.30198444191E+02  0.84921826574E+01  0.31450443532E+02  0.00000000000E+00 0.  1.
</event>
<event>
 5    1  0.1320187E-009  0.9118800E+02  0.7818608E-02  0.1130116E+00
         25   -1    0    0    0    0  0.00000000000E+00  0.00000000000E+00  0.99999998245E-14  0.12500000000E+03  0.12500000000E+03 0.  0.
        -13    1    3    3    0    0  0.12369749523E+02  0.24542827163E+01  0.58087097523E+02  0.59440358929E+02  0.10566000000E+00 0.  1.
         23    2    1    0    0    0 -0.78399200023E+01 -0.85134326374E+00  0.28541443523E+02  0.95389138321E+02  0.90676813907E+02 0.  0.
         13    1    3    3    0    0 -0.20209669525E+02 -0.33056259801E+01 -0.29545654000E+02  0.35948779392E+02  0.10566000000E+00 0. -1.
         22    1    1    0    0    0  0.78399200023E+01  0.85134326374E+00 -0.28541443523E+02  0.29610861679E+02  0.00000000000E+00 0.  1.
</event>
<event>
 5    1  0.1320187E-009  0.9118800E+02  0.7818608E-02  0.1130116E+00
         25   -1    0    0    0    0  0.00000000000E+00  0.00000000000E+00  0.99999998245E-14  0.12500000000E+03  0.12500000000E+03 0.  0.
        -13    1    3    3    0    0  0.19890633727E+02 -0.48057327228E+02 -0.20353882731E+02  0.55851908800E+02  0.10566000000E+00 0.  1.
         23    2    1    0    0    0  0.55535068137E+01 -0.20229750426E+02  0.11968083715E+02  0.10084799660E+03  0.97913222555E+02 0.  0.
         13    1    3    3    0    0 -0.14337126913E+02  0.27827576802E+02  0.32321966445E+02  0.44996087805E+02  0.10566000000E+00 0. -1.
         22    1    1    0    0    0 -0.55535068137E+01  0.20229750426E+02 -0.11968083715E+02  0.24152003396E+02  0.00000000000E+00 0. -1.
</event>
<event>
 5    1  0.1320187E-009  0.9118800E+02  0.7818608E-02  0.1130116E+00
         25   -1    0    0    0    0  0.00000000000E+00  0.00000000000E+00  0.99999998245E-14  0.12500000000E+03  0.12500000000E+03 0.  0.
        -13    1    3    3    0    0 -0.20907018908E+02  0.38185637244E+01  0.45858106371E+02  0.50543663822E+02  0.10566000000E+00 0.  1.
         23    2    1    0    0    0  0.17828853706E+02  0.37304745200E+01  0.23493471845E+02  0.95272442348E+02  0.90515802968E+02 0.  0.
         13    1    3    3    0    0  0.38735872614E+02 -0.88089204371E-01 -0.22364634526E+02  0.44728778526E+02  0.10566000000E+00 0. -1.
         22    1    1    0    0    0 -0.17828853706E+02 -0.37304745200E+01 -0.23493471845E+02  0.29727557652E+02  0.00000000000E+00 0. -1.
</event>
<event>
 5    1  0.1320187E-009  0.9118800E+02  0.7818608E-02  0.1130116E+00
         25   -1    0    0    0    0  0.00000000000E+00  0.00000000000E+00  0.99999998245E-14  0.12500000000E+03  0.12500000000E+03 0.  0.
        -13    1    3    3    0    0 -0.79336598954E+01  0.58690813834E+02 -0.42807523295E+00  0.59226252628E+02  0.10566000000E+00 0. -1.
         23    2    1    0    0    0 -0.32915540415E+01  0.33578541295E+02  0.13900457951E+02  0.88509240967E+02  0.80636903722E+02 0.  0.
         13    1    3    3    0    0  0.46421058539E+01 -0.25112272539E+02  0.14328533184E+02  0.29282988340E+02  0.10566000000E+00 0.  1.
         22    1    1    0    0    0  0.32915540415E+01 -0.33578541295E+02 -0.13900457951E+02  0.36490759033E+02  0.00000000000E+00 0. -1.
</event>
<event>
 5    1  0.1320187E-009  0.9118800E+02  0.7818608E-02  0.1130116E+00
         25   -1    0    0    0    0  0.00000000000E+00  0.00000000000E+00  0.99999998245E-14  0.12500000000E+03  0.12500000000E+03 0.  0.
        -13    1    3    3    0    0 -0.55348965207E+02  0.24193455794E+01  0.10975932687E+02  0.56478699037E+02  0.10566000000E+00 0. -1.
         23    2    1    0    0    0 -0.21141528559E+02  0.19684230176E+02  0.89765397828E+00  0.96099499483E+02  0.91650831261E+02 0.  0.
         13    1    3    3    0    0  0.34207436648E+02  0.17264884597E+02 -0.10078278709E+02  0.39620800446E+02  0.10566000000E+00 0.  1.
         22    1    1    0    0    0  0.21141528559E+02 -0.19684230176E+02 -0.89765397828E+00  0.28900500517E+02  0.00000000000E+00 0. -1.
</event>
<event>
 5    1  0.1320187E-009  0.9118800E+02  0.7818608E-02  0.1130116E+00
         25   -1    0    0    0    0  0.00000000000E+00  0.00000000000E+00  0.99999998245E-14  0.12500000000E+03  0.12500000000E+03 0.  0.
        -13    1    3    3    0    0 -0.46681153367E+02  0.17840068485E+02 -0.51947317660E+01  0.50243353047E+02  0.10566000000E+00 0.  1.
         23    2    1    0    0    0 -0.21664872975E+02 -0.19575677544E+02  0.15778555094E+01  0.95758531152E+02  0.91184608285E+02 0.  0.
         13    1    3    3    0    0  0.25016280392E+02 -0.37415746029E+02  0.67725872754E+01  0.45515178106E+02  0.10566000000E+00 0. -1.
         22    1    1    0    0    0  0.21664872975E+02  0.19575677544E+02 -0.15778555094E+01  0.29241468848E+02  0.00000000000E+00 0.  1.
</event>
<event>
 5    1  0.1320187E-009  0.9118800E+02  0.7818608E-02  0.1130116E+00
         25   -1    0    0    0    0  0.00000000000E+00  0.00000000000E+00  0.99999998245E-14  0.12500000000E+03  0.12500000000E+03 0.  0.
        -13    1    3    3    0    0  0.56424513049E+01  0.22990762134E+02 -0.23531704908E+02  0.33379105742E+02  0.10566000000E+00 0.  1.
         23    2    1    0    0    0 -0.56820881845E+01 -0.27298365123E+02  0.10562985015E+02  0.95182831842E+02  0.90391968452E+02 0.  0.
         13    1    3    3    0    0 -0.11324539489E+02 -0.50289127257E+02  0.34094689923E+02  0.61803726100E+02  0.10566000000E+00 0. -1.
         22    1    1    0    0    0  0.56820881845E+01  0.27298365123E+02 -0.10562985015E+02  0.29817168158E+02  0.00000000000E+00 0. -1.
</event>
<event>
 5    1  0.1320187E-009  0.9118800E+02  0.7818608E-02  0.1130116E+00
         25   -1    0    0    0    0  0.00000000000E+00  0.00000000000E+00  0.99999998245E-14  0.12500000000E+03  0.12500000000E+03 0.  0.
        -13    1    3    3    0    0 -0.17571970813E+02 -0.14641580945E+02  0.33557411951E+02  0.40611095918E+02  0.10566000000E+00 0.  1.
         23    2    1    0    0    0 -0.20278002237E+02  0.25618921407E+01 -0.19681060231E+02  0.96625631322E+02  0.92365620393E+02 0.  0.
         13    1    3    3    0    0 -0.27060314243E+01  0.17203473086E+02 -0.53238472181E+02  0.56014535404E+02  0.10566000000E+00 0. -1.
         22    1    1    0    0    0  0.20278002237E+02 -0.25618921407E+01  0.19681060231E+02  0.28374368678E+02  0.00000000000E+00 0. -1.
</event>
<event>
 5    1  0.1320187E-009  0.9118800E+02  0.7818608E-02  0.1130116E+00
         25   -1    0    0    0    0  0.00000000000E+00  0.00000000000E+00  0.99999998245E-14  0.12500000000E+03  0.12500000000E+03 0.  0.
        -13    1    3    3    0    0  0.29508945928E+02 -0.32954510478E+02  0.33425993799E+02  0.55444439542E+02  0.10566000000E+00 0. -1.
         23    2    1    0    0    0  0.31277259643E+00 -0.29389452311E+02  0.74656061186E+01  0.94675537786E+02  0.89687705103E+02 0.  0.
         13    1    3    3    0    0 -0.29196173331E+02  0.35650581674E+01 -0.25960387680E+02  0.39231098245E+02  0.10566000000E+00 0.  1.
         22    1    1    0    0    0 -0.31277259643E+00  0.29389452311E+02 -0.74656061186E+01  0.30324462214E+02  0.00000000000E+00 0. -1.
</event>
<event>
 4    1  0.1320187E-009  0.9118800E+02  0.7818608E-02  0.1130116E+00
         25   -1    0    0    0    0  0.00000000000E+00  0.00000000000E+00  0.99999998245E-14  0.12500000000E+03  0.12500000000E+03 0.  0.
        -13    1    1    0    0    0 -0.10027449406E+02 -0.12969178095E+02  0.48943648215E+00  0.16401220508E+02  0.10566000000E+00 0.  1.
         13    1    1    0    0    0  0.49906963637E+02 -0.18417285233E+02  0.15467569676E+02  0.55399984571E+02  0.10566000000E+00 0. -1.
         22    1    1    0    0    0 -0.39879514230E+02  0.31386463328E+02 -0.15957006158E+02  0.53198794921E+02  0.00000000000E+00 0. -1.
</event>
<event>
 5    1  0.1320187E-009  0.9118800E+02  0.7818608E-02  0.1130116E+00
         25   -1    0    0    0    0  0.00000000000E+00  0.00000000000E+00  0.99999998245E-14  0.12500000000E+03  0.12500000000E+03 0.  0.
        -13    1    3    3    0    0  0.56351158126E+01  0.33204686948E+02 -0.49971653124E+02  0.60261787606E+02  0.10566000000E+00 0.  1.
         23    2    1    0    0    0  0.85959688051E+01  0.54104312812E+01 -0.26005850872E+02  0.97081050773E+02  0.92979904782E+02 0.  0.
         13    1    3    3    0    0  0.29608529925E+01 -0.27794255667E+02  0.23965802252E+02  0.36819263167E+02  0.10566000000E+00 0. -1.
         22    1    1    0    0    0 -0.85959688051E+01 -0.54104312812E+01  0.26005850872E+02  0.27918949227E+02  0.00000000000E+00 0.  1.
</event>
<event>
 5    1  0.1320187E-009  0.9118800E+02  0.7818608E-02  0.1130116E+00
         25   -1    0    0    0    0  0.00000000000E+00  0.00000000000E+00  0.99999998245E-14  0.12500000000E+03  0.12500000000E+03 0.  0.
        -13    1    3    3    0    0 -0.43650268131E+02 -0.16761855583E+02  0.34864128938E+02  0.58325160618E+02  0.10566000000E+00 0.  1.
         23    2    1    0    0    0 -0.86933752262E+01 -0.75472152129E+01  0.27456751737E+02  0.95227387648E+02  0.90453562185E+02 0.  0.
         13    1    3    3    0    0  0.34956892905E+02  0.92146403700E+01 -0.74073772002E+01  0.36902227030E+02  0.10566000000E+00 0. -1.
         22    1    1    0    0    0  0.86933752262E+01  0.75472152129E+01 -0.27456751737E+02  0.29772612352E+02  0.00000000000E+00 0.  1.
</event>
<event>
 5    1  0.1320187E-009  0.9118800E+02  0.7818608E-02  0.1130116E+00
         25   -1    0    0    0    0  0.00000000000E+00  0.00000000000E+00  0.99999998245E-14  0.12500000000E+03  0.12500000000E+03 0.  0.
        -13    1    3    3    0    0 -0.23514888305E+02  0.65091546549E+01  0.11824613899E+02  0.27113681495E+02  0.10566000000E+00 0.  1.
         23    2    1    0    0    0  0.25130336549E+02  0.79498759644E+00 -0.25874298291E+02  0.88921680577E+02  0.81273735882E+02 0.  0.
         13    1    3    3    0    0  0.48645224854E+02 -0.57141670585E+01 -0.37698912189E+02  0.61807999082E+02  0.10566000000E+00 0. -1.
         22    1    1    0    0    0 -0.25130336549E+02 -0.79498759644E+00  0.25874298291E+02  0.36078319423E+02  0.00000000000E+00 0. -1.
</event>
<event>
 5    1  0.1320187E-009  0.9118800E+02  0.7818608E-02  0.1130116E+00
         25   -1    0    0    0    0  0.00000000000E+00  0.00000000000E+00  0.99999998245E-14  0.12500000000E+03  0.12500000000E+03 0.  0.
        -13    1    3    3    0    0 -0.50865343775E+02 -0.22921941889E+02  0.28366355386E+00  0.55792385200E+02  0.10566000000E+00 0.  1.
         23    2    1    0    0    0 -0.16585799105E+02 -0.25343364864E+02  0.12457344016E+02  0.92250033671E+02  0.86240990357E+02 0.  0.
         13    1    3    3    0    0  0.34279544670E+02 -0.24214229752E+01  0.12173680463E+02  0.36457648471E+02  0.10566000000E+00 0. -1.
         22    1    1    0    0    0  0.16585799105E+02  0.25343364864E+02 -0.12457344016E+02  0.32749966329E+02  0.00000000000E+00 0.  1.
</event>
<event>
 5    1  0.1320187E-009  0.9118800E+02  0.7818608E-02  0.1130116E+00
         25   -1    0    0    0    0  0.00000000000E+00  0.00000000000E+00  0.99999998245E-14  0.12500000000E+03  0.12500000000E+03 0.  0.
        -13    1    3    3    0    0 -0.39444879576E+02 -0.12465629665E+02  0.42007568466E+02  0.58957081171E+02  0.10566000000E+00 0.  1.
         23    2    1    0    0    0 -0.20418447007E+02 -0.15477901309E+02  0.77976057861E+01  0.98217896590E+02  0.94495894871E+02 0.  0.
         13    1    3    3    0    0  0.19026432569E+02 -0.30122716439E+01 -0.34209962680E+02  0.39260815419E+02  0.10566000000E+00 0. -1.
         22    1    1    0    0    0  0.20418447007E+02  0.15477901309E+02 -0.77976057861E+01  0.26782103410E+02  0.00000000000E+00 0.  1.
</event>
<event>
 5    1  0.1320187E-009  0.9118800E+02  0.7818608E-02  0.1130116E+00
         25   -1    0    0    0    0  0.00000000000E+00  0.00000000000E+00  0.99999998245E-14  0.12500000000E+03  0.12500000000E+03 0.  0.
        -13    1    3    3    0    0 -0.23956180365E+02 -0.19110375863E+02 -0.17346168071E+02  0.35213715426E+02  0.10566000000E+00 0.  1.
         23    2    1    0    0    0  0.10607042238E+02 -0.83992468929E+01  0.28400512269E+02  0.93541363816E+02  0.88092797402E+02 0.  0.
         13    1    3    3    0    0  0.34563222603E+02  0.10711128970E+02  0.45746680340E+02  0.58327648390E+02  0.10566000000E+00 0. -1.
         22    1    1    0    0    0 -0.10607042238E+02  0.83992468929E+01 -0.28400512269E+02  0.31458636184E+02  0.00000000000E+00 0. -1.
</event>
<event>
 5    1  0.1320187E-009  0.9118800E+02  0.7818608E-02  0.1130116E+00
         25   -1    0    0    0    0  0.00000000000E+00  0.00000000000E+00  0.99999998245E-14  0.12500000000E+03  0.12500000000E+03 0.  0.
        -13    1    3    3    0    0 -0.22144907353E+02  0.39549958122E+02 -0.12942336447E+02  0.47139276043E+02  0.10566000000E+00 0.  1.
         23    2    1    0    0    0  0.14359923535E+02  0.78559055262E+01 -0.23246439568E+02  0.96569037861E+02  0.92288999697E+02 0.  0.
         13    1    3    3    0    0  0.36504830889E+02 -0.31694052596E+02 -0.10304103121E+02  0.49429761817E+02  0.10566000000E+00 0. -1.
         22    1    1    0    0    0 -0.14359923535E+02 -0.78559055262E+01  0.23246439568E+02  0.28430962139E+02  0.00000000000E+00 0.  1.
</event>
<event>
 5    1  0.1320187E-009  0.9118800E+02  0.7818608E-02  0.1130116E+00
         25   -1    0    0    0    0  0.00000000000E+00  0.00000000000E+00  0.99999998245E-14  0.12500000000E+03  0.12500000000E+03 0.  0.
        -13    1    3    3    0    0 -0.41753736171E+02  0.69303431053E+01 -0.43856224074E+01  0.42551721325E+02  0.10566000000E+00 0.  1.
         23    2    1    0    0    0 -0.22020327898E+01 -0.28044426377E+02  0.56834794978E+01  0.96300858229E+02  0.91925048584E+02 0.  0.
         13    1    3    3    0    0  0.39551703381E+02 -0.34974769482E+02  0.10069101905E+02  0.53749136904E+02  0.10566000000E+00 0. -1.
         22    1    1    0    0    0  0.22020327898E+01  0.28044426377E+02 -0.56834794978E+01  0.28699141771E+02  0.00000000000E+00 0. -1.
</event>
<event>
 5    1  0.1320187E-009  0.9118800E+02  0.7818608E-02  0.1130116E+00
         25   -1    0    0    0    0  0.00000000000E+00  0.00000000000E+00  0.99999998245E-14  0.12500000000E+03  0.12500000000E+03 0.  0.
        -13    1    3    3    0    0 -0.39790464924E+02 -0.34798945012E+02 -0.21016807395E+02  0.56885543242E+02  0.10566000000E+00 0.  1.
         23    2    1    0    0    0 -0.13516009420E+02 -0.22081631971E+02  0.78574006363E+01  0.97944136940E+02  0.94133066640E+02 0.  0.
         13    1    3    3    0    0  0.26274455503E+02  0.12717313041E+02  0.28874208032E+02  0.41058593698E+02  0.10566000000E+00 0. -1.
         22    1    1    0    0    0  0.13516009420E+02  0.22081631971E+02 -0.78574006363E+01  0.27055863060E+02  0.00000000000E+00 0.  1.
</event>
<event>
 5    1  0.1320187E-009  0.9118800E+02  0.7818608E-02  0.1130116E+00
         25   -1    0    0    0    0  0.00000000000E+00  0.00000000000E+00  0.99999998245E-14  0.12500000000E+03  0.12500000000E+03 0.  0.
        -13    1    3    3    0    0 -0.38489472385E+02  0.49013972128E+01  0.15791077078E+02  0.41890720433E+02  0.10566000000E+00 0.  1.
         23    2    1    0    0    0  0.12414860237E+02 -0.20968464590E+02  0.68500908784E+01  0.99687374554E+02  0.96420141249E+02 0.  0.
         13    1    3    3    0    0  0.50904332621E+02 -0.25869861802E+02 -0.89409861997E+01  0.57796654121E+02  0.10566000000E+00 0. -1.
         22    1    1    0    0    0 -0.12414860237E+02  0.20968464590E+02 -0.68500908784E+01  0.25312625446E+02  0.00000000000E+00 0. -1.
</event>
<event>
 5    1  0.1320187E-009  0.9118800E+02  0.7818608E-02  0.1130116E+00
         25   -1    0    0    0    0  0.00000000000E+00  0.00000000000E+00  0.99999998245E-14  0.12500000000E+03  0.12500000000E+03 0.  0.
        -13    1    3    3    0    0 -0.97731278245E+01 -0.19319256539E+02  0.33666789135E+02  0.40027634896E+02  0.10566000000E+00 0.  1.
         23    2    1    0    0    0 -0.24964233208E+02  0.74076022156E+01 -0.12988110296E+02  0.95900575275E+02  0.91379121351E+02 0.  0.
         13    1    3    3    0    0 -0.15191105383E+02  0.26726858754E+02 -0.46654899431E+02  0.55872940379E+02  0.10566000000E+00 0. -1.
         22    1    1    0    0    0  0.24964233208E+02 -0.74076022156E+01  0.12988110296E+02  0.29099424725E+02  0.00000000000E+00 0. -1.
</event>
<event>
 5    1  0.1320187E-009  0.9118800E+02  0.7818608E-02  0.1130116E+00
         25   -1    0    0    0    0  0.00000000000E+00  0.00000000000E+00  0.99999998245E-14  0.12500000000E+03  0.12500000000E+03 0.  0.
        -13    1    3    3    0    0 -0.43103624237E+02  0.29396217104E+02 -0.28625435735E+02  0.59510391844E+02  0.10566000000E+00 0. -1.
         23    2    1    0    0    0 -0.21910604527E+02  0.52311579423E+01 -0.24170873578E+02  0.91959559118E+02  0.85818936020E+02 0.  0.
         13    1    3    3    0    0  0.21193019710E+02 -0.24165059162E+02  0.44545621575E+01  0.32449167274E+02  0.10566000000E+00 0.  1.
         22    1    1    0    0    0  0.21910604527E+02 -0.52311579423E+01  0.24170873578E+02  0.33040440882E+02  0.00000000000E+00 0. -1.
</event>
<event>
 5    1  0.1320187E-009  0.9118800E+02  0.7818608E-02  0.1130116E+00
         25   -1    0    0    0    0  0.00000000000E+00  0.00000000000E+00  0.99999998245E-14  0.12500000000E+03  0.12500000000E+03 0.  0.
        -13    1    3    3    0    0  0.46994574596E+02  0.17208548866E+01  0.13989225870E+02  0.49062826941E+02  0.10566000000E+00 0.  1.
         23    2    1    0    0    0  0.18062239558E+02  0.73187954804E+01 -0.22020665240E+02  0.95593895825E+02  0.90958638712E+02 0.  0.
         13    1    3    3    0    0 -0.28932335038E+02  0.55979405938E+01 -0.36009891110E+02  0.46531068884E+02  0.10566000000E+00 0. -1.
         22    1    1    0    0    0 -0.18062239558E+02 -0.73187954804E+01  0.22020665240E+02  0.29406104175E+02  0.00000000000E+00 0.  1.
</event>
<event>
 5    1  0.1320187E-009  0.9118800E+02  0.7818608E-02  0.1130116E+00
         25   -1    0    0    0    0  0.00000000000E+00  0.00000000000E+00  0.99999998245E-14  0.12500000000E+03  0.12500000000E+03 0.  0.
        -13    1    3    3    0    0 -0.39642690251E+02 -0.45840692665E+02  0.27918651457E+01  0.60668918479E+02  0.10566000000E+00 0. -1.
         23    2    1    0    0    0 -0.16636212948E+02 -0.24599536376E+02  0.11474783492E+02  0.93163363442E+02  0.87554787764E+02 0.  0.
         13    1    3    3    0    0  0.23006477303E+02  0.21241156289E+02  0.86829183466E+01  0.32494444963E+02  0.10566000000E+00 0.  1.
         22    1    1    0    0    0  0.16636212948E+02  0.24599536376E+02 -0.11474783492E+02  0.31836636558E+02  0.00000000000E+00 0. -1.
</event>
<event>
 5    1  0.1320187E-009  0.9118800E+02  0.7818608E-02  0.1130116E+00
         25   -1    0    0    0    0  0.00000000000E+00  0.00000000000E+00  0.99999998245E-14  0.12500000000E+03  0.12500000000E+03 0.  0.
        -13    1    3    3    0    0  0.50890826998E+02  0.25920145479E+00 -0.33923736852E+01  0.51004537261E+02  0.10566000000E+00 0. -1.
         23    2    1    0    0    0  0.12601640452E+02 -0.24864274783E+02  0.16423816192E+01  0.97076337634E+02  0.92973568332E+02 0.  0.
         13    1    3    3    0    0 -0.38289186546E+02 -0.25123476238E+02  0.50347553044E+01  0.46071800373E+02  0.10566000000E+00 0.  1.
         22    1    1    0    0    0 -0.12601640452E+02  0.24864274783E+02 -0.16423816192E+01  0.27923662366E+02  0.00000000000E+00 0. -1.
</event>
<event>
 5    1  0.1320187E-009  0.9118800E+02  0.7818608E-02  0.1130116E+00
         25   -1    0    0    0    0  0.00000000000E+00  0.00000000000E+00  0.99999998245E-14  0.12500000000E+03  0.12500000000E+03 0.  0.
        -13    1    3    3    0    0 -0.26200992973E+02 -0.50208823866E+02  0.91059915747E+00  0.56641489931E+02  0.10566000000E+00 0.  1.
         23    2    1    0    0    0 -0.21591171396E+02 -0.13590805210E+02 -0.13347268031E+02  0.96206975977E+02  0.91797298404E+02 0.  0.
         13    1    3    3    0    0  0.46098215772E+01  0.36618018656E+02 -0.14257867189E+02  0.39565486046E+02  0.10566000000E+00 0. -1.
         22    1    1    0    0    0  0.21591171396E+02  0.13590805210E+02  0.13347268031E+02  0.28793024023E+02  0.00000000000E+00 0.  1.
</event>
<event>
 5    1  0.1320187E-009  0.9118800E+02  0.7818608E-02  0.1130116E+00
         25   -1    0    0    0    0  0.00000000000E+00  0.00000000000E+00  0.99999998245E-14  0.12500000000E+03  0.12500000000E+03 0.  0.
        -13    1    3    3    0    0 -0.22531092300E+02  0.26690771550E+02 -0.35894027974E+02  0.50084327034E+02  0.10566000000E+00 0. -1.
         23    2    1    0    0    0  0.52619089622E+01  0.27754328734E+02  0.15273752651E+01  0.96710013704E+02  0.92479746031E+02 0.  0.
         13    1    3    3    0    0  0.27793001262E+02  0.10635571842E+01  0.37421403239E+02  0.46625686670E+02  0.10566000000E+00 0.  1.
         22    1    1    0    0    0 -0.52619089622E+01 -0.27754328734E+02 -0.15273752651E+01  0.28289986296E+02  0.00000000000E+00 0. -1.
</event>
<event>
 5    1  0.1320187E-009  0.9118800E+02  0.7818608E-02  0.1130116E+00
         25   -1    0    0    0    0  0.00000000000E+00  0.00000000000E+00  0.99999998245E-14  0.12500000000E+03  0.12500000000E+03 0.  0.
        -13    1    3    3    0    0  0.49352429646E+02  0.25582949068E+02 -0.25572670342E+01  0.55648004220E+02  0.10566000000E+00 0. -1.
         23    2    1    0    0    0  0.19589225859E+02  0.16467081204E+01 -0.19390918920E+02  0.97387373288E+02  0.93390809622E+02 0.  0.
         13    1    3    3    0    0 -0.29763203786E+02 -0.23936240948E+02 -0.16833651886E+02  0.41739369068E+02  0.10566000000E+00 0.  1.
         22    1    1    0    0    0 -0.19589225859E+02 -0.16467081204E+01  0.19390918920E+02  0.27612626712E+02  0.00000000000E+00 0. -1.
</event>
<event>
 5    1  0.1320187E-009  0.9118800E+02  0.7818608E-02  0.1130116E+00
         25   -1    0    0    0    0  0.00000000000E+00  0.00000000000E+00  0.99999998245E-14  0.12500000000E+03  0.12500000000E+03 0.  0.
        -13    1    3    3    0    0 -0.28249007287E+02  0.43391656053E+02  0.85971390716E+00  0.51784095046E+02  0.10566000000E+00 0. -1.
         23    2    1    0    0    0 -0.35840136378E+02  0.13681262281E+02  0.12602121969E+02  0.84620478070E+02  0.74364773364E+02 0.  0.
         13    1    3    3    0    0 -0.75911290909E+01 -0.29710393772E+02  0.11742408061E+02  0.32836383024E+02  0.10566000000E+00 0.  1.
         22    1    1    0    0    0  0.35840136378E+02 -0.13681262281E+02 -0.12602121969E+02  0.40379521930E+02  0.00000000000E+00 0. -1.
</event>
<event>
 5    1  0.1320187E-009  0.9118800E+02  0.7818608E-02  0.1130116E+00
         25   -1    0    0    0    0  0.00000000000E+00  0.00000000000E+00  0.99999998245E-14  0.12500000000E+03  0.12500000000E+03 0.  0.
        -13    1    3    3    0    0 -0.12392759571E+02 -0.66560997201E+01  0.49650334074E+02  0.51604757445E+02  0.10566000000E+00 0. -1.
         23    2    1    0    0    0 -0.24978927477E+02 -0.14040037611E+02  0.87359443433E+01  0.95043595049E+02  0.90199217082E+02 0.  0.
         13    1    3    3    0    0 -0.12586167905E+02 -0.73839378914E+01 -0.40914389731E+02  0.43438837604E+02  0.10566000000E+00 0.  1.
         22    1    1    0    0    0  0.24978927477E+02  0.14040037611E+02 -0.87359443433E+01  0.29956404951E+02  0.00000000000E+00 0. -1.
</event>
<event>
 5    1  0.1320187E-009  0.9118800E+02  0.7818608E-02  0.1130116E+00
         25   -1    0    0    0    0  0.00000000000E+00  0.00000000000E+00  0.99999998245E-14  0.12500000000E+03  0.12500000000E+03 0.  0.
        -13    1    3    3    0    0 -0.45432893889E+02  0.28277394048E+02  0.21517444960E+02  0.57678162791E+02  0.10566000000E+00 0.  1.
         23    2    1    0    0    0 -0.31014456618E+02  0.22466615237E+01  0.87939248420E+00  0.93891844503E+02  0.88588718953E+02 0.  0.
         13    1    3    3    0    0  0.14418437271E+02 -0.26030732524E+02 -0.20638052476E+02  0.36213681712E+02  0.10566000000E+00 0. -1.
         22    1    1    0    0    0  0.31014456618E+02 -0.22466615237E+01 -0.87939248420E+00  0.31108155497E+02  0.00000000000E+00 0.  1.
</event>
<event>
 5    1  0.1320187E-009  0.9118800E+02  0.7818608E-02  0.1130116E+00
         25   -1    0    0    0    0  0.00000000000E+00  0.00000000000E+00  0.99999998245E-14  0.12500000000E+03  0.12500000000E+03 0.  0.
        -13    1    3    3    0    0 -0.27069314096E+01 -0.51775631112E+02  0.30064138228E+02  0.59932520605E+02  0.10566000000E+00 0.  1.
         23    2    1    0    0    0  0.10398672069E+02 -0.20206816299E+02  0.17376179881E+02  0.96392668195E+02  0.92049807434E+02 0.  0.
         13    1    3    3    0    0  0.13105603479E+02  0.31568814812E+02 -0.12687958347E+02  0.36460147589E+02  0.10566000000E+00 0. -1.
         22    1    1    0    0    0 -0.10398672069E+02  0.20206816299E+02 -0.17376179881E+02  0.28607331805E+02  0.00000000000E+00 0.  1.
</event>
<event>
 5    1  0.1320187E-009  0.9118800E+02  0.7818608E-02  0.1130116E+00
         25   -1    0    0    0    0  0.00000000000E+00  0.00000000000E+00  0.99999998245E-14  0.12500000000E+03  0.12500000000E+03 0.  0.
        -13    1    3    3    0    0  0.84472994217E+01  0.27838181873E+02  0.22794435446E+02  0.36958337203E+02  0.10566000000E+00 0. -1.
         23    2    1    0    0    0 -0.23983060267E+02 -0.16862382030E+02  0.34221187313E+01  0.95483258918E+02  0.90806468544E+02 0.  0.
         13    1    3    3    0    0 -0.32430359689E+02 -0.44700563903E+02 -0.19372316714E+02  0.58524921715E+02  0.10566000000E+00 0.  1.
         22    1    1    0    0    0  0.23983060267E+02  0.16862382030E+02 -0.34221187313E+01  0.29516741082E+02  0.00000000000E+00 0.  1.
</event>
<event>
 5    1  0.1320187E-009  0.9118800E+02  0.7818608E-02  0.1130116E+00
         25   -1    0    0    0    0  0.00000000000E+00  0.00000000000E+00  0.99999998245E-14  0.12500000000E+03  0.12500000000E+03 0.  0.
        -13    1    3    3    0    0  0.13906148623E+01  0.50724908727E+02  0.19976682382E+02  0.54534660337E+02  0.10566000000E+00 0. -1.
         23    2    1    0    0    0 -0.20441709720E+02  0.21722833896E+02  0.18393858536E+01  0.95114746963E+02  0.90297767086E+02 0.  0.
         13    1    3    3    0    0 -0.21832324582E+02 -0.29002074831E+02 -0.18137296528E+02  0.40580086626E+02  0.10566000000E+00 0.  1.
         22    1    1    0    0    0  0.20441709720E+02 -0.21722833896E+02 -0.18393858536E+01  0.29885253037E+02  0.00000000000E+00 0. -1.
</event>
<event>
 5    1  0.1320187E-009  0.9118800E+02  0.7818608E-02  0.1130116E+00
         25   -1    0    0    0    0  0.00000000000E+00  0.00000000000E+00  0.99999998245E-14  0.12500000000E+03  0.12500000000E+03 0.  0.
        -13    1    3    3    0    0  0.12657226374E+02  0.34067106729E+02 -0.13069914737E+02  0.38621327989E+02  0.10566000000E+00 0. -1.
         23    2    1    0    0    0 -0.28818409166E+02  0.11558489139E+01 -0.16664409880E+02  0.91690252925E+02  0.85425776152E+02 0.  0.
         13    1    3    3    0    0 -0.41475635540E+02 -0.32911257815E+02 -0.35944951429E+01  0.53068924936E+02  0.10566000000E+00 0.  1.
         22    1    1    0    0    0  0.28818409166E+02 -0.11558489139E+01  0.16664409880E+02  0.33309747075E+02  0.00000000000E+00 0. -1.
</event>
<event>
 5    1  0.1320187E-009  0.9118800E+02  0.7818608E-02  0.1130116E+00
         25   -1    0    0    0    0  0.00000000000E+00  0.00000000000E+00  0.99999998245E-14  0.12500000000E+03  0.12500000000E+03 0.  0.
        -13    1    3    3    0    0  0.10318787828E+02  0.32442686135E+01 -0.39000408966E+02  0.40472777574E+02  0.10566000000E+00 0. -1.
         23    2    1    0    0    0 -0.19514672067E+02  0.20288598362E+02  0.51136409200E+01  0.96388831327E+02  0.92044596972E+02 0.  0.
         13    1    3    3    0    0 -0.29833459895E+02  0.17044329749E+02  0.44114049886E+02  0.55916053752E+02  0.10566000000E+00 0.  1.
         22    1    1    0    0    0  0.19514672067E+02 -0.20288598362E+02 -0.51136409200E+01  0.28611168673E+02  0.00000000000E+00 0.  1.
</event>
<event>
 5    1  0.1320187E-009  0.9118800E+02  0.7818608E-02  0.1130116E+00
         25   -1    0    0    0    0  0.00000000000E+00  0.00000000000E+00  0.99999998245E-14  0.12500000000E+03  0.12500000000E+03 0.  0.
        -13    1    3    3    0    0  0.11660409286E+02 -0.50507577820E+02  0.20854294113E+02  0.55873905439E+02  0.10566000000E+00 0.  1.
         23    2    1    0    0    0 -0.23575157080E+01 -0.13022190124E+02  0.25606505468E+02  0.96175905249E+02  0.91754979768E+02 0.  0.
         13    1    3    3    0    0 -0.14017924994E+02  0.37485387696E+02  0.47522113553E+01  0.40301999810E+02  0.10566000000E+00 0. -1.
         22    1    1    0    0    0  0.23575157080E+01  0.13022190124E+02 -0.25606505468E+02  0.28824094751E+02  0.00000000000E+00 0.  1.
</event>
<event>
 5    1  0.1320187E-009  0.9118800E+02  0.7818608E-02  0.1130116E+00
         25   -1    0    0    0    0  0.00000000000E+00  0.00000000000E+00  0.99999998245E-14  0.12500000000E+03  0.12500000000E+03 0.  0.
        -13    1    3    3    0    0 -0.27822699338E+02  0.83203440136E+01  0.51117010772E+02  0.58790226035E+02  0.10566000000E+00 0.  1.
         23    2    1    0    0    0 -0.20097853690E+02  0.11057267888E+02  0.11324295892E+02  0.99418237482E+02  0.96070595764E+02 0.  0.
         13    1    3    3    0    0  0.77248456476E+01  0.27369238743E+01 -0.39792714880E+02  0.40628011447E+02  0.10566000000E+00 0. -1.
         22    1    1    0    0    0  0.20097853690E+02 -0.11057267888E+02 -0.11324295892E+02  0.25581762518E+02  0.00000000000E+00 0.  1.
</event>
<event>
 5    1  0.1320187E-009  0.9118800E+02  0.7818608E-02  0.1130116E+00
         25   -1    0    0    0    0  0.00000000000E+00  0.00000000000E+00  0.99999998245E-14  0.12500000000E+03  0.12500000000E+03 0.  0.
        -13    1    3    3    0    0  0.47315385127E+02  0.25637096494E+02 -0.93342061867E+01  0.54618174224E+02  0.10566000000E+00 0.  1.
         23    2    1    0    0    0  0.98115182060E+01  0.24956670282E+02  0.94483221559E+01  0.96568115211E+02  0.92287750015E+02 0.  0.
         13    1    3    3    0    0 -0.37503866921E+02 -0.68042621156E+00  0.18782528343E+02  0.41949940987E+02  0.10566000000E+00 0. -1.
         22    1    1    0    0    0 -0.98115182060E+01 -0.24956670282E+02 -0.94483221559E+01  0.28431884789E+02  0.00000000000E+00 0.  1.
</event>
<event>
 5    1  0.1320187E-009  0.9118800E+02  0.7818608E-02  0.1130116E+00
         25   -1    0    0    0    0  0.00000000000E+00  0.00000000000E+00  0.99999998245E-14  0.12500000000E+03  0.12500000000E+03 0.  0.
        -13    1    3    3    0    0  0.37647762314E+02  0.22531851249E+02 -0.23548709043E+02  0.49795493668E+02  0.10566000000E+00 0. -1.
         23    2    1    0    0    0  0.26441351591E+02 -0.32259950591E+01  0.12565119123E+02  0.95547761771E+02  0.90895216831E+02 0.  0.
         13    1    3    3    0    0 -0.11206410723E+02 -0.25757846308E+02  0.36113828167E+02  0.45752268104E+02  0.10566000000E+00 0.  1.
         22    1    1    0    0    0 -0.26441351591E+02  0.32259950591E+01 -0.12565119123E+02  0.29452238229E+02  0.00000000000E+00 0. -1.
</event>
<event>
 5    1  0.1320187E-009  0.9118800E+02  0.7818608E-02  0.1130116E+00
         25   -1    0    0    0    0  0.00000000000E+00  0.00000000000E+00  0.99999998245E-14  0.12500000000E+03  0.12500000000E+03 0.  0.
        -13    1    3    3    0    0  0.40390038412E+02  0.46150310224E+02  0.74427302615E+01  0.61778732056E+02  0.10566000000E+00 0.  1.
         23    2    1    0    0    0  0.21136953382E+02  0.19021480497E+02 -0.23791499534E+01  0.96464971122E+02  0.92147939644E+02 0.  0.
         13    1    3    3    0    0 -0.19253085031E+02 -0.27128829727E+02 -0.98218802149E+01  0.34686239066E+02  0.10566000000E+00 0. -1.
         22    1    1    0    0    0 -0.21136953382E+02 -0.19021480497E+02  0.23791499534E+01  0.28535028878E+02  0.00000000000E+00 0.  1.
</event>
<event>
 5    1  0.1320187E-009  0.9118800E+02  0.7818608E-02  0.1130116E+00
         25   -1    0    0    0    0  0.00000000000E+00  0.00000000000E+00  0.99999998245E-14  0.12500000000E+03  0.12500000000E+03 0.  0.
        -13    1    3    3    0    0  0.32969619820E+02  0.29776718967E+02 -0.25259656422E+02  0.51104894385E+02  0.10566000000E+00 0. -1.
         23    2    1    0    0    0  0.94531244961E+01 -0.76552445152E+01 -0.27043157051E+02  0.95347062968E+02  0.90618793536E+02 0.  0.
         13    1    3    3    0    0 -0.23516495324E+02 -0.37431963482E+02 -0.17835006293E+01  0.44242168583E+02  0.10566000000E+00 0.  1.
         22    1    1    0    0    0 -0.94531244961E+01  0.76552445152E+01  0.27043157051E+02  0.29652937032E+02  0.00000000000E+00 0. -1.
</event>
<event>
 5    1  0.1320187E-009  0.9118800E+02  0.7818608E-02  0.1130116E+00
         25   -1    0    0    0    0  0.00000000000E+00  0.00000000000E+00  0.99999998245E-14  0.12500000000E+03  0.12500000000E+03 0.  0.
        -13    1    3    3    0    0 -0.48106232075E+02 -0.25013599917E+02 -0.16751971128E+02  0.56749708774E+02  0.10566000000E+00 0.  1.
         23    2    1    0    0    0 -0.91164709634E+01 -0.13462894978E+02 -0.21883896171E+02  0.97737122389E+02  0.93857767911E+02 0.  0.
         13    1    3    3    0    0  0.38989761112E+02  0.11550704938E+02 -0.51319250431E+01  0.40987413615E+02  0.10566000000E+00 0. -1.
         22    1    1    0    0    0  0.91164709634E+01  0.13462894978E+02  0.21883896171E+02  0.27262877611E+02  0.00000000000E+00 0.  1.
</event>
<event>
 5    1  0.1320187E-009  0.9118800E+02  0.7818608E-02  0.1130116E+00
         25   -1    0    0    0    0  0.00000000000E+00  0.00000000000E+00  0.99999998245E-14  0.12500000000E+03  0.12500000000E+03 0.  0.
        -13    1    3    3    0    0 -0.78140391859E+01 -0.55395971307E+02 -0.13350191088E+02  0.57515316322E+02  0.10566000000E+00 0.  1.
         23    2    1    0    0    0 -0.19817356512E+02 -0.19528476746E+02 -0.97900750518E+01  0.95505346372E+02  0.90836868027E+02 0.  0.
         13    1    3    3    0    0 -0.12003317326E+02  0.35867494562E+02  0.35601160360E+01  0.37990030050E+02  0.10566000000E+00 0. -1.
         22    1    1    0    0    0  0.19817356512E+02  0.19528476746E+02  0.97900750518E+01  0.29494653628E+02  0.00000000000E+00 0.  1.
</event>
<event>
 5    1  0.1320187E-009  0.9118800E+02  0.7818608E-02  0.1130116E+00
         25   -1    0    0    0    0  0.00000000000E+00  0.00000000000E+00  0.99999998245E-14  0.12500000000E+03  0.12500000000E+03 0.  0.
        -13    1    3    3    0    0  0.94544901944E+01 -0.28914879558E+02 -0.17721348198E+02  0.35206746380E+02  0.10566000000E+00 0.  1.
         23    2    1    0    0    0  0.91658813000E+01  0.27978796865E+02  0.21700043087E+01  0.95478222060E+02  0.90799534773E+02 0.  0.
         13    1    3    3    0    0 -0.28860889438E+00  0.56893676423E+02  0.19891352507E+02  0.60271475680E+02  0.10566000000E+00 0. -1.
         22    1    1    0    0    0 -0.91658813000E+01 -0.27978796865E+02 -0.21700043087E+01  0.29521777940E+02  0.00000000000E+00 0. -1.
</event>
<event>
 5    1  0.1320187E-009  0.9118800E+02  0.7818608E-02  0.1130116E+00
         25   -1    0    0    0    0  0.00000000000E+00  0.00000000000E+00  0.99999998245E-14  0.12500000000E+03  0.12500000000E+03 0.  0.
        -13    1    3    3    0    0 -0.15418193119E+01  0.52985598810E+02  0.27232190300E+02  0.59594078906E+02  0.10566000000E+00 0. -1.
         23    2    1    0    0    0 -0.10129996026E+02  0.18015306160E+02  0.19831718643E+02  0.96356237330E+02  0.92000322459E+02 0.  0.
         13    1    3    3    0    0 -0.85881767145E+01 -0.34970292650E+02 -0.74004716571E+01  0.36762158425E+02  0.10566000000E+00 0.  1.
         22    1    1    0    0    0  0.10129996026E+02 -0.18015306160E+02 -0.19831718643E+02  0.28643762670E+02  0.00000000000E+00 0. -1.
</event>
<event>
 5    1  0.1320187E-009  0.9118800E+02  0.7818608E-02  0.1130116E+00
         25   -1    0    0    0    0  0.00000000000E+00  0.00000000000E+00  0.99999998245E-14  0.12500000000E+03  0.12500000000E+03 0.  0.
        -13    1    3    3    0    0  0.46673316350E+02  0.36732065697E+02 -0.86011508594E+00  0.59400286796E+02  0.10566000000E+00 0.  1.
         23    2    1    0    0    0  0.19565789586E+02  0.17172226934E+02 -0.14146611942E+02  0.95371768034E+02  0.90652865418E+02 0.  0.
         13    1    3    3    0    0 -0.27107526764E+02 -0.19559838763E+02 -0.13286496856E+02  0.35971481238E+02  0.10566000000E+00 0. -1.
         22    1    1    0    0    0 -0.19565789586E+02 -0.17172226934E+02  0.14146611942E+02  0.29628231966E+02  0.00000000000E+00 0.  1.
</event>
<event>
 5    1  0.1320187E-009  0.9118800E+02  0.7818608E-02  0.1130116E+00
         25   -1    0    0    0    0  0.00000000000E+00  0.00000000000E+00  0.99999998245E-14  0.12500000000E+03  0.12500000000E+03 0.  0.
        -13    1    3    3    0    0 -0.56717584181E+02  0.71727715779E+01  0.24872821461E+02  0.62345821183E+02  0.10566000000E+00 0. -1.
         23    2    1    0    0    0 -0.30270910326E+02  0.66018227602E+01  0.11873661854E+02  0.91820248321E+02  0.85615781724E+02 0.  0.
         13    1    3    3    0    0  0.26446673856E+02 -0.57094881766E+00 -0.12999159607E+02  0.29474427138E+02  0.10566000000E+00 0.  1.
         22    1    1    0    0    0  0.30270910326E+02 -0.66018227602E+01 -0.11873661854E+02  0.33179751679E+02  0.00000000000E+00 0. -1.
</event>
<event>
 5    1  0.1320187E-009  0.9118800E+02  0.7818608E-02  0.1130116E+00
         25   -1    0    0    0    0  0.00000000000E+00  0.00000000000E+00  0.99999998245E-14  0.12500000000E+03  0.12500000000E+03 0.  0.
        -13    1    3    3    0    0 -0.30850645878E+02  0.44599674151E+02  0.34797146502E+01  0.54341631035E+02  0.10566000000E+00 0. -1.
         23    2    1    0    0    0  0.20588634098E+00  0.26003265469E+02 -0.14995041688E+02  0.94982280575E+02  0.90114206116E+02 0.  0.
         13    1    3    3    0    0  0.31056532219E+02 -0.18596408682E+02 -0.18474756338E+02  0.40640649541E+02  0.10566000000E+00 0.  1.
         22    1    1    0    0    0 -0.20588634098E+00 -0.26003265469E+02  0.14995041688E+02  0.30017719425E+02  0.00000000000E+00 0. -1.
</event>
<event>
 5    1  0.1320187E-009  0.9118800E+02  0.7818608E-02  0.1130116E+00
         25   -1    0    0    0    0  0.00000000000E+00  0.00000000000E+00  0.99999998245E-14  0.12500000000E+03  0.12500000000E+03 0.  0.
        -13    1    3    3    0    0  0.22179672085E+02  0.12521428744E+02  0.24015599282E+02  0.35006916524E+02  0.10566000000E+00 0.  1.
         23    2    1    0    0    0  0.36130616044E+02 -0.15368037688E+02 -0.13215381030E+02  0.83572421096E+02  0.72581714460E+02 0.  0.
         13    1    3    3    0    0  0.13950943959E+02 -0.27889466432E+02 -0.37230980312E+02  0.48565504571E+02  0.10566000000E+00 0. -1.
         22    1    1    0    0    0 -0.36130616044E+02  0.15368037688E+02  0.13215381030E+02  0.41427578904E+02  0.00000000000E+00 0. -1.
</event>
<event>
 5    1  0.1320187E-009  0.9118800E+02  0.7818608E-02  0.1130116E+00
         25   -1    0    0    0    0  0.00000000000E+00  0.00000000000E+00  0.99999998245E-14  0.12500000000E+03  0.12500000000E+03 0.  0.
        -13    1    3    3    0    0 -0.82387355985E+01  0.40113098899E+02  0.13445155400E+02  0.43101285773E+02  0.10566000000E+00 0. -1.
         23    2    1    0    0    0  0.17329485705E+02  0.10819068440E+02 -0.21472624137E+02  0.95361563738E+02  0.90638793761E+02 0.  0.
         13    1    3    3    0    0  0.25568221304E+02 -0.29294030458E+02 -0.34917779537E+02  0.52260277965E+02  0.10566000000E+00 0.  1.
         22    1    1    0    0    0 -0.17329485705E+02 -0.10819068440E+02  0.21472624137E+02  0.29638436262E+02  0.00000000000E+00 0.  1.
</event>
<event>
 5    1  0.1320187E-009  0.9118800E+02  0.7818608E-02  0.1130116E+00
         25   -1    0    0    0    0  0.00000000000E+00  0.00000000000E+00  0.99999998245E-14  0.12500000000E+03  0.12500000000E+03 0.  0.
        -13    1    3    3    0    0  0.17497964792E+02  0.24025177209E+02 -0.23025459511E+02  0.37597484777E+02  0.10566000000E+00 0.  1.
         23    2    1    0    0    0 -0.11720157745E+02 -0.24616894688E+02 -0.40081437167E+01  0.97442445360E+02  0.93464492402E+02 0.  0.
         13    1    3    3    0    0 -0.29218122537E+02 -0.48642071898E+02  0.19017315795E+02  0.59844960583E+02  0.10566000000E+00 0. -1.
         22    1    1    0    0    0  0.11720157745E+02  0.24616894688E+02  0.40081437167E+01  0.27557554640E+02  0.00000000000E+00 0. -1.
</event>
<event>
 5    1  0.1320187E-009  0.9118800E+02  0.7818608E-02  0.1130116E+00
         25   -1    0    0    0    0  0.00000000000E+00  0.00000000000E+00  0.99999998245E-14  0.12500000000E+03  0.12500000000E+03 0.  0.
        -13    1    3    3    0    0 -0.14591905818E+02 -0.27445916443E+01  0.55155875111E+02  0.57119508244E+02  0.10566000000E+00 0.  1.
         23    2    1    0    0    0  0.75428486052E+01 -0.12804543760E+02  0.25686620409E+02  0.95324195478E+02  0.90587244519E+02 0.  0.
         13    1    3    3    0    0  0.22134754424E+02 -0.10059952116E+02 -0.29469254702E+02  0.38204687234E+02  0.10566000000E+00 0. -1.
         22    1    1    0    0    0 -0.75428486052E+01  0.12804543760E+02 -0.25686620409E+02  0.29675804522E+02  0.00000000000E+00 0.  1.
</event>
<event>
 5    1  0.1320187E-009  0.9118800E+02  0.7818608E-02  0.1130116E+00
         25   -1    0    0    0    0  0.00000000000E+00  0.00000000000E+00  0.99999998245E-14  0.12500000000E+03  0.12500000000E+03 0.  0.
        -13    1    3    3    0    0  0.32194240855E+02 -0.26206181391E+02  0.11718747452E+01  0.41528514804E+02  0.10566000000E+00 0. -1.
         23    2    1    0    0    0  0.33714707977E+01  0.69517038003E+01 -0.29106392696E+02  0.94885633049E+02  0.89980043689E+02 0.  0.
         13    1    3    3    0    0 -0.28822770057E+02  0.33157885192E+02 -0.30278267442E+02  0.53357118245E+02  0.10566000000E+00 0.  1.
         22    1    1    0    0    0 -0.33714707977E+01 -0.69517038003E+01  0.29106392696E+02  0.30114366951E+02  0.00000000000E+00 0.  1.
</event>
<event>
 5    1  0.1320187E-009  0.9118800E+02  0.7818608E-02  0.1130116E+00
         25   -1    0    0    0    0  0.00000000000E+00  0.00000000000E+00  0.99999998245E-14  0.12500000000E+03  0.12500000000E+03 0.  0.
        -13    1    3    3    0    0 -0.15579974877E+02 -0.21387351293E+02 -0.38832802530E+02  0.46990979229E+02  0.10566000000E+00 0. -1.
         23    2    1    0    0    0  0.24049398412E+02 -0.87359752615E+01 -0.10394812230E+02  0.97382198693E+02  0.93383883370E+02 0.  0.
         13    1    3    3    0    0  0.39629373289E+02  0.12651376032E+02  0.28437990299E+02  0.50391219464E+02  0.10566000000E+00 0.  1.
         22    1    1    0    0    0 -0.24049398412E+02  0.87359752615E+01  0.10394812230E+02  0.27617801307E+02  0.00000000000E+00 0.  1.
</event>
<event>
 5    1  0.1320187E-009  0.9118800E+02  0.7818608E-02  0.1130116E+00
         25   -1    0    0    0    0  0.00000000000E+00  0.00000000000E+00  0.99999998245E-14  0.12500000000E+03  0.12500000000E+03 0.  0.
        -13    1    3    3    0    0  0.14060288735E+02  0.35976560944E+02  0.47436658231E+02  0.61173951686E+02  0.10566000000E+00 0.  1.
         23    2    1    0    0    0  0.99078922586E+01  0.22605615724E+02  0.16004184101E+02  0.95583778284E+02  0.90944733608E+02 0.  0.
         13    1    3    3    0    0 -0.41523964764E+01 -0.13370945220E+02 -0.31432474130E+02  0.34409826599E+02  0.10566000000E+00 0. -1.
         22    1    1    0    0    0 -0.99078922586E+01 -0.22605615724E+02 -0.16004184101E+02  0.29416221716E+02  0.00000000000E+00 0.  1.
</event>
<event>
 5    1  0.1320187E-009  0.9118800E+02  0.7818608E-02  0.1130116E+00
         25   -1    0    0    0    0  0.00000000000E+00  0.00000000000E+00  0.99999998245E-14  0.12500000000E+03  0.12500000000E+03 0.  0.
        -13    1    3    3    0    0  0.13190690731E+02 -0.30229903513E+02  0.12930269491E+02  0.35426606125E+02  0.10566000000E+00 0.  1.
         23    2    1    0    0    0 -0.15614695139E+02  0.23141146180E+02  0.57367738011E+01  0.96500141676E+02  0.92195636660E+02 0.  0.
         13    1    3    3    0    0 -0.28805385870E+02  0.53371049693E+02 -0.71934956895E+01  0.61073535552E+02  0.10566000000E+00 0. -1.
         22    1    1    0    0    0  0.15614695139E+02 -0.23141146180E+02 -0.57367738011E+01  0.28499858324E+02  0.00000000000E+00 0. -1.
</event>
<event>
 5    1  0.1320187E-009  0.9118800E+02  0.7818608E-02  0.1130116E+00
         25   -1    0    0    0    0  0.00000000000E+00  0.00000000000E+00  0.99999998245E-14  0.12500000000E+03  0.12500000000E+03 0.  0.
        -13    1    3    3    0    0 -0.32306121589E+02 -0.12893566081E+02 -0.34938387819E+02  0.49301436550E+02  0.10566000000E+00 0. -1.
         23    2    1    0    0    0  0.10806610098E+02 -0.18116076995E+02 -0.21780410806E+02  0.94679027680E+02  0.89692568924E+02 0.  0.
         13    1    3    3    0    0  0.43112731687E+02 -0.52225109139E+01  0.13157977012E+02  0.45377591131E+02  0.10566000000E+00 0.  1.
         22    1    1    0    0    0 -0.10806610098E+02  0.18116076995E+02  0.21780410806E+02  0.30320972320E+02  0.00000000000E+00 0. -1.
</event>
<event>
 5    1  0.1320187E-009  0.9118800E+02  0.7818608E-02  0.1130116E+00
         25   -1    0    0    0    0  0.00000000000E+00  0.00000000000E+00  0.99999998245E-14  0.12500000000E+03  0.12500000000E+03 0.  0.
        -13    1    3    3    0    0 -0.82687768089E+01  0.29426464912E+02  0.33555561303E+02  0.45390267299E+02  0.10566000000E+00 0.  1.
         23    2    1    0    0    0 -0.20848166641E+02  0.15163396594E+02 -0.13324281235E+02  0.95980849099E+02  0.91488864212E+02 0.  0.
         13    1    3    3    0    0 -0.12579389832E+02 -0.14263068317E+02 -0.46879842539E+02  0.50590581800E+02  0.10566000000E+00 0. -1.
         22    1    1    0    0    0  0.20848166641E+02 -0.15163396594E+02  0.13324281235E+02  0.29019150901E+02  0.00000000000E+00 0. -1.
</event>
<event>
 5    1  0.1320187E-009  0.9118800E+02  0.7818608E-02  0.1130116E+00
         25   -1    0    0    0    0  0.00000000000E+00  0.00000000000E+00  0.99999998245E-14  0.12500000000E+03  0.12500000000E+03 0.  0.
        -13    1    3    3    0    0 -0.50405319320E+02  0.55418904879E+01  0.32400202254E+02  0.60176349474E+02  0.10566000000E+00 0. -1.
         23    2    1    0    0    0 -0.26105977452E+02  0.10441023905E+02  0.62718428070E+01  0.96192482733E+02  0.91777560891E+02 0.  0.
         13    1    3    3    0    0  0.24299341868E+02  0.48991334173E+01 -0.26128359447E+02  0.36016133258E+02  0.10566000000E+00 0.  1.
         22    1    1    0    0    0  0.26105977452E+02 -0.10441023905E+02 -0.62718428070E+01  0.28807517267E+02  0.00000000000E+00 0. -1.
</event>
<event>
 5    1  0.1320187E-009  0.9118800E+02  0.7818608E-02  0.1130116E+00
         25   -1    0    0    0    0  0.00000000000E+00  0.00000000000E+00  0.99999998245E-14  0.12500000000E+03  0.12500000000E+03 0.  0.
        -13    1    3    3    0    0  0.14774693538E+02 -0.32683922514E+02 -0.25648423093E+02  0.44095159952E+02  0.10566000000E+00 0. -1.
         23    2    1    0    0    0  0.27025236650E+02  0.73835675929E+01  0.56839589707E+01  0.96413501859E+02  0.92078094380E+02 0.  0.
         13    1    3    3    0    0  0.12250543113E+02  0.40067490107E+02  0.31332382063E+02  0.52318341906E+02  0.10566000000E+00 0.  1.
         22    1    1    0    0    0 -0.27025236650E+02 -0.73835675929E+01 -0.56839589707E+01  0.28586498141E+02  0.00000000000E+00 0.  1.
</event>
<event>
 5    1  0.1320187E-009  0.9118800E+02  0.7818608E-02  0.1130116E+00
         25   -1    0    0    0    0  0.00000000000E+00  0.00000000000E+00  0.99999998245E-14  0.12500000000E+03  0.12500000000E+03 0.  0.
        -13    1    3    3    0    0  0.60663578956E+02  0.52070774431E+01  0.94869123370E+01  0.61621393501E+02  0.10566000000E+00 0. -1.
         23    2    1    0    0    0  0.27508734605E+02  0.75856516677E+01  0.96958716838E+01  0.94862274165E+02  0.89947587745E+02 0.  0.
         13    1    3    3    0    0 -0.33154844351E+02  0.23785742246E+01  0.20895934681E+00  0.33240880664E+02  0.10566000000E+00 0.  1.
         22    1    1    0    0    0 -0.27508734605E+02 -0.75856516677E+01 -0.96958716838E+01  0.30137725835E+02  0.00000000000E+00 0. -1.
</event>
<event>
 5    1  0.1320187E-009  0.9118800E+02  0.7818608E-02  0.1130116E+00
         25   -1    0    0    0    0  0.00000000000E+00  0.00000000000E+00  0.99999998245E-14  0.12500000000E+03  0.12500000000E+03 0.  0.
        -13    1    3    3    0    0 -0.23286550951E+02 -0.56251592436E+02 -0.11203603674E+02  0.61903449065E+02  0.10566000000E+00 0. -1.
         23    2    1    0    0    0 -0.13762329979E+02 -0.23415077426E+02 -0.98124502132E+01  0.96121777124E+02  0.91681210075E+02 0.  0.
         13    1    3    3    0    0  0.95242209718E+01  0.32836515010E+02  0.13911534610E+01  0.34218328059E+02  0.10566000000E+00 0.  1.
         22    1    1    0    0    0  0.13762329979E+02  0.23415077426E+02  0.98124502132E+01  0.28878222876E+02  0.00000000000E+00 0. -1.
</event>
<event>
 5    1  0.1320187E-009  0.9118800E+02  0.7818608E-02  0.1130116E+00
         25   -1    0    0    0    0  0.00000000000E+00  0.00000000000E+00  0.99999998245E-14  0.12500000000E+03  0.12500000000E+03 0.  0.
        -13    1    3    3    0    0 -0.11333560952E+02 -0.44836129994E+02  0.29441461681E+02  0.54822796232E+02  0.10566000000E+00 0. -1.
         23    2    1    0    0    0 -0.19990901691E+02 -0.70228672919E+01  0.22249153669E+02  0.94275715559E+02  0.89128720902E+02 0.  0.
         13    1    3    3    0    0 -0.86573407392E+01  0.37813262702E+02 -0.71923080114E+01  0.39452919327E+02  0.10566000000E+00 0.  1.
         22    1    1    0    0    0  0.19990901691E+02  0.70228672919E+01 -0.22249153669E+02  0.30724284441E+02  0.00000000000E+00 0. -1.
</event>
<event>
 5    1  0.1320187E-009  0.9118800E+02  0.7818608E-02  0.1130116E+00
         25   -1    0    0    0    0  0.00000000000E+00  0.00000000000E+00  0.99999998245E-14  0.12500000000E+03  0.12500000000E+03 0.  0.
        -13    1    3    3    0    0  0.20892740890E+02 -0.30502161810E+02  0.23411942120E+02  0.43760926576E+02  0.10566000000E+00 0.  1.
         23    2    1    0    0    0  0.34480144516E+02  0.83082460125E+01  0.17971991227E+02  0.85239469492E+02  0.75398059477E+02 0.  0.
         13    1    3    3    0    0  0.13587403626E+02  0.38810407822E+02 -0.54399508933E+01  0.41478542915E+02  0.10566000000E+00 0. -1.
         22    1    1    0    0    0 -0.34480144516E+02 -0.83082460125E+01 -0.17971991227E+02  0.39760530508E+02  0.00000000000E+00 0. -1.
</event>
<event>
 5    1  0.1320187E-009  0.9118800E+02  0.7818608E-02  0.1130116E+00
         25   -1    0    0    0    0  0.00000000000E+00  0.00000000000E+00  0.99999998245E-14  0.12500000000E+03  0.12500000000E+03 0.  0.
        -13    1    3    3    0    0  0.58925146636E+01  0.40823574386E+02  0.42422401225E+02  0.59168887470E+02  0.10566000000E+00 0. -1.
         23    2    1    0    0    0  0.54043775272E+01  0.66129643378E+01  0.26968752456E+02  0.96711270746E+02  0.92481445093E+02 0.  0.
         13    1    3    3    0    0 -0.48813713634E+00 -0.34210610048E+02 -0.15453648769E+02  0.37542383276E+02  0.10566000000E+00 0.  1.
         22    1    1    0    0    0 -0.54043775272E+01 -0.66129643378E+01 -0.26968752456E+02  0.28288729254E+02  0.00000000000E+00 0. -1.
</event>
<event>
 5    1  0.1320187E-009  0.9118800E+02  0.7818608E-02  0.1130116E+00
         25   -1    0    0    0    0  0.00000000000E+00  0.00000000000E+00  0.99999998245E-14  0.12500000000E+03  0.12500000000E+03 0.  0.
        -13    1    3    3    0    0  0.79246857777E+01  0.36053085959E+02  0.18684043189E+02  0.41373062320E+02  0.10566000000E+00 0. -1.
         23    2    1    0    0    0 -0.21922373230E+02  0.16443045061E+02 -0.17717172448E+02  0.92367770863E+02  0.86411473287E+02 0.  0.
         13    1    3    3    0    0 -0.29847059008E+02 -0.19610040898E+02 -0.36401215637E+02  0.50994708542E+02  0.10566000000E+00 0.  1.
         22    1    1    0    0    0  0.21922373230E+02 -0.16443045061E+02  0.17717172448E+02  0.32632229137E+02  0.00000000000E+00 0.  1.
</event>
<event>
 5    1  0.1320187E-009  0.9118800E+02  0.7818608E-02  0.1130116E+00
         25   -1    0    0    0    0  0.00000000000E+00  0.00000000000E+00  0.99999998245E-14  0.12500000000E+03  0.12500000000E+03 0.  0.
        -13    1    3    3    0    0  0.32396004973E+02  0.32978661677E+01 -0.20769283524E+02  0.38623197195E+02  0.10566000000E+00 0.  1.
         23    2    1    0    0    0 -0.23521644247E+02 -0.97167601969E+01 -0.12561040976E+02  0.96619321234E+02  0.92357080446E+02 0.  0.
         13    1    3    3    0    0 -0.55917649220E+02 -0.13014626365E+02  0.82082425472E+01  0.57996124038E+02  0.10566000000E+00 0. -1.
         22    1    1    0    0    0  0.23521644247E+02  0.97167601969E+01  0.12561040976E+02  0.28380678766E+02  0.00000000000E+00 0. -1.
</event>
<event>
 4    1  0.1320187E-009  0.9118800E+02  0.7818608E-02  0.1130116E+00
         25   -1    0    0    0    0  0.00000000000E+00  0.00000000000E+00  0.99999998245E-14  0.12500000000E+03  0.12500000000E+03 0.  0.
        -13    1    1    0    0    0 -0.24840343272E+02  0.39880556521E+02 -0.21296154034E+01  0.47032412952E+02  0.10566000000E+00 0.  1.
         13    1    1    0    0    0  0.38679090850E+01  0.15375653157E+02  0.93803612148E+01  0.18422100077E+02  0.10566000000E+00 0. -1.
         22    1    1    0    0    0  0.20972434187E+02 -0.55256209678E+02 -0.72507458114E+01  0.59545486971E+02  0.00000000000E+00 0. -1.
</event>
<event>
 5    1  0.1320187E-009  0.9118800E+02  0.7818608E-02  0.1130116E+00
         25   -1    0    0    0    0  0.00000000000E+00  0.00000000000E+00  0.99999998245E-14  0.12500000000E+03  0.12500000000E+03 0.  0.
        -13    1    3    3    0    0  0.13350674282E+02  0.36433285737E+02 -0.29447265053E+01  0.38914102734E+02  0.10566000000E+00 0.  1.
         23    2    1    0    0    0  0.80996379030E+01 -0.23073026353E+02  0.72036409121E+01  0.99507626207E+02  0.96186831488E+02 0.  0.
         13    1    3    3    0    0 -0.52510363790E+01 -0.59506312090E+02  0.10148367417E+02  0.60593523473E+02  0.10566000000E+00 0. -1.
         22    1    1    0    0    0 -0.80996379030E+01  0.23073026353E+02 -0.72036409121E+01  0.25492373793E+02  0.00000000000E+00 0. -1.
</event>
<event>
 5    1  0.1320187E-009  0.9118800E+02  0.7818608E-02  0.1130116E+00
         25   -1    0    0    0    0  0.00000000000E+00  0.00000000000E+00  0.99999998245E-14  0.12500000000E+03  0.12500000000E+03 0.  0.
        -13    1    3    3    0    0  0.40468423122E+01 -0.16442901798E+02  0.37474922494E+02  0.41123313731E+02  0.10566000000E+00 0. -1.
         23    2    1    0    0    0  0.53354472392E+01 -0.23492727111E+02 -0.16646468052E+02  0.95717238468E+02  0.91127984818E+02 0.  0.
         13    1    3    3    0    0  0.12886049270E+01 -0.70498253127E+01 -0.54121390545E+02  0.54593924737E+02  0.10566000000E+00 0.  1.
         22    1    1    0    0    0 -0.53354472392E+01  0.23492727111E+02  0.16646468052E+02  0.29282761532E+02  0.00000000000E+00 0.  1.
</event>
<event>
 5    1  0.1320187E-009  0.9118800E+02  0.7818608E-02  0.1130116E+00
         25   -1    0    0    0    0  0.00000000000E+00  0.00000000000E+00  0.99999998245E-14  0.12500000000E+03  0.12500000000E+03 0.  0.
        -13    1    3    3    0    0  0.21594105561E+02  0.28739523338E+02  0.14185286429E+01  0.35976228043E+02  0.10566000000E+00 0. -1.
         23    2    1    0    0    0  0.47517590729E+01 -0.20308422705E+02 -0.23557340207E+02  0.93536377756E+02  0.88085722107E+02 0.  0.
         13    1    3    3    0    0 -0.16842346488E+02 -0.49047946042E+02 -0.24975868850E+02  0.57560149714E+02  0.10566000000E+00 0.  1.
         22    1    1    0    0    0 -0.47517590729E+01  0.20308422705E+02  0.23557340207E+02  0.31463622244E+02  0.00000000000E+00 0.  1.
</event>
<event>
 5    1  0.1320187E-009  0.9118800E+02  0.7818608E-02  0.1130116E+00
         25   -1    0    0    0    0  0.00000000000E+00  0.00000000000E+00  0.99999998245E-14  0.12500000000E+03  0.12500000000E+03 0.  0.
        -13    1    3    3    0    0 -0.38755075853E+02  0.34219168802E+02  0.13637787371E+02  0.53468755608E+02  0.10566000000E+00 0.  1.
         23    2    1    0    0    0 -0.26817555446E+02 -0.53116608638E+01  0.12903310169E+02  0.94769379190E+02  0.89818398992E+02 0.  0.
         13    1    3    3    0    0  0.11937520407E+02 -0.39530829665E+02 -0.73447720141E+00  0.41300623582E+02  0.10566000000E+00 0. -1.
         22    1    1    0    0    0  0.26817555446E+02  0.53116608638E+01 -0.12903310169E+02  0.30230620810E+02  0.00000000000E+00 0.  1.
</event>
<event>
 5    1  0.1320187E-009  0.9118800E+02  0.7818608E-02  0.1130116E+00
         25   -1    0    0    0    0  0.00000000000E+00  0.00000000000E+00  0.99999998245E-14  0.12500000000E+03  0.12500000000E+03 0.  0.
        -13    1    3    3    0    0 -0.13856175128E+01 -0.16549481282E+02 -0.52110558901E+02  0.54693023135E+02  0.10566000000E+00 0. -1.
         23    2    1    0    0    0  0.81436353003E+01 -0.25346477936E+02 -0.14060823497E+02  0.94892368126E+02  0.89989399551E+02 0.  0.
         13    1    3    3    0    0  0.95292528131E+01 -0.87969966540E+01  0.38049735405E+02  0.40199344991E+02  0.10566000000E+00 0.  1.
         22    1    1    0    0    0 -0.81436353003E+01  0.25346477936E+02  0.14060823497E+02  0.30107631874E+02  0.00000000000E+00 0. -1.
</event>
<event>
 5    1  0.1320187E-009  0.9118800E+02  0.7818608E-02  0.1130116E+00
         25   -1    0    0    0    0  0.00000000000E+00  0.00000000000E+00  0.99999998245E-14  0.12500000000E+03  0.12500000000E+03 0.  0.
        -13    1    3    3    0    0  0.94075985938E+01  0.41133785064E+02  0.15985461346E+02  0.45122470272E+02  0.10566000000E+00 0.  1.
         23    2    1    0    0    0  0.27285784048E+02  0.93463386104E+01 -0.14556843402E+02  0.92692574440E+02  0.86880053004E+02 0.  0.
         13    1    3    3    0    0  0.17878185454E+02 -0.31787446454E+02 -0.30542304747E+02  0.47570104167E+02  0.10566000000E+00 0. -1.
         22    1    1    0    0    0 -0.27285784048E+02 -0.93463386104E+01  0.14556843402E+02  0.32307425560E+02  0.00000000000E+00 0. -1.
</event>
<event>
 5    1  0.1320187E-009  0.9118800E+02  0.7818608E-02  0.1130116E+00
         25   -1    0    0    0    0  0.00000000000E+00  0.00000000000E+00  0.99999998245E-14  0.12500000000E+03  0.12500000000E+03 0.  0.
        -13    1    3    3    0    0  0.94257577010E+01  0.17416190406E+02 -0.31315739501E+02  0.37052062035E+02  0.10566000000E+00 0. -1.
         23    2    1    0    0    0 -0.16443544716E+02  0.10594656156E+02  0.21301023676E+02  0.96079928915E+02  0.91624135624E+02 0.  0.
         13    1    3    3    0    0 -0.25869302417E+02 -0.68215342504E+01  0.52616763178E+02  0.59027866880E+02  0.10566000000E+00 0.  1.
         22    1    1    0    0    0  0.16443544716E+02 -0.10594656156E+02 -0.21301023676E+02  0.28920071085E+02  0.00000000000E+00 0.  1.
</event>
<event>
 5    1  0.1320187E-009  0.9118800E+02  0.7818608E-02  0.1130116E+00
         25   -1    0    0    0    0  0.00000000000E+00  0.00000000000E+00  0.99999998245E-14  0.12500000000E+03  0.12500000000E+03 0.  0.
        -13    1    3    3    0    0 -0.54026186406E+02  0.13378921471E+02  0.71725203263E+01  0.56118451236E+02  0.10566000000E+00 0. -1.
         23    2    1    0    0    0 -0.24211451420E+02  0.38010997187E+01 -0.16569267881E+02  0.95416501609E+02  0.90714526964E+02 0.  0.
         13    1    3    3    0    0  0.29814734986E+02 -0.95778217521E+01 -0.23741788207E+02  0.39298050373E+02  0.10566000000E+00 0.  1.
         22    1    1    0    0    0  0.24211451420E+02 -0.38010997187E+01  0.16569267881E+02  0.29583498391E+02  0.00000000000E+00 0. -1.
</event>
<event>
 5    1  0.1320187E-009  0.9118800E+02  0.7818608E-02  0.1130116E+00
         25   -1    0    0    0    0  0.00000000000E+00  0.00000000000E+00  0.99999998245E-14  0.12500000000E+03  0.12500000000E+03 0.  0.
        -13    1    3    3    0    0  0.17849539645E+02 -0.42399486407E+02  0.41616883779E+02  0.62034657190E+02  0.10566000000E+00 0.  1.
         23    2    1    0    0    0  0.10675172553E+02 -0.17285443195E+02  0.24078909928E+02  0.93495400989E+02  0.88027553910E+02 0.  0.
         13    1    3    3    0    0 -0.71743670919E+01  0.25114043212E+02 -0.17537973851E+02  0.31460743800E+02  0.10566000000E+00 0. -1.
         22    1    1    0    0    0 -0.10675172553E+02  0.17285443195E+02 -0.24078909928E+02  0.31504599011E+02  0.00000000000E+00 0.  1.
</event>
<event>
 5    1  0.1320187E-009  0.9118800E+02  0.7818608E-02  0.1130116E+00
         25   -1    0    0    0    0  0.00000000000E+00  0.00000000000E+00  0.99999998245E-14  0.12500000000E+03  0.12500000000E+03 0.  0.
        -13    1    3    3    0    0 -0.28454724245E+02  0.33558686350E+02  0.40646239966E+02  0.59899789222E+02  0.10566000000E+00 0.  1.
         23    2    1    0    0    0 -0.17316140141E+02  0.55160133968E+01  0.25567524566E+02  0.93631649300E+02  0.88220815713E+02 0.  0.
         13    1    3    3    0    0  0.11138584104E+02 -0.28042672953E+02 -0.15078715399E+02  0.33731860078E+02  0.10566000000E+00 0. -1.
         22    1    1    0    0    0  0.17316140141E+02 -0.55160133968E+01 -0.25567524566E+02  0.31368350700E+02  0.00000000000E+00 0.  1.
</event>
<event>
 5    1  0.1320187E-009  0.9118800E+02  0.7818608E-02  0.1130116E+00
         25   -1    0    0    0    0  0.00000000000E+00  0.00000000000E+00  0.99999998245E-14  0.12500000000E+03  0.12500000000E+03 0.  0.
        -13    1    3    3    0    0 -0.29640405755E+02  0.46233955102E+01 -0.17206090686E+02  0.34583090667E+02  0.10566000000E+00 0. -1.
         23    2    1    0    0    0  0.28293739252E+02  0.34726436512E+00  0.39964821026E+01  0.96423293707E+02  0.92091386279E+02 0.  0.
         13    1    3    3    0    0  0.57934145006E+02 -0.42761311451E+01  0.21202572788E+02  0.61840203040E+02  0.10566000000E+00 0.  1.
         22    1    1    0    0    0 -0.28293739252E+02 -0.34726436512E+00 -0.39964821026E+01  0.28576706293E+02  0.00000000000E+00 0.  1.
</event>
<event>
 5    1  0.1320187E-009  0.9118800E+02  0.7818608E-02  0.1130116E+00
         25   -1    0    0    0    0  0.00000000000E+00  0.00000000000E+00  0.99999998245E-14  0.12500000000E+03  0.12500000000E+03 0.  0.
        -13    1    3    3    0    0 -0.54207003650E+02  0.22096086570E+02  0.10078839450E+02  0.59398909545E+02  0.10566000000E+00 0. -1.
         23    2    1    0    0    0 -0.18743381201E+02  0.21908727662E+02  0.38157596258E+00  0.96165085628E+02  0.91740238756E+02 0.  0.
         13    1    3    3    0    0  0.35463622450E+02 -0.18735890725E+00 -0.96972634871E+01  0.36766176083E+02  0.10566000000E+00 0.  1.
         22    1    1    0    0    0  0.18743381201E+02 -0.21908727662E+02 -0.38157596258E+00  0.28834914372E+02  0.00000000000E+00 0. -1.
</event>
<event>
 5    1  0.1320187E-009  0.9118800E+02  0.7818608E-02  0.1130116E+00
         25   -1    0    0    0    0  0.00000000000E+00  0.00000000000E+00  0.99999998245E-14  0.12500000000E+03  0.12500000000E+03 0.  0.
        -13    1    3    3    0    0  0.43150206525E+02  0.71889032919E+01 -0.19386478862E+02  0.47848379078E+02  0.10566000000E+00 0.  1.
         23    2    1    0    0    0 -0.53966755291E+01  0.11864518431E+02 -0.24864075585E+02  0.96926646815E+02  0.92772095501E+02 0.  0.
         13    1    3    3    0    0 -0.48546882054E+02  0.46756151387E+01 -0.54775967233E+01  0.49078267737E+02  0.10566000000E+00 0. -1.
         22    1    1    0    0    0  0.53966755291E+01 -0.11864518431E+02  0.24864075585E+02  0.28073353185E+02  0.00000000000E+00 0. -1.
</event>
<event>
 5    1  0.1320187E-009  0.9118800E+02  0.7818608E-02  0.1130116E+00
         25   -1    0    0    0    0  0.00000000000E+00  0.00000000000E+00  0.99999998245E-14  0.12500000000E+03  0.12500000000E+03 0.  0.
        -13    1    3    3    0    0 -0.28350374810E+02 -0.54827281721E+02  0.54938011294E+01  0.61967472013E+02  0.10566000000E+00 0. -1.
         23    2    1    0    0    0 -0.98737189245E+01 -0.26729283898E+02  0.70983484521E+01  0.95634518668E+02  0.91014447573E+02 0.  0.
         13    1    3    3    0    0  0.18476655885E+02  0.28097997823E+02  0.16045473227E+01  0.33667046655E+02  0.10566000000E+00 0.  1.
         22    1    1    0    0    0  0.98737189245E+01  0.26729283898E+02 -0.70983484521E+01  0.29365481332E+02  0.00000000000E+00 0. -1.
</event>
<event>
 5    1  0.1320187E-009  0.9118800E+02  0.7818608E-02  0.1130116E+00
         25   -1    0    0    0    0  0.00000000000E+00  0.00000000000E+00  0.99999998245E-14  0.12500000000E+03  0.12500000000E+03 0.  0.
        -13    1    3    3    0    0 -0.28167184741E+02  0.80673312230E+01  0.30468384223E+02  0.42270624912E+02  0.10566000000E+00 0.  1.
         23    2    1    0    0    0  0.19932372721E+02  0.18938062156E+02  0.88263870528E+01  0.96123456078E+02  0.91683499167E+02 0.  0.
         13    1    3    3    0    0  0.48099557461E+02  0.10870730933E+02 -0.21641997170E+02  0.53852831165E+02  0.10566000000E+00 0. -1.
         22    1    1    0    0    0 -0.19932372721E+02 -0.18938062156E+02 -0.88263870528E+01  0.28876543922E+02  0.00000000000E+00 0.  1.
</event>
<event>
 5    1  0.1320187E-009  0.9118800E+02  0.7818608E-02  0.1130116E+00
         25   -1    0    0    0    0  0.00000000000E+00  0.00000000000E+00  0.99999998245E-14  0.12500000000E+03  0.12500000000E+03 0.  0.
        -13    1    3    3    0    0 -0.25356243883E+02 -0.13128416387E+02  0.55173335165E+02  0.62124089514E+02  0.10566000000E+00 0. -1.
         23    2    1    0    0    0 -0.84475876663E+01 -0.86659750582E+01  0.28707878712E+02  0.93845495330E+02  0.88523295423E+02 0.  0.
         13    1    3    3    0    0  0.16908656217E+02  0.44624413292E+01 -0.26465456453E+02  0.31721405816E+02  0.10566000000E+00 0.  1.
         22    1    1    0    0    0  0.84475876663E+01  0.86659750582E+01 -0.28707878712E+02  0.31154504670E+02  0.00000000000E+00 0. -1.
</event>
<event>
 5    1  0.1320187E-009  0.9118800E+02  0.7818608E-02  0.1130116E+00
         25   -1    0    0    0    0  0.00000000000E+00  0.00000000000E+00  0.99999998245E-14  0.12500000000E+03  0.12500000000E+03 0.  0.
        -13    1    3    3    0    0 -0.29298012108E+02 -0.43949874898E+02 -0.31923000968E+02  0.61717535368E+02  0.10566000000E+00 0.  1.
         23    2    1    0    0    0 -0.13553962773E+02 -0.16545401644E+02 -0.20641054974E+02  0.95276047153E+02  0.90520780975E+02 0.  0.
         13    1    3    3    0    0  0.15744049335E+02  0.27404473254E+02  0.11281945994E+02  0.33558511785E+02  0.10566000000E+00 0. -1.
         22    1    1    0    0    0  0.13553962773E+02  0.16545401644E+02  0.20641054974E+02  0.29723952847E+02  0.00000000000E+00 0.  1.
</event>
<event>
 5    1  0.1320187E-009  0.9118800E+02  0.7818608E-02  0.1130116E+00
         25   -1    0    0    0    0  0.00000000000E+00  0.00000000000E+00  0.99999998245E-14  0.12500000000E+03  0.12500000000E+03 0.  0.
        -13    1    3    3    0    0  0.41940721420E+01  0.31426361864E+02 -0.17760414664E+02  0.36340747849E+02  0.10566000000E+00 0.  1.
         23    2    1    0    0    0  0.54668404535E+01 -0.27434033992E+02 -0.49657158490E+01  0.96589246763E+02  0.92316367404E+02 0.  0.
         13    1    3    3    0    0  0.12727683114E+01 -0.58860395856E+02  0.12794698815E+02  0.60248498914E+02  0.10566000000E+00 0. -1.
         22    1    1    0    0    0 -0.54668404535E+01  0.27434033992E+02  0.49657158490E+01  0.28410753237E+02  0.00000000000E+00 0. -1.
</event>
<event>
 5    1  0.1320187E-009  0.9118800E+02  0.7818608E-02  0.1130116E+00
         25   -1    0    0    0    0  0.00000000000E+00  0.00000000000E+00  0.99999998245E-14  0.12500000000E+03  0.12500000000E+03 0.  0.
        -13    1    3    3    0    0 -0.54317774157E+02  0.82495263797E+01  0.63728446011E+01  0.55309127521E+02  0.10566000000E+00 0. -1.
         23    2    1    0    0    0 -0.23145632357E+02  0.41140869110E+01 -0.18242936851E+02  0.95243475450E+02  0.90475791583E+02 0.  0.
         13    1    3    3    0    0  0.31172141800E+02 -0.41354394687E+01 -0.24615781452E+02  0.39934347929E+02  0.10566000000E+00 0.  1.
         22    1    1    0    0    0  0.23145632357E+02 -0.41140869110E+01  0.18242936851E+02  0.29756524550E+02  0.00000000000E+00 0. -1.
</event>
<event>
 5    1  0.1320187E-009  0.9118800E+02  0.7818608E-02  0.1130116E+00
         25   -1    0    0    0    0  0.00000000000E+00  0.00000000000E+00  0.99999998245E-14  0.12500000000E+03  0.12500000000E+03 0.  0.
        -13    1    3    3    0    0  0.39011284726E+01  0.10609543988E+02  0.33354581326E+02  0.35218184031E+02  0.10566000000E+00 0. -1.
         23    2    1    0    0    0  0.20853999429E+02 -0.65412604367E+00 -0.22290106285E+02  0.94468606136E+02  0.89398834075E+02 0.  0.
         13    1    3    3    0    0  0.16952870957E+02 -0.11263670031E+02 -0.55644687611E+02  0.59250422105E+02  0.10566000000E+00 0.  1.
         22    1    1    0    0    0 -0.20853999429E+02  0.65412604367E+00  0.22290106285E+02  0.30531393864E+02  0.00000000000E+00 0.  1.
</event>
<event>
 5    1  0.1320187E-009  0.9118800E+02  0.7818608E-02  0.1130116E+00
         25   -1    0    0    0    0  0.00000000000E+00  0.00000000000E+00  0.99999998245E-14  0.12500000000E+03  0.12500000000E+03 0.  0.
        -13    1    3    3    0    0 -0.31877447558E+02 -0.40480118189E+02 -0.67654503158E+01  0.51967240772E+02  0.10566000000E+00 0.  1.
         23    2    1    0    0    0 -0.92819577363E+01 -0.15626341545E+02  0.22191393163E+02  0.96315592737E+02  0.91945082437E+02 0.  0.
         13    1    3    3    0    0  0.22595489822E+02  0.24853776645E+02  0.28956843479E+02  0.44348351966E+02  0.10566000000E+00 0. -1.
         22    1    1    0    0    0  0.92819577363E+01  0.15626341545E+02 -0.22191393163E+02  0.28684407263E+02  0.00000000000E+00 0. -1.
</event>
<event>
 5    1  0.1320187E-009  0.9118800E+02  0.7818608E-02  0.1130116E+00
         25   -1    0    0    0    0  0.00000000000E+00  0.00000000000E+00  0.99999998245E-14  0.12500000000E+03  0.12500000000E+03 0.  0.
        -13    1    3    3    0    0 -0.91410302191E+01  0.73728487454E+01 -0.37371620554E+02  0.39173543610E+02  0.10566000000E+00 0.  1.
         23    2    1    0    0    0 -0.32948995756E+01 -0.26854503569E+02  0.84406974751E+01  0.96658050543E+02  0.92409483473E+02 0.  0.
         13    1    3    3    0    0  0.58461306435E+01 -0.34227352315E+02  0.45812318030E+02  0.57484506932E+02  0.10566000000E+00 0. -1.
         22    1    1    0    0    0  0.32948995756E+01  0.26854503569E+02 -0.84406974751E+01  0.28341949457E+02  0.00000000000E+00 0. -1.
</event>
<event>
 5    1  0.1320187E-009  0.9118800E+02  0.7818608E-02  0.1130116E+00
         25   -1    0    0    0    0  0.00000000000E+00  0.00000000000E+00  0.99999998245E-14  0.12500000000E+03  0.12500000000E+03 0.  0.
        -13    1    3    3    0    0  0.36780668608E+02  0.24757054152E+02  0.28439282532E+02  0.52673838558E+02  0.10566000000E+00 0. -1.
         23    2    1    0    0    0  0.28042953099E+02 -0.85737109164E+01  0.29630143487E+01  0.95526364468E+02  0.90865786285E+02 0.  0.
         13    1    3    3    0    0 -0.87377155086E+01 -0.33330765068E+02 -0.25476268183E+02  0.42852525910E+02  0.10566000000E+00 0.  1.
         22    1    1    0    0    0 -0.28042953099E+02  0.85737109164E+01 -0.29630143487E+01  0.29473635532E+02  0.00000000000E+00 0. -1.
</event>
<event>
 5    1  0.1320187E-009  0.9118800E+02  0.7818608E-02  0.1130116E+00
         25   -1    0    0    0    0  0.00000000000E+00  0.00000000000E+00  0.99999998245E-14  0.12500000000E+03  0.12500000000E+03 0.  0.
        -13    1    3    3    0    0  0.22105118763E+02 -0.33820929092E+02  0.38830410221E+02  0.56038410418E+02  0.10566000000E+00 0.  1.
         23    2    1    0    0    0  0.22401220535E+02  0.20649962033E+00  0.20210662413E+02  0.94828354391E+02  0.89900437139E+02 0.  0.
         13    1    3    3    0    0  0.29610177176E+00  0.34027428712E+02 -0.18619747807E+02  0.38789943974E+02  0.10566000000E+00 0. -1.
         22    1    1    0    0    0 -0.22401220535E+02 -0.20649962033E+00 -0.20210662413E+02  0.30171645609E+02  0.00000000000E+00 0.  1.
</event>
<event>
 5    1  0.1320187E-009  0.9118800E+02  0.7818608E-02  0.1130116E+00
         25   -1    0    0    0    0  0.00000000000E+00  0.00000000000E+00  0.99999998245E-14  0.12500000000E+03  0.12500000000E+03 0.  0.
        -13    1    3    3    0    0 -0.25473801625E+02 -0.44838304482E+02  0.14356841761E+02  0.53530535093E+02  0.10566000000E+00 0. -1.
         23    2    1    0    0    0 -0.16642310175E+02 -0.43739810713E+01  0.23430314212E+02  0.95929777736E+02  0.91419059468E+02 0.  0.
         13    1    3    3    0    0  0.88314914492E+01  0.40464323411E+02  0.90734724517E+01  0.42399242643E+02  0.10566000000E+00 0.  1.
         22    1    1    0    0    0  0.16642310175E+02  0.43739810713E+01 -0.23430314212E+02  0.29070222264E+02  0.00000000000E+00 0.  1.
</event>
<event>
 5    1  0.1320187E-009  0.9118800E+02  0.7818608E-02  0.1130116E+00
         25   -1    0    0    0    0  0.00000000000E+00  0.00000000000E+00  0.99999998245E-14  0.12500000000E+03  0.12500000000E+03 0.  0.
        -13    1    3    3    0    0  0.52156880402E+02 -0.28167113195E+02 -0.10792792526E+02  0.60251323417E+02  0.10566000000E+00 0.  1.
         23    2    1    0    0    0  0.20609716695E+02 -0.22936587994E+02 -0.11089583456E+02  0.92230710226E+02  0.86212977890E+02 0.  0.
         13    1    3    3    0    0 -0.31547163707E+02  0.52305252014E+01 -0.29679092974E+00  0.31979386809E+02  0.10566000000E+00 0. -1.
         22    1    1    0    0    0 -0.20609716695E+02  0.22936587994E+02  0.11089583456E+02  0.32769289774E+02  0.00000000000E+00 0.  1.
</event>
<event>
 5    1  0.1320187E-009  0.9118800E+02  0.7818608E-02  0.1130116E+00
         25   -1    0    0    0    0  0.00000000000E+00  0.00000000000E+00  0.99999998245E-14  0.12500000000E+03  0.12500000000E+03 0.  0.
        -13    1    3    3    0    0  0.13979784240E+01  0.30913515421E+02 -0.47247432836E+02  0.56479472846E+02  0.10566000000E+00 0. -1.
         23    2    1    0    0    0  0.78542815673E+01 -0.47058338801E+01 -0.23515055105E+02  0.99765253557E+02  0.96521051534E+02 0.  0.
         13    1    3    3    0    0  0.64563031432E+01 -0.35619349301E+02  0.23732377731E+02  0.43285780711E+02  0.10566000000E+00 0.  1.
         22    1    1    0    0    0 -0.78542815673E+01  0.47058338801E+01  0.23515055105E+02  0.25234746443E+02  0.00000000000E+00 0. -1.
</event>
<event>
 5    1  0.1320187E-009  0.9118800E+02  0.7818608E-02  0.1130116E+00
         25   -1    0    0    0    0  0.00000000000E+00  0.00000000000E+00  0.99999998245E-14  0.12500000000E+03  0.12500000000E+03 0.  0.
        -13    1    3    3    0    0  0.55836365424E+02  0.18795391094E+02 -0.14387417974E+01  0.58932568009E+02  0.10566000000E+00 0.  1.
         23    2    1    0    0    0  0.19371195768E+02  0.19516975425E+02  0.75256053795E+01  0.96490522777E+02  0.92182594313E+02 0.  0.
         13    1    3    3    0    0 -0.36465169656E+02  0.72158433094E+00  0.89643471769E+01  0.37557954768E+02  0.10566000000E+00 0. -1.
         22    1    1    0    0    0 -0.19371195768E+02 -0.19516975425E+02 -0.75256053795E+01  0.28509477223E+02  0.00000000000E+00 0. -1.
</event>
<event>
 5    1  0.1320187E-009  0.9118800E+02  0.7818608E-02  0.1130116E+00
         25   -1    0    0    0    0  0.00000000000E+00  0.00000000000E+00  0.99999998245E-14  0.12500000000E+03  0.12500000000E+03 0.  0.
        -13    1    3    3    0    0  0.17200252863E+02  0.40871496179E+02  0.64971471269E+01  0.44816871637E+02  0.10566000000E+00 0.  1.
         23    2    1    0    0    0 -0.11385689649E+02  0.16796476381E+02 -0.24369217238E+02  0.93288577824E+02  0.87733371394E+02 0.  0.
         13    1    3    3    0    0 -0.28585942513E+02 -0.24075019798E+02 -0.30866364365E+02  0.48471706188E+02  0.10566000000E+00 0. -1.
         22    1    1    0    0    0  0.11385689649E+02 -0.16796476381E+02  0.24369217238E+02  0.31711422176E+02  0.00000000000E+00 0.  1.
</event>
<event>
 5    1  0.1320187E-009  0.9118800E+02  0.7818608E-02  0.1130116E+00
         25   -1    0    0    0    0  0.00000000000E+00  0.00000000000E+00  0.99999998245E-14  0.12500000000E+03  0.12500000000E+03 0.  0.
        -13    1    3    3    0    0  0.14212911529E+02  0.82172820355E+01  0.57494986120E+02  0.59793103040E+02  0.10566000000E+00 0. -1.
         23    2    1    0    0    0  0.15529282585E+02 -0.53465449885E+01  0.24366536990E+02  0.95615101058E+02  0.90987775358E+02 0.  0.
         13    1    3    3    0    0  0.13163710556E+01 -0.13563827024E+02 -0.33128449129E+02  0.35821998018E+02  0.10566000000E+00 0.  1.
         22    1    1    0    0    0 -0.15529282585E+02  0.53465449885E+01 -0.24366536990E+02  0.29384898942E+02  0.00000000000E+00 0. -1.
</event>
<event>
 5    1  0.1320187E-009  0.9118800E+02  0.7818608E-02  0.1130116E+00
         25   -1    0    0    0    0  0.00000000000E+00  0.00000000000E+00  0.99999998245E-14  0.12500000000E+03  0.12500000000E+03 0.  0.
        -13    1    3    3    0    0  0.15661922359E+02  0.11741014390E+02  0.41596903397E+02  0.45972391357E+02  0.10566000000E+00 0. -1.
         23    2    1    0    0    0 -0.95810229769E+01 -0.21295336621E+02  0.25141421543E+02  0.90687051419E+02  0.83944998987E+02 0.  0.
         13    1    3    3    0    0 -0.25242945336E+02 -0.33036351011E+02 -0.16455481854E+02  0.44714660062E+02  0.10566000000E+00 0.  1.
         22    1    1    0    0    0  0.95810229769E+01  0.21295336621E+02 -0.25141421543E+02  0.34312948581E+02  0.00000000000E+00 0.  1.
</event>
<event>
 5    1  0.1320187E-009  0.9118800E+02  0.7818608E-02  0.1130116E+00
         25   -1    0    0    0    0  0.00000000000E+00  0.00000000000E+00  0.99999998245E-14  0.12500000000E+03  0.12500000000E+03 0.  0.
        -13    1    3    3    0    0  0.33898682975E+02 -0.11490389510E+02  0.71428467191E+01  0.36499057273E+02  0.10566000000E+00 0.  1.
         23    2    1    0    0    0 -0.16727454766E+02  0.99859777576E+01  0.24065873223E+02  0.94037219945E+02  0.88793608927E+02 0.  0.
         13    1    3    3    0    0 -0.50626137741E+02  0.21476367267E+02  0.16923026504E+02  0.57538162672E+02  0.10566000000E+00 0. -1.
         22    1    1    0    0    0  0.16727454766E+02 -0.99859777576E+01 -0.24065873223E+02  0.30962780055E+02  0.00000000000E+00 0. -1.
</event>
<event>
 5    1  0.1320187E-009  0.9118800E+02  0.7818608E-02  0.1130116E+00
         25   -1    0    0    0    0  0.00000000000E+00  0.00000000000E+00  0.99999998245E-14  0.12500000000E+03  0.12500000000E+03 0.  0.
        -13    1    3    3    0    0 -0.24333898613E+02  0.21494186969E+02 -0.40486410282E+02  0.51897006433E+02  0.10566000000E+00 0.  1.
         23    2    1    0    0    0 -0.25797726149E+01 -0.13867187682E+02 -0.25165894966E+02  0.96150799138E+02  0.91720770737E+02 0.  0.
         13    1    3    3    0    0  0.21754125998E+02 -0.35361374651E+02  0.15320515316E+02  0.44253792705E+02  0.10566000000E+00 0. -1.
         22    1    1    0    0    0  0.25797726149E+01  0.13867187682E+02  0.25165894966E+02  0.28849200862E+02  0.00000000000E+00 0.  1.
</event>
<event>
 5    1  0.1320187E-009  0.9118800E+02  0.7818608E-02  0.1130116E+00
         25   -1    0    0    0    0  0.00000000000E+00  0.00000000000E+00  0.99999998245E-14  0.12500000000E+03  0.12500000000E+03 0.  0.
        -13    1    3    3    0    0 -0.28140742371E+01 -0.12116934071E+02 -0.33050648031E+02  0.35314240816E+02  0.10566000000E+00 0. -1.
         23    2    1    0    0    0 -0.13176342464E+02 -0.61739116424E+01  0.25807785257E+02  0.95372732735E+02  0.90654195622E+02 0.  0.
         13    1    3    3    0    0 -0.10362268227E+02  0.59430224283E+01  0.58858433289E+02  0.60058491919E+02  0.10566000000E+00 0.  1.
         22    1    1    0    0    0  0.13176342464E+02  0.61739116424E+01 -0.25807785257E+02  0.29627267265E+02  0.00000000000E+00 0.  1.
</event>
<event>
 5    1  0.1320187E-009  0.9118800E+02  0.7818608E-02  0.1130116E+00
         25   -1    0    0    0    0  0.00000000000E+00  0.00000000000E+00  0.99999998245E-14  0.12500000000E+03  0.12500000000E+03 0.  0.
        -13    1    3    3    0    0  0.29491247271E+01  0.20242789407E+02  0.95505274853E+01  0.22576350434E+02  0.10566000000E+00 0.  1.
         23    2    1    0    0    0 -0.18035064596E+02 -0.17358467362E+02 -0.33310808921E+02  0.83332387456E+02  0.72167145323E+02 0.  0.
         13    1    3    3    0    0 -0.20984189323E+02 -0.37601256769E+02 -0.42861336406E+02  0.60756037023E+02  0.10566000000E+00 0. -1.
         22    1    1    0    0    0  0.18035064596E+02  0.17358467362E+02  0.33310808921E+02  0.41667612544E+02  0.00000000000E+00 0. -1.
</event>
<event>
 5    1  0.1320187E-009  0.9118800E+02  0.7818608E-02  0.1130116E+00
         25   -1    0    0    0    0  0.00000000000E+00  0.00000000000E+00  0.99999998245E-14  0.12500000000E+03  0.12500000000E+03 0.  0.
        -13    1    3    3    0    0 -0.19067193623E+02 -0.22842416357E+02  0.11307292516E+02  0.31830800898E+02  0.10566000000E+00 0. -1.
         23    2    1    0    0    0  0.25357402893E+02  0.14611624070E+02 -0.10518573623E+02  0.93901160303E+02  0.88601862711E+02 0.  0.
         13    1    3    3    0    0  0.44424596516E+02  0.37454040428E+02 -0.21825866139E+02  0.62070359405E+02  0.10566000000E+00 0.  1.
         22    1    1    0    0    0 -0.25357402893E+02 -0.14611624070E+02  0.10518573623E+02  0.31098839697E+02  0.00000000000E+00 0.  1.
</event>
<event>
 5    1  0.1320187E-009  0.9118800E+02  0.7818608E-02  0.1130116E+00
         25   -1    0    0    0    0  0.00000000000E+00  0.00000000000E+00  0.99999998245E-14  0.12500000000E+03  0.12500000000E+03 0.  0.
        -13    1    3    3    0    0  0.40559046186E+02  0.30290179772E+02 -0.23290608694E+02  0.55722480522E+02  0.10566000000E+00 0.  1.
         23    2    1    0    0    0  0.71910718216E+01  0.36322868615E+01 -0.25269312693E+02  0.98477496616E+02  0.94838674358E+02 0.  0.
         13    1    3    3    0    0 -0.33367974365E+02 -0.26657892910E+02 -0.19787039987E+01  0.42755016094E+02  0.10566000000E+00 0. -1.
         22    1    1    0    0    0 -0.71910718216E+01 -0.36322868615E+01  0.25269312693E+02  0.26522503384E+02  0.00000000000E+00 0.  1.
</event>
<event>
 5    1  0.1320187E-009  0.9118800E+02  0.7818608E-02  0.1130116E+00
         25   -1    0    0    0    0  0.00000000000E+00  0.00000000000E+00  0.99999998245E-14  0.12500000000E+03  0.12500000000E+03 0.  0.
        -13    1    3    3    0    0  0.18306588158E+01  0.40231162225E+02 -0.41699000467E+02  0.57971678686E+02  0.10566000000E+00 0. -1.
         23    2    1    0    0    0 -0.21251871359E+01  0.33498654474E+01 -0.26739795682E+02  0.97967525233E+02  0.94164119007E+02 0.  0.
         13    1    3    3    0    0 -0.39558459516E+01 -0.36881296778E+02  0.14959204785E+02  0.39995846547E+02  0.10566000000E+00 0.  1.
         22    1    1    0    0    0  0.21251871359E+01 -0.33498654474E+01  0.26739795682E+02  0.27032474767E+02  0.00000000000E+00 0. -1.
</event>
<event>
 5    1  0.1320187E-009  0.9118800E+02  0.7818608E-02  0.1130116E+00
         25   -1    0    0    0    0  0.00000000000E+00  0.00000000000E+00  0.99999998245E-14  0.12500000000E+03  0.12500000000E+03 0.  0.
        -13    1    3    3    0    0  0.27828215290E+01  0.16058615861E+02  0.26892254590E+02  0.31445631811E+02  0.10566000000E+00 0. -1.
         23    2    1    0    0    0 -0.38632239681E+01 -0.62575111373E+00 -0.31869722427E+02  0.92890884916E+02  0.87164908243E+02 0.  0.
         13    1    3    3    0    0 -0.66460454971E+01 -0.16684366975E+02 -0.58761977017E+02  0.61445253105E+02  0.10566000000E+00 0.  1.
         22    1    1    0    0    0  0.38632239681E+01  0.62575111373E+00  0.31869722427E+02  0.32109115084E+02  0.00000000000E+00 0.  1.
</event>
<event>
 5    1  0.1320187E-009  0.9118800E+02  0.7818608E-02  0.1130116E+00
         25   -1    0    0    0    0  0.00000000000E+00  0.00000000000E+00  0.99999998245E-14  0.12500000000E+03  0.12500000000E+03 0.  0.
        -13    1    3    3    0    0 -0.32094537484E+02 -0.28294946390E+02 -0.39821844555E+02  0.58450438795E+02  0.10566000000E+00 0.  1.
         23    2    1    0    0    0 -0.18962941032E+02 -0.21991916100E+02 -0.58991255580E+01  0.95368307699E+02  0.90648093883E+02 0.  0.
         13    1    3    3    0    0  0.13131596453E+02  0.63030302901E+01  0.33922718997E+02  0.36917868904E+02  0.10566000000E+00 0. -1.
         22    1    1    0    0    0  0.18962941032E+02  0.21991916100E+02  0.58991255580E+01  0.29631692301E+02  0.00000000000E+00 0.  1.
</event>
<event>
 5    1  0.1320187E-009  0.9118800E+02  0.7818608E-02  0.1130116E+00
         25   -1    0    0    0    0  0.00000000000E+00  0.00000000000E+00  0.99999998245E-14  0.12500000000E+03  0.12500000000E+03 0.  0.
        -13    1    3    3    0    0 -0.49811781386E+02 -0.15533889246E+02 -0.12304553167E+02  0.53609033498E+02  0.10566000000E+00 0.  1.
         23    2    1    0    0    0 -0.75476796130E+01 -0.22207569657E+02 -0.16078480164E+02  0.96563032123E+02  0.92280864922E+02 0.  0.
         13    1    3    3    0    0  0.42264101773E+02 -0.66736804109E+01 -0.37739269974E+01  0.42953998625E+02  0.10566000000E+00 0. -1.
         22    1    1    0    0    0  0.75476796130E+01  0.22207569657E+02  0.16078480164E+02  0.28436967877E+02  0.00000000000E+00 0.  1.
</event>
<event>
 5    1  0.1320187E-009  0.9118800E+02  0.7818608E-02  0.1130116E+00
         25   -1    0    0    0    0  0.00000000000E+00  0.00000000000E+00  0.99999998245E-14  0.12500000000E+03  0.12500000000E+03 0.  0.
        -13    1    3    3    0    0  0.53324160939E+02 -0.22444895643E+02  0.12268470712E+02  0.59141914223E+02  0.10566000000E+00 0.  1.
         23    2    1    0    0    0  0.29113444328E+02  0.89430457534E+00 -0.22821810635E+01  0.95783553061E+02  0.91218903004E+02 0.  0.
         13    1    3    3    0    0 -0.24210716611E+02  0.23339200218E+02 -0.14550651775E+02  0.36641638838E+02  0.10566000000E+00 0. -1.
         22    1    1    0    0    0 -0.29113444328E+02 -0.89430457534E+00  0.22821810635E+01  0.29216446939E+02  0.00000000000E+00 0.  1.
</event>
<event>
 5    1  0.1320187E-009  0.9118800E+02  0.7818608E-02  0.1130116E+00
         25   -1    0    0    0    0  0.00000000000E+00  0.00000000000E+00  0.99999998245E-14  0.12500000000E+03  0.12500000000E+03 0.  0.
        -13    1    3    3    0    0  0.19578326480E+02  0.45298377909E+02 -0.28443423079E+02  0.56958698979E+02  0.10566000000E+00 0.  1.
         23    2    1    0    0    0  0.88280758342E+01  0.30469414797E+02  0.27779044239E+01  0.93156053730E+02  0.87544351232E+02 0.  0.
         13    1    3    3    0    0 -0.10750250646E+02 -0.14828963112E+02  0.31221327503E+02  0.36197354751E+02  0.10566000000E+00 0. -1.
         22    1    1    0    0    0 -0.88280758342E+01 -0.30469414797E+02 -0.27779044239E+01  0.31843946270E+02  0.00000000000E+00 0.  1.
</event>
<event>
 5    1  0.1320187E-009  0.9118800E+02  0.7818608E-02  0.1130116E+00
         25   -1    0    0    0    0  0.00000000000E+00  0.00000000000E+00  0.99999998245E-14  0.12500000000E+03  0.12500000000E+03 0.  0.
        -13    1    3    3    0    0  0.65084715988E+01  0.39105723165E+02 -0.46088821888E+02  0.60793161242E+02  0.10566000000E+00 0.  1.
         23    2    1    0    0    0  0.12466707378E+02  0.21327916733E+02 -0.18560808519E+02  0.94100122365E+02  0.88882116262E+02 0.  0.
         13    1    3    3    0    0  0.59582357787E+01 -0.17777806432E+02  0.27528013369E+02  0.33306961123E+02  0.10566000000E+00 0. -1.
         22    1    1    0    0    0 -0.12466707378E+02 -0.21327916733E+02  0.18560808519E+02  0.30899877635E+02  0.00000000000E+00 0.  1.
</event>
<event>
 5    1  0.1320187E-009  0.9118800E+02  0.7818608E-02  0.1130116E+00
         25   -1    0    0    0    0  0.00000000000E+00  0.00000000000E+00  0.99999998245E-14  0.12500000000E+03  0.12500000000E+03 0.  0.
        -13    1    3    3    0    0 -0.26595925920E+02  0.91311196338E+01 -0.14855277336E+02  0.31802689353E+02  0.10566000000E+00 0.  1.
         23    2    1    0    0    0  0.56860269702E+01 -0.32428307665E+02  0.10804191395E+02  0.90349508049E+02  0.83440859369E+02 0.  0.
         13    1    3    3    0    0  0.32281952890E+02 -0.41559427299E+02  0.25659468731E+02  0.58546818696E+02  0.10566000000E+00 0. -1.
         22    1    1    0    0    0 -0.56860269702E+01  0.32428307665E+02 -0.10804191395E+02  0.34650491951E+02  0.00000000000E+00 0. -1.
</event>
<event>
 5    1  0.1320187E-009  0.9118800E+02  0.7818608E-02  0.1130116E+00
         25   -1    0    0    0    0  0.00000000000E+00  0.00000000000E+00  0.99999998245E-14  0.12500000000E+03  0.12500000000E+03 0.  0.
        -13    1    3    3    0    0  0.57219423576E+02 -0.15582090093E+02  0.74489399613E+01  0.59769238214E+02  0.10566000000E+00 0. -1.
         23    2    1    0    0    0  0.20959454753E+02 -0.17782593287E+02  0.88517432561E+01  0.96123145493E+02  0.91683075719E+02 0.  0.
         13    1    3    3    0    0 -0.36259968823E+02 -0.22005031934E+01  0.14028032947E+01  0.36353907279E+02  0.10566000000E+00 0.  1.
         22    1    1    0    0    0 -0.20959454753E+02  0.17782593287E+02 -0.88517432561E+01  0.28876854507E+02  0.00000000000E+00 0. -1.
</event>
<event>
 5    1  0.1320187E-009  0.9118800E+02  0.7818608E-02  0.1130116E+00
         25   -1    0    0    0    0  0.00000000000E+00  0.00000000000E+00  0.99999998245E-14  0.12500000000E+03  0.12500000000E+03 0.  0.
        -13    1    3    3    0    0 -0.26767155199E+02  0.43999467182E+02 -0.33885498565E+02  0.61649589511E+02  0.10566000000E+00 0. -1.
         23    2    1    0    0    0 -0.18338068945E+02  0.17683137479E+02 -0.12319123688E+02  0.96702669168E+02  0.92469818277E+02 0.  0.
         13    1    3    3    0    0  0.84290862540E+01 -0.26316329703E+02  0.21566374878E+02  0.35053079658E+02  0.10566000000E+00 0.  1.
         22    1    1    0    0    0  0.18338068945E+02 -0.17683137479E+02  0.12319123688E+02  0.28297330832E+02  0.00000000000E+00 0. -1.
</event>
<event>
 5    1  0.1320187E-009  0.9118800E+02  0.7818608E-02  0.1130116E+00
         25   -1    0    0    0    0  0.00000000000E+00  0.00000000000E+00  0.99999998245E-14  0.12500000000E+03  0.12500000000E+03 0.  0.
        -13    1    3    3    0    0 -0.23537627711E+02  0.16322097104E+02  0.31400088389E+02  0.42501852748E+02  0.10566000000E+00 0.  1.
         23    2    1    0    0    0  0.17667716026E+02  0.23633357859E+02 -0.10746040820E+01  0.95473087408E+02  0.90792465833E+02 0.  0.
         13    1    3    3    0    0  0.41205343737E+02  0.73112607554E+01 -0.32474692471E+02  0.52971234660E+02  0.10566000000E+00 0. -1.
         22    1    1    0    0    0 -0.17667716026E+02 -0.23633357859E+02  0.10746040820E+01  0.29526912592E+02  0.00000000000E+00 0. -1.
</event>
<event>
 5    1  0.1320187E-009  0.9118800E+02  0.7818608E-02  0.1130116E+00
         25   -1    0    0    0    0  0.00000000000E+00  0.00000000000E+00  0.99999998245E-14  0.12500000000E+03  0.12500000000E+03 0.  0.
        -13    1    3    3    0    0  0.14536032462E+02 -0.26868695054E+02 -0.15978609306E+02  0.34475355444E+02  0.10566000000E+00 0. -1.
         23    2    1    0    0    0 -0.71372525821E+01  0.15767971699E+02  0.23027391477E+02  0.96193228849E+02  0.91778577087E+02 0.  0.
         13    1    3    3    0    0 -0.21673285044E+02  0.42636666753E+02  0.39006000783E+02  0.61717873404E+02  0.10566000000E+00 0.  1.
         22    1    1    0    0    0  0.71372525821E+01 -0.15767971699E+02 -0.23027391477E+02  0.28806771151E+02  0.00000000000E+00 0.  1.
</event>
<event>
 5    1  0.1320187E-009  0.9118800E+02  0.7818608E-02  0.1130116E+00
         25   -1    0    0    0    0  0.00000000000E+00  0.00000000000E+00  0.99999998245E-14  0.12500000000E+03  0.12500000000E+03 0.  0.
        -13    1    3    3    0    0 -0.74016379092E+01  0.15380749046E+02 -0.30022268607E+02  0.34535481194E+02  0.10566000000E+00 0.  1.
         23    2    1    0    0    0  0.18051161234E+02 -0.14035136975E+02  0.17686460518E+02  0.96092554982E+02  0.91641359361E+02 0.  0.
         13    1    3    3    0    0  0.25452799144E+02 -0.29415886021E+02  0.47708729124E+02  0.61557073788E+02  0.10566000000E+00 0. -1.
         22    1    1    0    0    0 -0.18051161234E+02  0.14035136975E+02 -0.17686460518E+02  0.28907445018E+02  0.00000000000E+00 0. -1.
</event>
<event>
 5    1  0.1320187E-009  0.9118800E+02  0.7818608E-02  0.1130116E+00
         25   -1    0    0    0    0  0.00000000000E+00  0.00000000000E+00  0.99999998245E-14  0.12500000000E+03  0.12500000000E+03 0.  0.
        -13    1    3    3    0    0 -0.45888629459E+02 -0.12024445853E+02 -0.40634625897E+02  0.62462289404E+02  0.10566000000E+00 0.  1.
         23    2    1    0    0    0 -0.20992324267E+02 -0.56388153945E+01 -0.20629716826E+02  0.95032365233E+02  0.90183653221E+02 0.  0.
         13    1    3    3    0    0  0.24896305192E+02  0.63856304581E+01  0.20004909071E+02  0.32570075830E+02  0.10566000000E+00 0. -1.
         22    1    1    0    0    0  0.20992324267E+02  0.56388153945E+01  0.20629716826E+02  0.29967634767E+02  0.00000000000E+00 0.  1.
</event>
<event>
 5    1  0.1320187E-009  0.9118800E+02  0.7818608E-02  0.1130116E+00
         25   -1    0    0    0    0  0.00000000000E+00  0.00000000000E+00  0.99999998245E-14  0.12500000000E+03  0.12500000000E+03 0.  0.
        -13    1    3    3    0    0 -0.30618955006E+02  0.13884749403E+02  0.53211979265E+01  0.34038698316E+02  0.10566000000E+00 0. -1.
         23    2    1    0    0    0  0.28510400792E+02 -0.45340263044E+01  0.12435055407E+01  0.96104556521E+02  0.91657728153E+02 0.  0.
         13    1    3    3    0    0  0.59129355797E+02 -0.18418775707E+02 -0.40776923858E+01  0.62065858205E+02  0.10566000000E+00 0.  1.
         22    1    1    0    0    0 -0.28510400792E+02  0.45340263044E+01 -0.12435055407E+01  0.28895443479E+02  0.00000000000E+00 0.  1.
</event>
<event>
 5    1  0.1320187E-009  0.9118800E+02  0.7818608E-02  0.1130116E+00
         25   -1    0    0    0    0  0.00000000000E+00  0.00000000000E+00  0.99999998245E-14  0.12500000000E+03  0.12500000000E+03 0.  0.
        -13    1    3    3    0    0  0.51771091051E+02  0.17140728204E+02 -0.13076904112E+02  0.56080897078E+02  0.10566000000E+00 0. -1.
         23    2    1    0    0    0  0.21879682517E+02 -0.99938133666E+01 -0.15265487956E+02  0.96510845305E+02  0.92210147632E+02 0.  0.
         13    1    3    3    0    0 -0.29891408533E+02 -0.27134541571E+02 -0.21885838442E+01  0.40429948227E+02  0.10566000000E+00 0.  1.
         22    1    1    0    0    0 -0.21879682517E+02  0.99938133666E+01  0.15265487956E+02  0.28489154695E+02  0.00000000000E+00 0. -1.
</event>
<event>
 5    1  0.1320187E-009  0.9118800E+02  0.7818608E-02  0.1130116E+00
         25   -1    0    0    0    0  0.00000000000E+00  0.00000000000E+00  0.99999998245E-14  0.12500000000E+03  0.12500000000E+03 0.  0.
        -13    1    3    3    0    0 -0.54820542088E+02 -0.16692455997E+02 -0.21816952115E+02  0.61318190496E+02  0.10566000000E+00 0.  1.
         23    2    1    0    0    0 -0.25936003952E+02 -0.13156253824E+02 -0.34885667987E+01  0.95709499595E+02  0.91117368809E+02 0.  0.
         13    1    3    3    0    0  0.28884538137E+02  0.35362021730E+01  0.18328385317E+02  0.34391309099E+02  0.10566000000E+00 0. -1.
         22    1    1    0    0    0  0.25936003952E+02  0.13156253824E+02  0.34885667987E+01  0.29290500405E+02  0.00000000000E+00 0.  1.
</event>
<event>
 5    1  0.1320187E-009  0.9118800E+02  0.7818608E-02  0.1130116E+00
         25   -1    0    0    0    0  0.00000000000E+00  0.00000000000E+00  0.99999998245E-14  0.12500000000E+03  0.12500000000E+03 0.  0.
        -13    1    3    3    0    0  0.25146599800E+02  0.25313009661E+02 -0.46951000111E+02  0.58970395242E+02  0.10566000000E+00 0. -1.
         23    2    1    0    0    0  0.56581229566E+01 -0.11432255036E+01 -0.26950800474E+02  0.97437943362E+02  0.93458471207E+02 0.  0.
         13    1    3    3    0    0 -0.19488476844E+02 -0.26456235164E+02  0.20000199637E+02  0.38467548119E+02  0.10566000000E+00 0.  1.
         22    1    1    0    0    0 -0.56581229566E+01  0.11432255036E+01  0.26950800474E+02  0.27562056638E+02  0.00000000000E+00 0. -1.
</event>
<event>
 5    1  0.1320187E-009  0.9118800E+02  0.7818608E-02  0.1130116E+00
         25   -1    0    0    0    0  0.00000000000E+00  0.00000000000E+00  0.99999998245E-14  0.12500000000E+03  0.12500000000E+03 0.  0.
        -13    1    3    3    0    0  0.42064566402E+00  0.35286439009E+02 -0.21149016649E+02  0.41141241960E+02  0.10566000000E+00 0. -1.
         23    2    1    0    0    0 -0.29725392341E+02 -0.18986400497E+01  0.35427136648E+01  0.95004090213E+02  0.90144453813E+02 0.  0.
         13    1    3    3    0    0 -0.30146038005E+02 -0.37185079059E+02  0.24691730314E+02  0.53862848253E+02  0.10566000000E+00 0.  1.
         22    1    1    0    0    0  0.29725392341E+02  0.18986400497E+01 -0.35427136648E+01  0.29995909787E+02  0.00000000000E+00 0.  1.
</event>
<event>
 5    1  0.1320187E-009  0.9118800E+02  0.7818608E-02  0.1130116E+00
         25   -1    0    0    0    0  0.00000000000E+00  0.00000000000E+00  0.99999998245E-14  0.12500000000E+03  0.12500000000E+03 0.  0.
        -13    1    3    3    0    0  0.12553623560E+02 -0.45473760188E+02 -0.39885212574E+02  0.61776190205E+02  0.10566000000E+00 0.  1.
         23    2    1    0    0    0  0.10099671880E+02 -0.24698141024E+02 -0.14635740381E+02  0.94566360082E+02  0.89535412103E+02 0.  0.
         13    1    3    3    0    0 -0.24539516799E+01  0.20775619164E+02  0.25249472193E+02  0.32790169877E+02  0.10566000000E+00 0. -1.
         22    1    1    0    0    0 -0.10099671880E+02  0.24698141024E+02  0.14635740381E+02  0.30433639918E+02  0.00000000000E+00 0.  1.
</event>
<event>
 5    1  0.1320187E-009  0.9118800E+02  0.7818608E-02  0.1130116E+00
         25   -1    0    0    0    0  0.00000000000E+00  0.00000000000E+00  0.99999998245E-14  0.12500000000E+03  0.12500000000E+03 0.  0.
        -13    1    3    3    0    0  0.28944384781E+02 -0.21480688716E+02  0.16854739061E+02  0.39790586712E+02  0.10566000000E+00 0.  1.
         23    2    1    0    0    0 -0.37659757695E+01  0.24021020083E+02  0.16106582044E+02  0.95834713023E+02  0.91288982115E+02 0.  0.
         13    1    3    3    0    0 -0.32710360551E+02  0.45501708799E+02 -0.74815701658E+00  0.56044126311E+02  0.10566000000E+00 0. -1.
         22    1    1    0    0    0  0.37659757695E+01 -0.24021020083E+02 -0.16106582044E+02  0.29165286977E+02  0.00000000000E+00 0. -1.
</event>
<event>
 5    1  0.1320187E-009  0.9118800E+02  0.7818608E-02  0.1130116E+00
         25   -1    0    0    0    0  0.00000000000E+00  0.00000000000E+00  0.99999998245E-14  0.12500000000E+03  0.12500000000E+03 0.  0.
        -13    1    3    3    0    0  0.33376380052E+02 -0.25531207304E+02 -0.33672196199E+02  0.53848428507E+02  0.10566000000E+00 0.  1.
         23    2    1    0    0    0  0.45668925240E+01 -0.29025911441E+02 -0.40125091290E+01  0.95344304564E+02  0.90614988501E+02 0.  0.
         13    1    3    3    0    0 -0.28809487528E+02 -0.34947041365E+01  0.29659687070E+02  0.41495876057E+02  0.10566000000E+00 0. -1.
         22    1    1    0    0    0 -0.45668925240E+01  0.29025911441E+02  0.40125091290E+01  0.29655695436E+02  0.00000000000E+00 0.  1.
</event>
<event>
 5    1  0.1320187E-009  0.9118800E+02  0.7818608E-02  0.1130116E+00
         25   -1    0    0    0    0  0.00000000000E+00  0.00000000000E+00  0.99999998245E-14  0.12500000000E+03  0.12500000000E+03 0.  0.
        -13    1    3    3    0    0 -0.87137868307E+00 -0.33676258396E+02 -0.19269174679E+02  0.38809302200E+02  0.10566000000E+00 0.  1.
         23    2    1    0    0    0  0.19062274679E+01  0.24678039198E+02 -0.11371702668E+02  0.97761150109E+02  0.93889762632E+02 0.  0.
         13    1    3    3    0    0  0.27776061510E+01  0.58354297595E+02  0.78974720110E+01  0.58951847909E+02  0.10566000000E+00 0. -1.
         22    1    1    0    0    0 -0.19062274679E+01 -0.24678039198E+02  0.11371702668E+02  0.27238849891E+02  0.00000000000E+00 0. -1.
</event>
<event>
 5    1  0.1320187E-009  0.9118800E+02  0.7818608E-02  0.1130116E+00
         25   -1    0    0    0    0  0.00000000000E+00  0.00000000000E+00  0.99999998245E-14  0.12500000000E+03  0.12500000000E+03 0.  0.
        -13    1    3    3    0    0 -0.27336280698E+02  0.80506911147E+01 -0.38924674534E+02  0.48241344523E+02  0.10566000000E+00 0. -1.
         23    2    1    0    0    0 -0.72825614972E+01  0.27809832677E+02 -0.34105373483E-01  0.96252414733E+02  0.91859151331E+02 0.  0.
         13    1    3    3    0    0  0.20053719200E+02  0.19759141563E+02  0.38890569160E+02  0.48011070210E+02  0.10566000000E+00 0.  1.
         22    1    1    0    0    0  0.72825614972E+01 -0.27809832677E+02  0.34105373483E-01  0.28747585267E+02  0.00000000000E+00 0.  1.
</event>
<event>
 5    1  0.1320187E-009  0.9118800E+02  0.7818608E-02  0.1130116E+00
         25   -1    0    0    0    0  0.00000000000E+00  0.00000000000E+00  0.99999998245E-14  0.12500000000E+03  0.12500000000E+03 0.  0.
        -13    1    3    3    0    0 -0.16466368134E+02  0.27627862466E+02 -0.13320760343E+02  0.34812266288E+02  0.10566000000E+00 0.  1.
         23    2    1    0    0    0  0.12090195452E+01 -0.29122611389E+02  0.54360358786E+00  0.95847234655E+02  0.91306126102E+02 0.  0.
         13    1    3    3    0    0  0.17675387679E+02 -0.56750473855E+02  0.13864363930E+02  0.61034968367E+02  0.10566000000E+00 0. -1.
         22    1    1    0    0    0 -0.12090195452E+01  0.29122611389E+02 -0.54360358786E+00  0.29152765345E+02  0.00000000000E+00 0. -1.
</event>
<event>
 5    1  0.1320187E-009  0.9118800E+02  0.7818608E-02  0.1130116E+00
         25   -1    0    0    0    0  0.00000000000E+00  0.00000000000E+00  0.99999998245E-14  0.12500000000E+03  0.12500000000E+03 0.  0.
        -13    1    3    3    0    0  0.32603253704E+02 -0.16843327150E+02 -0.19601160492E+02  0.41603923832E+02  0.10566000000E+00 0. -1.
         23    2    1    0    0    0 -0.22014379694E+02 -0.12957431096E+02 -0.11613734610E+02  0.96939230846E+02  0.92789049524E+02 0.  0.
         13    1    3    3    0    0 -0.54617633398E+02  0.38858960538E+01  0.79874258812E+01  0.55335307014E+02  0.10566000000E+00 0.  1.
         22    1    1    0    0    0  0.22014379694E+02  0.12957431096E+02  0.11613734610E+02  0.28060769154E+02  0.00000000000E+00 0.  1.
</event>
<event>
 5    1  0.1320187E-009  0.9118800E+02  0.7818608E-02  0.1130116E+00
         25   -1    0    0    0    0  0.00000000000E+00  0.00000000000E+00  0.99999998245E-14  0.12500000000E+03  0.12500000000E+03 0.  0.
        -13    1    3    3    0    0 -0.57119926804E+02  0.11371262836E+02 -0.66756109397E+01  0.58622236413E+02  0.10566000000E+00 0.  1.
         23    2    1    0    0    0 -0.34359120101E+02 -0.21929460332E+01  0.90076528217E+01  0.89412137522E+02  0.82024596192E+02 0.  0.
         13    1    3    3    0    0  0.22760806703E+02 -0.13564208869E+02  0.15683263761E+02  0.30789901108E+02  0.10566000000E+00 0. -1.
         22    1    1    0    0    0  0.34359120101E+02  0.21929460332E+01 -0.90076528217E+01  0.35587862478E+02  0.00000000000E+00 0.  1.
</event>
<event>
 5    1  0.1320187E-009  0.9118800E+02  0.7818608E-02  0.1130116E+00
         25   -1    0    0    0    0  0.00000000000E+00  0.00000000000E+00  0.99999998245E-14  0.12500000000E+03  0.12500000000E+03 0.  0.
        -13    1    3    3    0    0 -0.23401589934E+02  0.45202641794E+02 -0.36033065491E+02  0.62364302364E+02  0.10566000000E+00 0. -1.
         23    2    1    0    0    0 -0.89686784491E+01  0.19386447776E+02 -0.18460920841E+02  0.96767445231E+02  0.92557340647E+02 0.  0.
         13    1    3    3    0    0  0.14432911485E+02 -0.25816194018E+02  0.17572144650E+02  0.34403142867E+02  0.10566000000E+00 0.  1.
         22    1    1    0    0    0  0.89686784491E+01 -0.19386447776E+02  0.18460920841E+02  0.28232554769E+02  0.00000000000E+00 0. -1.
</event>
<event>
 5    1  0.1320187E-009  0.9118800E+02  0.7818608E-02  0.1130116E+00
         25   -1    0    0    0    0  0.00000000000E+00  0.00000000000E+00  0.99999998245E-14  0.12500000000E+03  0.12500000000E+03 0.  0.
        -13    1    3    3    0    0 -0.35535265023E+02  0.16432635978E+02  0.27419088588E+02  0.47797533079E+02  0.10566000000E+00 0.  1.
         23    2    1    0    0    0 -0.23011304928E+02 -0.21154911544E+02  0.49263563896E+01  0.93356368347E+02  0.87829904285E+02 0.  0.
         13    1    3    3    0    0  0.12523960095E+02 -0.37587547522E+02 -0.22492732198E+02  0.45558835268E+02  0.10566000000E+00 0. -1.
         22    1    1    0    0    0  0.23011304928E+02  0.21154911544E+02 -0.49263563896E+01  0.31643631653E+02  0.00000000000E+00 0.  1.
</event>
<event>
 5    1  0.1320187E-009  0.9118800E+02  0.7818608E-02  0.1130116E+00
         25   -1    0    0    0    0  0.00000000000E+00  0.00000000000E+00  0.99999998245E-14  0.12500000000E+03  0.12500000000E+03 0.  0.
        -13    1    3    3    0    0 -0.13837406751E+02  0.26307107539E+02 -0.66595220814E+01  0.30461420371E+02  0.10566000000E+00 0.  1.
         23    2    1    0    0    0  0.11985291786E+01 -0.25991075290E+02  0.21055036768E+02  0.91529310729E+02  0.85189950595E+02 0.  0.
         13    1    3    3    0    0  0.15035935930E+02 -0.52298182829E+02  0.27714558849E+02  0.61067890358E+02  0.10566000000E+00 0. -1.
         22    1    1    0    0    0 -0.11985291786E+01  0.25991075290E+02 -0.21055036768E+02  0.33470689271E+02  0.00000000000E+00 0. -1.
</event>
<event>
 5    1  0.1320187E-009  0.9118800E+02  0.7818608E-02  0.1130116E+00
         25   -1    0    0    0    0  0.00000000000E+00  0.00000000000E+00  0.99999998245E-14  0.12500000000E+03  0.12500000000E+03 0.  0.
        -13    1    3    3    0    0 -0.52116577253E+01  0.14373029518E+02  0.36613631633E+02  0.39677632731E+02  0.10566000000E+00 0. -1.
         23    2    1    0    0    0  0.80328327009E+01  0.20827368771E+02 -0.18050380963E+02  0.96292475829E+02  0.91913649461E+02 0.  0.
         13    1    3    3    0    0  0.13244490426E+02  0.64543392528E+01 -0.54664012596E+02  0.56614843097E+02  0.10566000000E+00 0.  1.
         22    1    1    0    0    0 -0.80328327009E+01 -0.20827368771E+02  0.18050380963E+02  0.28707524171E+02  0.00000000000E+00 0.  1.
</event>
<event>
 5    1  0.1320187E-009  0.9118800E+02  0.7818608E-02  0.1130116E+00
         25   -1    0    0    0    0  0.00000000000E+00  0.00000000000E+00  0.99999998245E-14  0.12500000000E+03  0.12500000000E+03 0.  0.
        -13    1    3    3    0    0 -0.36415319562E+02  0.34758190450E+01  0.43898405841E+02  0.57142261210E+02  0.10566000000E+00 0.  1.
         23    2    1    0    0    0 -0.10112517278E+01  0.57054254203E+01  0.28675483599E+02  0.95744951394E+02  0.91165990635E+02 0.  0.
         13    1    3    3    0    0  0.35404067835E+02  0.22296063752E+01 -0.15222922241E+02  0.38602690184E+02  0.10566000000E+00 0. -1.
         22    1    1    0    0    0  0.10112517278E+01 -0.57054254203E+01 -0.28675483599E+02  0.29255048606E+02  0.00000000000E+00 0. -1.
</event>
<event>
 5    1  0.1320187E-009  0.9118800E+02  0.7818608E-02  0.1130116E+00
         25   -1    0    0    0    0  0.00000000000E+00  0.00000000000E+00  0.99999998245E-14  0.12500000000E+03  0.12500000000E+03 0.  0.
        -13    1    3    3    0    0 -0.20008987684E+02  0.26392063202E+02  0.24211847413E+02  0.41025910196E+02  0.10566000000E+00 0.  1.
         23    2    1    0    0    0  0.27674848307E+02  0.65328637266E+01  0.12197576168E+02  0.94058823525E+02  0.88824016354E+02 0.  0.
         13    1    3    3    0    0  0.47683835991E+02 -0.19859199475E+02 -0.12014271245E+02  0.53032913329E+02  0.10566000000E+00 0. -1.
         22    1    1    0    0    0 -0.27674848307E+02 -0.65328637266E+01 -0.12197576168E+02  0.30941176475E+02  0.00000000000E+00 0. -1.
</event>
<event>
 5    1  0.1320187E-009  0.9118800E+02  0.7818608E-02  0.1130116E+00
         25   -1    0    0    0    0  0.00000000000E+00  0.00000000000E+00  0.99999998245E-14  0.12500000000E+03  0.12500000000E+03 0.  0.
        -13    1    3    3    0    0 -0.36583720006E+02  0.10955497351E+02  0.63051853681E+01  0.38706046275E+02  0.10566000000E+00 0.  1.
         23    2    1    0    0    0 -0.13169912023E+02 -0.23867179748E+02 -0.22541785201E+02  0.89627398571E+02  0.82351986270E+02 0.  0.
         13    1    3    3    0    0  0.23413807983E+02 -0.34822677099E+02 -0.28846970569E+02  0.50921352296E+02  0.10566000000E+00 0. -1.
         22    1    1    0    0    0  0.13169912023E+02  0.23867179748E+02  0.22541785201E+02  0.35372601429E+02  0.00000000000E+00 0. -1.
</event>
<event>
 5    1  0.1320187E-009  0.9118800E+02  0.7818608E-02  0.1130116E+00
         25   -1    0    0    0    0  0.00000000000E+00  0.00000000000E+00  0.99999998245E-14  0.12500000000E+03  0.12500000000E+03 0.  0.
        -13    1    3    3    0    0  0.90208248085E+01  0.38944893662E+02 -0.66072396375E+01  0.40518474826E+02  0.10566000000E+00 0. -1.
         23    2    1    0    0    0  0.13644258181E+02 -0.14335215527E+02 -0.21244350478E+02  0.95965768260E+02  0.91468257144E+02 0.  0.
         13    1    3    3    0    0  0.46234333720E+01 -0.53280109189E+02 -0.14637110840E+02  0.55447293434E+02  0.10566000000E+00 0.  1.
         22    1    1    0    0    0 -0.13644258181E+02  0.14335215527E+02  0.21244350478E+02  0.29034231740E+02  0.00000000000E+00 0. -1.
</event>
<event>
 5    1  0.1320187E-009  0.9118800E+02  0.7818608E-02  0.1130116E+00
         25   -1    0    0    0    0  0.00000000000E+00  0.00000000000E+00  0.99999998245E-14  0.12500000000E+03  0.12500000000E+03 0.  0.
        -13    1    3    3    0    0  0.34353603596E+02  0.17958889020E+02  0.39944786017E+02  0.55662275096E+02  0.10566000000E+00 0.  1.
         23    2    1    0    0    0  0.26840422186E+02 -0.77915315934E+01  0.11448760698E+02  0.94797510877E+02  0.89857541248E+02 0.  0.
         13    1    3    3    0    0 -0.75131814096E+01 -0.25750420613E+02 -0.28496025319E+02  0.39135235781E+02  0.10566000000E+00 0. -1.
         22    1    1    0    0    0 -0.26840422186E+02  0.77915315934E+01 -0.11448760698E+02  0.30202489123E+02  0.00000000000E+00 0.  1.
</event>
<event>
 5    1  0.1320187E-009  0.9118800E+02  0.7818608E-02  0.1130116E+00
         25   -1    0    0    0    0  0.00000000000E+00  0.00000000000E+00  0.99999998245E-14  0.12500000000E+03  0.12500000000E+03 0.  0.
        -13    1    3    3    0    0 -0.14598873746E+02 -0.29590738161E+02  0.91569854793E+01  0.34243254031E+02  0.10566000000E+00 0.  1.
         23    2    1    0    0    0  0.19415364075E+02  0.17764819853E+02 -0.11744552633E+02  0.96181955251E+02  0.91763221461E+02 0.  0.
         13    1    3    3    0    0  0.34014237821E+02  0.47355558013E+02 -0.20901538112E+02  0.61938701220E+02  0.10566000000E+00 0. -1.
         22    1    1    0    0    0 -0.19415364075E+02 -0.17764819853E+02  0.11744552633E+02  0.28818044749E+02  0.00000000000E+00 0. -1.
</event>
<event>
 5    1  0.1320187E-009  0.9118800E+02  0.7818608E-02  0.1130116E+00
         25   -1    0    0    0    0  0.00000000000E+00  0.00000000000E+00  0.99999998245E-14  0.12500000000E+03  0.12500000000E+03 0.  0.
        -13    1    3    3    0    0  0.44645480196E+02 -0.30454251608E+01 -0.26528356958E+02  0.52021710884E+02  0.10566000000E+00 0.  1.
         23    2    1    0    0    0  0.19144116253E+02 -0.26082862323E+02 -0.58760412151E+01  0.92116253948E+02  0.86046867967E+02 0.  0.
         13    1    3    3    0    0 -0.25501363942E+02 -0.23037437162E+02  0.20652315743E+02  0.40094543064E+02  0.10566000000E+00 0. -1.
         22    1    1    0    0    0 -0.19144116253E+02  0.26082862323E+02  0.58760412151E+01  0.32883746052E+02  0.00000000000E+00 0.  1.
</event>
<event>
 5    1  0.1320187E-009  0.9118800E+02  0.7818608E-02  0.1130116E+00
         25   -1    0    0    0    0  0.00000000000E+00  0.00000000000E+00  0.99999998245E-14  0.12500000000E+03  0.12500000000E+03 0.  0.
        -13    1    3    3    0    0  0.28555057874E+02  0.33153251536E+02 -0.17004502863E+02  0.46943516052E+02  0.10566000000E+00 0.  1.
         23    2    1    0    0    0  0.12444005818E+02  0.73491141107E+01  0.23386128667E+02  0.97508660035E+02  0.93553006413E+02 0.  0.
         13    1    3    3    0    0 -0.16111052056E+02 -0.25804137425E+02  0.40390631530E+02  0.50565143984E+02  0.10566000000E+00 0. -1.
         22    1    1    0    0    0 -0.12444005818E+02 -0.73491141107E+01 -0.23386128667E+02  0.27491339965E+02  0.00000000000E+00 0. -1.
</event>
<event>
 5    1  0.1320187E-009  0.9118800E+02  0.7818608E-02  0.1130116E+00
         25   -1    0    0    0    0  0.00000000000E+00  0.00000000000E+00  0.99999998245E-14  0.12500000000E+03  0.12500000000E+03 0.  0.
        -13    1    3    3    0    0 -0.11010387439E+02 -0.13928781187E+02 -0.53603800324E+02  0.56467850589E+02  0.10566000000E+00 0.  1.
         23    2    1    0    0    0 -0.22757591108E+02 -0.75643478184E+01 -0.16536664700E+02  0.95869456058E+02  0.91336542602E+02 0.  0.
         13    1    3    3    0    0 -0.11747203669E+02  0.63644333686E+01  0.37067135624E+02  0.39401605469E+02  0.10566000000E+00 0. -1.
         22    1    1    0    0    0  0.22757591108E+02  0.75643478184E+01  0.16536664700E+02  0.29130543942E+02  0.00000000000E+00 0.  1.
</event>
<event>
 5    1  0.1320187E-009  0.9118800E+02  0.7818608E-02  0.1130116E+00
         25   -1    0    0    0    0  0.00000000000E+00  0.00000000000E+00  0.99999998245E-14  0.12500000000E+03  0.12500000000E+03 0.  0.
        -13    1    3    3    0    0  0.38541122818E+02  0.34736496949E+02 -0.34551427852E+02  0.62336624058E+02  0.10566000000E+00 0.  1.
         23    2    1    0    0    0  0.13812524579E+02  0.16007528969E+02 -0.16043361268E+02  0.98459158647E+02  0.94814501326E+02 0.  0.
         13    1    3    3    0    0 -0.24728598238E+02 -0.18728967980E+02  0.18508066583E+02  0.36122534589E+02  0.10566000000E+00 0. -1.
         22    1    1    0    0    0 -0.13812524579E+02 -0.16007528969E+02  0.16043361268E+02  0.26540841353E+02  0.00000000000E+00 0.  1.
</event>
<event>
 5    1  0.1320187E-009  0.9118800E+02  0.7818608E-02  0.1130116E+00
         25   -1    0    0    0    0  0.00000000000E+00  0.00000000000E+00  0.99999998245E-14  0.12500000000E+03  0.12500000000E+03 0.  0.
        -13    1    3    3    0    0  0.28246475831E+02  0.52115541503E+02 -0.17522831370E+02  0.61813864515E+02  0.10566000000E+00 0.  1.
         23    2    1    0    0    0  0.13498095091E+02  0.29203669366E+02 -0.30072218387E+01  0.92687521625E+02  0.86872782886E+02 0.  0.
         13    1    3    3    0    0 -0.14748380740E+02 -0.22911872137E+02  0.14515609531E+02  0.30873657110E+02  0.10566000000E+00 0. -1.
         22    1    1    0    0    0 -0.13498095091E+02 -0.29203669366E+02  0.30072218387E+01  0.32312478375E+02  0.00000000000E+00 0.  1.
</event>
<event>
 5    1  0.1320187E-009  0.9118800E+02  0.7818608E-02  0.1130116E+00
         25   -1    0    0    0    0  0.00000000000E+00  0.00000000000E+00  0.99999998245E-14  0.12500000000E+03  0.12500000000E+03 0.  0.
        -13    1    3    3    0    0 -0.15506542042E+02 -0.44339648236E+02  0.13850565429E+02  0.48972508395E+02  0.10566000000E+00 0. -1.
         23    2    1    0    0    0  0.89577464629E+01 -0.60894828637E+01  0.26721845484E+02  0.96166338261E+02  0.91741945506E+02 0.  0.
         13    1    3    3    0    0  0.24464288505E+02  0.38250165372E+02  0.12871280055E+02  0.47193829865E+02  0.10566000000E+00 0.  1.
         22    1    1    0    0    0 -0.89577464629E+01  0.60894828637E+01 -0.26721845484E+02  0.28833661739E+02  0.00000000000E+00 0. -1.
</event>
<event>
 5    1  0.1320187E-009  0.9118800E+02  0.7818608E-02  0.1130116E+00
         25   -1    0    0    0    0  0.00000000000E+00  0.00000000000E+00  0.99999998245E-14  0.12500000000E+03  0.12500000000E+03 0.  0.
        -13    1    3    3    0    0 -0.44387369347E+02  0.15196268032E+02  0.79967336879E+01  0.47593319209E+02  0.10566000000E+00 0.  1.
         23    2    1    0    0    0 -0.65754874543E+01  0.25389822992E+02 -0.16713884893E+02  0.93899612622E+02  0.88599679207E+02 0.  0.
         13    1    3    3    0    0  0.37811881892E+02  0.10193554959E+02 -0.24710618581E+02  0.46306293413E+02  0.10566000000E+00 0. -1.
         22    1    1    0    0    0  0.65754874543E+01 -0.25389822992E+02  0.16713884893E+02  0.31100387378E+02  0.00000000000E+00 0.  1.
</event>
<event>
 5    1  0.1320187E-009  0.9118800E+02  0.7818608E-02  0.1130116E+00
         25   -1    0    0    0    0  0.00000000000E+00  0.00000000000E+00  0.99999998245E-14  0.12500000000E+03  0.12500000000E+03 0.  0.
        -13    1    3    3    0    0  0.31106879530E+02  0.21890436337E+02  0.46667757349E+02  0.60205646722E+02  0.10566000000E+00 0.  1.
         23    2    1    0    0    0  0.12751283454E+02  0.20817878942E+02  0.16503443141E+02  0.95532340628E+02  0.90874007048E+02 0.  0.
         13    1    3    3    0    0 -0.18355596077E+02 -0.10725573954E+01 -0.30164314208E+02  0.35326693906E+02  0.10566000000E+00 0. -1.
         22    1    1    0    0    0 -0.12751283454E+02 -0.20817878942E+02 -0.16503443141E+02  0.29467659372E+02  0.00000000000E+00 0.  1.
</event>
<event>
 5    1  0.1320187E-009  0.9118800E+02  0.7818608E-02  0.1130116E+00
         25   -1    0    0    0    0  0.00000000000E+00  0.00000000000E+00  0.99999998245E-14  0.12500000000E+03  0.12500000000E+03 0.  0.
        -13    1    3    3    0    0  0.35035310973E+02 -0.23511297353E+02 -0.62862824396E+00  0.42197872644E+02  0.10566000000E+00 0. -1.
         23    2    1    0    0    0 -0.16535988748E+02 -0.17905482799E+02  0.15005968530E+02  0.96377904870E+02  0.92029757239E+02 0.  0.
         13    1    3    3    0    0 -0.51571299721E+02  0.56058145538E+01  0.15634596774E+02  0.54180032226E+02  0.10566000000E+00 0.  1.
         22    1    1    0    0    0  0.16535988748E+02  0.17905482799E+02 -0.15005968530E+02  0.28622095130E+02  0.00000000000E+00 0.  1.
</event>
<event>
 5    1  0.1320187E-009  0.9118800E+02  0.7818608E-02  0.1130116E+00
         25   -1    0    0    0    0  0.00000000000E+00  0.00000000000E+00  0.99999998245E-14  0.12500000000E+03  0.12500000000E+03 0.  0.
        -13    1    3    3    0    0 -0.38940971476E+02  0.32969129875E+02 -0.29231996114E+01  0.51106937339E+02  0.10566000000E+00 0.  1.
         23    2    1    0    0    0 -0.12802314807E+02  0.70150082134E+01  0.24121824109E+02  0.96804752120E+02  0.92607710424E+02 0.  0.
         13    1    3    3    0    0  0.26138656669E+02 -0.25954121661E+02  0.27045023721E+02  0.45697814781E+02  0.10566000000E+00 0. -1.
         22    1    1    0    0    0  0.12802314807E+02 -0.70150082134E+01 -0.24121824109E+02  0.28195247880E+02  0.00000000000E+00 0. -1.
</event>
<event>
 5    1  0.1320187E-009  0.9118800E+02  0.7818608E-02  0.1130116E+00
         25   -1    0    0    0    0  0.00000000000E+00  0.00000000000E+00  0.99999998245E-14  0.12500000000E+03  0.12500000000E+03 0.  0.
        -13    1    3    3    0    0 -0.31844651644E+02  0.51282086467E+01  0.12827596964E+02  0.34712227962E+02  0.10566000000E+00 0.  1.
         23    2    1    0    0    0  0.22797128883E+02 -0.17315489021E+02 -0.39035681628E+01  0.96107559989E+02  0.91661824100E+02 0.  0.
         13    1    3    3    0    0  0.54641780527E+02 -0.22443697668E+02 -0.16731165127E+02  0.61395332027E+02  0.10566000000E+00 0. -1.
         22    1    1    0    0    0 -0.22797128883E+02  0.17315489021E+02  0.39035681628E+01  0.28892440011E+02  0.00000000000E+00 0. -1.
</event>
<event>
 5    1  0.1320187E-009  0.9118800E+02  0.7818608E-02  0.1130116E+00
         25   -1    0    0    0    0  0.00000000000E+00  0.00000000000E+00  0.99999998245E-14  0.12500000000E+03  0.12500000000E+03 0.  0.
        -13    1    3    3    0    0 -0.48616026670E+00 -0.10268389551E+02  0.37639417600E+02  0.39018112423E+02  0.10566000000E+00 0.  1.
         23    2    1    0    0    0  0.41762343554E+01 -0.19897585602E+02 -0.19307819737E+02  0.96961691399E+02  0.92819302140E+02 0.  0.
         13    1    3    3    0    0  0.46623946221E+01 -0.96291960512E+01 -0.56947237337E+02  0.57943578976E+02  0.10566000000E+00 0. -1.
         22    1    1    0    0    0 -0.41762343554E+01  0.19897585602E+02  0.19307819737E+02  0.28038308601E+02  0.00000000000E+00 0. -1.
</event>
<event>
 5    1  0.1320187E-009  0.9118800E+02  0.7818608E-02  0.1130116E+00
         25   -1    0    0    0    0  0.00000000000E+00  0.00000000000E+00  0.99999998245E-14  0.12500000000E+03  0.12500000000E+03 0.  0.
        -13    1    3    3    0    0  0.30358915809E+02 -0.45548689514E+02 -0.25669632362E+02  0.60458978450E+02  0.10566000000E+00 0. -1.
         23    2    1    0    0    0  0.21312599959E+02 -0.12105121095E+02 -0.12078564372E+02  0.97675055516E+02  0.93775070669E+02 0.  0.
         13    1    3    3    0    0 -0.90463158494E+01  0.33443568419E+02  0.13591067990E+02  0.37216077066E+02  0.10566000000E+00 0.  1.
         22    1    1    0    0    0 -0.21312599959E+02  0.12105121095E+02  0.12078564372E+02  0.27324944484E+02  0.00000000000E+00 0. -1.
</event>
<event>
 5    1  0.1320187E-009  0.9118800E+02  0.7818608E-02  0.1130116E+00
         25   -1    0    0    0    0  0.00000000000E+00  0.00000000000E+00  0.99999998245E-14  0.12500000000E+03  0.12500000000E+03 0.  0.
        -13    1    3    3    0    0  0.13853421714E+02 -0.58212545899E+02  0.14127917557E+02  0.61483550741E+02  0.10566000000E+00 0.  1.
         23    2    1    0    0    0  0.14713518990E+01 -0.27926337405E+02  0.12838565657E+02  0.94228682749E+02  0.89062734559E+02 0.  0.
         13    1    3    3    0    0 -0.12382069815E+02  0.30286208494E+02 -0.12893519004E+01  0.32745132007E+02  0.10566000000E+00 0. -1.
         22    1    1    0    0    0 -0.14713518990E+01  0.27926337405E+02 -0.12838565657E+02  0.30771317251E+02  0.00000000000E+00 0. -1.
</event>
<event>
 5    1  0.1320187E-009  0.9118800E+02  0.7818608E-02  0.1130116E+00
         25   -1    0    0    0    0  0.00000000000E+00  0.00000000000E+00  0.99999998245E-14  0.12500000000E+03  0.12500000000E+03 0.  0.
        -13    1    3    3    0    0  0.13867212422E+02  0.26734195197E+02 -0.50022228534E+02  0.58388794171E+02  0.10566000000E+00 0. -1.
         23    2    1    0    0    0  0.33662020786E+01  0.26655029187E+02 -0.16608113653E+02  0.93414380860E+02  0.87912429240E+02 0.  0.
         13    1    3    3    0    0 -0.10501010344E+02 -0.79166010337E-01  0.33414114882E+02  0.35025586688E+02  0.10566000000E+00 0.  1.
         22    1    1    0    0    0 -0.33662020786E+01 -0.26655029187E+02  0.16608113653E+02  0.31585619140E+02  0.00000000000E+00 0. -1.
</event>
<event>
 5    1  0.1320187E-009  0.9118800E+02  0.7818608E-02  0.1130116E+00
         25   -1    0    0    0    0  0.00000000000E+00  0.00000000000E+00  0.99999998245E-14  0.12500000000E+03  0.12500000000E+03 0.  0.
        -13    1    3    3    0    0  0.15805640620E+02  0.34486703297E+02 -0.59727251318E+01  0.38403588234E+02  0.10566000000E+00 0.  1.
         23    2    1    0    0    0  0.12726705041E+02 -0.18190423551E+02  0.18055746631E+02  0.96384086305E+02  0.92038152830E+02 0.  0.
         13    1    3    3    0    0 -0.30789355789E+01 -0.52677126849E+02  0.24028471762E+02  0.57980498071E+02  0.10566000000E+00 0. -1.
         22    1    1    0    0    0 -0.12726705041E+02  0.18190423551E+02 -0.18055746631E+02  0.28615913695E+02  0.00000000000E+00 0. -1.
</event>
<event>
 5    1  0.1320187E-009  0.9118800E+02  0.7818608E-02  0.1130116E+00
         25   -1    0    0    0    0  0.00000000000E+00  0.00000000000E+00  0.99999998245E-14  0.12500000000E+03  0.12500000000E+03 0.  0.
        -13    1    3    3    0    0  0.39790150031E+02 -0.17611932439E+02 -0.16734835541E+02  0.46620833201E+02  0.10566000000E+00 0. -1.
         23    2    1    0    0    0  0.21128372369E+02  0.22719043164E+02 -0.38518668858E+00  0.93972408890E+02  0.88702323660E+02 0.  0.
         13    1    3    3    0    0 -0.18661777662E+02  0.40330975604E+02  0.16349648852E+02  0.47351575689E+02  0.10566000000E+00 0.  1.
         22    1    1    0    0    0 -0.21128372369E+02 -0.22719043164E+02  0.38518668858E+00  0.31027591110E+02  0.00000000000E+00 0.  1.
</event>
<event>
 5    1  0.1320187E-009  0.9118800E+02  0.7818608E-02  0.1130116E+00
         25   -1    0    0    0    0  0.00000000000E+00  0.00000000000E+00  0.99999998245E-14  0.12500000000E+03  0.12500000000E+03 0.  0.
        -13    1    3    3    0    0 -0.39559722539E+01  0.26328850885E+02 -0.21596021262E+02  0.34282027416E+02  0.10566000000E+00 0. -1.
         23    2    1    0    0    0 -0.10662353485E+01 -0.11716805274E+02  0.26694859052E+02  0.95827480680E+02  0.91279078491E+02 0.  0.
         13    1    3    3    0    0  0.28897369053E+01 -0.38045656159E+02  0.48290880314E+02  0.61545453264E+02  0.10566000000E+00 0.  1.
         22    1    1    0    0    0  0.10662353485E+01  0.11716805274E+02 -0.26694859052E+02  0.29172519320E+02  0.00000000000E+00 0.  1.
</event>
<event>
 5    1  0.1320187E-009  0.9118800E+02  0.7818608E-02  0.1130116E+00
         25   -1    0    0    0    0  0.00000000000E+00  0.00000000000E+00  0.99999998245E-14  0.12500000000E+03  0.12500000000E+03 0.  0.
        -13    1    3    3    0    0 -0.43764077070E+02 -0.55326353579E+01  0.24746578917E+02  0.50579727440E+02  0.10566000000E+00 0.  1.
         23    2    1    0    0    0  0.16240454793E+00 -0.13946914921E+02  0.26189146747E+02  0.95328225224E+02  0.90592804935E+02 0.  0.
         13    1    3    3    0    0  0.43926481618E+02 -0.84142795627E+01  0.14425678298E+01  0.44748497784E+02  0.10566000000E+00 0. -1.
         22    1    1    0    0    0 -0.16240454793E+00  0.13946914921E+02 -0.26189146747E+02  0.29671774776E+02  0.00000000000E+00 0.  1.
</event>
<event>
 5    1  0.1320187E-009  0.9118800E+02  0.7818608E-02  0.1130116E+00
         25   -1    0    0    0    0  0.00000000000E+00  0.00000000000E+00  0.99999998245E-14  0.12500000000E+03  0.12500000000E+03 0.  0.
        -13    1    3    3    0    0 -0.40325567823E+02  0.68730837823E+00  0.42093629797E+02  0.58296729296E+02  0.10566000000E+00 0.  1.
         23    2    1    0    0    0 -0.98966975725E+01  0.13011688956E+02  0.24507636634E+02  0.95540316945E+02  0.90884978056E+02 0.  0.
         13    1    3    3    0    0  0.30428870251E+02  0.12324380578E+02 -0.17585993163E+02  0.37243587649E+02  0.10566000000E+00 0. -1.
         22    1    1    0    0    0  0.98966975725E+01 -0.13011688956E+02 -0.24507636634E+02  0.29459683055E+02  0.00000000000E+00 0.  1.
</event>
<event>
 5    1  0.1320187E-009  0.9118800E+02  0.7818608E-02  0.1130116E+00
         25   -1    0    0    0    0  0.00000000000E+00  0.00000000000E+00  0.99999998245E-14  0.12500000000E+03  0.12500000000E+03 0.  0.
        -13    1    3    3    0    0 -0.14920860107E+02  0.29121084270E+02  0.24987714593E+02  0.41171187255E+02  0.10566000000E+00 0.  1.
         23    2    1    0    0    0  0.25074452593E+02  0.12819780958E+02 -0.82330612830E+01  0.95659613930E+02  0.91048907091E+02 0.  0.
         13    1    3    3    0    0  0.39995312700E+02 -0.16301303312E+02 -0.33220775876E+02  0.54488426675E+02  0.10566000000E+00 0. -1.
         22    1    1    0    0    0 -0.25074452593E+02 -0.12819780958E+02  0.82330612830E+01  0.29340386070E+02  0.00000000000E+00 0. -1.
</event>
<event>
 5    1  0.1320187E-009  0.9118800E+02  0.7818608E-02  0.1130116E+00
         25   -1    0    0    0    0  0.00000000000E+00  0.00000000000E+00  0.99999998245E-14  0.12500000000E+03  0.12500000000E+03 0.  0.
        -13    1    3    3    0    0  0.70578516447E+01 -0.55124519994E+01  0.52130628269E+02  0.52894366096E+02  0.10566000000E+00 0.  1.
         23    2    1    0    0    0  0.81102431410E+00  0.21564496024E+02  0.27631093956E+02  0.89940584682E+02  0.82825999364E+02 0.  0.
         13    1    3    3    0    0 -0.62468273306E+01  0.27076948024E+02 -0.24499534313E+02  0.37046218587E+02  0.10566000000E+00 0. -1.
         22    1    1    0    0    0 -0.81102431410E+00 -0.21564496024E+02 -0.27631093956E+02  0.35059415318E+02  0.00000000000E+00 0.  1.
</event>
<event>
 5    1  0.1320187E-009  0.9118800E+02  0.7818608E-02  0.1130116E+00
         25   -1    0    0    0    0  0.00000000000E+00  0.00000000000E+00  0.99999998245E-14  0.12500000000E+03  0.12500000000E+03 0.  0.
        -13    1    3    3    0    0 -0.30904171435E+02 -0.27163687231E+01  0.74880166892E+01  0.31914385927E+02  0.10566000000E+00 0.  1.
         23    2    1    0    0    0  0.30844187579E+02 -0.28881457430E+01  0.40305061569E+01  0.93759797166E+02  0.88402201848E+02 0.  0.
         13    1    3    3    0    0  0.61748359014E+02 -0.17177701995E+00 -0.34575105323E+01  0.61845411239E+02  0.10566000000E+00 0. -1.
         22    1    1    0    0    0 -0.30844187579E+02  0.28881457430E+01 -0.40305061569E+01  0.31240202834E+02  0.00000000000E+00 0. -1.
</event>
<event>
 5    1  0.1320187E-009  0.9118800E+02  0.7818608E-02  0.1130116E+00
         25   -1    0    0    0    0  0.00000000000E+00  0.00000000000E+00  0.99999998245E-14  0.12500000000E+03  0.12500000000E+03 0.  0.
        -13    1    3    3    0    0 -0.12919634421E+02  0.29172747564E+01  0.60025682276E+02  0.61469676609E+02  0.10566000000E+00 0.  1.
         23    2    1    0    0    0 -0.18466991123E+01  0.82078368833E+01  0.27878439492E+02  0.95879796147E+02  0.91350692590E+02 0.  0.
         13    1    3    3    0    0  0.11072935309E+02  0.52905621269E+01 -0.32147242784E+02  0.34410119538E+02  0.10566000000E+00 0. -1.
         22    1    1    0    0    0  0.18466991123E+01 -0.82078368833E+01 -0.27878439492E+02  0.29120203853E+02  0.00000000000E+00 0.  1.
</event>
<event>
 5    1  0.1320187E-009  0.9118800E+02  0.7818608E-02  0.1130116E+00
         25   -1    0    0    0    0  0.00000000000E+00  0.00000000000E+00  0.99999998245E-14  0.12500000000E+03  0.12500000000E+03 0.  0.
        -13    1    3    3    0    0 -0.18981292798E+02  0.34097749450E+02 -0.17431047552E+02  0.42741064290E+02  0.10566000000E+00 0.  1.
         23    2    1    0    0    0  0.92626741510E+01  0.17056287103E+02  0.22989124406E+02  0.94913227107E+02  0.90018369108E+02 0.  0.
         13    1    3    3    0    0  0.28243966949E+02 -0.17041462347E+02  0.40420171957E+02  0.52172162817E+02  0.10566000000E+00 0. -1.
         22    1    1    0    0    0 -0.92626741510E+01 -0.17056287103E+02 -0.22989124406E+02  0.30086772893E+02  0.00000000000E+00 0.  1.
</event>
<event>
 5    1  0.1320187E-009  0.9118800E+02  0.7818608E-02  0.1130116E+00
         25   -1    0    0    0    0  0.00000000000E+00  0.00000000000E+00  0.99999998245E-14  0.12500000000E+03  0.12500000000E+03 0.  0.
        -13    1    3    3    0    0  0.12058676674E+02 -0.17349776415E+02 -0.34735074197E+02  0.40656647283E+02  0.10566000000E+00 0. -1.
         23    2    1    0    0    0 -0.25986929541E+02 -0.11619171436E+02  0.51468508821E+01  0.96072232616E+02  0.91613635197E+02 0.  0.
         13    1    3    3    0    0 -0.38045606215E+02  0.57306049786E+01  0.39881925079E+02  0.55415585333E+02  0.10566000000E+00 0.  1.
         22    1    1    0    0    0  0.25986929541E+02  0.11619171436E+02 -0.51468508821E+01  0.28927767384E+02  0.00000000000E+00 0.  1.
</event>
<event>
 5    1  0.1320187E-009  0.9118800E+02  0.7818608E-02  0.1130116E+00
         25   -1    0    0    0    0  0.00000000000E+00  0.00000000000E+00  0.99999998245E-14  0.12500000000E+03  0.12500000000E+03 0.  0.
        -13    1    3    3    0    0 -0.85415160832E+01  0.51491099118E+02  0.10794549802E+02  0.53299383250E+02  0.10566000000E+00 0.  1.
         23    2    1    0    0    0 -0.23838657272E+02  0.14488040916E+02 -0.55673885693E+01  0.96553897883E+02  0.92268491214E+02 0.  0.
         13    1    3    3    0    0 -0.15297141189E+02 -0.37003058202E+02 -0.16361938371E+02  0.43254514633E+02  0.10566000000E+00 0. -1.
         22    1    1    0    0    0  0.23838657272E+02 -0.14488040916E+02  0.55673885693E+01  0.28446102117E+02  0.00000000000E+00 0.  1.
</event>
<event>
 5    1  0.1320187E-009  0.9118800E+02  0.7818608E-02  0.1130116E+00
         25   -1    0    0    0    0  0.00000000000E+00  0.00000000000E+00  0.99999998245E-14  0.12500000000E+03  0.12500000000E+03 0.  0.
        -13    1    3    3    0    0  0.32504970201E+02  0.32748661352E+02  0.17003196973E+02  0.49174869389E+02  0.10566000000E+00 0.  1.
         23    2    1    0    0    0 -0.48652101525E+01  0.32992962682E+02 -0.29157736198E+01  0.91523028928E+02  0.85180732750E+02 0.  0.
         13    1    3    3    0    0 -0.37370180353E+02  0.24430132990E+00 -0.19918970592E+02  0.42348159538E+02  0.10566000000E+00 0. -1.
         22    1    1    0    0    0  0.48652101525E+01 -0.32992962682E+02  0.29157736198E+01  0.33476971072E+02  0.00000000000E+00 0.  1.
</event>
<event>
 5    1  0.1320187E-009  0.9118800E+02  0.7818608E-02  0.1130116E+00
         25   -1    0    0    0    0  0.00000000000E+00  0.00000000000E+00  0.99999998245E-14  0.12500000000E+03  0.12500000000E+03 0.  0.
        -13    1    3    3    0    0 -0.18057734077E+02  0.26693208968E+02  0.18546049371E+02  0.37183010587E+02  0.10566000000E+00 0. -1.
         23    2    1    0    0    0 -0.23340169748E+01 -0.64163488643E+01 -0.27858306988E+02  0.96317210104E+02  0.91947281233E+02 0.  0.
         13    1    3    3    0    0  0.15723717102E+02 -0.33109557833E+02 -0.46404356359E+02  0.59134199517E+02  0.10566000000E+00 0.  1.
         22    1    1    0    0    0  0.23340169748E+01  0.64163488643E+01  0.27858306988E+02  0.28682789896E+02  0.00000000000E+00 0.  1.
</event>
<event>
 5    1  0.1320187E-009  0.9118800E+02  0.7818608E-02  0.1130116E+00
         25   -1    0    0    0    0  0.00000000000E+00  0.00000000000E+00  0.99999998245E-14  0.12500000000E+03  0.12500000000E+03 0.  0.
        -13    1    3    3    0    0 -0.52775700707E+02 -0.49477505011E+01 -0.29430500360E+02  0.60629368590E+02  0.10566000000E+00 0.  1.
         23    2    1    0    0    0 -0.30098894235E+02 -0.79613259202E+01 -0.27277558002E+02  0.83606868745E+02  0.72641015867E+02 0.  0.
         13    1    3    3    0    0  0.22676806471E+02 -0.30135754192E+01  0.21529423586E+01  0.22977500155E+02  0.10566000000E+00 0. -1.
         22    1    1    0    0    0  0.30098894235E+02  0.79613259202E+01  0.27277558002E+02  0.41393131255E+02  0.00000000000E+00 0.  1.
</event>
<event>
 5    1  0.1320187E-009  0.9118800E+02  0.7818608E-02  0.1130116E+00
         25   -1    0    0    0    0  0.00000000000E+00  0.00000000000E+00  0.99999998245E-14  0.12500000000E+03  0.12500000000E+03 0.  0.
        -13    1    3    3    0    0  0.14801523687E+01  0.22149896341E+01  0.36630343796E+02  0.36727241671E+02  0.10566000000E+00 0. -1.
         23    2    1    0    0    0  0.21098854085E+02 -0.15218206269E+02 -0.15233351753E+02  0.94853516766E+02  0.89935416780E+02 0.  0.
         13    1    3    3    0    0  0.19618701716E+02 -0.17433195903E+02 -0.51863695549E+02  0.58126275095E+02  0.10566000000E+00 0.  1.
         22    1    1    0    0    0 -0.21098854085E+02  0.15218206269E+02  0.15233351753E+02  0.30146483234E+02  0.00000000000E+00 0.  1.
</event>
<event>
 5    1  0.1320187E-009  0.9118800E+02  0.7818608E-02  0.1130116E+00
         25   -1    0    0    0    0  0.00000000000E+00  0.00000000000E+00  0.99999998245E-14  0.12500000000E+03  0.12500000000E+03 0.  0.
        -13    1    3    3    0    0 -0.55960258775E+02  0.12148458553E+01  0.21466171836E+01  0.56014690412E+02  0.10566000000E+00 0. -1.
         23    2    1    0    0    0 -0.20481663454E+02 -0.14286603542E+02 -0.12075430098E+02  0.97261550320E+02  0.93222248310E+02 0.  0.
         13    1    3    3    0    0  0.35478595320E+02 -0.15501449397E+02 -0.14222047281E+02  0.41246859907E+02  0.10566000000E+00 0.  1.
         22    1    1    0    0    0  0.20481663454E+02  0.14286603542E+02  0.12075430098E+02  0.27738449680E+02  0.00000000000E+00 0. -1.
</event>
<event>
 5    1  0.1320187E-009  0.9118800E+02  0.7818608E-02  0.1130116E+00
         25   -1    0    0    0    0  0.00000000000E+00  0.00000000000E+00  0.99999998245E-14  0.12500000000E+03  0.12500000000E+03 0.  0.
        -13    1    3    3    0    0  0.22371007075E+02  0.39763847959E+02 -0.16188771634E+01  0.45653668958E+02  0.10566000000E+00 0. -1.
         23    2    1    0    0    0 -0.21818225477E+02  0.20908048748E+02 -0.69485039488E+01  0.93992530375E+02  0.88730674480E+02 0.  0.
         13    1    3    3    0    0 -0.44189232552E+02 -0.18855799210E+02 -0.53296267854E+01  0.48338861417E+02  0.10566000000E+00 0.  1.
         22    1    1    0    0    0  0.21818225477E+02 -0.20908048748E+02  0.69485039488E+01  0.31007469625E+02  0.00000000000E+00 0. -1.
</event>
<event>
 5    1  0.1320187E-009  0.9118800E+02  0.7818608E-02  0.1130116E+00
         25   -1    0    0    0    0  0.00000000000E+00  0.00000000000E+00  0.99999998245E-14  0.12500000000E+03  0.12500000000E+03 0.  0.
        -13    1    3    3    0    0  0.34944795605E+02  0.52373017915E+01  0.36304498717E+02  0.50661581707E+02  0.10566000000E+00 0. -1.
         23    2    1    0    0    0 -0.76133876989E+01  0.15731840278E+02  0.22278609150E+02  0.96684087575E+02  0.92444696407E+02 0.  0.
         13    1    3    3    0    0 -0.42558183304E+02  0.10494538486E+02 -0.14025889567E+02  0.46022505868E+02  0.10566000000E+00 0.  1.
         22    1    1    0    0    0  0.76133876989E+01 -0.15731840278E+02 -0.22278609150E+02  0.28315912425E+02  0.00000000000E+00 0. -1.
</event>
<event>
 5    1  0.1320187E-009  0.9118800E+02  0.7818608E-02  0.1130116E+00
         25   -1    0    0    0    0  0.00000000000E+00  0.00000000000E+00  0.99999998245E-14  0.12500000000E+03  0.12500000000E+03 0.  0.
        -13    1    3    3    0    0 -0.27854573181E+02 -0.45657398403E+02 -0.14289570918E+02  0.55359536460E+02  0.10566000000E+00 0.  1.
         23    2    1    0    0    0 -0.26038439733E+02 -0.10942234673E+02  0.67059388066E+01  0.95970662105E+02  0.91474944800E+02 0.  0.
         13    1    3    3    0    0  0.18161334480E+01  0.34715163730E+02  0.20995509724E+02  0.40611125645E+02  0.10566000000E+00 0. -1.
         22    1    1    0    0    0  0.26038439733E+02  0.10942234673E+02 -0.67059388066E+01  0.29029337895E+02  0.00000000000E+00 0.  1.
</event>
<event>
 5    1  0.1320187E-009  0.9118800E+02  0.7818608E-02  0.1130116E+00
         25   -1    0    0    0    0  0.00000000000E+00  0.00000000000E+00  0.99999998245E-14  0.12500000000E+03  0.12500000000E+03 0.  0.
        -13    1    3    3    0    0 -0.22873358036E+02  0.13038679143E+02 -0.19902398652E+02  0.33004761744E+02  0.10566000000E+00 0.  1.
         23    2    1    0    0    0  0.12459513086E+02 -0.10582054678E+02  0.25190505365E+02  0.94970332868E+02  0.90097631583E+02 0.  0.
         13    1    3    3    0    0  0.35332871122E+02 -0.23620733821E+02  0.45092904017E+02  0.61965571124E+02  0.10566000000E+00 0. -1.
         22    1    1    0    0    0 -0.12459513086E+02  0.10582054678E+02 -0.25190505365E+02  0.30029667132E+02  0.00000000000E+00 0. -1.
</event>
<event>
 5    1  0.1320187E-009  0.9118800E+02  0.7818608E-02  0.1130116E+00
         25   -1    0    0    0    0  0.00000000000E+00  0.00000000000E+00  0.99999998245E-14  0.12500000000E+03  0.12500000000E+03 0.  0.
        -13    1    3    3    0    0  0.30789206358E+02  0.56233523673E-01 -0.16088171610E+02  0.34739297923E+02  0.10566000000E+00 0. -1.
         23    2    1    0    0    0 -0.16316169358E+02 -0.12130475481E+02  0.20887616799E+02  0.95851100304E+02  0.91311418103E+02 0.  0.
         13    1    3    3    0    0 -0.47105375716E+02 -0.12186709005E+02  0.36975788409E+02  0.61111802381E+02  0.10566000000E+00 0.  1.
         22    1    1    0    0    0  0.16316169358E+02  0.12130475481E+02 -0.20887616799E+02  0.29148899696E+02  0.00000000000E+00 0.  1.
</event>
<event>
 5    1  0.1320187E-009  0.9118800E+02  0.7818608E-02  0.1130116E+00
         25   -1    0    0    0    0  0.00000000000E+00  0.00000000000E+00  0.99999998245E-14  0.12500000000E+03  0.12500000000E+03 0.  0.
        -13    1    3    3    0    0 -0.26932583659E+02 -0.12763796236E+02  0.13164095712E+02  0.32581944952E+02  0.10566000000E+00 0. -1.
         23    2    1    0    0    0  0.24920897537E+02  0.11427671886E+02 -0.11978502310E+02  0.95081321280E+02  0.90251483755E+02 0.  0.
         13    1    3    3    0    0  0.51853481196E+02  0.24191468123E+02 -0.25142598021E+02  0.62499376328E+02  0.10566000000E+00 0.  1.
         22    1    1    0    0    0 -0.24920897537E+02 -0.11427671886E+02  0.11978502310E+02  0.29918678720E+02  0.00000000000E+00 0.  1.
</event>
<event>
 5    1  0.1320187E-009  0.9118800E+02  0.7818608E-02  0.1130116E+00
         25   -1    0    0    0    0  0.00000000000E+00  0.00000000000E+00  0.99999998245E-14  0.12500000000E+03  0.12500000000E+03 0.  0.
        -13    1    3    3    0    0  0.36278507138E+02  0.33644068877E+02 -0.12496838249E+02  0.51031711523E+02  0.10566000000E+00 0.  1.
         23    2    1    0    0    0  0.13600248696E+02  0.17998772779E+02  0.20845344342E+02  0.94284353061E+02  0.89140833882E+02 0.  0.
         13    1    3    3    0    0 -0.22678258442E+02 -0.15645296098E+02  0.33342182592E+02  0.43252641537E+02  0.10566000000E+00 0. -1.
         22    1    1    0    0    0 -0.13600248696E+02 -0.17998772779E+02 -0.20845344342E+02  0.30715646939E+02  0.00000000000E+00 0.  1.
</event>
<event>
 5    1  0.1320187E-009  0.9118800E+02  0.7818608E-02  0.1130116E+00
         25   -1    0    0    0    0  0.00000000000E+00  0.00000000000E+00  0.99999998245E-14  0.12500000000E+03  0.12500000000E+03 0.  0.
        -13    1    3    3    0    0 -0.30092511369E+02 -0.21478651767E+02 -0.32356166426E+01  0.37112964060E+02  0.10566000000E+00 0. -1.
         23    2    1    0    0    0  0.25317864457E+02 -0.47053607180E+01 -0.13523604702E+02  0.95913532970E+02  0.91396844817E+02 0.  0.
         13    1    3    3    0    0  0.55410375826E+02  0.16773291049E+02 -0.10287988059E+02  0.58800568910E+02  0.10566000000E+00 0.  1.
         22    1    1    0    0    0 -0.25317864457E+02  0.47053607180E+01  0.13523604702E+02  0.29086467030E+02  0.00000000000E+00 0.  1.
</event>
<event>
 5    1  0.1320187E-009  0.9118800E+02  0.7818608E-02  0.1130116E+00
         25   -1    0    0    0    0  0.00000000000E+00  0.00000000000E+00  0.99999998245E-14  0.12500000000E+03  0.12500000000E+03 0.  0.
        -13    1    3    3    0    0  0.15447625971E+01 -0.27224716745E+02 -0.54748942317E+02  0.61163954599E+02  0.10566000000E+00 0.  1.
         23    2    1    0    0    0  0.21384906416E+01 -0.21380192610E+02 -0.22714159072E+02  0.93733103758E+02  0.88364449523E+02 0.  0.
         13    1    3    3    0    0  0.59372804455E+00  0.58445241350E+01  0.32034783245E+02  0.32569149159E+02  0.10566000000E+00 0. -1.
         22    1    1    0    0    0 -0.21384906416E+01  0.21380192610E+02  0.22714159072E+02  0.31266896242E+02  0.00000000000E+00 0.  1.
</event>
<event>
 5    1  0.1320187E-009  0.9118800E+02  0.7818608E-02  0.1130116E+00
         25   -1    0    0    0    0  0.00000000000E+00  0.00000000000E+00  0.99999998245E-14  0.12500000000E+03  0.12500000000E+03 0.  0.
        -13    1    3    3    0    0 -0.24318337117E+02 -0.40211967769E+02  0.39539386510E+02  0.61414640938E+02  0.10566000000E+00 0.  1.
         23    2    1    0    0    0 -0.75707269501E+01 -0.14553123488E+02  0.24416651894E+02  0.95584320516E+02  0.90945478881E+02 0.  0.
         13    1    3    3    0    0  0.16747610167E+02  0.25658844281E+02 -0.15122734616E+02  0.34169679578E+02  0.10566000000E+00 0. -1.
         22    1    1    0    0    0  0.75707269501E+01  0.14553123488E+02 -0.24416651894E+02  0.29415679484E+02  0.00000000000E+00 0.  1.
</event>
<event>
 5    1  0.1320187E-009  0.9118800E+02  0.7818608E-02  0.1130116E+00
         25   -1    0    0    0    0  0.00000000000E+00  0.00000000000E+00  0.99999998245E-14  0.12500000000E+03  0.12500000000E+03 0.  0.
        -13    1    3    3    0    0 -0.52726143660E+02  0.95118657128E+00  0.25511470932E+02  0.58581543973E+02  0.10566000000E+00 0.  1.
         23    2    1    0    0    0 -0.21670503574E+02 -0.14828487308E+02  0.81299426209E+01  0.97511989377E+02  0.93557454776E+02 0.  0.
         13    1    3    3    0    0  0.31055640086E+02 -0.15779673879E+02 -0.17381528311E+02  0.38930445404E+02  0.10566000000E+00 0. -1.
         22    1    1    0    0    0  0.21670503574E+02  0.14828487308E+02 -0.81299426209E+01  0.27488010623E+02  0.00000000000E+00 0.  1.
</event>
<event>
 5    1  0.1320187E-009  0.9118800E+02  0.7818608E-02  0.1130116E+00
         25   -1    0    0    0    0  0.00000000000E+00  0.00000000000E+00  0.99999998245E-14  0.12500000000E+03  0.12500000000E+03 0.  0.
        -13    1    3    3    0    0 -0.33444951365E+02 -0.48428760588E+01 -0.49480411289E+01  0.34154245642E+02  0.10566000000E+00 0. -1.
         23    2    1    0    0    0  0.22532354075E+02  0.10867631322E+02  0.15248764066E+02  0.95702607689E+02  0.91107913609E+02 0.  0.
         13    1    3    3    0    0  0.55977305440E+02  0.15710507380E+02  0.20196805195E+02  0.61548362046E+02  0.10566000000E+00 0.  1.
         22    1    1    0    0    0 -0.22532354075E+02 -0.10867631322E+02 -0.15248764066E+02  0.29297392311E+02  0.00000000000E+00 0.  1.
</event>
<event>
 5    1  0.1320187E-009  0.9118800E+02  0.7818608E-02  0.1130116E+00
         25   -1    0    0    0    0  0.00000000000E+00  0.00000000000E+00  0.99999998245E-14  0.12500000000E+03  0.12500000000E+03 0.  0.
        -13    1    3    3    0    0 -0.20400086308E+02 -0.18684844235E+02  0.17913274493E+02  0.32957298017E+02  0.10566000000E+00 0.  1.
         23    2    1    0    0    0  0.21268591587E+02  0.23003990529E+02  0.55493215244E+01  0.93182842086E+02  0.87582592572E+02 0.  0.
         13    1    3    3    0    0  0.41668677895E+02  0.41688834764E+02 -0.12363952969E+02  0.60225544070E+02  0.10566000000E+00 0. -1.
         22    1    1    0    0    0 -0.21268591587E+02 -0.23003990529E+02 -0.55493215244E+01  0.31817157914E+02  0.00000000000E+00 0. -1.
</event>
<event>
 5    1  0.1320187E-009  0.9118800E+02  0.7818608E-02  0.1130116E+00
         25   -1    0    0    0    0  0.00000000000E+00  0.00000000000E+00  0.99999998245E-14  0.12500000000E+03  0.12500000000E+03 0.  0.
        -13    1    3    3    0    0 -0.16018593204E+01  0.32997968281E+02 -0.39024615120E+02  0.51130847962E+02  0.10566000000E+00 0.  1.
         23    2    1    0    0    0 -0.25074275025E+02  0.12254205429E+02 -0.63848905094E+01  0.96370441052E+02  0.92019618903E+02 0.  0.
         13    1    3    3    0    0 -0.23472415705E+02 -0.20743762852E+02  0.32639724611E+02  0.45239593091E+02  0.10566000000E+00 0. -1.
         22    1    1    0    0    0  0.25074275025E+02 -0.12254205429E+02  0.63848905094E+01  0.28629558948E+02  0.00000000000E+00 0. -1.
</event>
<event>
 5    1  0.1320187E-009  0.9118800E+02  0.7818608E-02  0.1130116E+00
         25   -1    0    0    0    0  0.00000000000E+00  0.00000000000E+00  0.99999998245E-14  0.12500000000E+03  0.12500000000E+03 0.  0.
        -13    1    3    3    0    0 -0.28510117892E+02 -0.24533805349E+00 -0.14643594364E+02  0.32052036330E+02  0.10566000000E+00 0.  1.
         23    2    1    0    0    0  0.30569209312E+02  0.29945552220E+00  0.43711176022E+01  0.94118405147E+02  0.88907824665E+02 0.  0.
         13    1    3    3    0    0  0.59079327204E+02  0.54479357569E+00  0.19014711966E+02  0.62066368817E+02  0.10566000000E+00 0. -1.
         22    1    1    0    0    0 -0.30569209312E+02 -0.29945552220E+00 -0.43711176022E+01  0.30881594853E+02  0.00000000000E+00 0. -1.
</event>
<event>
 5    1  0.1320187E-009  0.9118800E+02  0.7818608E-02  0.1130116E+00
         25   -1    0    0    0    0  0.00000000000E+00  0.00000000000E+00  0.99999998245E-14  0.12500000000E+03  0.12500000000E+03 0.  0.
        -13    1    3    3    0    0 -0.30072510138E+01 -0.41930245451E+02  0.13243544090E+02  0.44074841649E+02  0.10566000000E+00 0. -1.
         23    2    1    0    0    0  0.25708431041E+02  0.34028094126E+00  0.15049540833E+02  0.95208593571E+02  0.90427586459E+02 0.  0.
         13    1    3    3    0    0  0.28715682055E+02  0.42270526393E+02  0.18059967428E+01  0.51133751923E+02  0.10566000000E+00 0.  1.
         22    1    1    0    0    0 -0.25708431041E+02 -0.34028094126E+00 -0.15049540833E+02  0.29791406429E+02  0.00000000000E+00 0.  1.
</event>
<event>
 5    1  0.1320187E-009  0.9118800E+02  0.7818608E-02  0.1130116E+00
         25   -1    0    0    0    0  0.00000000000E+00  0.00000000000E+00  0.99999998245E-14  0.12500000000E+03  0.12500000000E+03 0.  0.
        -13    1    3    3    0    0  0.17972007310E+02 -0.44620510594E+02 -0.83787031777E+00  0.48111289768E+02  0.10566000000E+00 0.  1.
         23    2    1    0    0    0 -0.14420164423E+02 -0.14397293134E+02 -0.20061554737E+02  0.96404735181E+02  0.92066192467E+02 0.  0.
         13    1    3    3    0    0 -0.32392171733E+02  0.30223217460E+02 -0.19223684419E+02  0.48293445414E+02  0.10566000000E+00 0. -1.
         22    1    1    0    0    0  0.14420164423E+02  0.14397293134E+02  0.20061554737E+02  0.28595264819E+02  0.00000000000E+00 0. -1.
</event>
<event>
 5    1  0.1320187E-009  0.9118800E+02  0.7818608E-02  0.1130116E+00
         25   -1    0    0    0    0  0.00000000000E+00  0.00000000000E+00  0.99999998245E-14  0.12500000000E+03  0.12500000000E+03 0.  0.
        -13    1    3    3    0    0  0.30855737973E+01 -0.13582865887E+02 -0.30357911018E+02  0.33401031971E+02  0.10566000000E+00 0.  1.
         23    2    1    0    0    0 -0.19449136838E+02  0.96384923849E+00  0.24046244395E+02  0.94057799067E+02  0.88822574646E+02 0.  0.
         13    1    3    3    0    0 -0.22534710635E+02  0.14546715125E+02  0.54404155412E+02  0.60656767096E+02  0.10566000000E+00 0. -1.
         22    1    1    0    0    0  0.19449136838E+02 -0.96384923849E+00 -0.24046244395E+02  0.30942200933E+02  0.00000000000E+00 0. -1.
</event>
<event>
 5    1  0.1320187E-009  0.9118800E+02  0.7818608E-02  0.1130116E+00
         25   -1    0    0    0    0  0.00000000000E+00  0.00000000000E+00  0.99999998245E-14  0.12500000000E+03  0.12500000000E+03 0.  0.
        -13    1    3    3    0    0  0.18198014845E+02 -0.28260854898E+02 -0.27090716751E+01  0.33722305634E+02  0.10566000000E+00 0.  1.
         23    2    1    0    0    0 -0.98377569817E+01  0.26182064900E+02 -0.97874111671E+01  0.95367662896E+02  0.90647204723E+02 0.  0.
         13    1    3    3    0    0 -0.28035771827E+02  0.54442919798E+02 -0.70783394921E+01  0.61645357263E+02  0.10566000000E+00 0. -1.
         22    1    1    0    0    0  0.98377569817E+01 -0.26182064900E+02  0.97874111671E+01  0.29632337104E+02  0.00000000000E+00 0. -1.
</event>
<event>
 5    1  0.1320187E-009  0.9118800E+02  0.7818608E-02  0.1130116E+00
         25   -1    0    0    0    0  0.00000000000E+00  0.00000000000E+00  0.99999998245E-14  0.12500000000E+03  0.12500000000E+03 0.  0.
        -13    1    3    3    0    0 -0.39902832732E+02  0.10769644700E+02  0.31814324419E+02  0.52157297757E+02  0.10566000000E+00 0. -1.
         23    2    1    0    0    0 -0.11787914645E+02 -0.19725949122E+02  0.17778216786E+02  0.95946033102E+02  0.91441283212E+02 0.  0.
         13    1    3    3    0    0  0.28114918087E+02 -0.30495593822E+02 -0.14036107634E+02  0.43788735345E+02  0.10566000000E+00 0.  1.
         22    1    1    0    0    0  0.11787914645E+02  0.19725949122E+02 -0.17778216786E+02  0.29053966898E+02  0.00000000000E+00 0. -1.
</event>
<event>
 5    1  0.1320187E-009  0.9118800E+02  0.7818608E-02  0.1130116E+00
         25   -1    0    0    0    0  0.00000000000E+00  0.00000000000E+00  0.99999998245E-14  0.12500000000E+03  0.12500000000E+03 0.  0.
        -13    1    3    3    0    0  0.28265645110E+02 -0.49979588448E+02 -0.52431945511E+01  0.57657681258E+02  0.10566000000E+00 0.  1.
         23    2    1    0    0    0  0.25852535206E+02 -0.12487262804E+02  0.30372675024E+01  0.96129421502E+02  0.91691631983E+02 0.  0.
         13    1    3    3    0    0 -0.24131099042E+01  0.37492325644E+02  0.82804620534E+01  0.38471740245E+02  0.10566000000E+00 0. -1.
         22    1    1    0    0    0 -0.25852535206E+02  0.12487262804E+02 -0.30372675024E+01  0.28870578498E+02  0.00000000000E+00 0. -1.
</event>
<event>
 5    1  0.1320187E-009  0.9118800E+02  0.7818608E-02  0.1130116E+00
         25   -1    0    0    0    0  0.00000000000E+00  0.00000000000E+00  0.99999998245E-14  0.12500000000E+03  0.12500000000E+03 0.  0.
        -13    1    3    3    0    0 -0.23628015651E+02  0.17683252977E+01  0.57573541480E+02  0.62258605354E+02  0.10566000000E+00 0. -1.
         23    2    1    0    0    0 -0.72510241843E+01 -0.11523742479E+00  0.27563657556E+02  0.96498318484E+02  0.92193164720E+02 0.  0.
         13    1    3    3    0    0  0.16376991467E+02 -0.18835627225E+01 -0.30009883925E+02  0.34239713130E+02  0.10566000000E+00 0.  1.
         22    1    1    0    0    0  0.72510241843E+01  0.11523742479E+00 -0.27563657556E+02  0.28501681516E+02  0.00000000000E+00 0. -1.
</event>
<event>
 5    1  0.1320187E-009  0.9118800E+02  0.7818608E-02  0.1130116E+00
         25   -1    0    0    0    0  0.00000000000E+00  0.00000000000E+00  0.99999998245E-14  0.12500000000E+03  0.12500000000E+03 0.  0.
        -13    1    3    3    0    0 -0.17465541995E+02 -0.32225209748E+02  0.38246269942E+02  0.52974499799E+02  0.10566000000E+00 0. -1.
         23    2    1    0    0    0 -0.26561358393E+02  0.83091211273E-01  0.10820168172E+02  0.96319192775E+02  0.91949976584E+02 0.  0.
         13    1    3    3    0    0 -0.90958163979E+01  0.32308300960E+02 -0.27426101770E+02  0.43344692976E+02  0.10566000000E+00 0.  1.
         22    1    1    0    0    0  0.26561358393E+02 -0.83091211273E-01 -0.10820168172E+02  0.28680807225E+02  0.00000000000E+00 0. -1.
</event>
<event>
 5    1  0.1320187E-009  0.9118800E+02  0.7818608E-02  0.1130116E+00
         25   -1    0    0    0    0  0.00000000000E+00  0.00000000000E+00  0.99999998245E-14  0.12500000000E+03  0.12500000000E+03 0.  0.
        -13    1    3    3    0    0 -0.26251468866E+02 -0.44146769162E+02 -0.11566389264E+02  0.52648545751E+02  0.10566000000E+00 0. -1.
         23    2    1    0    0    0 -0.16238373096E+02 -0.17649036880E+02 -0.30110677286E+02  0.86505504936E+02  0.77468549967E+02 0.  0.
         13    1    3    3    0    0  0.10013095770E+02  0.26497732282E+02 -0.18544288022E+02  0.33856959185E+02  0.10566000000E+00 0.  1.
         22    1    1    0    0    0  0.16238373096E+02  0.17649036880E+02  0.30110677286E+02  0.38494495064E+02  0.00000000000E+00 0. -1.
</event>
<event>
 5    1  0.1320187E-009  0.9118800E+02  0.7818608E-02  0.1130116E+00
         25   -1    0    0    0    0  0.00000000000E+00  0.00000000000E+00  0.99999998245E-14  0.12500000000E+03  0.12500000000E+03 0.  0.
        -13    1    3    3    0    0  0.26573603282E+02  0.38800975000E+02  0.16443497067E+02  0.49820395545E+02  0.10566000000E+00 0.  1.
         23    2    1    0    0    0  0.28371227461E+02 -0.37405980689E+01 -0.21917654843E+01  0.96299434544E+02  0.91923112632E+02 0.  0.
         13    1    3    3    0    0  0.17976241787E+01 -0.42541573069E+02 -0.18635262552E+02  0.46479038999E+02  0.10566000000E+00 0. -1.
         22    1    1    0    0    0 -0.28371227461E+02  0.37405980689E+01  0.21917654843E+01  0.28700565456E+02  0.00000000000E+00 0.  1.
</event>
<event>
 5    1  0.1320187E-009  0.9118800E+02  0.7818608E-02  0.1130116E+00
         25   -1    0    0    0    0  0.00000000000E+00  0.00000000000E+00  0.99999998245E-14  0.12500000000E+03  0.12500000000E+03 0.  0.
        -13    1    3    3    0    0  0.20191371678E+02 -0.54247822837E+02  0.22232309517E+02  0.62006487751E+02  0.10566000000E+00 0. -1.
         23    2    1    0    0    0  0.14128099644E+02 -0.22541383140E+02  0.11409532011E+02  0.96053591343E+02  0.91588197033E+02 0.  0.
         13    1    3    3    0    0 -0.60632720337E+01  0.31706439697E+02 -0.10822777505E+02  0.34047103592E+02  0.10566000000E+00 0.  1.
         22    1    1    0    0    0 -0.14128099644E+02  0.22541383140E+02 -0.11409532011E+02  0.28946408657E+02  0.00000000000E+00 0. -1.
</event>
<event>
 5    1  0.1320187E-009  0.9118800E+02  0.7818608E-02  0.1130116E+00
         25   -1    0    0    0    0  0.00000000000E+00  0.00000000000E+00  0.99999998245E-14  0.12500000000E+03  0.12500000000E+03 0.  0.
        -13    1    3    3    0    0  0.25834237969E+02  0.10429339928E+02 -0.17991832783E+02  0.33164682927E+02  0.10566000000E+00 0.  1.
         23    2    1    0    0    0 -0.13534575927E+02  0.20570332336E+01  0.27727728362E+02  0.94076820160E+02  0.88849338997E+02 0.  0.
         13    1    3    3    0    0 -0.39368813896E+02 -0.83723066941E+01  0.45719561145E+02  0.60912137233E+02  0.10566000000E+00 0. -1.
         22    1    1    0    0    0  0.13534575927E+02 -0.20570332336E+01 -0.27727728362E+02  0.30923179840E+02  0.00000000000E+00 0. -1.
</event>
<event>
 5    1  0.1320187E-009  0.9118800E+02  0.7818608E-02  0.1130116E+00
         25   -1    0    0    0    0  0.00000000000E+00  0.00000000000E+00  0.99999998245E-14  0.12500000000E+03  0.12500000000E+03 0.  0.
        -13    1    3    3    0    0 -0.13467119234E+02  0.29000792960E+02 -0.17757311611E+02  0.36575163328E+02  0.10566000000E+00 0. -1.
         23    2    1    0    0    0  0.24399170870E+02 -0.14125096885E+02  0.50819391054E+00  0.96802550431E+02  0.92604738581E+02 0.  0.
         13    1    3    3    0    0  0.37866290104E+02 -0.43125889845E+02  0.18265505522E+02  0.60227387103E+02  0.10566000000E+00 0.  1.
         22    1    1    0    0    0 -0.24399170870E+02  0.14125096885E+02 -0.50819391054E+00  0.28197449569E+02  0.00000000000E+00 0.  1.
</event>
<event>
 5    1  0.1320187E-009  0.9118800E+02  0.7818608E-02  0.1130116E+00
         25   -1    0    0    0    0  0.00000000000E+00  0.00000000000E+00  0.99999998245E-14  0.12500000000E+03  0.12500000000E+03 0.  0.
        -13    1    3    3    0    0  0.46258668663E+02 -0.27053287033E+02 -0.25312094035E+02  0.59265993911E+02  0.10566000000E+00 0. -1.
         23    2    1    0    0    0  0.19973216504E+02 -0.20781400723E+02 -0.17103348415E+00  0.96175960624E+02  0.91755055207E+02 0.  0.
         13    1    3    3    0    0 -0.26285452159E+02  0.62718863105E+01  0.25141060551E+02  0.36909966713E+02  0.10566000000E+00 0.  1.
         22    1    1    0    0    0 -0.19973216504E+02  0.20781400723E+02  0.17103348415E+00  0.28824039376E+02  0.00000000000E+00 0. -1.
</event>
<event>
 5    1  0.1320187E-009  0.9118800E+02  0.7818608E-02  0.1130116E+00
         25   -1    0    0    0    0  0.00000000000E+00  0.00000000000E+00  0.99999998245E-14  0.12500000000E+03  0.12500000000E+03 0.  0.
        -13    1    3    3    0    0  0.47239388944E+01 -0.10874857878E+02  0.32882993071E+02  0.34955407735E+02  0.10566000000E+00 0.  1.
         23    2    1    0    0    0 -0.51014141847E+01 -0.86415204717E+01 -0.27267764064E+02  0.95944342035E+02  0.91438971498E+02 0.  0.
         13    1    3    3    0    0 -0.98253530792E+01  0.22333374065E+01 -0.60150757135E+02  0.60988934300E+02  0.10566000000E+00 0. -1.
         22    1    1    0    0    0  0.51014141847E+01  0.86415204717E+01  0.27267764064E+02  0.29055657965E+02  0.00000000000E+00 0. -1.
</event>
<event>
 5    1  0.1320187E-009  0.9118800E+02  0.7818608E-02  0.1130116E+00
         25   -1    0    0    0    0  0.00000000000E+00  0.00000000000E+00  0.99999998245E-14  0.12500000000E+03  0.12500000000E+03 0.  0.
        -13    1    3    3    0    0  0.49528365952E+02  0.25649596933E+01  0.12822806518E+02  0.51225712129E+02  0.10566000000E+00 0.  1.
         23    2    1    0    0    0  0.16867991209E+02  0.85904308039E+01 -0.19678756048E+02  0.97694724531E+02  0.93801285347E+02 0.  0.
         13    1    3    3    0    0 -0.32660374742E+02  0.60254711106E+01 -0.32501562566E+02  0.46469012403E+02  0.10566000000E+00 0. -1.
         22    1    1    0    0    0 -0.16867991209E+02 -0.85904308039E+01  0.19678756048E+02  0.27305275469E+02  0.00000000000E+00 0.  1.
</event>
<event>
 5    1  0.1320187E-009  0.9118800E+02  0.7818608E-02  0.1130116E+00
         25   -1    0    0    0    0  0.00000000000E+00  0.00000000000E+00  0.99999998245E-14  0.12500000000E+03  0.12500000000E+03 0.  0.
        -13    1    3    3    0    0 -0.59377386097E+02 -0.32544843975E+01 -0.16278481136E+02  0.61654405849E+02  0.10566000000E+00 0.  1.
         23    2    1    0    0    0 -0.20401256601E+02  0.57586983805E+01 -0.63061780204E+01  0.10288345056E+03  0.10047816997E+03 0.  0.
         13    1    3    3    0    0  0.38976129496E+02  0.90131827780E+01  0.99723031160E+01  0.41229044711E+02  0.10566000000E+00 0. -1.
         22    1    1    0    0    0  0.20401256601E+02 -0.57586983805E+01  0.63061780204E+01  0.22116549441E+02  0.00000000000E+00 0.  1.
</event>
<event>
 5    1  0.1320187E-009  0.9118800E+02  0.7818608E-02  0.1130116E+00
         25   -1    0    0    0    0  0.00000000000E+00  0.00000000000E+00  0.99999998245E-14  0.12500000000E+03  0.12500000000E+03 0.  0.
        -13    1    3    3    0    0  0.26508135206E+02  0.33856423048E+02 -0.74920457617E+01  0.43647228176E+02  0.10566000000E+00 0. -1.
         23    2    1    0    0    0  0.20250146725E+02 -0.11684517171E+02  0.17337689770E+02  0.95893439391E+02  0.91369359459E+02 0.  0.
         13    1    3    3    0    0 -0.62579884806E+01 -0.45540940219E+02  0.24829735531E+02  0.52246211216E+02  0.10566000000E+00 0.  1.
         22    1    1    0    0    0 -0.20250146725E+02  0.11684517171E+02 -0.17337689770E+02  0.29106560609E+02  0.00000000000E+00 0. -1.
</event>
<event>
 5    1  0.1320187E-009  0.9118800E+02  0.7818608E-02  0.1130116E+00
         25   -1    0    0    0    0  0.00000000000E+00  0.00000000000E+00  0.99999998245E-14  0.12500000000E+03  0.12500000000E+03 0.  0.
        -13    1    3    3    0    0  0.28413987002E+02 -0.21260601137E+02 -0.22787452864E+02  0.42174008466E+02  0.10566000000E+00 0. -1.
         23    2    1    0    0    0  0.11866483932E+02  0.22275669027E+02  0.85973558627E+01  0.98336665637E+02  0.94652873222E+02 0.  0.
         13    1    3    3    0    0 -0.16547503070E+02  0.43536270164E+02  0.31384808726E+02  0.56162657171E+02  0.10566000000E+00 0.  1.
         22    1    1    0    0    0 -0.11866483932E+02 -0.22275669027E+02 -0.85973558627E+01  0.26663334363E+02  0.00000000000E+00 0.  1.
</event>
<event>
 5    1  0.1320187E-009  0.9118800E+02  0.7818608E-02  0.1130116E+00
         25   -1    0    0    0    0  0.00000000000E+00  0.00000000000E+00  0.99999998245E-14  0.12500000000E+03  0.12500000000E+03 0.  0.
        -13    1    3    3    0    0 -0.36007555877E+02  0.49613494280E+02 -0.71078349060E+01  0.61713656317E+02  0.10566000000E+00 0.  1.
         23    2    1    0    0    0 -0.10907802323E+02  0.26924460426E+02 -0.34566588314E+01  0.95744996821E+02  0.91166052921E+02 0.  0.
         13    1    3    3    0    0  0.25099753554E+02 -0.22689033854E+02  0.36511760746E+01  0.34031340504E+02  0.10566000000E+00 0. -1.
         22    1    1    0    0    0  0.10907802323E+02 -0.26924460426E+02  0.34566588314E+01  0.29255003179E+02  0.00000000000E+00 0.  1.
</event>
<event>
 5    1  0.1320187E-009  0.9118800E+02  0.7818608E-02  0.1130116E+00
         25   -1    0    0    0    0  0.00000000000E+00  0.00000000000E+00  0.99999998245E-14  0.12500000000E+03  0.12500000000E+03 0.  0.
        -13    1    3    3    0    0  0.51120142230E+02 -0.10289722454E+02 -0.20365796497E+02  0.55981462653E+02  0.10566000000E+00 0.  1.
         23    2    1    0    0    0  0.13813197577E+02 -0.62053272239E+01 -0.26952252941E+02  0.94085044851E+02  0.88860909362E+02 0.  0.
         13    1    3    3    0    0 -0.37306944653E+02  0.40843952297E+01 -0.65864564449E+01  0.38103582198E+02  0.10566000000E+00 0. -1.
         22    1    1    0    0    0 -0.13813197577E+02  0.62053272239E+01  0.26952252941E+02  0.30914955149E+02  0.00000000000E+00 0. -1.
</event>
<event>
 5    1  0.1320187E-009  0.9118800E+02  0.7818608E-02  0.1130116E+00
         25   -1    0    0    0    0  0.00000000000E+00  0.00000000000E+00  0.99999998245E-14  0.12500000000E+03  0.12500000000E+03 0.  0.
        -13    1    3    3    0    0 -0.15001789606E+02 -0.27795969948E+02 -0.16602299709E+02  0.35683569838E+02  0.10566000000E+00 0.  1.
         23    2    1    0    0    0  0.24660871511E+02  0.14778391431E+02  0.20531796126E+00  0.96249320140E+02  0.91854940177E+02 0.  0.
         13    1    3    3    0    0  0.39662661117E+02  0.42574361379E+02  0.16807617670E+02  0.60565750301E+02  0.10566000000E+00 0. -1.
         22    1    1    0    0    0 -0.24660871511E+02 -0.14778391431E+02 -0.20531796126E+00  0.28750679860E+02  0.00000000000E+00 0. -1.
</event>
<event>
 5    1  0.1320187E-009  0.9118800E+02  0.7818608E-02  0.1130116E+00
         25   -1    0    0    0    0  0.00000000000E+00  0.00000000000E+00  0.99999998245E-14  0.12500000000E+03  0.12500000000E+03 0.  0.
        -13    1    3    3    0    0 -0.27001027011E+02 -0.42349010479E+02 -0.23018399843E+02  0.55248095384E+02  0.10566000000E+00 0. -1.
         23    2    1    0    0    0 -0.27134075076E+02 -0.98865288317E+01  0.17306105179E+01  0.96069108286E+02  0.91609372182E+02 0.  0.
         13    1    3    3    0    0 -0.13304806548E+00  0.32462481647E+02  0.24749010361E+02  0.40821012902E+02  0.10566000000E+00 0.  1.
         22    1    1    0    0    0  0.27134075076E+02  0.98865288317E+01 -0.17306105179E+01  0.28930891714E+02  0.00000000000E+00 0. -1.
</event>
<event>
 5    1  0.1320187E-009  0.9118800E+02  0.7818608E-02  0.1130116E+00
         25   -1    0    0    0    0  0.00000000000E+00  0.00000000000E+00  0.99999998245E-14  0.12500000000E+03  0.12500000000E+03 0.  0.
        -13    1    3    3    0    0 -0.47663577423E+01 -0.14913374422E+02 -0.10162493098E+02  0.18665860087E+02  0.10566000000E+00 0.  1.
         23    2    1    0    0    0 -0.66481970530E+01  0.25473419327E+02  0.36237139594E+02  0.80209109160E+02  0.66537788437E+02 0.  0.
         13    1    3    3    0    0 -0.18818393106E+01  0.40386793749E+02  0.46399632692E+02  0.61543249073E+02  0.10566000000E+00 0. -1.
         22    1    1    0    0    0  0.66481970530E+01 -0.25473419327E+02 -0.36237139594E+02  0.44790890840E+02  0.00000000000E+00 0. -1.
</event>
<event>
 5    1  0.1320187E-009  0.9118800E+02  0.7818608E-02  0.1130116E+00
         25   -1    0    0    0    0  0.00000000000E+00  0.00000000000E+00  0.99999998245E-14  0.12500000000E+03  0.12500000000E+03 0.  0.
        -13    1    3    3    0    0 -0.19043682407E+02 -0.40344188646E+02  0.40687533743E+02  0.60380476673E+02  0.10566000000E+00 0. -1.
         23    2    1    0    0    0 -0.18440263764E+02 -0.16119903828E+02  0.12667017094E+02  0.97425592497E+02  0.93441950558E+02 0.  0.
         13    1    3    3    0    0  0.60341864324E+00  0.24224284818E+02 -0.28020516650E+02  0.37045115823E+02  0.10566000000E+00 0.  1.
         22    1    1    0    0    0  0.18440263764E+02  0.16119903828E+02 -0.12667017094E+02  0.27574407503E+02  0.00000000000E+00 0. -1.
</event>
<event>
 5    1  0.1320187E-009  0.9118800E+02  0.7818608E-02  0.1130116E+00
         25   -1    0    0    0    0  0.00000000000E+00  0.00000000000E+00  0.99999998245E-14  0.12500000000E+03  0.12500000000E+03 0.  0.
        -13    1    3    3    0    0 -0.12910105760E+02  0.10102373433E+02 -0.28398044860E+02  0.32790073126E+02  0.10566000000E+00 0. -1.
         23    2    1    0    0    0 -0.38201214598E+01 -0.12624491518E+02  0.27878129856E+02  0.94159097965E+02  0.88965018357E+02 0.  0.
         13    1    3    3    0    0  0.90899842998E+01 -0.22726864951E+02  0.56276174716E+02  0.61369024839E+02  0.10566000000E+00 0.  1.
         22    1    1    0    0    0  0.38201214598E+01  0.12624491518E+02 -0.27878129856E+02  0.30840902035E+02  0.00000000000E+00 0.  1.
</event>
<event>
 5    1  0.1320187E-009  0.9118800E+02  0.7818608E-02  0.1130116E+00
         25   -1    0    0    0    0  0.00000000000E+00  0.00000000000E+00  0.99999998245E-14  0.12500000000E+03  0.12500000000E+03 0.  0.
        -13    1    3    3    0    0 -0.11809714481E+02  0.21020227796E+02 -0.28463533552E+02  0.37302858322E+02  0.10566000000E+00 0. -1.
         23    2    1    0    0    0 -0.11443595070E+02 -0.27473809743E+02  0.29634155330E+01  0.95091006009E+02  0.90264896290E+02 0.  0.
         13    1    3    3    0    0  0.36611941083E+00 -0.48494037539E+02  0.31426949085E+02  0.57788147687E+02  0.10566000000E+00 0.  1.
         22    1    1    0    0    0  0.11443595070E+02  0.27473809743E+02 -0.29634155330E+01  0.29908993991E+02  0.00000000000E+00 0.  1.
</event>
<event>
 5    1  0.1320187E-009  0.9118800E+02  0.7818608E-02  0.1130116E+00
         25   -1    0    0    0    0  0.00000000000E+00  0.00000000000E+00  0.99999998245E-14  0.12500000000E+03  0.12500000000E+03 0.  0.
        -13    1    3    3    0    0 -0.18283118194E+02 -0.56376794527E+02 -0.77276742039E+01  0.59769084690E+02  0.10566000000E+00 0. -1.
         23    2    1    0    0    0 -0.12033873809E+02 -0.21685207682E+02 -0.15349466672E+02  0.95833778472E+02  0.91287702447E+02 0.  0.
         13    1    3    3    0    0  0.62492443845E+01  0.34691586845E+02 -0.76217924683E+01  0.36064693783E+02  0.10566000000E+00 0.  1.
         22    1    1    0    0    0  0.12033873809E+02  0.21685207682E+02  0.15349466672E+02  0.29166221528E+02  0.00000000000E+00 0. -1.
</event>
<event>
 5    1  0.1320187E-009  0.9118800E+02  0.7818608E-02  0.1130116E+00
         25   -1    0    0    0    0  0.00000000000E+00  0.00000000000E+00  0.99999998245E-14  0.12500000000E+03  0.12500000000E+03 0.  0.
        -13    1    3    3    0    0 -0.36880019062E+02  0.39235149749E+00 -0.98581999519E+01  0.38177022095E+02  0.10566000000E+00 0. -1.
         23    2    1    0    0    0  0.59365298723E+01  0.13111449179E+02  0.25884226441E+02  0.95383354935E+02  0.90668841030E+02 0.  0.
         13    1    3    3    0    0  0.42816548934E+02  0.12719097681E+02  0.35742426393E+02  0.57206332840E+02  0.10566000000E+00 0.  1.
         22    1    1    0    0    0 -0.59365298723E+01 -0.13111449179E+02 -0.25884226441E+02  0.29616645065E+02  0.00000000000E+00 0.  1.
</event>
<event>
 5    1  0.1320187E-009  0.9118800E+02  0.7818608E-02  0.1130116E+00
         25   -1    0    0    0    0  0.00000000000E+00  0.00000000000E+00  0.99999998245E-14  0.12500000000E+03  0.12500000000E+03 0.  0.
        -13    1    3    3    0    0 -0.32131113450E+02  0.14653009885E+02 -0.26344633192E+02  0.44058710969E+02  0.10566000000E+00 0. -1.
         23    2    1    0    0    0 -0.12029354965E+02 -0.26112914701E+02 -0.71247463148E+00  0.96240700371E+02  0.91843209291E+02 0.  0.
         13    1    3    3    0    0  0.20101758485E+02 -0.40765924585E+02  0.25632158560E+02  0.52181989402E+02  0.10566000000E+00 0.  1.
         22    1    1    0    0    0  0.12029354965E+02  0.26112914701E+02  0.71247463148E+00  0.28759299629E+02  0.00000000000E+00 0.  1.
</event>
<event>
 5    1  0.1320187E-009  0.9118800E+02  0.7818608E-02  0.1130116E+00
         25   -1    0    0    0    0  0.00000000000E+00  0.00000000000E+00  0.99999998245E-14  0.12500000000E+03  0.12500000000E+03 0.  0.
        -13    1    3    3    0    0  0.28729785182E+02  0.25957365220E+02  0.43409512184E+02  0.58168567783E+02  0.10566000000E+00 0.  1.
         23    2    1    0    0    0  0.21754863056E+02 -0.18527367965E+01  0.22445846081E+02  0.93686700804E+02  0.88298783689E+02 0.  0.
         13    1    3    3    0    0 -0.69749221258E+01 -0.27810102016E+02 -0.20963666103E+02  0.35518133021E+02  0.10566000000E+00 0. -1.
         22    1    1    0    0    0 -0.21754863056E+02  0.18527367965E+01 -0.22445846081E+02  0.31313299196E+02  0.00000000000E+00 0.  1.
</event>
<event>
 5    1  0.1320187E-009  0.9118800E+02  0.7818608E-02  0.1130116E+00
         25   -1    0    0    0    0  0.00000000000E+00  0.00000000000E+00  0.99999998245E-14  0.12500000000E+03  0.12500000000E+03 0.  0.
        -13    1    3    3    0    0  0.90373069909E+01 -0.50250804719E+02  0.17385634652E+02  0.53935959701E+02  0.10566000000E+00 0.  1.
         23    2    1    0    0    0 -0.21171720061E+01 -0.27289413891E+02 -0.13889083945E+02  0.94306333216E+02  0.89171650787E+02 0.  0.
         13    1    3    3    0    0 -0.11154478997E+02  0.22961390828E+02 -0.31274718597E+02  0.40370373516E+02  0.10566000000E+00 0. -1.
         22    1    1    0    0    0  0.21171720061E+01  0.27289413891E+02  0.13889083945E+02  0.30693666784E+02  0.00000000000E+00 0.  1.
</event>
<event>
 5    1  0.1320187E-009  0.9118800E+02  0.7818608E-02  0.1130116E+00
         25   -1    0    0    0    0  0.00000000000E+00  0.00000000000E+00  0.99999998245E-14  0.12500000000E+03  0.12500000000E+03 0.  0.
        -13    1    3    3    0    0 -0.24832889986E+02 -0.22344801648E+02  0.73252127199E+01  0.34199890222E+02  0.10566000000E+00 0.  1.
         23    2    1    0    0    0  0.19008569243E+02  0.19125381242E+02 -0.87480496194E+01  0.96651555872E+02  0.92400697877E+02 0.  0.
         13    1    3    3    0    0  0.43841459229E+02  0.41470182890E+02 -0.16073262339E+02  0.62451665651E+02  0.10566000000E+00 0. -1.
         22    1    1    0    0    0 -0.19008569243E+02 -0.19125381242E+02  0.87480496194E+01  0.28348444128E+02  0.00000000000E+00 0. -1.
</event>
<event>
 5    1  0.1320187E-009  0.9118800E+02  0.7818608E-02  0.1130116E+00
         25   -1    0    0    0    0  0.00000000000E+00  0.00000000000E+00  0.99999998245E-14  0.12500000000E+03  0.12500000000E+03 0.  0.
        -13    1    3    3    0    0  0.44450987391E+02 -0.21375622704E+00  0.10470002080E+02  0.45668020314E+02  0.10566000000E+00 0. -1.
         23    2    1    0    0    0  0.79921694435E+01  0.81485495674E+00 -0.26324590420E+02  0.97476867515E+02  0.93510517477E+02 0.  0.
         13    1    3    3    0    0 -0.36458817948E+02  0.10286111838E+01 -0.36794592500E+02  0.51808847202E+02  0.10566000000E+00 0.  1.
         22    1    1    0    0    0 -0.79921694435E+01 -0.81485495674E+00  0.26324590420E+02  0.27523132485E+02  0.00000000000E+00 0.  1.
</event>
<event>
 5    1  0.1320187E-009  0.9118800E+02  0.7818608E-02  0.1130116E+00
         25   -1    0    0    0    0  0.00000000000E+00  0.00000000000E+00  0.99999998245E-14  0.12500000000E+03  0.12500000000E+03 0.  0.
        -13    1    3    3    0    0  0.34653816361E+02  0.40472192340E+02 -0.17420285516E+02  0.56056782397E+02  0.10566000000E+00 0.  1.
         23    2    1    0    0    0  0.20919460145E+02  0.16767592165E+02  0.11441482566E+02  0.95850669251E+02  0.91310828015E+02 0.  0.
         13    1    3    3    0    0 -0.13734356216E+02 -0.23704600175E+02  0.28861768082E+02  0.39793886854E+02  0.10566000000E+00 0. -1.
         22    1    1    0    0    0 -0.20919460145E+02 -0.16767592165E+02 -0.11441482566E+02  0.29149330749E+02  0.00000000000E+00 0.  1.
</event>
<event>
 5    1  0.1320187E-009  0.9118800E+02  0.7818608E-02  0.1130116E+00
         25   -1    0    0    0    0  0.00000000000E+00  0.00000000000E+00  0.99999998245E-14  0.12500000000E+03  0.12500000000E+03 0.  0.
        -13    1    3    3    0    0 -0.30687780828E+02  0.10500660057E+02  0.13556400365E+02  0.35153817839E+02  0.10566000000E+00 0.  1.
         23    2    1    0    0    0  0.22471401973E+02 -0.15051320158E+02  0.14841190475E+02  0.94149277483E+02  0.88951219051E+02 0.  0.
         13    1    3    3    0    0  0.53159182800E+02 -0.25551980215E+02  0.12847901104E+01  0.58995459644E+02  0.10566000000E+00 0. -1.
         22    1    1    0    0    0 -0.22471401973E+02  0.15051320158E+02 -0.14841190475E+02  0.30850722517E+02  0.00000000000E+00 0. -1.
</event>
<event>
 5    1  0.1320187E-009  0.9118800E+02  0.7818608E-02  0.1130116E+00
         25   -1    0    0    0    0  0.00000000000E+00  0.00000000000E+00  0.99999998245E-14  0.12500000000E+03  0.12500000000E+03 0.  0.
        -13    1    3    3    0    0  0.70941337915E+00  0.23760975598E+02  0.22393822082E+02  0.32658561820E+02  0.10566000000E+00 0. -1.
         23    2    1    0    0    0  0.90912016395E+01 -0.24890772282E+02 -0.14963134980E+02  0.94568176188E+02  0.89537947526E+02 0.  0.
         13    1    3    3    0    0  0.83817882603E+01 -0.48651747880E+02 -0.37356957062E+02  0.61909614368E+02  0.10566000000E+00 0.  1.
         22    1    1    0    0    0 -0.90912016395E+01  0.24890772282E+02  0.14963134980E+02  0.30431823812E+02  0.00000000000E+00 0.  1.
</event>
<event>
 5    1  0.1320187E-009  0.9118800E+02  0.7818608E-02  0.1130116E+00
         25   -1    0    0    0    0  0.00000000000E+00  0.00000000000E+00  0.99999998245E-14  0.12500000000E+03  0.12500000000E+03 0.  0.
        -13    1    3    3    0    0 -0.26879059558E+02 -0.25468236410E+02  0.60784694551E+01  0.37524310301E+02  0.10566000000E+00 0.  1.
         23    2    1    0    0    0  0.20371978898E+02 -0.52217508039E+01  0.25025644793E+02  0.92311055340E+02  0.86329391490E+02 0.  0.
         13    1    3    3    0    0  0.47251038457E+02  0.20246485606E+02  0.18947175338E+02  0.54786745039E+02  0.10566000000E+00 0. -1.
         22    1    1    0    0    0 -0.20371978898E+02  0.52217508039E+01 -0.25025644793E+02  0.32688944660E+02  0.00000000000E+00 0. -1.
</event>
<event>
 5    1  0.1320187E-009  0.9118800E+02  0.7818608E-02  0.1130116E+00
         25   -1    0    0    0    0  0.00000000000E+00  0.00000000000E+00  0.99999998245E-14  0.12500000000E+03  0.12500000000E+03 0.  0.
        -13    1    3    3    0    0  0.48116188763E+02  0.15635860896E+02 -0.80871848230E+00  0.50599535142E+02  0.10566000000E+00 0.  1.
         23    2    1    0    0    0  0.44634470968E+02  0.10153570338E+02  0.21926708462E+02  0.74244591094E+02  0.54186232324E+02 0.  0.
         13    1    3    3    0    0 -0.34817177945E+01 -0.54822905580E+01  0.22735426945E+02  0.23645055952E+02  0.10566000000E+00 0. -1.
         22    1    1    0    0    0 -0.44634470968E+02 -0.10153570338E+02 -0.21926708462E+02  0.50755408906E+02  0.00000000000E+00 0.  1.
</event>
<event>
 5    1  0.1320187E-009  0.9118800E+02  0.7818608E-02  0.1130116E+00
         25   -1    0    0    0    0  0.00000000000E+00  0.00000000000E+00  0.99999998245E-14  0.12500000000E+03  0.12500000000E+03 0.  0.
        -13    1    3    3    0    0 -0.14480907638E+02 -0.22022339050E+02 -0.56091664550E+02  0.61975528229E+02  0.10566000000E+00 0.  1.
         23    2    1    0    0    0 -0.36520386115E+01 -0.53570803059E+01 -0.27165414756E+02  0.97071601294E+02  0.92967200256E+02 0.  0.
         13    1    3    3    0    0  0.10828869027E+02  0.16665258744E+02  0.28926249794E+02  0.35096073065E+02  0.10566000000E+00 0. -1.
         22    1    1    0    0    0  0.36520386115E+01  0.53570803059E+01  0.27165414756E+02  0.27928398706E+02  0.00000000000E+00 0.  1.
</event>
<event>
 5    1  0.1320187E-009  0.9118800E+02  0.7818608E-02  0.1130116E+00
         25   -1    0    0    0    0  0.00000000000E+00  0.00000000000E+00  0.99999998245E-14  0.12500000000E+03  0.12500000000E+03 0.  0.
        -13    1    3    3    0    0  0.31788229960E+02  0.28809561254E+02  0.39759521175E+02  0.58491991518E+02  0.10566000000E+00 0. -1.
         23    2    1    0    0    0  0.24512436217E+02  0.12954126255E+02  0.57933941664E+01  0.96676293811E+02  0.92434157392E+02 0.  0.
         13    1    3    3    0    0 -0.72757937439E+01 -0.15855434999E+02 -0.33966127009E+02  0.38184302293E+02  0.10566000000E+00 0.  1.
         22    1    1    0    0    0 -0.24512436217E+02 -0.12954126255E+02 -0.57933941664E+01  0.28323706189E+02  0.00000000000E+00 0. -1.
</event>
<event>
 5    1  0.1320187E-009  0.9118800E+02  0.7818608E-02  0.1130116E+00
         25   -1    0    0    0    0  0.00000000000E+00  0.00000000000E+00  0.99999998245E-14  0.12500000000E+03  0.12500000000E+03 0.  0.
        -13    1    3    3    0    0 -0.45463076426E+02  0.34548770986E+02 -0.22863979509E+02  0.61508386565E+02  0.10566000000E+00 0.  1.
         23    2    1    0    0    0 -0.25178706288E+02  0.94158853561E+01 -0.11721337943E+02  0.95673972131E+02  0.91068617167E+02 0.  0.
         13    1    3    3    0    0  0.20284370138E+02 -0.25132885630E+02  0.11142641566E+02  0.34165585566E+02  0.10566000000E+00 0. -1.
         22    1    1    0    0    0  0.25178706288E+02 -0.94158853561E+01  0.11721337943E+02  0.29326027869E+02  0.00000000000E+00 0.  1.
</event>
<event>
 5    1  0.1320187E-009  0.9118800E+02  0.7818608E-02  0.1130116E+00
         25   -1    0    0    0    0  0.00000000000E+00  0.00000000000E+00  0.99999998245E-14  0.12500000000E+03  0.12500000000E+03 0.  0.
        -13    1    3    3    0    0 -0.43619439926E+02 -0.28245832505E+02  0.22181592576E+02  0.56502361071E+02  0.10566000000E+00 0.  1.
         23    2    1    0    0    0 -0.24600930344E+02 -0.11480593324E+02 -0.87315299222E+01  0.96482471853E+02  0.92171676578E+02 0.  0.
         13    1    3    3    0    0  0.19018509582E+02  0.16765239180E+02 -0.30913122498E+02  0.39980110782E+02  0.10566000000E+00 0. -1.
         22    1    1    0    0    0  0.24600930344E+02  0.11480593324E+02  0.87315299222E+01  0.28517528147E+02  0.00000000000E+00 0.  1.
</event>
<event>
 5    1  0.1320187E-009  0.9118800E+02  0.7818608E-02  0.1130116E+00
         25   -1    0    0    0    0  0.00000000000E+00  0.00000000000E+00  0.99999998245E-14  0.12500000000E+03  0.12500000000E+03 0.  0.
        -13    1    3    3    0    0  0.21017129597E+02  0.17124346015E+01  0.31916909176E+02  0.38253789671E+02  0.10566000000E+00 0.  1.
         23    2    1    0    0    0 -0.12821940008E+02 -0.25207657791E+02 -0.63713458012E+01  0.96009963708E+02  0.91528634465E+02 0.  0.
         13    1    3    3    0    0 -0.33839069606E+02 -0.26920092392E+02 -0.38288254978E+02  0.57756174037E+02  0.10566000000E+00 0. -1.
         22    1    1    0    0    0  0.12821940008E+02  0.25207657791E+02  0.63713458012E+01  0.28990036292E+02  0.00000000000E+00 0. -1.
</event>
<event>
 5    1  0.1320187E-009  0.9118800E+02  0.7818608E-02  0.1130116E+00
         25   -1    0    0    0    0  0.00000000000E+00  0.00000000000E+00  0.99999998245E-14  0.12500000000E+03  0.12500000000E+03 0.  0.
        -13    1    3    3    0    0  0.69108314958E+01  0.34568723554E+02 -0.17721284674E+02  0.39456448581E+02  0.10566000000E+00 0. -1.
         23    2    1    0    0    0  0.12150802436E+01  0.18298046300E+01  0.28517643083E+02  0.96397892176E+02  0.92056901121E+02 0.  0.
         13    1    3    3    0    0 -0.56957512522E+01 -0.32738918924E+02  0.46238927756E+02  0.56941443595E+02  0.10566000000E+00 0.  1.
         22    1    1    0    0    0 -0.12150802436E+01 -0.18298046300E+01 -0.28517643083E+02  0.28602107824E+02  0.00000000000E+00 0.  1.
</event>
<event>
 5    1  0.1320187E-009  0.9118800E+02  0.7818608E-02  0.1130116E+00
         25   -1    0    0    0    0  0.00000000000E+00  0.00000000000E+00  0.99999998245E-14  0.12500000000E+03  0.12500000000E+03 0.  0.
        -13    1    3    3    0    0  0.48614114309E+02  0.96113097347E+01 -0.29669379890E+02  0.57758052702E+02  0.10566000000E+00 0.  1.
         23    2    1    0    0    0  0.12822641766E+02 -0.39863057726E+01 -0.25382014752E+02  0.96284891635E+02  0.91903334590E+02 0.  0.
         13    1    3    3    0    0 -0.35791472543E+02 -0.13597615507E+02  0.42873651382E+01  0.38526838933E+02  0.10566000000E+00 0. -1.
         22    1    1    0    0    0 -0.12822641766E+02  0.39863057726E+01  0.25382014752E+02  0.28715108365E+02  0.00000000000E+00 0.  1.
</event>
<event>
 5    1  0.1320187E-009  0.9118800E+02  0.7818608E-02  0.1130116E+00
         25   -1    0    0    0    0  0.00000000000E+00  0.00000000000E+00  0.99999998245E-14  0.12500000000E+03  0.12500000000E+03 0.  0.
        -13    1    3    3    0    0 -0.46139292512E+01  0.19924340743E+01  0.42484354856E+02  0.42780716547E+02  0.10566000000E+00 0. -1.
         23    2    1    0    0    0  0.41031573745E+01  0.29996524678E+02 -0.38334628267E+00  0.94721718220E+02  0.89752044851E+02 0.  0.
         13    1    3    3    0    0  0.87170866256E+01  0.28004090604E+02 -0.42867701139E+02  0.51941001673E+02  0.10566000000E+00 0.  1.
         22    1    1    0    0    0 -0.41031573745E+01 -0.29996524678E+02  0.38334628267E+00  0.30278281780E+02  0.00000000000E+00 0.  1.
</event>
<event>
 5    1  0.1320187E-009  0.9118800E+02  0.7818608E-02  0.1130116E+00
         25   -1    0    0    0    0  0.00000000000E+00  0.00000000000E+00  0.99999998245E-14  0.12500000000E+03  0.12500000000E+03 0.  0.
        -13    1    3    3    0    0 -0.46573317472E+02  0.36655874921E+02 -0.18612852595E+02  0.62122270663E+02  0.10566000000E+00 0.  1.
         23    2    1    0    0    0 -0.28452881458E+02  0.16331440270E+02 -0.92944849059E+01  0.90902054985E+02  0.84264546200E+02 0.  0.
         13    1    3    3    0    0  0.18120436014E+02 -0.20324434651E+02  0.93183676893E+01  0.28779784322E+02  0.10566000000E+00 0. -1.
         22    1    1    0    0    0  0.28452881458E+02 -0.16331440270E+02  0.92944849059E+01  0.34097945015E+02  0.00000000000E+00 0.  1.
</event>
<event>
 5    1  0.1320187E-009  0.9118800E+02  0.7818608E-02  0.1130116E+00
         25   -1    0    0    0    0  0.00000000000E+00  0.00000000000E+00  0.99999998245E-14  0.12500000000E+03  0.12500000000E+03 0.  0.
        -13    1    3    3    0    0 -0.31058790808E+02 -0.29824650483E+02  0.87030092518E+01  0.43930761397E+02  0.10566000000E+00 0.  1.
         23    2    1    0    0    0  0.17084079077E+02 -0.13642193085E+02  0.19326348473E+02  0.95819819477E+02  0.91268586432E+02 0.  0.
         13    1    3    3    0    0  0.48142869884E+02  0.16182457398E+02  0.10623339221E+02  0.51889058079E+02  0.10566000000E+00 0. -1.
         22    1    1    0    0    0 -0.17084079077E+02  0.13642193085E+02 -0.19326348473E+02  0.29180180523E+02  0.00000000000E+00 0. -1.
</event>
<event>
 5    1  0.1320187E-009  0.9118800E+02  0.7818608E-02  0.1130116E+00
         25   -1    0    0    0    0  0.00000000000E+00  0.00000000000E+00  0.99999998245E-14  0.12500000000E+03  0.12500000000E+03 0.  0.
        -13    1    3    3    0    0 -0.45497112001E-01  0.57663243446E+02  0.23940539682E+01  0.57713034690E+02  0.10566000000E+00 0.  1.
         23    2    1    0    0    0  0.16454285285E+02  0.19821341261E+02  0.34483926770E+01  0.99009223065E+02  0.95536934042E+02 0.  0.
         13    1    3    3    0    0  0.16499782397E+02 -0.37841902185E+02  0.10543387088E+01  0.41296188375E+02  0.10566000000E+00 0. -1.
         22    1    1    0    0    0 -0.16454285285E+02 -0.19821341261E+02 -0.34483926770E+01  0.25990776935E+02  0.00000000000E+00 0. -1.
</event>
<event>
 5    1  0.1320187E-009  0.9118800E+02  0.7818608E-02  0.1130116E+00
         25   -1    0    0    0    0  0.00000000000E+00  0.00000000000E+00  0.99999998245E-14  0.12500000000E+03  0.12500000000E+03 0.  0.
        -13    1    3    3    0    0  0.21577733884E+02  0.25644565628E+02  0.87258594622E+01  0.34632270113E+02  0.10566000000E+00 0.  1.
         23    2    1    0    0    0 -0.13722033985E+02  0.39926833508E+02 -0.15793977506E+02  0.79923443165E+02  0.65998945380E+02 0.  0.
         13    1    3    3    0    0 -0.35299767869E+02  0.14282267880E+02 -0.24519836968E+02  0.45291173052E+02  0.10566000000E+00 0. -1.
         22    1    1    0    0    0  0.13722033985E+02 -0.39926833508E+02  0.15793977506E+02  0.45076556835E+02  0.00000000000E+00 0. -1.
</event>
<event>
 5    1  0.1320187E-009  0.9118800E+02  0.7818608E-02  0.1130116E+00
         25   -1    0    0    0    0  0.00000000000E+00  0.00000000000E+00  0.99999998245E-14  0.12500000000E+03  0.12500000000E+03 0.  0.
        -13    1    3    3    0    0  0.92774661604E+01 -0.73470397726E+01 -0.28463643083E+02  0.30825971410E+02  0.10566000000E+00 0.  1.
         23    2    1    0    0    0 -0.21786870249E+02  0.11110168565E+02  0.21466185696E+02  0.92459245720E+02  0.86543696651E+02 0.  0.
         13    1    3    3    0    0 -0.31064336409E+02  0.18457208337E+02  0.49929828780E+02  0.61633274310E+02  0.10566000000E+00 0. -1.
         22    1    1    0    0    0  0.21786870249E+02 -0.11110168565E+02 -0.21466185696E+02  0.32540754280E+02  0.00000000000E+00 0. -1.
</event>
<event>
 5    1  0.1320187E-009  0.9118800E+02  0.7818608E-02  0.1130116E+00
         25   -1    0    0    0    0  0.00000000000E+00  0.00000000000E+00  0.99999998245E-14  0.12500000000E+03  0.12500000000E+03 0.  0.
        -13    1    3    3    0    0 -0.17096984362E+02 -0.17613842132E+02 -0.55483983042E+02  0.60671557151E+02  0.10566000000E+00 0. -1.
         23    2    1    0    0    0 -0.15963971624E+02 -0.18344609101E+02 -0.29158697763E+02  0.87031556151E+02  0.78312764207E+02 0.  0.
         13    1    3    3    0    0  0.11330127382E+01 -0.73076696960E+00  0.26325285279E+02  0.26359999000E+02  0.10566000000E+00 0.  1.
         22    1    1    0    0    0  0.15963971624E+02  0.18344609101E+02  0.29158697763E+02  0.37968443849E+02  0.00000000000E+00 0. -1.
</event>
<event>
 5    1  0.1320187E-009  0.9118800E+02  0.7818608E-02  0.1130116E+00
         25   -1    0    0    0    0  0.00000000000E+00  0.00000000000E+00  0.99999998245E-14  0.12500000000E+03  0.12500000000E+03 0.  0.
        -13    1    3    3    0    0 -0.49591880453E+02  0.16647117614E+02  0.31929953642E+02  0.61286329923E+02  0.10566000000E+00 0. -1.
         23    2    1    0    0    0 -0.18074040446E+02  0.73244279438E+01  0.21954689018E+02  0.95634602802E+02  0.91014563123E+02 0.  0.
         13    1    3    3    0    0  0.31517840007E+02 -0.93226896706E+01 -0.99752646246E+01  0.34348272879E+02  0.10566000000E+00 0.  1.
         22    1    1    0    0    0  0.18074040446E+02 -0.73244279438E+01 -0.21954689018E+02  0.29365397198E+02  0.00000000000E+00 0. -1.
</event>
<event>
 5    1  0.1320187E-009  0.9118800E+02  0.7818608E-02  0.1130116E+00
         25   -1    0    0    0    0  0.00000000000E+00  0.00000000000E+00  0.99999998245E-14  0.12500000000E+03  0.12500000000E+03 0.  0.
        -13    1    3    3    0    0  0.31283247557E+02  0.21007313380E+01 -0.14230732195E+02  0.34432245827E+02  0.10566000000E+00 0. -1.
         23    2    1    0    0    0 -0.14912326890E+02 -0.23261357942E+02  0.13790701323E+02  0.94118748251E+02  0.88908307051E+02 0.  0.
         13    1    3    3    0    0 -0.46195574447E+02 -0.25362089280E+02  0.28021433519E+02  0.59686502424E+02  0.10566000000E+00 0.  1.
         22    1    1    0    0    0  0.14912326890E+02  0.23261357942E+02 -0.13790701323E+02  0.30881251749E+02  0.00000000000E+00 0.  1.
</event>
<event>
 5    1  0.1320187E-009  0.9118800E+02  0.7818608E-02  0.1130116E+00
         25   -1    0    0    0    0  0.00000000000E+00  0.00000000000E+00  0.99999998245E-14  0.12500000000E+03  0.12500000000E+03 0.  0.
        -13    1    3    3    0    0 -0.14408587231E+02  0.41336362627E+02 -0.17878908082E+02  0.47286031547E+02  0.10566000000E+00 0.  1.
         23    2    1    0    0    0 -0.27159788326E+02 -0.49321763217E+01 -0.76160717583E+01  0.96364619538E+02  0.92011710583E+02 0.  0.
         13    1    3    3    0    0 -0.12751201095E+02 -0.46268538948E+02  0.10262836324E+02  0.49078587991E+02  0.10566000000E+00 0. -1.
         22    1    1    0    0    0  0.27159788326E+02  0.49321763217E+01  0.76160717583E+01  0.28635380462E+02  0.00000000000E+00 0. -1.
</event>
<event>
 5    1  0.1320187E-009  0.9118800E+02  0.7818608E-02  0.1130116E+00
         25   -1    0    0    0    0  0.00000000000E+00  0.00000000000E+00  0.99999998245E-14  0.12500000000E+03  0.12500000000E+03 0.  0.
        -13    1    3    3    0    0  0.26038110964E+02 -0.43667606743E+02  0.26164995673E+02  0.57179203071E+02  0.10566000000E+00 0.  1.
         23    2    1    0    0    0  0.26059257050E+02 -0.13182637675E+02  0.26571535314E+01  0.95675483313E+02  0.91070691379E+02 0.  0.
         13    1    3    3    0    0  0.21146085181E-01  0.30484969068E+02 -0.23507842142E+02  0.38496280242E+02  0.10566000000E+00 0. -1.
         22    1    1    0    0    0 -0.26059257050E+02  0.13182637675E+02 -0.26571535314E+01  0.29324516687E+02  0.00000000000E+00 0.  1.
</event>
<event>
 5    1  0.1320187E-009  0.9118800E+02  0.7818608E-02  0.1130116E+00
         25   -1    0    0    0    0  0.00000000000E+00  0.00000000000E+00  0.99999998245E-14  0.12500000000E+03  0.12500000000E+03 0.  0.
        -13    1    3    3    0    0 -0.30279543512E+02  0.48000528068E+02 -0.56685603645E+01  0.57035473092E+02  0.10566000000E+00 0.  1.
         23    2    1    0    0    0  0.20262880982E+01  0.27174229767E+02 -0.10545917672E+02  0.95780811332E+02  0.91215145853E+02 0.  0.
         13    1    3    3    0    0  0.32305831611E+02 -0.20826298301E+02 -0.48773573078E+01  0.38745338240E+02  0.10566000000E+00 0. -1.
         22    1    1    0    0    0 -0.20262880982E+01 -0.27174229767E+02  0.10545917672E+02  0.29219188668E+02  0.00000000000E+00 0.  1.
</event>
<event>
 5    1  0.1320187E-009  0.9118800E+02  0.7818608E-02  0.1130116E+00
         25   -1    0    0    0    0  0.00000000000E+00  0.00000000000E+00  0.99999998245E-14  0.12500000000E+03  0.12500000000E+03 0.  0.
        -13    1    3    3    0    0 -0.36220141797E+02 -0.46113434612E+02 -0.93746438653E+01  0.59382174389E+02  0.10566000000E+00 0. -1.
         23    2    1    0    0    0 -0.43878343621E+01 -0.27954983079E+02 -0.40911543382E+01  0.96408537758E+02  0.92071355152E+02 0.  0.
         13    1    3    3    0    0  0.31832307435E+02  0.18158451534E+02  0.52834895271E+01  0.37026363369E+02  0.10566000000E+00 0.  1.
         22    1    1    0    0    0  0.43878343621E+01  0.27954983079E+02  0.40911543382E+01  0.28591462242E+02  0.00000000000E+00 0. -1.
</event>
<event>
 5    1  0.1320187E-009  0.9118800E+02  0.7818608E-02  0.1130116E+00
         25   -1    0    0    0    0  0.00000000000E+00  0.00000000000E+00  0.99999998245E-14  0.12500000000E+03  0.12500000000E+03 0.  0.
        -13    1    3    3    0    0 -0.43918648061E+02  0.30035332890E+02  0.63724705138E+00  0.53210770687E+02  0.10566000000E+00 0.  1.
         23    2    1    0    0    0 -0.25035216976E+02 -0.57254510485E+01  0.13934980518E+02  0.95781400431E+02  0.91215953143E+02 0.  0.
         13    1    3    3    0    0  0.18883431085E+02 -0.35760783939E+02  0.13297733466E+02  0.42570629744E+02  0.10566000000E+00 0. -1.
         22    1    1    0    0    0  0.25035216976E+02  0.57254510485E+01 -0.13934980518E+02  0.29218599569E+02  0.00000000000E+00 0.  1.
</event>
<event>
 5    1  0.1320187E-009  0.9118800E+02  0.7818608E-02  0.1130116E+00
         25   -1    0    0    0    0  0.00000000000E+00  0.00000000000E+00  0.99999998245E-14  0.12500000000E+03  0.12500000000E+03 0.  0.
        -13    1    3    3    0    0 -0.48324166111E+02 -0.18116192869E+02 -0.28113337407E+02  0.58768974626E+02  0.10566000000E+00 0. -1.
         23    2    1    0    0    0 -0.12876946605E+02 -0.12020375371E+02 -0.24368729578E+02  0.94931076522E+02  0.90043151491E+02 0.  0.
         13    1    3    3    0    0  0.35447219506E+02  0.60958174988E+01  0.37446078297E+01  0.36162101895E+02  0.10566000000E+00 0.  1.
         22    1    1    0    0    0  0.12876946605E+02  0.12020375371E+02  0.24368729578E+02  0.30068923478E+02  0.00000000000E+00 0. -1.
</event>
<event>
 5    1  0.1320187E-009  0.9118800E+02  0.7818608E-02  0.1130116E+00
         25   -1    0    0    0    0  0.00000000000E+00  0.00000000000E+00  0.99999998245E-14  0.12500000000E+03  0.12500000000E+03 0.  0.
        -13    1    3    3    0    0 -0.33351708761E+02 -0.33878035791E+02 -0.27353807062E+02  0.54847969070E+02  0.10566000000E+00 0.  1.
         23    2    1    0    0    0  0.52279236675E+01 -0.20203386458E+02 -0.19321204465E+02  0.96560292684E+02  0.92277154112E+02 0.  0.
         13    1    3    3    0    0  0.38579632429E+02  0.13674649333E+02  0.80326025969E+01  0.41712323614E+02  0.10566000000E+00 0. -1.
         22    1    1    0    0    0 -0.52279236675E+01  0.20203386458E+02  0.19321204465E+02  0.28439707316E+02  0.00000000000E+00 0.  1.
</event>
<event>
 5    1  0.1320187E-009  0.9118800E+02  0.7818608E-02  0.1130116E+00
         25   -1    0    0    0    0  0.00000000000E+00  0.00000000000E+00  0.99999998245E-14  0.12500000000E+03  0.12500000000E+03 0.  0.
        -13    1    3    3    0    0  0.45523411419E+01  0.47149817105E+02 -0.33255016976E+01  0.47485778803E+02  0.10566000000E+00 0. -1.
         23    2    1    0    0    0 -0.24136416576E+01  0.82837330623E+01 -0.29105797442E+02  0.94642244084E+02  0.89641290827E+02 0.  0.
         13    1    3    3    0    0 -0.69659827994E+01 -0.38866084043E+02 -0.25780295744E+02  0.47156465282E+02  0.10566000000E+00 0.  1.
         22    1    1    0    0    0  0.24136416576E+01 -0.82837330623E+01  0.29105797442E+02  0.30357755916E+02  0.00000000000E+00 0. -1.
</event>
<event>
 5    1  0.1320187E-009  0.9118800E+02  0.7818608E-02  0.1130116E+00
         25   -1    0    0    0    0  0.00000000000E+00  0.00000000000E+00  0.99999998245E-14  0.12500000000E+03  0.12500000000E+03 0.  0.
        -13    1    3    3    0    0 -0.16594001750E+01 -0.84353191869E+01 -0.32429605879E+02  0.33549943669E+02  0.10566000000E+00 0. -1.
         23    2    1    0    0    0  0.22095136161E+01 -0.11064220734E+02  0.28338572722E+02  0.94497973267E+02  0.89439886610E+02 0.  0.
         13    1    3    3    0    0  0.38689137911E+01 -0.26289015474E+01  0.60768178601E+02  0.60948029598E+02  0.10566000000E+00 0.  1.
         22    1    1    0    0    0 -0.22095136161E+01  0.11064220734E+02 -0.28338572722E+02  0.30502026733E+02  0.00000000000E+00 0.  1.
</event>
<event>
 5    1  0.1320187E-009  0.9118800E+02  0.7818608E-02  0.1130116E+00
         25   -1    0    0    0    0  0.00000000000E+00  0.00000000000E+00  0.99999998245E-14  0.12500000000E+03  0.12500000000E+03 0.  0.
        -13    1    3    3    0    0 -0.27197051916E+02 -0.36087183536E+02  0.28799833260E+00  0.45189142010E+02  0.10566000000E+00 0.  1.
         23    2    1    0    0    0 -0.15028128285E+02  0.18079746871E+02  0.51954596508E+01  0.10092273505E+03  0.98008590244E+02 0.  0.
         13    1    3    3    0    0  0.12168923631E+02  0.54166930407E+02  0.49074613182E+01  0.55733593036E+02  0.10566000000E+00 0. -1.
         22    1    1    0    0    0  0.15028128285E+02 -0.18079746871E+02 -0.51954596508E+01  0.24077264954E+02  0.00000000000E+00 0. -1.
</event>
<event>
 5    1  0.1320187E-009  0.9118800E+02  0.7818608E-02  0.1130116E+00
         25   -1    0    0    0    0  0.00000000000E+00  0.00000000000E+00  0.99999998245E-14  0.12500000000E+03  0.12500000000E+03 0.  0.
        -13    1    3    3    0    0  0.43534851133E+02  0.88127649947E+00 -0.14481451410E+02  0.45888816834E+02  0.10566000000E+00 0. -1.
         23    2    1    0    0    0  0.23697500942E+02  0.24129085328E+02  0.14680666703E+02  0.88131228872E+02  0.80048780240E+02 0.  0.
         13    1    3    3    0    0 -0.19837350190E+02  0.23247808828E+02  0.29162118114E+02  0.42242412038E+02  0.10566000000E+00 0.  1.
         22    1    1    0    0    0 -0.23697500942E+02 -0.24129085328E+02 -0.14680666703E+02  0.36868771128E+02  0.00000000000E+00 0. -1.
</event>
<event>
 5    1  0.1320187E-009  0.9118800E+02  0.7818608E-02  0.1130116E+00
         25   -1    0    0    0    0  0.00000000000E+00  0.00000000000E+00  0.99999998245E-14  0.12500000000E+03  0.12500000000E+03 0.  0.
        -13    1    3    3    0    0  0.63639216895E+01 -0.35768412980E+02 -0.84040237685E+01  0.37289645291E+02  0.10566000000E+00 0. -1.
         23    2    1    0    0    0 -0.31387774589E+02 -0.44571392903E+01 -0.19772422166E+02  0.87636820764E+02  0.79272978947E+02 0.  0.
         13    1    3    3    0    0 -0.37751696278E+02  0.31311273690E+02 -0.11368398398E+02  0.50347175473E+02  0.10566000000E+00 0.  1.
         22    1    1    0    0    0  0.31387774589E+02  0.44571392903E+01  0.19772422166E+02  0.37363179236E+02  0.00000000000E+00 0.  1.
</event>
<event>
 5    1  0.1320187E-009  0.9118800E+02  0.7818608E-02  0.1130116E+00
         25   -1    0    0    0    0  0.00000000000E+00  0.00000000000E+00  0.99999998245E-14  0.12500000000E+03  0.12500000000E+03 0.  0.
        -13    1    3    3    0    0  0.55179575638E+02  0.16688797602E+02 -0.13235220357E+02  0.59147981833E+02  0.10566000000E+00 0.  1.
         23    2    1    0    0    0  0.18800970912E+02  0.15613220034E+02 -0.16225771246E+02  0.95665297008E+02  0.91056708990E+02 0.  0.
         13    1    3    3    0    0 -0.36378604727E+02 -0.10755775677E+01 -0.29905508894E+01  0.36517315175E+02  0.10566000000E+00 0. -1.
         22    1    1    0    0    0 -0.18800970912E+02 -0.15613220034E+02  0.16225771246E+02  0.29334702992E+02  0.00000000000E+00 0.  1.
</event>
<event>
 5    1  0.1320187E-009  0.9118800E+02  0.7818608E-02  0.1130116E+00
         25   -1    0    0    0    0  0.00000000000E+00  0.00000000000E+00  0.99999998245E-14  0.12500000000E+03  0.12500000000E+03 0.  0.
        -13    1    3    3    0    0 -0.51931105169E+01  0.19103223057E+02  0.29448969180E+02  0.35484566755E+02  0.10566000000E+00 0.  1.
         23    2    1    0    0    0 -0.18102260904E+02 -0.60315969600E+01 -0.23033345358E+02  0.95090018219E+02  0.90263528376E+02 0.  0.
         13    1    3    3    0    0 -0.12909150387E+02 -0.25134820017E+02 -0.52482314538E+02  0.59605451465E+02  0.10566000000E+00 0. -1.
         22    1    1    0    0    0  0.18102260904E+02  0.60315969600E+01  0.23033345358E+02  0.29909981781E+02  0.00000000000E+00 0. -1.
</event>
<event>
 5    1  0.1320187E-009  0.9118800E+02  0.7818608E-02  0.1130116E+00
         25   -1    0    0    0    0  0.00000000000E+00  0.00000000000E+00  0.99999998245E-14  0.12500000000E+03  0.12500000000E+03 0.  0.
        -13    1    3    3    0    0  0.37661260456E+02  0.21934992452E+02 -0.16314848889E+02  0.46537080821E+02  0.10566000000E+00 0.  1.
         23    2    1    0    0    0 -0.63686390271E+01  0.27118592166E+02  0.64972754650E+01  0.96395940977E+02  0.92054251636E+02 0.  0.
         13    1    3    3    0    0 -0.44029899483E+02  0.51835997146E+01  0.22812124354E+02  0.49858860156E+02  0.10566000000E+00 0. -1.
         22    1    1    0    0    0  0.63686390271E+01 -0.27118592166E+02 -0.64972754650E+01  0.28604059023E+02  0.00000000000E+00 0.  1.
</event>
<event>
 5    1  0.1320187E-009  0.9118800E+02  0.7818608E-02  0.1130116E+00
         25   -1    0    0    0    0  0.00000000000E+00  0.00000000000E+00  0.99999998245E-14  0.12500000000E+03  0.12500000000E+03 0.  0.
        -13    1    3    3    0    0 -0.45092587545E+02 -0.14602073480E+02  0.28472344094E+02  0.55292382330E+02  0.10566000000E+00 0.  1.
         23    2    1    0    0    0 -0.55474838066E+01 -0.19188319864E+02  0.21401240749E+02  0.95725791191E+02  0.91139715809E+02 0.  0.
         13    1    3    3    0    0  0.39545103739E+02 -0.45862463843E+01 -0.70711033447E+01  0.40433408861E+02  0.10566000000E+00 0. -1.
         22    1    1    0    0    0  0.55474838066E+01  0.19188319864E+02 -0.21401240749E+02  0.29274208809E+02  0.00000000000E+00 0.  1.
</event>
<event>
 5    1  0.1320187E-009  0.9118800E+02  0.7818608E-02  0.1130116E+00
         25   -1    0    0    0    0  0.00000000000E+00  0.00000000000E+00  0.99999998245E-14  0.12500000000E+03  0.12500000000E+03 0.  0.
        -13    1    3    3    0    0  0.20659044745E+02 -0.37877245820E+02 -0.20186538701E+01  0.43192221616E+02  0.10566000000E+00 0.  1.
         23    2    1    0    0    0  0.67216735125E+01  0.17020687073E+02  0.13892454171E+02  0.10202425265E+03  0.99403536976E+02 0.  0.
         13    1    3    3    0    0 -0.13937371233E+02  0.54897932893E+02  0.15911108041E+02  0.58832031037E+02  0.10566000000E+00 0. -1.
         22    1    1    0    0    0 -0.67216735125E+01 -0.17020687073E+02 -0.13892454171E+02  0.22975747347E+02  0.00000000000E+00 0. -1.
</event>
<event>
 5    1  0.1320187E-009  0.9118800E+02  0.7818608E-02  0.1130116E+00
         25   -1    0    0    0    0  0.00000000000E+00  0.00000000000E+00  0.99999998245E-14  0.12500000000E+03  0.12500000000E+03 0.  0.
        -13    1    3    3    0    0  0.16931609886E+02  0.27641909929E+02  0.22241929905E+02  0.39312456140E+02  0.10566000000E+00 0. -1.
         23    2    1    0    0    0 -0.27713807556E+02 -0.18140218623E+00 -0.19559270227E+01  0.97216665310E+02  0.93162043384E+02 0.  0.
         13    1    3    3    0    0 -0.44645417442E+02 -0.27823312116E+02 -0.24197856927E+02  0.57904209169E+02  0.10566000000E+00 0.  1.
         22    1    1    0    0    0  0.27713807556E+02  0.18140218623E+00  0.19559270227E+01  0.27783334690E+02  0.00000000000E+00 0. -1.
</event>
<event>
 5    1  0.1320187E-009  0.9118800E+02  0.7818608E-02  0.1130116E+00
         25   -1    0    0    0    0  0.00000000000E+00  0.00000000000E+00  0.99999998245E-14  0.12500000000E+03  0.12500000000E+03 0.  0.
        -13    1    3    3    0    0 -0.39837102508E+02 -0.19185469712E+02  0.24753577955E+02  0.50673738464E+02  0.10566000000E+00 0.  1.
         23    2    1    0    0    0 -0.25751738460E+02  0.58504698333E+00 -0.13453163331E+02  0.95940028952E+02  0.91433075187E+02 0.  0.
         13    1    3    3    0    0  0.14085364048E+02  0.19770516695E+02 -0.38206741286E+02  0.45266290488E+02  0.10566000000E+00 0. -1.
         22    1    1    0    0    0  0.25751738460E+02 -0.58504698333E+00  0.13453163331E+02  0.29059971048E+02  0.00000000000E+00 0.  1.
</event>
<event>
 5    1  0.1320187E-009  0.9118800E+02  0.7818608E-02  0.1130116E+00
         25   -1    0    0    0    0  0.00000000000E+00  0.00000000000E+00  0.99999998245E-14  0.12500000000E+03  0.12500000000E+03 0.  0.
        -13    1    3    3    0    0  0.32436138872E+02  0.14219061796E+02  0.29266802427E+01  0.35536761875E+02  0.10566000000E+00 0.  1.
         23    2    1    0    0    0 -0.12178618099E+02 -0.13601750029E+02  0.26224869240E+02  0.93045812335E+02  0.87386801542E+02 0.  0.
         13    1    3    3    0    0 -0.44614756971E+02 -0.27820811826E+02  0.23298188997E+02  0.57509050460E+02  0.10566000000E+00 0. -1.
         22    1    1    0    0    0  0.12178618099E+02  0.13601750029E+02 -0.26224869240E+02  0.31954187665E+02  0.00000000000E+00 0. -1.
</event>
<event>
 5    1  0.1320187E-009  0.9118800E+02  0.7818608E-02  0.1130116E+00
         25   -1    0    0    0    0  0.00000000000E+00  0.00000000000E+00  0.99999998245E-14  0.12500000000E+03  0.12500000000E+03 0.  0.
        -13    1    3    3    0    0 -0.13917975016E+02 -0.32912566930E+02 -0.17205112436E+02  0.39660738123E+02  0.10566000000E+00 0. -1.
         23    2    1    0    0    0  0.11636036781E+02 -0.13081003212E+02  0.26013564517E+02  0.93643732111E+02  0.88237934177E+02 0.  0.
         13    1    3    3    0    0  0.25554011797E+02  0.19831563718E+02  0.43218676953E+02  0.53982993989E+02  0.10566000000E+00 0.  1.
         22    1    1    0    0    0 -0.11636036781E+02  0.13081003212E+02 -0.26013564517E+02  0.31356267889E+02  0.00000000000E+00 0.  1.
</event>
<event>
 5    1  0.1320187E-009  0.9118800E+02  0.7818608E-02  0.1130116E+00
         25   -1    0    0    0    0  0.00000000000E+00  0.00000000000E+00  0.99999998245E-14  0.12500000000E+03  0.12500000000E+03 0.  0.
        -13    1    3    3    0    0 -0.10203215706E-02  0.20277149204E+02 -0.57656793277E+01  0.21081200228E+02  0.10566000000E+00 0.  1.
         23    2    1    0    0    0 -0.99158722385E+00 -0.40872044973E+02 -0.11561814682E+02  0.82512556393E+02  0.70732871413E+02 0.  0.
         13    1    3    3    0    0 -0.99056690228E+00 -0.61149194177E+02 -0.57961353546E+01  0.61431356166E+02  0.10566000000E+00 0. -1.
         22    1    1    0    0    0  0.99158722385E+00  0.40872044973E+02  0.11561814682E+02  0.42487443607E+02  0.00000000000E+00 0. -1.
</event>
<event>
 5    1  0.1320187E-009  0.9118800E+02  0.7818608E-02  0.1130116E+00
         25   -1    0    0    0    0  0.00000000000E+00  0.00000000000E+00  0.99999998245E-14  0.12500000000E+03  0.12500000000E+03 0.  0.
        -13    1    3    3    0    0  0.43938537295E+02  0.34790847739E+02 -0.38771885355E+01  0.56178660548E+02  0.10566000000E+00 0. -1.
         23    2    1    0    0    0  0.25330537510E+02  0.57127696258E+01  0.14469993654E+02  0.95273705517E+02  0.90517547356E+02 0.  0.
         13    1    3    3    0    0 -0.18607999785E+02 -0.29078078114E+02  0.18347182190E+02  0.39095044969E+02  0.10566000000E+00 0.  1.
         22    1    1    0    0    0 -0.25330537510E+02 -0.57127696258E+01 -0.14469993654E+02  0.29726294483E+02  0.00000000000E+00 0. -1.
</event>
<event>
 5    1  0.1320187E-009  0.9118800E+02  0.7818608E-02  0.1130116E+00
         25   -1    0    0    0    0  0.00000000000E+00  0.00000000000E+00  0.99999998245E-14  0.12500000000E+03  0.12500000000E+03 0.  0.
        -13    1    3    3    0    0  0.33497725933E+02  0.19224651959E+01 -0.29145765986E+02  0.44444126204E+02  0.10566000000E+00 0. -1.
         23    2    1    0    0    0 -0.48850932360E+00  0.28190263139E+02  0.77936806649E+00  0.96794734680E+02  0.92594188100E+02 0.  0.
         13    1    3    3    0    0 -0.33986235256E+02  0.26267797943E+02  0.29925134052E+02  0.52350608476E+02  0.10566000000E+00 0.  1.
         22    1    1    0    0    0  0.48850932360E+00 -0.28190263139E+02 -0.77936806649E+00  0.28205265320E+02  0.00000000000E+00 0.  1.
</event>
<event>
 5    1  0.1320187E-009  0.9118800E+02  0.7818608E-02  0.1130116E+00
         25   -1    0    0    0    0  0.00000000000E+00  0.00000000000E+00  0.99999998245E-14  0.12500000000E+03  0.12500000000E+03 0.  0.
        -13    1    3    3    0    0 -0.39183994420E+02 -0.24193262840E+02 -0.84171666608E+01  0.46814092367E+02  0.10566000000E+00 0.  1.
         23    2    1    0    0    0  0.46346370455E+01 -0.84210351349E+01 -0.26529288178E+02  0.96783040127E+02  0.92578399379E+02 0.  0.
         13    1    3    3    0    0  0.43818631466E+02  0.15772227705E+02 -0.18112121517E+02  0.49968947759E+02  0.10566000000E+00 0. -1.
         22    1    1    0    0    0 -0.46346370455E+01  0.84210351349E+01  0.26529288178E+02  0.28216959873E+02  0.00000000000E+00 0. -1.
</event>
<event>
 5    1  0.1320187E-009  0.9118800E+02  0.7818608E-02  0.1130116E+00
         25   -1    0    0    0    0  0.00000000000E+00  0.00000000000E+00  0.99999998245E-14  0.12500000000E+03  0.12500000000E+03 0.  0.
        -13    1    3    3    0    0  0.49159666524E+02  0.40893696372E+01 -0.22029115491E+02  0.54024891024E+02  0.10566000000E+00 0.  1.
         23    2    1    0    0    0  0.28867303406E+02 -0.45750527814E+01  0.11020881487E+02  0.93763608681E+02  0.88407591135E+02 0.  0.
         13    1    3    3    0    0 -0.20292363119E+02 -0.86644224186E+01  0.33049996977E+02  0.39738717657E+02  0.10566000000E+00 0. -1.
         22    1    1    0    0    0 -0.28867303406E+02  0.45750527814E+01 -0.11020881487E+02  0.31236391319E+02  0.00000000000E+00 0.  1.
</event>
<event>
 5    1  0.1320187E-009  0.9118800E+02  0.7818608E-02  0.1130116E+00
         25   -1    0    0    0    0  0.00000000000E+00  0.00000000000E+00  0.99999998245E-14  0.12500000000E+03  0.12500000000E+03 0.  0.
        -13    1    3    3    0    0  0.36504570874E+02 -0.95305967688E+01  0.31981102143E+02  0.49459256239E+02  0.10566000000E+00 0.  1.
         23    2    1    0    0    0  0.15087156009E+02 -0.24016254377E+02 -0.65781100317E+01  0.95885153575E+02  0.91358023149E+02 0.  0.
         13    1    3    3    0    0 -0.21417414865E+02 -0.14485657609E+02 -0.38559212175E+02  0.46425897336E+02  0.10566000000E+00 0. -1.
         22    1    1    0    0    0 -0.15087156009E+02  0.24016254377E+02  0.65781100317E+01  0.29114846425E+02  0.00000000000E+00 0.  1.
</event>
<event>
 5    1  0.1320187E-009  0.9118800E+02  0.7818608E-02  0.1130116E+00
         25   -1    0    0    0    0  0.00000000000E+00  0.00000000000E+00  0.99999998245E-14  0.12500000000E+03  0.12500000000E+03 0.  0.
        -13    1    3    3    0    0 -0.14690270665E+02 -0.32822911367E+02  0.25030470121E+02  0.43814189041E+02  0.10566000000E+00 0.  1.
         23    2    1    0    0    0  0.21693653692E+02 -0.16862505749E+02 -0.89586400862E+01  0.96099897183E+02  0.91651373670E+02 0.  0.
         13    1    3    3    0    0  0.36383924358E+02  0.15960405619E+02 -0.33989110207E+02  0.52285708142E+02  0.10566000000E+00 0. -1.
         22    1    1    0    0    0 -0.21693653692E+02  0.16862505749E+02  0.89586400862E+01  0.28900102817E+02  0.00000000000E+00 0. -1.
</event>
<event>
 5    1  0.1320187E-009  0.9118800E+02  0.7818608E-02  0.1130116E+00
         25   -1    0    0    0    0  0.00000000000E+00  0.00000000000E+00  0.99999998245E-14  0.12500000000E+03  0.12500000000E+03 0.  0.
        -13    1    3    3    0    0 -0.15788416180E+02 -0.47558487428E+02 -0.33204170993E+02  0.60113325872E+02  0.10566000000E+00 0.  1.
         23    2    1    0    0    0  0.25671246259E+01 -0.27342310342E+02 -0.10595844182E+02  0.95564239816E+02  0.90917874777E+02 0.  0.
         13    1    3    3    0    0  0.18355540806E+02  0.20216177086E+02  0.22608326811E+02  0.35450913944E+02  0.10566000000E+00 0. -1.
         22    1    1    0    0    0 -0.25671246259E+01  0.27342310342E+02  0.10595844182E+02  0.29435760184E+02  0.00000000000E+00 0.  1.
</event>
<event>
 5    1  0.1320187E-009  0.9118800E+02  0.7818608E-02  0.1130116E+00
         25   -1    0    0    0    0  0.00000000000E+00  0.00000000000E+00  0.99999998245E-14  0.12500000000E+03  0.12500000000E+03 0.  0.
        -13    1    3    3    0    0  0.89958352740E+01 -0.31280178641E+02 -0.32892482558E+02  0.46274195843E+02  0.10566000000E+00 0. -1.
         23    2    1    0    0    0  0.10483315658E+02 -0.23078701750E+02  0.15439627583E+02  0.95319897548E+02  0.90581313675E+02 0.  0.
         13    1    3    3    0    0  0.14874803841E+01  0.82014768911E+01  0.48332110141E+02  0.49045701705E+02  0.10566000000E+00 0.  1.
         22    1    1    0    0    0 -0.10483315658E+02  0.23078701750E+02 -0.15439627583E+02  0.29680102452E+02  0.00000000000E+00 0. -1.
</event>
<event>
 5    1  0.1320187E-009  0.9118800E+02  0.7818608E-02  0.1130116E+00
         25   -1    0    0    0    0  0.00000000000E+00  0.00000000000E+00  0.99999998245E-14  0.12500000000E+03  0.12500000000E+03 0.  0.
        -13    1    3    3    0    0 -0.49253732540E+02 -0.28411172757E+02  0.25688742849E+02  0.62394291243E+02  0.10566000000E+00 0. -1.
         23    2    1    0    0    0 -0.21303676750E+02 -0.14921081409E+02  0.12990260373E+02  0.95927122984E+02  0.91415429474E+02 0.  0.
         13    1    3    3    0    0  0.27950055790E+02  0.13490091349E+02 -0.12698482476E+02  0.33532831740E+02  0.10566000000E+00 0.  1.
         22    1    1    0    0    0  0.21303676750E+02  0.14921081409E+02 -0.12990260373E+02  0.29072877016E+02  0.00000000000E+00 0. -1.
</event>
<event>
 5    1  0.1320187E-009  0.9118800E+02  0.7818608E-02  0.1130116E+00
         25   -1    0    0    0    0  0.00000000000E+00  0.00000000000E+00  0.99999998245E-14  0.12500000000E+03  0.12500000000E+03 0.  0.
        -13    1    3    3    0    0  0.18375325326E+02 -0.31882808719E+02  0.14902004766E+02  0.39701977063E+02  0.10566000000E+00 0.  1.
         23    2    1    0    0    0  0.13478923593E+02  0.17348175979E+02 -0.15810034984E+02  0.97933456127E+02  0.94118882440E+02 0.  0.
         13    1    3    3    0    0 -0.48964017322E+01  0.49230984698E+02 -0.30712039750E+02  0.58231479064E+02  0.10566000000E+00 0. -1.
         22    1    1    0    0    0 -0.13478923593E+02 -0.17348175979E+02  0.15810034984E+02  0.27066543873E+02  0.00000000000E+00 0. -1.
</event>
<event>
 5    1  0.1320187E-009  0.9118800E+02  0.7818608E-02  0.1130116E+00
         25   -1    0    0    0    0  0.00000000000E+00  0.00000000000E+00  0.99999998245E-14  0.12500000000E+03  0.12500000000E+03 0.  0.
        -13    1    3    3    0    0 -0.28822397171E+02 -0.37287508762E+02  0.21994993641E+02  0.52008458905E+02  0.10566000000E+00 0.  1.
         23    2    1    0    0    0 -0.81528433159E+01  0.74867524002E+00  0.28104667497E+02  0.95727116577E+02  0.91141533585E+02 0.  0.
         13    1    3    3    0    0  0.20669553855E+02  0.38036184002E+02  0.61096738566E+01  0.43718657672E+02  0.10566000000E+00 0. -1.
         22    1    1    0    0    0  0.81528433159E+01 -0.74867524002E+00 -0.28104667497E+02  0.29272883423E+02  0.00000000000E+00 0.  1.
</event>
<event>
 5    1  0.1320187E-009  0.9118800E+02  0.7818608E-02  0.1130116E+00
         25   -1    0    0    0    0  0.00000000000E+00  0.00000000000E+00  0.99999998245E-14  0.12500000000E+03  0.12500000000E+03 0.  0.
        -13    1    3    3    0    0  0.46340644618E+02  0.22043985152E+02 -0.19795735028E+02  0.55002499165E+02  0.10566000000E+00 0. -1.
         23    2    1    0    0    0  0.24331175454E+02  0.11016205143E+02  0.12417671150E+02  0.95545604207E+02  0.90892249680E+02 0.  0.
         13    1    3    3    0    0 -0.22009469165E+02 -0.11027780009E+02  0.32213406178E+02  0.40543105042E+02  0.10566000000E+00 0.  1.
         22    1    1    0    0    0 -0.24331175454E+02 -0.11016205143E+02 -0.12417671150E+02  0.29454395793E+02  0.00000000000E+00 0. -1.
</event>
<event>
 5    1  0.1320187E-009  0.9118800E+02  0.7818608E-02  0.1130116E+00
         25   -1    0    0    0    0  0.00000000000E+00  0.00000000000E+00  0.99999998245E-14  0.12500000000E+03  0.12500000000E+03 0.  0.
        -13    1    3    3    0    0  0.10413591715E+02  0.53626267828E+02 -0.24663771090E+02  0.59937736544E+02  0.10566000000E+00 0. -1.
         23    2    1    0    0    0 -0.27041487763E+01  0.29045157767E+02 -0.21666415792E+01  0.95748881286E+02  0.91171378850E+02 0.  0.
         13    1    3    3    0    0 -0.13117740491E+02 -0.24581110061E+02  0.22497129511E+02  0.35811144742E+02  0.10566000000E+00 0.  1.
         22    1    1    0    0    0  0.27041487763E+01 -0.29045157767E+02  0.21666415792E+01  0.29251118714E+02  0.00000000000E+00 0. -1.
</event>
<event>
 5    1  0.1320187E-009  0.9118800E+02  0.7818608E-02  0.1130116E+00
         25   -1    0    0    0    0  0.00000000000E+00  0.00000000000E+00  0.99999998245E-14  0.12500000000E+03  0.12500000000E+03 0.  0.
        -13    1    3    3    0    0 -0.28490593051E+02  0.77537325533E+01  0.23424285872E+02  0.37690086144E+02  0.10566000000E+00 0. -1.
         23    2    1    0    0    0  0.22824253373E+02 -0.12981294378E+02  0.17705621617E+02  0.93330620741E+02  0.87793252505E+02 0.  0.
         13    1    3    3    0    0  0.51314846424E+02 -0.20735026932E+02 -0.57186642550E+01  0.55640534597E+02  0.10566000000E+00 0.  1.
         22    1    1    0    0    0 -0.22824253373E+02  0.12981294378E+02 -0.17705621617E+02  0.31669379259E+02  0.00000000000E+00 0.  1.
</event>
<event>
 5    1  0.1320187E-009  0.9118800E+02  0.7818608E-02  0.1130116E+00
         25   -1    0    0    0    0  0.00000000000E+00  0.00000000000E+00  0.99999998245E-14  0.12500000000E+03  0.12500000000E+03 0.  0.
        -13    1    3    3    0    0  0.20083606576E+02  0.11968292759E+02 -0.29003531055E+02  0.37253285256E+02  0.10566000000E+00 0.  1.
         23    2    1    0    0    0 -0.18806705864E+02 -0.22365280485E+02 -0.20710018077E+01  0.95705171017E+02  0.91111430426E+02 0.  0.
         13    1    3    3    0    0 -0.38890312440E+02 -0.34333573244E+02  0.26932529247E+02  0.58451885761E+02  0.10566000000E+00 0. -1.
         22    1    1    0    0    0  0.18806705864E+02  0.22365280485E+02  0.20710018077E+01  0.29294828983E+02  0.00000000000E+00 0. -1.
</event>
<event>
 5    1  0.1320187E-009  0.9118800E+02  0.7818608E-02  0.1130116E+00
         25   -1    0    0    0    0  0.00000000000E+00  0.00000000000E+00  0.99999998245E-14  0.12500000000E+03  0.12500000000E+03 0.  0.
        -13    1    3    3    0    0  0.22297324962E+02  0.15329373852E+02 -0.28682558557E+02  0.39431722414E+02  0.10566000000E+00 0.  1.
         23    2    1    0    0    0  0.48147601816E+01 -0.28293826974E+02  0.30498950262E+01  0.96137837570E+02  0.91703104596E+02 0.  0.
         13    1    3    3    0    0 -0.17482564781E+02 -0.43623200826E+02  0.31732453583E+02  0.56706115156E+02  0.10566000000E+00 0. -1.
         22    1    1    0    0    0 -0.48147601816E+01  0.28293826974E+02 -0.30498950262E+01  0.28862162430E+02  0.00000000000E+00 0. -1.
</event>
<event>
 5    1  0.1320187E-009  0.9118800E+02  0.7818608E-02  0.1130116E+00
         25   -1    0    0    0    0  0.00000000000E+00  0.00000000000E+00  0.99999998245E-14  0.12500000000E+03  0.12500000000E+03 0.  0.
        -13    1    3    3    0    0 -0.18882811379E+02  0.27171393890E+02  0.26349342610E+02  0.42298276933E+02  0.10566000000E+00 0. -1.
         23    2    1    0    0    0  0.14677912832E+02  0.20907149095E+02 -0.14571827905E+02  0.95591018772E+02  0.90954684833E+02 0.  0.
         13    1    3    3    0    0  0.33560724211E+02 -0.62642447956E+01 -0.40921170514E+02  0.53292741839E+02  0.10566000000E+00 0.  1.
         22    1    1    0    0    0 -0.14677912832E+02 -0.20907149095E+02  0.14571827905E+02  0.29408981228E+02  0.00000000000E+00 0.  1.
</event>
<event>
 5    1  0.1320187E-009  0.9118800E+02  0.7818608E-02  0.1130116E+00
         25   -1    0    0    0    0  0.00000000000E+00  0.00000000000E+00  0.99999998245E-14  0.12500000000E+03  0.12500000000E+03 0.  0.
        -13    1    3    3    0    0 -0.11415606552E+02 -0.41274038676E+02  0.32198830393E+02  0.53578336894E+02  0.10566000000E+00 0.  1.
         23    2    1    0    0    0 -0.24761353881E+02 -0.74360353797E+01  0.21158929733E+02  0.91591624169E+02  0.85281334665E+02 0.  0.
         13    1    3    3    0    0 -0.13345747329E+02  0.33838003297E+02 -0.11039900660E+02  0.38013287275E+02  0.10566000000E+00 0. -1.
         22    1    1    0    0    0  0.24761353881E+02  0.74360353797E+01 -0.21158929733E+02  0.33408375831E+02  0.00000000000E+00 0.  1.
</event>
<event>
 5    1  0.1320187E-009  0.9118800E+02  0.7818608E-02  0.1130116E+00
         25   -1    0    0    0    0  0.00000000000E+00  0.00000000000E+00  0.99999998245E-14  0.12500000000E+03  0.12500000000E+03 0.  0.
        -13    1    3    3    0    0 -0.42715416605E+01  0.35534837301E+02  0.69192080528E+01  0.36453495502E+02  0.10566000000E+00 0.  1.
         23    2    1    0    0    0 -0.11357978865E+02 -0.23646360345E+02  0.11756183252E+02  0.96253489149E+02  0.91860613362E+02 0.  0.
         13    1    3    3    0    0 -0.70864372041E+01 -0.59181197646E+02  0.48369751995E+01  0.59799993647E+02  0.10566000000E+00 0. -1.
         22    1    1    0    0    0  0.11357978865E+02  0.23646360345E+02 -0.11756183252E+02  0.28746510851E+02  0.00000000000E+00 0. -1.
</event>
<event>
 5    1  0.1320187E-009  0.9118800E+02  0.7818608E-02  0.1130116E+00
         25   -1    0    0    0    0  0.00000000000E+00  0.00000000000E+00  0.99999998245E-14  0.12500000000E+03  0.12500000000E+03 0.  0.
        -13    1    3    3    0    0  0.14122126536E+02  0.17519919358E+02  0.22434688356E+02  0.31775909710E+02  0.10566000000E+00 0.  1.
         23    2    1    0    0    0 -0.16900848939E+02 -0.17189802357E+02 -0.19161689440E+02  0.94205546893E+02  0.89030257347E+02 0.  0.
         13    1    3    3    0    0 -0.31022975475E+02 -0.34709721716E+02 -0.41596377797E+02  0.62429637183E+02  0.10566000000E+00 0. -1.
         22    1    1    0    0    0  0.16900848939E+02  0.17189802357E+02  0.19161689440E+02  0.30794453107E+02  0.00000000000E+00 0. -1.
</event>
<event>
 5    1  0.1320187E-009  0.9118800E+02  0.7818608E-02  0.1130116E+00
         25   -1    0    0    0    0  0.00000000000E+00  0.00000000000E+00  0.99999998245E-14  0.12500000000E+03  0.12500000000E+03 0.  0.
        -13    1    3    3    0    0 -0.16580415801E+02 -0.14857154342E+02  0.51999767344E+02  0.56565291400E+02  0.10566000000E+00 0.  1.
         23    2    1    0    0    0 -0.16593275568E+02  0.10161033882E+02  0.21897289246E+02  0.95707088230E+02  0.91114060701E+02 0.  0.
         13    1    3    3    0    0 -0.12859767423E-01  0.25018188224E+02 -0.30102478098E+02  0.39141796830E+02  0.10566000000E+00 0. -1.
         22    1    1    0    0    0  0.16593275568E+02 -0.10161033882E+02 -0.21897289246E+02  0.29292911770E+02  0.00000000000E+00 0.  1.
</event>
<event>
 5    1  0.1320187E-009  0.9118800E+02  0.7818608E-02  0.1130116E+00
         25   -1    0    0    0    0  0.00000000000E+00  0.00000000000E+00  0.99999998245E-14  0.12500000000E+03  0.12500000000E+03 0.  0.
        -13    1    3    3    0    0  0.25504940714E+02 -0.26257146957E+02 -0.10896694803E+01  0.36621555275E+02  0.10566000000E+00 0. -1.
         23    2    1    0    0    0 -0.95813240777E+01  0.17697980875E+02  0.19943034415E+02  0.96667246519E+02  0.92421921802E+02 0.  0.
         13    1    3    3    0    0 -0.35086264791E+02  0.43955127832E+02  0.21032703896E+02  0.60045691244E+02  0.10566000000E+00 0.  1.
         22    1    1    0    0    0  0.95813240777E+01 -0.17697980875E+02 -0.19943034415E+02  0.28332753481E+02  0.00000000000E+00 0.  1.
</event>
<event>
 5    1  0.1320187E-009  0.9118800E+02  0.7818608E-02  0.1130116E+00
         25   -1    0    0    0    0  0.00000000000E+00  0.00000000000E+00  0.99999998245E-14  0.12500000000E+03  0.12500000000E+03 0.  0.
        -13    1    3    3    0    0  0.42567905549E+02  0.18127765834E+02  0.32767441847E+02  0.56695316263E+02  0.10566000000E+00 0.  1.
         23    2    1    0    0    0  0.17791669359E+02  0.22363512892E+02  0.21030494058E+01  0.96345279198E+02  0.91985432540E+02 0.  0.
         13    1    3    3    0    0 -0.24776236190E+02  0.42357470574E+01 -0.30664392441E+02  0.39649962935E+02  0.10566000000E+00 0. -1.
         22    1    1    0    0    0 -0.17791669359E+02 -0.22363512892E+02 -0.21030494058E+01  0.28654720802E+02  0.00000000000E+00 0.  1.
</event>
<event>
 5    1  0.1320187E-009  0.9118800E+02  0.7818608E-02  0.1130116E+00
         25   -1    0    0    0    0  0.00000000000E+00  0.00000000000E+00  0.99999998245E-14  0.12500000000E+03  0.12500000000E+03 0.  0.
        -13    1    3    3    0    0 -0.46720891575E+02 -0.50947215345E+01  0.22477205855E+01  0.47051687632E+02  0.10566000000E+00 0. -1.
         23    2    1    0    0    0  0.12828439516E+01 -0.25605697582E+02  0.23577063510E+01  0.99254005816E+02  0.95856671412E+02 0.  0.
         13    1    3    3    0    0  0.48003735527E+02 -0.20510976047E+02  0.10998576546E+00  0.52202318185E+02  0.10566000000E+00 0.  1.
         22    1    1    0    0    0 -0.12828439516E+01  0.25605697582E+02 -0.23577063510E+01  0.25745994184E+02  0.00000000000E+00 0. -1.
</event>
<event>
 5    1  0.1320187E-009  0.9118800E+02  0.7818608E-02  0.1130116E+00
         25   -1    0    0    0    0  0.00000000000E+00  0.00000000000E+00  0.99999998245E-14  0.12500000000E+03  0.12500000000E+03 0.  0.
        -13    1    3    3    0    0  0.80069893764E+01 -0.26157710097E+01 -0.37224027161E+02  0.38165344213E+02  0.10566000000E+00 0. -1.
         23    2    1    0    0    0  0.16086107596E+02 -0.77203223635E+01  0.21157054817E+02  0.97323526172E+02  0.93305313584E+02 0.  0.
         13    1    3    3    0    0  0.80791182195E+01 -0.51045513538E+01  0.58381081978E+02  0.59158181959E+02  0.10566000000E+00 0.  1.
         22    1    1    0    0    0 -0.16086107596E+02  0.77203223635E+01 -0.21157054817E+02  0.27676473828E+02  0.00000000000E+00 0.  1.
</event>
<event>
 5    1  0.1320187E-009  0.9118800E+02  0.7818608E-02  0.1130116E+00
         25   -1    0    0    0    0  0.00000000000E+00  0.00000000000E+00  0.99999998245E-14  0.12500000000E+03  0.12500000000E+03 0.  0.
        -13    1    3    3    0    0 -0.21998399972E+01  0.58064029723E+02 -0.44975638929E+01  0.58279585522E+02  0.10566000000E+00 0.  1.
         23    2    1    0    0    0  0.65845244455E+01  0.20371397466E+02  0.12119076467E+02  0.10039874371E+03  0.97337998368E+02 0.  0.
         13    1    3    3    0    0  0.87843644427E+01 -0.37692632257E+02  0.16616640360E+02  0.42119158183E+02  0.10566000000E+00 0. -1.
         22    1    1    0    0    0 -0.65845244455E+01 -0.20371397466E+02 -0.12119076467E+02  0.24601256295E+02  0.00000000000E+00 0.  1.
</event>
<event>
 5    1  0.1320187E-009  0.9118800E+02  0.7818608E-02  0.1130116E+00
         25   -1    0    0    0    0  0.00000000000E+00  0.00000000000E+00  0.99999998245E-14  0.12500000000E+03  0.12500000000E+03 0.  0.
        -13    1    3    3    0    0  0.46279588742E+02  0.82107912040E+01 -0.35369836242E+02  0.58823922907E+02  0.10566000000E+00 0.  1.
         23    2    1    0    0    0  0.10470943039E+02  0.82778785204E+01 -0.25898486969E+02  0.95864187874E+02  0.91329332465E+02 0.  0.
         13    1    3    3    0    0 -0.35808645703E+02  0.67087316382E-01  0.94713492731E+01  0.37040264968E+02  0.10566000000E+00 0. -1.
         22    1    1    0    0    0 -0.10470943039E+02 -0.82778785204E+01  0.25898486969E+02  0.29135812126E+02  0.00000000000E+00 0.  1.
</event>
<event>
 5    1  0.1320187E-009  0.9118800E+02  0.7818608E-02  0.1130116E+00
         25   -1    0    0    0    0  0.00000000000E+00  0.00000000000E+00  0.99999998245E-14  0.12500000000E+03  0.12500000000E+03 0.  0.
        -13    1    3    3    0    0 -0.21442536914E+02  0.17494578583E+01 -0.30431179011E+02  0.37268093755E+02  0.10566000000E+00 0.  1.
         23    2    1    0    0    0 -0.12272455232E+02 -0.11049574667E+02  0.25081310219E+02  0.94970374960E+02  0.90097689981E+02 0.  0.
         13    1    3    3    0    0  0.91700816816E+01 -0.12799032525E+02  0.55512489230E+02  0.57702281205E+02  0.10566000000E+00 0. -1.
         22    1    1    0    0    0  0.12272455232E+02  0.11049574667E+02 -0.25081310219E+02  0.30029625040E+02  0.00000000000E+00 0. -1.
</event>
<event>
 5    1  0.1320187E-009  0.9118800E+02  0.7818608E-02  0.1130116E+00
         25   -1    0    0    0    0  0.00000000000E+00  0.00000000000E+00  0.99999998245E-14  0.12500000000E+03  0.12500000000E+03 0.  0.
        -13    1    3    3    0    0 -0.15322583161E+02  0.74146026228E+01  0.49291095185E+02  0.52147685618E+02  0.10566000000E+00 0. -1.
         23    2    1    0    0    0 -0.21416132951E+02  0.18646914007E+02  0.78150718774E+01  0.95547775958E+02  0.90895236341E+02 0.  0.
         13    1    3    3    0    0 -0.60935497902E+01  0.11232311385E+02 -0.41476023307E+02  0.43400090340E+02  0.10566000000E+00 0.  1.
         22    1    1    0    0    0  0.21416132951E+02 -0.18646914007E+02 -0.78150718774E+01  0.29452224042E+02  0.00000000000E+00 0.  1.
</event>
<event>
 5    1  0.1320187E-009  0.9118800E+02  0.7818608E-02  0.1130116E+00
         25   -1    0    0    0    0  0.00000000000E+00  0.00000000000E+00  0.99999998245E-14  0.12500000000E+03  0.12500000000E+03 0.  0.
        -13    1    3    3    0    0 -0.15636547220E+02  0.26521263925E+02 -0.23426201427E+02  0.38686911565E+02  0.10566000000E+00 0. -1.
         23    2    1    0    0    0 -0.97282370885E+01 -0.12590650571E+02  0.21311590677E+02  0.98404004516E+02  0.94741760216E+02 0.  0.
         13    1    3    3    0    0  0.59083101311E+01 -0.39111914496E+02  0.44737792103E+02  0.59717092950E+02  0.10566000000E+00 0.  1.
         22    1    1    0    0    0  0.97282370885E+01  0.12590650571E+02 -0.21311590677E+02  0.26595995484E+02  0.00000000000E+00 0.  1.
</event>
<event>
 5    1  0.1320187E-009  0.9118800E+02  0.7818608E-02  0.1130116E+00
         25   -1    0    0    0    0  0.00000000000E+00  0.00000000000E+00  0.99999998245E-14  0.12500000000E+03  0.12500000000E+03 0.  0.
        -13    1    3    3    0    0  0.99767899468E+01  0.36700748061E+02 -0.40671803752E+02  0.55683821980E+02  0.10566000000E+00 0.  1.
         23    2    1    0    0    0  0.17139533036E+02  0.21517799657E+02 -0.25087564391E+01  0.97376221228E+02  0.93375881827E+02 0.  0.
         13    1    3    3    0    0  0.71627430896E+01 -0.15182948404E+02  0.38163047313E+02  0.41692399248E+02  0.10566000000E+00 0. -1.
         22    1    1    0    0    0 -0.17139533036E+02 -0.21517799657E+02  0.25087564391E+01  0.27623778772E+02  0.00000000000E+00 0.  1.
</event>
<event>
 5    1  0.1320187E-009  0.9118800E+02  0.7818608E-02  0.1130116E+00
         25   -1    0    0    0    0  0.00000000000E+00  0.00000000000E+00  0.99999998245E-14  0.12500000000E+03  0.12500000000E+03 0.  0.
        -13    1    3    3    0    0  0.21224261013E+01 -0.34280931716E+02 -0.48339667522E+02  0.59299423202E+02  0.10566000000E+00 0.  1.
         23    2    1    0    0    0  0.26926166208E+01 -0.32496446322E+01 -0.28619137421E+02  0.96071374018E+02  0.91612463696E+02 0.  0.
         13    1    3    3    0    0  0.57019051950E+00  0.31031287084E+02  0.19720530101E+02  0.36771950816E+02  0.10566000000E+00 0. -1.
         22    1    1    0    0    0 -0.26926166208E+01  0.32496446322E+01  0.28619137421E+02  0.28928625982E+02  0.00000000000E+00 0.  1.
</event>
<event>
 5    1  0.1320187E-009  0.9118800E+02  0.7818608E-02  0.1130116E+00
         25   -1    0    0    0    0  0.00000000000E+00  0.00000000000E+00  0.99999998245E-14  0.12500000000E+03  0.12500000000E+03 0.  0.
        -13    1    3    3    0    0  0.26070892559E+02 -0.24318647053E+02 -0.27030552322E+02  0.44740920377E+02  0.10566000000E+00 0.  1.
         23    2    1    0    0    0 -0.36082899276E+00 -0.29623069512E+02  0.12710510088E+02  0.92763165298E+02  0.86981557382E+02 0.  0.
         13    1    3    3    0    0 -0.26431721552E+02 -0.53044224588E+01  0.39741062410E+02  0.48022244921E+02  0.10566000000E+00 0. -1.
         22    1    1    0    0    0  0.36082899276E+00  0.29623069512E+02 -0.12710510088E+02  0.32236834702E+02  0.00000000000E+00 0. -1.
</event>
<event>
 5    1  0.1320187E-009  0.9118800E+02  0.7818608E-02  0.1130116E+00
         25   -1    0    0    0    0  0.00000000000E+00  0.00000000000E+00  0.99999998245E-14  0.12500000000E+03  0.12500000000E+03 0.  0.
        -13    1    3    3    0    0 -0.40159355166E+02  0.93380519940E+01  0.25194178230E+02  0.48319052175E+02  0.10566000000E+00 0.  1.
         23    2    1    0    0    0 -0.24391965589E+02  0.34410363760E+02  0.19720462246E+02  0.78438881558E+02  0.63124641699E+02 0.  0.
         13    1    3    3    0    0  0.15767389578E+02  0.25072311766E+02 -0.54737159839E+01  0.30119829383E+02  0.10566000000E+00 0. -1.
         22    1    1    0    0    0  0.24391965589E+02 -0.34410363760E+02 -0.19720462246E+02  0.46561118442E+02  0.00000000000E+00 0.  1.
</event>
<event>
 5    1  0.1320187E-009  0.9118800E+02  0.7818608E-02  0.1130116E+00
         25   -1    0    0    0    0  0.00000000000E+00  0.00000000000E+00  0.99999998245E-14  0.12500000000E+03  0.12500000000E+03 0.  0.
        -13    1    3    3    0    0  0.31632856543E+02 -0.51983330785E+01 -0.11232288248E+02  0.33968157784E+02  0.10566000000E+00 0.  1.
         23    2    1    0    0    0  0.78159364044E+01  0.21792887352E+02  0.28959558321E+02  0.87923392561E+02  0.79723573304E+02 0.  0.
         13    1    3    3    0    0 -0.23816920139E+02  0.26991220430E+02  0.40191846569E+02  0.53955234778E+02  0.10566000000E+00 0. -1.
         22    1    1    0    0    0 -0.78159364044E+01 -0.21792887352E+02 -0.28959558321E+02  0.37076607439E+02  0.00000000000E+00 0. -1.
</event>
<event>
 5    1  0.1320187E-009  0.9118800E+02  0.7818608E-02  0.1130116E+00
         25   -1    0    0    0    0  0.00000000000E+00  0.00000000000E+00  0.99999998245E-14  0.12500000000E+03  0.12500000000E+03 0.  0.
        -13    1    3    3    0    0  0.32920306161E+02 -0.14733570726E+02 -0.14874383904E+02  0.39013883742E+02  0.10566000000E+00 0. -1.
         23    2    1    0    0    0 -0.20158352138E+02 -0.21114284012E+02  0.36222449906E+01  0.95584140179E+02  0.90945231017E+02 0.  0.
         13    1    3    3    0    0 -0.53078658299E+02 -0.63807132856E+01  0.18496628894E+02  0.56570256437E+02  0.10566000000E+00 0.  1.
         22    1    1    0    0    0  0.20158352138E+02  0.21114284012E+02 -0.36222449906E+01  0.29415859821E+02  0.00000000000E+00 0. -1.
</event>
<event>
 5    1  0.1320187E-009  0.9118800E+02  0.7818608E-02  0.1130116E+00
         25   -1    0    0    0    0  0.00000000000E+00  0.00000000000E+00  0.99999998245E-14  0.12500000000E+03  0.12500000000E+03 0.  0.
        -13    1    3    3    0    0  0.10397179570E+02 -0.21755353446E+02 -0.30213989670E+02  0.38656087261E+02  0.10566000000E+00 0.  1.
         23    2    1    0    0    0  0.20592001121E+02 -0.63606823178E+01  0.22098720282E+02  0.94131857397E+02  0.88926735851E+02 0.  0.
         13    1    3    3    0    0  0.10194821550E+02  0.15394671128E+02  0.52312709952E+02  0.55475770135E+02  0.10566000000E+00 0. -1.
         22    1    1    0    0    0 -0.20592001121E+02  0.63606823178E+01 -0.22098720282E+02  0.30868142603E+02  0.00000000000E+00 0. -1.
</event>
<event>
 5    1  0.1320187E-009  0.9118800E+02  0.7818608E-02  0.1130116E+00
         25   -1    0    0    0    0  0.00000000000E+00  0.00000000000E+00  0.99999998245E-14  0.12500000000E+03  0.12500000000E+03 0.  0.
        -13    1    3    3    0    0  0.51065537772E+02  0.14103337606E+02  0.62917634628E+01  0.53349702259E+02  0.10566000000E+00 0.  1.
         23    2    1    0    0    0  0.14379994506E+02 -0.44137122904E+01 -0.18355429666E+02  0.10126844092E+03  0.98448515630E+02 0.  0.
         13    1    3    3    0    0 -0.36685543267E+02 -0.18517049896E+02 -0.24647193129E+02  0.47918738661E+02  0.10566000000E+00 0. -1.
         22    1    1    0    0    0 -0.14379994506E+02  0.44137122904E+01  0.18355429666E+02  0.23731559081E+02  0.00000000000E+00 0.  1.
</event>
<event>
 5    1  0.1320187E-009  0.9118800E+02  0.7818608E-02  0.1130116E+00
         25   -1    0    0    0    0  0.00000000000E+00  0.00000000000E+00  0.99999998245E-14  0.12500000000E+03  0.12500000000E+03 0.  0.
        -13    1    3    3    0    0 -0.21632854872E+02  0.22604000334E+01 -0.43619213229E+02  0.48741529982E+02  0.10566000000E+00 0.  1.
         23    2    1    0    0    0 -0.16938504930E+02  0.29489790874E+02 -0.17546437783E+02  0.86732021298E+02  0.77833189094E+02 0.  0.
         13    1    3    3    0    0  0.46943499426E+01  0.27229390840E+02  0.26072775446E+02  0.37990491316E+02  0.10566000000E+00 0. -1.
         22    1    1    0    0    0  0.16938504930E+02 -0.29489790874E+02  0.17546437783E+02  0.38267978702E+02  0.00000000000E+00 0.  1.
</event>
<event>
 5    1  0.1320187E-009  0.9118800E+02  0.7818608E-02  0.1130116E+00
         25   -1    0    0    0    0  0.00000000000E+00  0.00000000000E+00  0.99999998245E-14  0.12500000000E+03  0.12500000000E+03 0.  0.
        -13    1    3    3    0    0  0.17508542427E+02  0.53425266385E+02 -0.26274516491E+02  0.62057791832E+02  0.10566000000E+00 0.  1.
         23    2    1    0    0    0  0.47134388346E+01  0.22283203354E+02 -0.15659669517E+02  0.97359759286E+02  0.93353842028E+02 0.  0.
         13    1    3    3    0    0 -0.12795103592E+02 -0.31142063031E+02  0.10614846973E+02  0.35301967454E+02  0.10566000000E+00 0. -1.
         22    1    1    0    0    0 -0.47134388346E+01 -0.22283203354E+02  0.15659669517E+02  0.27640240714E+02  0.00000000000E+00 0.  1.
</event>
<event>
 5    1  0.1320187E-009  0.9118800E+02  0.7818608E-02  0.1130116E+00
         25   -1    0    0    0    0  0.00000000000E+00  0.00000000000E+00  0.99999998245E-14  0.12500000000E+03  0.12500000000E+03 0.  0.
        -13    1    3    3    0    0 -0.59293726954E+01  0.23588543582E+02  0.29694850087E+02  0.38384529886E+02  0.10566000000E+00 0.  1.
         23    2    1    0    0    0 -0.20285252741E+02 -0.20894315915E+02 -0.34345537351E+01  0.95676629190E+02  0.91072264150E+02 0.  0.
         13    1    3    3    0    0 -0.14355880046E+02 -0.44482859497E+02 -0.33129403822E+02  0.57292099303E+02  0.10566000000E+00 0. -1.
         22    1    1    0    0    0  0.20285252741E+02  0.20894315915E+02  0.34345537351E+01  0.29323370810E+02  0.00000000000E+00 0. -1.
</event>
<event>
 5    1  0.1320187E-009  0.9118800E+02  0.7818608E-02  0.1130116E+00
         25   -1    0    0    0    0  0.00000000000E+00  0.00000000000E+00  0.99999998245E-14  0.12500000000E+03  0.12500000000E+03 0.  0.
        -13    1    3    3    0    0  0.47174790490E+01 -0.27033157059E+02 -0.41670521515E+02  0.49894786466E+02  0.10566000000E+00 0. -1.
         23    2    1    0    0    0 -0.17190533063E+02  0.77327177955E+01 -0.23628050714E+02  0.94774280289E+02  0.89825219578E+02 0.  0.
         13    1    3    3    0    0 -0.21908012113E+02  0.34765874855E+02  0.18042470801E+02  0.44879493823E+02  0.10566000000E+00 0.  1.
         22    1    1    0    0    0  0.17190533063E+02 -0.77327177955E+01  0.23628050714E+02  0.30225719711E+02  0.00000000000E+00 0.  1.
</event>
<event>
 5    1  0.1320187E-009  0.9118800E+02  0.7818608E-02  0.1130116E+00
         25   -1    0    0    0    0  0.00000000000E+00  0.00000000000E+00  0.99999998245E-14  0.12500000000E+03  0.12500000000E+03 0.  0.
        -13    1    3    3    0    0 -0.26412011641E+02 -0.17776217467E+02  0.24552459178E+02  0.40204759446E+02  0.10566000000E+00 0.  1.
         23    2    1    0    0    0  0.90015350194E+01 -0.21462240720E+02 -0.17919877841E+02  0.95626926765E+02  0.91004020193E+02 0.  0.
         13    1    3    3    0    0  0.35413546661E+02 -0.36860232535E+01 -0.42472337019E+02  0.55422167320E+02  0.10566000000E+00 0. -1.
         22    1    1    0    0    0 -0.90015350194E+01  0.21462240720E+02  0.17919877841E+02  0.29373073235E+02  0.00000000000E+00 0. -1.
</event>
<event>
 5    1  0.1320187E-009  0.9118800E+02  0.7818608E-02  0.1130116E+00
         25   -1    0    0    0    0  0.00000000000E+00  0.00000000000E+00  0.99999998245E-14  0.12500000000E+03  0.12500000000E+03 0.  0.
        -13    1    3    3    0    0  0.14216228994E+02 -0.27956412199E+02  0.25187295349E+02  0.40225280122E+02  0.10566000000E+00 0.  1.
         23    2    1    0    0    0 -0.28284423558E+02  0.16590115343E+01  0.32470794306E+01  0.96481506700E+02  0.92170367662E+02 0.  0.
         13    1    3    3    0    0 -0.42500652552E+02  0.29615423734E+02 -0.21940215918E+02  0.56256226578E+02  0.10566000000E+00 0. -1.
         22    1    1    0    0    0  0.28284423558E+02 -0.16590115343E+01 -0.32470794306E+01  0.28518493300E+02  0.00000000000E+00 0. -1.
</event>
<event>
 5    1  0.1320187E-009  0.9118800E+02  0.7818608E-02  0.1130116E+00
         25   -1    0    0    0    0  0.00000000000E+00  0.00000000000E+00  0.99999998245E-14  0.12500000000E+03  0.12500000000E+03 0.  0.
        -13    1    3    3    0    0  0.35440931176E+02 -0.37936336553E+02  0.34176408491E+02  0.62155155017E+02  0.10566000000E+00 0.  1.
         23    2    1    0    0    0  0.13194396702E+02 -0.18170986555E+02  0.19123467304E+02  0.95504511219E+02  0.90835718771E+02 0.  0.
         13    1    3    3    0    0 -0.22246534474E+02  0.19765349999E+02 -0.15052941187E+02  0.33349356202E+02  0.10566000000E+00 0. -1.
         22    1    1    0    0    0 -0.13194396702E+02  0.18170986555E+02 -0.19123467304E+02  0.29495488781E+02  0.00000000000E+00 0.  1.
</event>
<event>
 5    1  0.1320187E-009  0.9118800E+02  0.7818608E-02  0.1130116E+00
         25   -1    0    0    0    0  0.00000000000E+00  0.00000000000E+00  0.99999998245E-14  0.12500000000E+03  0.12500000000E+03 0.  0.
        -13    1    3    3    0    0  0.42266768625E+02 -0.71129810940E+01 -0.23279434770E+02  0.48775172756E+02  0.10566000000E+00 0. -1.
         23    2    1    0    0    0  0.62182040985E+01  0.22427707579E+02 -0.17793999669E+02  0.95703335451E+02  0.91108912093E+02 0.  0.
         13    1    3    3    0    0 -0.36048564527E+02  0.29540688673E+02  0.54854351009E+01  0.46928162696E+02  0.10566000000E+00 0.  1.
         22    1    1    0    0    0 -0.62182040985E+01 -0.22427707579E+02  0.17793999669E+02  0.29296664549E+02  0.00000000000E+00 0.  1.
</event>
<event>
 5    1  0.1320187E-009  0.9118800E+02  0.7818608E-02  0.1130116E+00
         25   -1    0    0    0    0  0.00000000000E+00  0.00000000000E+00  0.99999998245E-14  0.12500000000E+03  0.12500000000E+03 0.  0.
        -13    1    3    3    0    0  0.49974769769E+02 -0.40728333804E+01 -0.17077119080E+01  0.50169642507E+02  0.10566000000E+00 0.  1.
         23    2    1    0    0    0  0.22510437719E+02  0.18557182686E+02  0.17872299687E+02  0.90787313294E+02  0.84094163433E+02 0.  0.
         13    1    3    3    0    0 -0.27464332050E+02  0.22630016066E+02  0.19580011595E+02  0.40617670787E+02  0.10566000000E+00 0. -1.
         22    1    1    0    0    0 -0.22510437719E+02 -0.18557182686E+02 -0.17872299687E+02  0.34212686706E+02  0.00000000000E+00 0.  1.
</event>
<event>
 5    1  0.1320187E-009  0.9118800E+02  0.7818608E-02  0.1130116E+00
         25   -1    0    0    0    0  0.00000000000E+00  0.00000000000E+00  0.99999998245E-14  0.12500000000E+03  0.12500000000E+03 0.  0.
        -13    1    3    3    0    0  0.48687565890E+01  0.29224376931E+02 -0.72823305816E+01  0.30509219925E+02  0.10566000000E+00 0. -1.
         23    2    1    0    0    0  0.45741757490E+02  0.35532203837E+01 -0.18079740218E+01  0.79084833405E+02  0.64391058007E+02 0.  0.
         13    1    3    3    0    0  0.40873000901E+02 -0.25671156547E+02  0.54743565598E+01  0.48575613480E+02  0.10566000000E+00 0.  1.
         22    1    1    0    0    0 -0.45741757490E+02 -0.35532203837E+01  0.18079740218E+01  0.45915166595E+02  0.00000000000E+00 0.  1.
</event>
<event>
 5    1  0.1320187E-009  0.9118800E+02  0.7818608E-02  0.1130116E+00
         25   -1    0    0    0    0  0.00000000000E+00  0.00000000000E+00  0.99999998245E-14  0.12500000000E+03  0.12500000000E+03 0.  0.
        -13    1    3    3    0    0  0.61827130857E+01 -0.28407777940E+02  0.45483893806E+02  0.53981696420E+02  0.10566000000E+00 0. -1.
         23    2    1    0    0    0  0.24331820309E+02 -0.60925583023E+01  0.15589640411E+02  0.95467075418E+02  0.90784188351E+02 0.  0.
         13    1    3    3    0    0  0.18149107223E+02  0.22315219638E+02 -0.29894253395E+02  0.41485378998E+02  0.10566000000E+00 0.  1.
         22    1    1    0    0    0 -0.24331820309E+02  0.60925583023E+01 -0.15589640411E+02  0.29532924582E+02  0.00000000000E+00 0. -1.
</event>
<event>
 5    1  0.1320187E-009  0.9118800E+02  0.7818608E-02  0.1130116E+00
         25   -1    0    0    0    0  0.00000000000E+00  0.00000000000E+00  0.99999998245E-14  0.12500000000E+03  0.12500000000E+03 0.  0.
        -13    1    3    3    0    0 -0.56277356576E+02  0.13146047876E+02  0.14171034143E+02  0.59504527649E+02  0.10566000000E+00 0. -1.
         23    2    1    0    0    0 -0.22615401720E+02  0.18197917907E+02  0.11493774766E+01  0.95949325658E+02  0.91445784017E+02 0.  0.
         13    1    3    3    0    0  0.33661954856E+02  0.50518700308E+01 -0.13021656667E+02  0.36444798009E+02  0.10566000000E+00 0.  1.
         22    1    1    0    0    0  0.22615401720E+02 -0.18197917907E+02 -0.11493774766E+01  0.29050674342E+02  0.00000000000E+00 0. -1.
</event>
<event>
 5    1  0.1320187E-009  0.9118800E+02  0.7818608E-02  0.1130116E+00
         25   -1    0    0    0    0  0.00000000000E+00  0.00000000000E+00  0.99999998245E-14  0.12500000000E+03  0.12500000000E+03 0.  0.
        -13    1    3    3    0    0  0.26753571903E+02  0.22998915107E+02  0.38880189189E+02  0.52501275995E+02  0.10566000000E+00 0.  1.
         23    2    1    0    0    0  0.29323312243E+02  0.78067662982E+01 -0.35460377443E+00  0.94653204703E+02  0.89656573523E+02 0.  0.
         13    1    3    3    0    0  0.25697403400E+01 -0.15192148809E+02 -0.39234792964E+02  0.42151928708E+02  0.10566000000E+00 0. -1.
         22    1    1    0    0    0 -0.29323312243E+02 -0.78067662982E+01  0.35460377443E+00  0.30346795297E+02  0.00000000000E+00 0. -1.
</event>
<event>
 5    1  0.1320187E-009  0.9118800E+02  0.7818608E-02  0.1130116E+00
         25   -1    0    0    0    0  0.00000000000E+00  0.00000000000E+00  0.99999998245E-14  0.12500000000E+03  0.12500000000E+03 0.  0.
        -13    1    3    3    0    0  0.44138646353E+02  0.27183235631E+02 -0.21415021365E+02  0.56087099277E+02  0.10566000000E+00 0.  1.
         23    2    1    0    0    0  0.16080751727E+02  0.22835601081E+02  0.69476353554E+01  0.96219366062E+02  0.91814168381E+02 0.  0.
         13    1    3    3    0    0 -0.28057894626E+02 -0.43476345496E+01  0.28362656721E+02  0.40132266785E+02  0.10566000000E+00 0. -1.
         22    1    1    0    0    0 -0.16080751727E+02 -0.22835601081E+02 -0.69476353554E+01  0.28780633938E+02  0.00000000000E+00 0.  1.
</event>
<event>
 5    1  0.1320187E-009  0.9118800E+02  0.7818608E-02  0.1130116E+00
         25   -1    0    0    0    0  0.00000000000E+00  0.00000000000E+00  0.99999998245E-14  0.12500000000E+03  0.12500000000E+03 0.  0.
        -13    1    3    3    0    0  0.28195288792E+02  0.13145825280E+02  0.27185768650E+02  0.41314213214E+02  0.10566000000E+00 0. -1.
         23    2    1    0    0    0  0.19356678455E+02 -0.93528144074E+01 -0.20826595150E+02  0.95068357818E+02  0.90233527331E+02 0.  0.
         13    1    3    3    0    0 -0.88386103366E+01 -0.22498639687E+02 -0.48012363800E+02  0.53754144604E+02  0.10566000000E+00 0.  1.
         22    1    1    0    0    0 -0.19356678455E+02  0.93528144074E+01  0.20826595150E+02  0.29931642182E+02  0.00000000000E+00 0.  1.
</event>
<event>
 5    1  0.1320187E-009  0.9118800E+02  0.7818608E-02  0.1130116E+00
         25   -1    0    0    0    0  0.00000000000E+00  0.00000000000E+00  0.99999998245E-14  0.12500000000E+03  0.12500000000E+03 0.  0.
        -13    1    3    3    0    0 -0.29449812233E+01 -0.21593271057E+02  0.33170231154E+02  0.39689011933E+02  0.10566000000E+00 0.  1.
         23    2    1    0    0    0  0.24312154193E+02  0.41252079582E+01 -0.11325868847E+02  0.97863797478E+02  0.94026322748E+02 0.  0.
         13    1    3    3    0    0  0.27257135416E+02  0.25718479015E+02 -0.44496100001E+02  0.58174785545E+02  0.10566000000E+00 0. -1.
         22    1    1    0    0    0 -0.24312154193E+02 -0.41252079582E+01  0.11325868847E+02  0.27136202522E+02  0.00000000000E+00 0. -1.
</event>
<event>
 5    1  0.1320187E-009  0.9118800E+02  0.7818608E-02  0.1130116E+00
         25   -1    0    0    0    0  0.00000000000E+00  0.00000000000E+00  0.99999998245E-14  0.12500000000E+03  0.12500000000E+03 0.  0.
        -13    1    3    3    0    0 -0.34797261805E+02  0.38072728838E+02  0.21391870118E+01  0.51623341575E+02  0.10566000000E+00 0.  1.
         23    2    1    0    0    0 -0.11222559930E+02  0.97065642790E+01  0.25653055168E+02  0.95364843835E+02  0.90643317232E+02 0.  0.
         13    1    3    3    0    0  0.23574701875E+02 -0.28366164559E+02  0.23513868156E+02  0.43741502260E+02  0.10566000000E+00 0. -1.
         22    1    1    0    0    0  0.11222559930E+02 -0.97065642790E+01 -0.25653055168E+02  0.29635156165E+02  0.00000000000E+00 0.  1.
</event>
<event>
 5    1  0.1320187E-009  0.9118800E+02  0.7818608E-02  0.1130116E+00
         25   -1    0    0    0    0  0.00000000000E+00  0.00000000000E+00  0.99999998245E-14  0.12500000000E+03  0.12500000000E+03 0.  0.
        -13    1    3    3    0    0  0.21528006556E+02 -0.32795876807E+02  0.42210249089E+02  0.57625870007E+02  0.10566000000E+00 0.  1.
         23    2    1    0    0    0 -0.14291180631E+01 -0.26117989743E+02  0.11813172761E+02  0.96299079852E+02  0.91922630309E+02 0.  0.
         13    1    3    3    0    0 -0.22957124619E+02  0.66778870641E+01 -0.30397076328E+02  0.38673209845E+02  0.10566000000E+00 0. -1.
         22    1    1    0    0    0  0.14291180631E+01  0.26117989743E+02 -0.11813172761E+02  0.28700920148E+02  0.00000000000E+00 0.  1.
</event>
<event>
 5    1  0.1320187E-009  0.9118800E+02  0.7818608E-02  0.1130116E+00
         25   -1    0    0    0    0  0.00000000000E+00  0.00000000000E+00  0.99999998245E-14  0.12500000000E+03  0.12500000000E+03 0.  0.
        -13    1    3    3    0    0 -0.38039072371E+02 -0.16885700303E+02 -0.28271834080E+02  0.50313076510E+02  0.10566000000E+00 0. -1.
         23    2    1    0    0    0  0.13113729222E+02 -0.11898412978E+02 -0.63457108743E+01  0.10619015758E+03  0.10451095346E+03 0.  0.
         13    1    3    3    0    0  0.51152801593E+02  0.49872873253E+01  0.21926123206E+02  0.55877081067E+02  0.10566000000E+00 0.  1.
         22    1    1    0    0    0 -0.13113729222E+02  0.11898412978E+02  0.63457108743E+01  0.18809842424E+02  0.00000000000E+00 0.  1.
</event>
<event>
 5    1  0.1320187E-009  0.9118800E+02  0.7818608E-02  0.1130116E+00
         25   -1    0    0    0    0  0.00000000000E+00  0.00000000000E+00  0.99999998245E-14  0.12500000000E+03  0.12500000000E+03 0.  0.
        -13    1    3    3    0    0  0.59718164400E+02  0.74164922763E+00 -0.13250671878E+02  0.61175163850E+02  0.10566000000E+00 0.  1.
         23    2    1    0    0    0  0.27671012738E+02 -0.83481822970E+01 -0.34903447465E+01  0.95887123123E+02  0.91360717930E+02 0.  0.
         13    1    3    3    0    0 -0.32047151662E+02 -0.90898315246E+01  0.97603271319E+01  0.34711959273E+02  0.10566000000E+00 0. -1.
         22    1    1    0    0    0 -0.27671012738E+02  0.83481822970E+01  0.34903447465E+01  0.29112876877E+02  0.00000000000E+00 0.  1.
</event>
<event>
 5    1  0.1320187E-009  0.9118800E+02  0.7818608E-02  0.1130116E+00
         25   -1    0    0    0    0  0.00000000000E+00  0.00000000000E+00  0.99999998245E-14  0.12500000000E+03  0.12500000000E+03 0.  0.
        -13    1    3    3    0    0  0.40302930447E+02  0.38533193325E+02 -0.43182896369E+01  0.55926666089E+02  0.10566000000E+00 0.  1.
         23    2    1    0    0    0  0.41241411834E+01  0.26375873533E+02  0.97137655748E+01  0.96591330781E+02  0.92319189204E+02 0.  0.
         13    1    3    3    0    0 -0.36178789263E+02 -0.12157319792E+02  0.14032055212E+02  0.40664664693E+02  0.10566000000E+00 0. -1.
         22    1    1    0    0    0 -0.41241411834E+01 -0.26375873533E+02 -0.97137655748E+01  0.28408669219E+02  0.00000000000E+00 0.  1.
</event>
<event>
 5    1  0.1320187E-009  0.9118800E+02  0.7818608E-02  0.1130116E+00
         25   -1    0    0    0    0  0.00000000000E+00  0.00000000000E+00  0.99999998245E-14  0.12500000000E+03  0.12500000000E+03 0.  0.
        -13    1    3    3    0    0  0.31967202399E+02 -0.22056707140E+02  0.18225703809E+00  0.38838701584E+02  0.10566000000E+00 0. -1.
         23    2    1    0    0    0 -0.21388917049E+02 -0.23509062367E+02  0.64107619193E+01  0.92576865446E+02  0.86713415119E+02 0.  0.
         13    1    3    3    0    0 -0.53356119448E+02 -0.14523552275E+01  0.62285048812E+01  0.53738163862E+02  0.10566000000E+00 0.  1.
         22    1    1    0    0    0  0.21388917049E+02  0.23509062367E+02 -0.64107619193E+01  0.32423134554E+02  0.00000000000E+00 0.  1.
</event>
<event>
 5    1  0.1320187E-009  0.9118800E+02  0.7818608E-02  0.1130116E+00
         25   -1    0    0    0    0  0.00000000000E+00  0.00000000000E+00  0.99999998245E-14  0.12500000000E+03  0.12500000000E+03 0.  0.
        -13    1    3    3    0    0 -0.36973289494E+02 -0.54626940994E+01  0.47345722069E+02  0.60319928092E+02  0.10566000000E+00 0. -1.
         23    2    1    0    0    0 -0.23628120483E+02  0.63801181814E+01  0.18173467756E+02  0.94516087590E+02  0.89465199365E+02 0.  0.
         13    1    3    3    0    0  0.13345169011E+02  0.11842812281E+02 -0.29172254313E+02  0.34196159497E+02  0.10566000000E+00 0.  1.
         22    1    1    0    0    0  0.23628120483E+02 -0.63801181814E+01 -0.18173467756E+02  0.30483912410E+02  0.00000000000E+00 0. -1.
</event>
<event>
 5    1  0.1320187E-009  0.9118800E+02  0.7818608E-02  0.1130116E+00
         25   -1    0    0    0    0  0.00000000000E+00  0.00000000000E+00  0.99999998245E-14  0.12500000000E+03  0.12500000000E+03 0.  0.
        -13    1    3    3    0    0 -0.17180499151E+02  0.66528439905E+01 -0.80972703797E+01  0.20124781635E+02  0.10566000000E+00 0.  1.
         23    2    1    0    0    0  0.25845712517E+02  0.16356773975E+02  0.32712637257E+02  0.80215387166E+02  0.66549581452E+02 0.  0.
         13    1    3    3    0    0  0.43026211668E+02  0.97039299847E+01  0.40809907637E+02  0.60090605530E+02  0.10566000000E+00 0. -1.
         22    1    1    0    0    0 -0.25845712517E+02 -0.16356773975E+02 -0.32712637257E+02  0.44784612834E+02  0.00000000000E+00 0. -1.
</event>
<event>
 5    1  0.1320187E-009  0.9118800E+02  0.7818608E-02  0.1130116E+00
         25   -1    0    0    0    0  0.00000000000E+00  0.00000000000E+00  0.99999998245E-14  0.12500000000E+03  0.12500000000E+03 0.  0.
        -13    1    3    3    0    0  0.51096836102E+01  0.38390247140E+02  0.62601753099E+01  0.39231631383E+02  0.10566000000E+00 0.  1.
         23    2    1    0    0    0  0.18694051037E+02 -0.14895401539E+02  0.17521750020E+02  0.95362991802E+02  0.90640763184E+02 0.  0.
         13    1    3    3    0    0  0.13584367427E+02 -0.53285648678E+02  0.11261574710E+02  0.56131360419E+02  0.10566000000E+00 0. -1.
         22    1    1    0    0    0 -0.18694051037E+02  0.14895401539E+02 -0.17521750020E+02  0.29637008198E+02  0.00000000000E+00 0.  1.
</event>
<event>
 5    1  0.1320187E-009  0.9118800E+02  0.7818608E-02  0.1130116E+00
         25   -1    0    0    0    0  0.00000000000E+00  0.00000000000E+00  0.99999998245E-14  0.12500000000E+03  0.12500000000E+03 0.  0.
        -13    1    3    3    0    0  0.16174448550E+02 -0.29208667181E+02  0.24098566240E+02  0.41176584162E+02  0.10566000000E+00 0.  1.
         23    2    1    0    0    0  0.83950552459E+01 -0.95985153552E+01 -0.26277460310E+02  0.95791895475E+02  0.91230334147E+02 0.  0.
         13    1    3    3    0    0 -0.77793933038E+01  0.19610151825E+02 -0.50376026550E+02  0.54615311313E+02  0.10566000000E+00 0. -1.
         22    1    1    0    0    0 -0.83950552459E+01  0.95985153552E+01  0.26277460310E+02  0.29208104525E+02  0.00000000000E+00 0. -1.
</event>
<event>
 5    1  0.1320187E-009  0.9118800E+02  0.7818608E-02  0.1130116E+00
         25   -1    0    0    0    0  0.00000000000E+00  0.00000000000E+00  0.99999998245E-14  0.12500000000E+03  0.12500000000E+03 0.  0.
        -13    1    3    3    0    0  0.75078904977E+01  0.23110790441E+02 -0.32441056834E+02  0.40532830978E+02  0.10566000000E+00 0. -1.
         23    2    1    0    0    0  0.19714135860E+02 -0.14836370498E+02  0.96526736409E+01  0.98505865731E+02  0.94876058269E+02 0.  0.
         13    1    3    3    0    0  0.12206245362E+02 -0.37947160939E+02  0.42093730475E+02  0.57973034753E+02  0.10566000000E+00 0.  1.
         22    1    1    0    0    0 -0.19714135860E+02  0.14836370498E+02 -0.96526736409E+01  0.26494134269E+02  0.00000000000E+00 0.  1.
</event>
<event>
 5    1  0.1320187E-009  0.9118800E+02  0.7818608E-02  0.1130116E+00
         25   -1    0    0    0    0  0.00000000000E+00  0.00000000000E+00  0.99999998245E-14  0.12500000000E+03  0.12500000000E+03 0.  0.
        -13    1    3    3    0    0 -0.42534795452E+02 -0.36863698650E+02 -0.31513832708E+01  0.56374493194E+02  0.10566000000E+00 0.  1.
         23    2    1    0    0    0 -0.10363882187E+02 -0.23920074689E+02  0.14376407583E+02  0.95229861906E+02  0.90456981359E+02 0.  0.
         13    1    3    3    0    0  0.32170913265E+02  0.12943623961E+02  0.17527790854E+02  0.38855368713E+02  0.10566000000E+00 0. -1.
         22    1    1    0    0    0  0.10363882187E+02  0.23920074689E+02 -0.14376407583E+02  0.29770138094E+02  0.00000000000E+00 0.  1.
</event>
<event>
 5    1  0.1320187E-009  0.9118800E+02  0.7818608E-02  0.1130116E+00
         25   -1    0    0    0    0  0.00000000000E+00  0.00000000000E+00  0.99999998245E-14  0.12500000000E+03  0.12500000000E+03 0.  0.
        -13    1    3    3    0    0  0.24673502692E+02  0.24596570254E+02 -0.21150547882E+02  0.40756960671E+02  0.10566000000E+00 0.  1.
         23    2    1    0    0    0  0.45862609045E+01 -0.26195092916E+02 -0.10518965853E+02  0.96401655213E+02  0.92062010641E+02 0.  0.
         13    1    3    3    0    0 -0.20087241787E+02 -0.50791663170E+02  0.10631582029E+02  0.55644694542E+02  0.10566000000E+00 0. -1.
         22    1    1    0    0    0 -0.45862609045E+01  0.26195092916E+02  0.10518965853E+02  0.28598344787E+02  0.00000000000E+00 0. -1.
</event>
<event>
 5    1  0.1320187E-009  0.9118800E+02  0.7818608E-02  0.1130116E+00
         25   -1    0    0    0    0  0.00000000000E+00  0.00000000000E+00  0.99999998245E-14  0.12500000000E+03  0.12500000000E+03 0.  0.
        -13    1    3    3    0    0  0.21711956459E+02 -0.17671453451E+02  0.53363785522E+02  0.60261049523E+02  0.10566000000E+00 0. -1.
         23    2    1    0    0    0  0.63858517827E+01 -0.17765084700E+02  0.17517301051E+02  0.99246686165E+02  0.95847125889E+02 0.  0.
         13    1    3    3    0    0 -0.15326104677E+02 -0.93631248962E-01 -0.35846484471E+02  0.38985636641E+02  0.10566000000E+00 0.  1.
         22    1    1    0    0    0 -0.63858517827E+01  0.17765084700E+02 -0.17517301051E+02  0.25753313835E+02  0.00000000000E+00 0. -1.
</event>
<event>
 5    1  0.1320187E-009  0.9118800E+02  0.7818608E-02  0.1130116E+00
         25   -1    0    0    0    0  0.00000000000E+00  0.00000000000E+00  0.99999998245E-14  0.12500000000E+03  0.12500000000E+03 0.  0.
        -13    1    3    3    0    0  0.41415970027E+02 -0.34973313383E+02 -0.17460066922E+02  0.56949805295E+02  0.10566000000E+00 0. -1.
         23    2    1    0    0    0  0.15896105414E+02 -0.23610230816E+02  0.87158923643E+01  0.95232636223E+02  0.90460815029E+02 0.  0.
         13    1    3    3    0    0 -0.25519864612E+02  0.11363082567E+02  0.26175959286E+02  0.38282830928E+02  0.10566000000E+00 0.  1.
         22    1    1    0    0    0 -0.15896105414E+02  0.23610230816E+02 -0.87158923643E+01  0.29767363777E+02  0.00000000000E+00 0. -1.
</event>
<event>
 5    1  0.1320187E-009  0.9118800E+02  0.7818608E-02  0.1130116E+00
         25   -1    0    0    0    0  0.00000000000E+00  0.00000000000E+00  0.99999998245E-14  0.12500000000E+03  0.12500000000E+03 0.  0.
        -13    1    3    3    0    0 -0.31781627671E+01  0.60986355910E+02 -0.66026742842E+01  0.61425099084E+02  0.10566000000E+00 0.  1.
         23    2    1    0    0    0  0.39904945942E+01  0.28718245058E+02  0.30114957859E+01  0.95849858436E+02  0.91309718043E+02 0.  0.
         13    1    3    3    0    0  0.71686573613E+01 -0.32268110852E+02  0.96141700701E+01  0.34424759352E+02  0.10566000000E+00 0. -1.
         22    1    1    0    0    0 -0.39904945942E+01 -0.28718245058E+02 -0.30114957859E+01  0.29150141564E+02  0.00000000000E+00 0.  1.
</event>
<event>
 5    1  0.1320187E-009  0.9118800E+02  0.7818608E-02  0.1130116E+00
         25   -1    0    0    0    0  0.00000000000E+00  0.00000000000E+00  0.99999998245E-14  0.12500000000E+03  0.12500000000E+03 0.  0.
        -13    1    3    3    0    0 -0.14118139578E+02  0.21773685617E+02  0.44126960997E+02  0.51191943715E+02  0.10566000000E+00 0. -1.
         23    2    1    0    0    0  0.30224859122E+01  0.35955824919E+02  0.21144920748E+02  0.83178182247E+02  0.71899551889E+02 0.  0.
         13    1    3    3    0    0  0.17140625490E+02  0.14182139302E+02 -0.22982040249E+02  0.31986238532E+02  0.10566000000E+00 0.  1.
         22    1    1    0    0    0 -0.30224859122E+01 -0.35955824919E+02 -0.21144920748E+02  0.41821817753E+02  0.00000000000E+00 0. -1.
</event>
<event>
 5    1  0.1320187E-009  0.9118800E+02  0.7818608E-02  0.1130116E+00
         25   -1    0    0    0    0  0.00000000000E+00  0.00000000000E+00  0.99999998245E-14  0.12500000000E+03  0.12500000000E+03 0.  0.
        -13    1    3    3    0    0 -0.46746078366E+01  0.61063948512E+02  0.11949476487E+02  0.62397587442E+02  0.10566000000E+00 0. -1.
         23    2    1    0    0    0  0.15211878263E+00  0.28546733516E+02  0.65391655880E+01  0.95713487385E+02  0.91122839323E+02 0.  0.
         13    1    3    3    0    0  0.48267266192E+01 -0.32517214996E+02 -0.54103108994E+01  0.33315899943E+02  0.10566000000E+00 0.  1.
         22    1    1    0    0    0 -0.15211878263E+00 -0.28546733516E+02 -0.65391655880E+01  0.29286512615E+02  0.00000000000E+00 0. -1.
</event>
<event>
 5    1  0.1320187E-009  0.9118800E+02  0.7818608E-02  0.1130116E+00
         25   -1    0    0    0    0  0.00000000000E+00  0.00000000000E+00  0.99999998245E-14  0.12500000000E+03  0.12500000000E+03 0.  0.
        -13    1    3    3    0    0  0.27785697752E+02  0.60542395562E+01 -0.23800565510E+02  0.37083377661E+02  0.10566000000E+00 0.  1.
         23    2    1    0    0    0 -0.15450974852E+02 -0.25049872839E+02  0.35198314158E+00  0.95566130984E+02  0.90920474844E+02 0.  0.
         13    1    3    3    0    0 -0.43236672604E+02 -0.31104112395E+02  0.24152548651E+02  0.58482753322E+02  0.10566000000E+00 0. -1.
         22    1    1    0    0    0  0.15450974852E+02  0.25049872839E+02 -0.35198314158E+00  0.29433869016E+02  0.00000000000E+00 0. -1.
</event>
<event>
 5    1  0.1320187E-009  0.9118800E+02  0.7818608E-02  0.1130116E+00
         25   -1    0    0    0    0  0.00000000000E+00  0.00000000000E+00  0.99999998245E-14  0.12500000000E+03  0.12500000000E+03 0.  0.
        -13    1    3    3    0    0  0.21537741718E+02  0.11535012242E+02 -0.29242814384E+02  0.38106222364E+02  0.10566000000E+00 0. -1.
         23    2    1    0    0    0 -0.18195527078E+01  0.43152441934E+01  0.26033995434E+02  0.98548137632E+02  0.94931735515E+02 0.  0.
         13    1    3    3    0    0 -0.23357294425E+02 -0.72197680490E+01  0.55276809818E+02  0.60441915268E+02  0.10566000000E+00 0.  1.
         22    1    1    0    0    0  0.18195527078E+01 -0.43152441934E+01 -0.26033995434E+02  0.26451862368E+02  0.00000000000E+00 0.  1.
</event>
<event>
 5    1  0.1320187E-009  0.9118800E+02  0.7818608E-02  0.1130116E+00
         25   -1    0    0    0    0  0.00000000000E+00  0.00000000000E+00  0.99999998245E-14  0.12500000000E+03  0.12500000000E+03 0.  0.
        -13    1    3    3    0    0 -0.59907578537E+01  0.14751894051E+02  0.29237604480E+02  0.33291984584E+02  0.10566000000E+00 0.  1.
         23    2    1    0    0    0 -0.85435386981E+01 -0.13364384349E+02 -0.25550502914E+02  0.94926306816E+02  0.90036529832E+02 0.  0.
         13    1    3    3    0    0 -0.25527808443E+01 -0.28116278400E+02 -0.54788107395E+02  0.61634322232E+02  0.10566000000E+00 0. -1.
         22    1    1    0    0    0  0.85435386981E+01  0.13364384349E+02  0.25550502914E+02  0.30073693184E+02  0.00000000000E+00 0. -1.
</event>
<event>
 5    1  0.1320187E-009  0.9118800E+02  0.7818608E-02  0.1130116E+00
         25   -1    0    0    0    0  0.00000000000E+00  0.00000000000E+00  0.99999998245E-14  0.12500000000E+03  0.12500000000E+03 0.  0.
        -13    1    3    3    0    0  0.10255665033E+02 -0.59677540729E+02  0.10101862442E+02  0.61389301361E+02  0.10566000000E+00 0. -1.
         23    2    1    0    0    0  0.65964587299E+01 -0.25702538022E+02  0.12545637108E+02  0.95648224262E+02  0.91033269004E+02 0.  0.
         13    1    3    3    0    0 -0.36592063028E+01  0.33975002707E+02  0.24437746658E+01  0.34258922901E+02  0.10566000000E+00 0.  1.
         22    1    1    0    0    0 -0.65964587299E+01  0.25702538022E+02 -0.12545637108E+02  0.29351775738E+02  0.00000000000E+00 0. -1.
</event>
<event>
 5    1  0.1320187E-009  0.9118800E+02  0.7818608E-02  0.1130116E+00
         25   -1    0    0    0    0  0.00000000000E+00  0.00000000000E+00  0.99999998245E-14  0.12500000000E+03  0.12500000000E+03 0.  0.
        -13    1    3    3    0    0 -0.58317497438E+01 -0.27499973032E+02 -0.20966006854E+02  0.35069109331E+02  0.10566000000E+00 0. -1.
         23    2    1    0    0    0  0.24930058834E+02  0.15934618293E+02  0.61150765025E+01  0.94787187250E+02  0.89843178999E+02 0.  0.
         13    1    3    3    0    0  0.30761808578E+02  0.43434591325E+02  0.27081083357E+02  0.59718077919E+02  0.10566000000E+00 0.  1.
         22    1    1    0    0    0 -0.24930058834E+02 -0.15934618293E+02 -0.61150765025E+01  0.30212812750E+02  0.00000000000E+00 0.  1.
</event>
<event>
 5    1  0.1320187E-009  0.9118800E+02  0.7818608E-02  0.1130116E+00
         25   -1    0    0    0    0  0.00000000000E+00  0.00000000000E+00  0.99999998245E-14  0.12500000000E+03  0.12500000000E+03 0.  0.
        -13    1    3    3    0    0 -0.36300542281E+02  0.17780386588E+02  0.41047428894E+02  0.57608802278E+02  0.10566000000E+00 0.  1.
         23    2    1    0    0    0 -0.46238600359E+01  0.17167116931E+00  0.28749424855E+02  0.95880608143E+02  0.91351803681E+02 0.  0.
         13    1    3    3    0    0  0.31676682246E+02 -0.17608715418E+02 -0.12298004038E+02  0.38271805865E+02  0.10566000000E+00 0. -1.
         22    1    1    0    0    0  0.46238600359E+01 -0.17167116931E+00 -0.28749424855E+02  0.29119391857E+02  0.00000000000E+00 0.  1.
</event>
<event>
 5    1  0.1320187E-009  0.9118800E+02  0.7818608E-02  0.1130116E+00
         25   -1    0    0    0    0  0.00000000000E+00  0.00000000000E+00  0.99999998245E-14  0.12500000000E+03  0.12500000000E+03 0.  0.
        -13    1    3    3    0    0  0.95222650050E+01 -0.17796805761E+02  0.51464658280E+02  0.55281299207E+02  0.10566000000E+00 0. -1.
         23    2    1    0    0    0  0.24551188998E+01  0.12469220706E+02  0.28085114161E+02  0.94173344144E+02  0.88985032652E+02 0.  0.
         13    1    3    3    0    0 -0.70671461052E+01  0.30266026467E+02 -0.23379544119E+02  0.38892044938E+02  0.10566000000E+00 0.  1.
         22    1    1    0    0    0 -0.24551188998E+01 -0.12469220706E+02 -0.28085114161E+02  0.30826655856E+02  0.00000000000E+00 0. -1.
</event>
<event>
 5    1  0.1320187E-009  0.9118800E+02  0.7818608E-02  0.1130116E+00
         25   -1    0    0    0    0  0.00000000000E+00  0.00000000000E+00  0.99999998245E-14  0.12500000000E+03  0.12500000000E+03 0.  0.
        -13    1    3    3    0    0  0.62751053609E+01 -0.62754296424E+01  0.57139658127E+02  0.57824818715E+02  0.10566000000E+00 0.  1.
         23    2    1    0    0    0 -0.61401468033E+00  0.13933638632E+02  0.21414539018E+02  0.99444065642E+02  0.96104195593E+02 0.  0.
         13    1    3    3    0    0 -0.68891200412E+01  0.20209068274E+02 -0.35725119109E+02  0.41619246928E+02  0.10566000000E+00 0. -1.
         22    1    1    0    0    0  0.61401468033E+00 -0.13933638632E+02 -0.21414539018E+02  0.25555934358E+02  0.00000000000E+00 0.  1.
</event>
<event>
 5    1  0.1320187E-009  0.9118800E+02  0.7818608E-02  0.1130116E+00
         25   -1    0    0    0    0  0.00000000000E+00  0.00000000000E+00  0.99999998245E-14  0.12500000000E+03  0.12500000000E+03 0.  0.
        -13    1    3    3    0    0 -0.40102833601E+02 -0.52282338305E+01 -0.23581847054E+02  0.46815450082E+02  0.10566000000E+00 0.  1.
         23    2    1    0    0    0 -0.40803516436E+01 -0.30324909997E+02 -0.10981990399E+02  0.92490715957E+02  0.86589138980E+02 0.  0.
         13    1    3    3    0    0  0.36022481957E+02 -0.25096676167E+02  0.12599856656E+02  0.45675265875E+02  0.10566000000E+00 0. -1.
         22    1    1    0    0    0  0.40803516436E+01  0.30324909997E+02  0.10981990399E+02  0.32509284043E+02  0.00000000000E+00 0.  1.
</event>
<event>
 5    1  0.1320187E-009  0.9118800E+02  0.7818608E-02  0.1130116E+00
         25   -1    0    0    0    0  0.00000000000E+00  0.00000000000E+00  0.99999998245E-14  0.12500000000E+03  0.12500000000E+03 0.  0.
        -13    1    3    3    0    0  0.27234735414E+02  0.24395535999E+02 -0.31691350271E+02  0.48386215348E+02  0.10566000000E+00 0.  1.
         23    2    1    0    0    0  0.11726778034E+02 -0.16626694950E+02  0.31681857215E+01  0.10440869823E+03  0.10235807030E+03 0.  0.
         13    1    3    3    0    0 -0.15507957380E+02 -0.41022230948E+02  0.34859535992E+02  0.56022482877E+02  0.10566000000E+00 0. -1.
         22    1    1    0    0    0 -0.11726778034E+02  0.16626694950E+02 -0.31681857215E+01  0.20591301774E+02  0.00000000000E+00 0. -1.
</event>
<event>
 5    1  0.1320187E-009  0.9118800E+02  0.7818608E-02  0.1130116E+00
         25   -1    0    0    0    0  0.00000000000E+00  0.00000000000E+00  0.99999998245E-14  0.12500000000E+03  0.12500000000E+03 0.  0.
        -13    1    3    3    0    0 -0.31346927337E+01 -0.99726380539E+01  0.52987339763E+02  0.54008787688E+02  0.10566000000E+00 0. -1.
         23    2    1    0    0    0 -0.73128512053E+01  0.17620507554E+02  0.25218368731E+02  0.93378390289E+02  0.87861240444E+02 0.  0.
         13    1    3    3    0    0 -0.41781584716E+01  0.27593145608E+02 -0.27768971032E+02  0.39369602602E+02  0.10566000000E+00 0.  1.
         22    1    1    0    0    0  0.73128512053E+01 -0.17620507554E+02 -0.25218368731E+02  0.31621609711E+02  0.00000000000E+00 0.  1.
</event>
<event>
 5    1  0.1320187E-009  0.9118800E+02  0.7818608E-02  0.1130116E+00
         25   -1    0    0    0    0  0.00000000000E+00  0.00000000000E+00  0.99999998245E-14  0.12500000000E+03  0.12500000000E+03 0.  0.
        -13    1    3    3    0    0  0.46700128484E+02 -0.35628188945E+01  0.16329393327E+02  0.49600967020E+02  0.10566000000E+00 0. -1.
         23    2    1    0    0    0  0.15424029190E+02  0.26071419997E+02  0.96916925582E+01  0.93195149399E+02  0.87600156106E+02 0.  0.
         13    1    3    3    0    0 -0.31276099294E+02  0.29634238891E+02 -0.66377007689E+01  0.43594182379E+02  0.10566000000E+00 0.  1.
         22    1    1    0    0    0 -0.15424029190E+02 -0.26071419997E+02 -0.96916925582E+01  0.31804850601E+02  0.00000000000E+00 0. -1.
</event>
<event>
 5    1  0.1320187E-009  0.9118800E+02  0.7818608E-02  0.1130116E+00
         25   -1    0    0    0    0  0.00000000000E+00  0.00000000000E+00  0.99999998245E-14  0.12500000000E+03  0.12500000000E+03 0.  0.
        -13    1    3    3    0    0 -0.34239659363E+02  0.43436918611E+02  0.11548365627E+02  0.56502177696E+02  0.10566000000E+00 0.  1.
         23    2    1    0    0    0 -0.19101816420E+02  0.17278935551E+02 -0.13648081332E+02  0.95850195055E+02  0.91310178861E+02 0.  0.
         13    1    3    3    0    0  0.15137842943E+02 -0.26157983060E+02 -0.25196446958E+02  0.39348017359E+02  0.10566000000E+00 0. -1.
         22    1    1    0    0    0  0.19101816420E+02 -0.17278935551E+02  0.13648081332E+02  0.29149804945E+02  0.00000000000E+00 0. -1.
</event>
<event>
 5    1  0.1320187E-009  0.9118800E+02  0.7818608E-02  0.1130116E+00
         25   -1    0    0    0    0  0.00000000000E+00  0.00000000000E+00  0.99999998245E-14  0.12500000000E+03  0.12500000000E+03 0.  0.
        -13    1    3    3    0    0  0.32923352521E+02  0.12743664828E+02  0.31753935229E+01  0.35446331581E+02  0.10566000000E+00 0. -1.
         23    2    1    0    0    0 -0.69755285606E+01 -0.21919819780E+02 -0.21261913932E+02  0.93675800378E+02  0.88283351174E+02 0.  0.
         13    1    3    3    0    0 -0.39898881082E+02 -0.34663484608E+02 -0.24437307455E+02  0.58229468797E+02  0.10566000000E+00 0.  1.
         22    1    1    0    0    0  0.69755285606E+01  0.21919819780E+02  0.21261913932E+02  0.31324199622E+02  0.00000000000E+00 0.  1.
</event>
<event>
 5    1  0.1320187E-009  0.9118800E+02  0.7818608E-02  0.1130116E+00
         25   -1    0    0    0    0  0.00000000000E+00  0.00000000000E+00  0.99999998245E-14  0.12500000000E+03  0.12500000000E+03 0.  0.
        -13    1    3    3    0    0  0.35741720188E+02  0.15853528675E+02  0.43081760235E+02  0.58179499503E+02  0.10566000000E+00 0.  1.
         23    2    1    0    0    0  0.10086946402E+02  0.22177705849E+02  0.17119247404E+02  0.95223066711E+02  0.90447590779E+02 0.  0.
         13    1    3    3    0    0 -0.25654773786E+02  0.63241771736E+01 -0.25962512831E+02  0.37043567208E+02  0.10566000000E+00 0. -1.
         22    1    1    0    0    0 -0.10086946402E+02 -0.22177705849E+02 -0.17119247404E+02  0.29776933289E+02  0.00000000000E+00 0.  1.
</event>
<event>
 5    1  0.1320187E-009  0.9118800E+02  0.7818608E-02  0.1130116E+00
         25   -1    0    0    0    0  0.00000000000E+00  0.00000000000E+00  0.99999998245E-14  0.12500000000E+03  0.12500000000E+03 0.  0.
        -13    1    3    3    0    0 -0.25845617574E+02 -0.11483585911E+02 -0.28281694480E+01  0.28423201783E+02  0.10566000000E+00 0. -1.
         23    2    1    0    0    0  0.15113057250E+02  0.11016021395E+02  0.32837677225E+02  0.87210182954E+02  0.78597364705E+02 0.  0.
         13    1    3    3    0    0  0.40958674824E+02  0.22499607306E+02  0.35665846673E+02  0.58786981171E+02  0.10566000000E+00 0.  1.
         22    1    1    0    0    0 -0.15113057250E+02 -0.11016021395E+02 -0.32837677225E+02  0.37789817046E+02  0.00000000000E+00 0.  1.
</event>
<event>
 5    1  0.1320187E-009  0.9118800E+02  0.7818608E-02  0.1130116E+00
         25   -1    0    0    0    0  0.00000000000E+00  0.00000000000E+00  0.99999998245E-14  0.12500000000E+03  0.12500000000E+03 0.  0.
        -13    1    3    3    0    0  0.35340556968E+01  0.33488437615E+02  0.40155512323E+02  0.52406500909E+02  0.10566000000E+00 0. -1.
         23    2    1    0    0    0 -0.19851319251E+02  0.18758494691E+02  0.48218880820E+01  0.97265425841E+02  0.93227444780E+02 0.  0.
         13    1    3    3    0    0 -0.23385374948E+02 -0.14729942924E+02 -0.35333624241E+02  0.44858924932E+02  0.10566000000E+00 0.  1.
         22    1    1    0    0    0  0.19851319251E+02 -0.18758494691E+02 -0.48218880820E+01  0.27734574159E+02  0.00000000000E+00 0. -1.
</event>
<event>
 5    1  0.1320187E-009  0.9118800E+02  0.7818608E-02  0.1130116E+00
         25   -1    0    0    0    0  0.00000000000E+00  0.00000000000E+00  0.99999998245E-14  0.12500000000E+03  0.12500000000E+03 0.  0.
        -13    1    3    3    0    0 -0.13947848646E+02 -0.30816363656E+02  0.27259125368E+02  0.43442626885E+02  0.10566000000E+00 0. -1.
         23    2    1    0    0    0 -0.26956341341E+02  0.13368472409E+02  0.53857590312E+01  0.94432586086E+02  0.89348455619E+02 0.  0.
         13    1    3    3    0    0 -0.13008492695E+02  0.44184836065E+02 -0.21873366337E+02  0.50989959200E+02  0.10566000000E+00 0.  1.
         22    1    1    0    0    0  0.26956341341E+02 -0.13368472409E+02 -0.53857590312E+01  0.30567413914E+02  0.00000000000E+00 0.  1.
</event>
<event>
 5    1  0.1320187E-009  0.9118800E+02  0.7818608E-02  0.1130116E+00
         25   -1    0    0    0    0  0.00000000000E+00  0.00000000000E+00  0.99999998245E-14  0.12500000000E+03  0.12500000000E+03 0.  0.
        -13    1    3    3    0    0 -0.53201148103E+02  0.11618906652E+02  0.11745300352E+02  0.55707489583E+02  0.10566000000E+00 0.  1.
         23    2    1    0    0    0 -0.26054834710E+02 -0.91559583240E+01 -0.93109353024E+01  0.95855883942E+02  0.91317966390E+02 0.  0.
         13    1    3    3    0    0  0.27146313393E+02 -0.20774864976E+02 -0.21056235654E+02  0.40148394359E+02  0.10566000000E+00 0. -1.
         22    1    1    0    0    0  0.26054834710E+02  0.91559583240E+01  0.93109353024E+01  0.29144116058E+02  0.00000000000E+00 0.  1.
</event>
<event>
 5    1  0.1320187E-009  0.9118800E+02  0.7818608E-02  0.1130116E+00
         25   -1    0    0    0    0  0.00000000000E+00  0.00000000000E+00  0.99999998245E-14  0.12500000000E+03  0.12500000000E+03 0.  0.
        -13    1    3    3    0    0  0.14857568663E+02 -0.39355457328E+02 -0.72653978010E+01  0.42689536625E+02  0.10566000000E+00 0.  1.
         23    2    1    0    0    0  0.25646527502E+02  0.10732332083E+02  0.78537681453E+01  0.96110399814E+02  0.91665696710E+02 0.  0.
         13    1    3    3    0    0  0.10788958839E+02  0.50087789410E+02  0.15119165946E+02  0.53420863188E+02  0.10566000000E+00 0. -1.
         22    1    1    0    0    0 -0.25646527502E+02 -0.10732332083E+02 -0.78537681453E+01  0.28889600186E+02  0.00000000000E+00 0. -1.
</event>
<event>
 5    1  0.1320187E-009  0.9118800E+02  0.7818608E-02  0.1130116E+00
         25   -1    0    0    0    0  0.00000000000E+00  0.00000000000E+00  0.99999998245E-14  0.12500000000E+03  0.12500000000E+03 0.  0.
        -13    1    3    3    0    0 -0.88314727023E+01  0.42495785348E+02  0.43383023717E+02  0.61367618442E+02  0.10566000000E+00 0. -1.
         23    2    1    0    0    0 -0.12996302260E+02  0.21317326766E+02  0.23279049765E+02  0.90864293609E+02  0.84208511459E+02 0.  0.
         13    1    3    3    0    0 -0.41648295577E+01 -0.21178458581E+02 -0.20103973953E+02  0.29496675166E+02  0.10566000000E+00 0.  1.
         22    1    1    0    0    0  0.12996302260E+02 -0.21317326766E+02 -0.23279049765E+02  0.34135706391E+02  0.00000000000E+00 0. -1.
</event>
<event>
 5    1  0.1320187E-009  0.9118800E+02  0.7818608E-02  0.1130116E+00
         25   -1    0    0    0    0  0.00000000000E+00  0.00000000000E+00  0.99999998245E-14  0.12500000000E+03  0.12500000000E+03 0.  0.
        -13    1    3    3    0    0  0.23573049782E+02 -0.36596992406E+02  0.14038848138E+02  0.45739796133E+02  0.10566000000E+00 0. -1.
         23    2    1    0    0    0 -0.18886442190E+02 -0.21701039725E+02 -0.69694646771E+01  0.95399218564E+02  0.90690708680E+02 0.  0.
         13    1    3    3    0    0 -0.42459491972E+02  0.14895952681E+02 -0.21008312815E+02  0.49659422431E+02  0.10566000000E+00 0.  1.
         22    1    1    0    0    0  0.18886442190E+02  0.21701039725E+02  0.69694646771E+01  0.29600781436E+02  0.00000000000E+00 0. -1.
</event>
<event>
 5    1  0.1320187E-009  0.9118800E+02  0.7818608E-02  0.1130116E+00
         25   -1    0    0    0    0  0.00000000000E+00  0.00000000000E+00  0.99999998245E-14  0.12500000000E+03  0.12500000000E+03 0.  0.
        -13    1    3    3    0    0  0.61815883460E+01  0.46287689531E+02  0.28311596037E+02  0.54610620495E+02  0.10566000000E+00 0. -1.
         23    2    1    0    0    0  0.23213460177E+02  0.12015546820E+02  0.12627866843E+02  0.95970685166E+02  0.91474976313E+02 0.  0.
         13    1    3    3    0    0  0.17031871831E+02 -0.34272142711E+02 -0.15683729195E+02  0.41360064671E+02  0.10566000000E+00 0.  1.
         22    1    1    0    0    0 -0.23213460177E+02 -0.12015546820E+02 -0.12627866843E+02  0.29029314834E+02  0.00000000000E+00 0. -1.
</event>
<event>
 5    1  0.1320187E-009  0.9118800E+02  0.7818608E-02  0.1130116E+00
         25   -1    0    0    0    0  0.00000000000E+00  0.00000000000E+00  0.99999998245E-14  0.12500000000E+03  0.12500000000E+03 0.  0.
        -13    1    3    3    0    0  0.15237489626E+02 -0.28475280445E+02 -0.80812491123E+01  0.33291747292E+02  0.10566000000E+00 0.  1.
         23    2    1    0    0    0  0.20738719760E+01  0.30180783757E+02  0.36108125470E+01  0.94533319505E+02  0.89489272409E+02 0.  0.
         13    1    3    3    0    0 -0.13163617650E+02  0.58656064201E+02  0.11692061659E+02  0.61241572213E+02  0.10566000000E+00 0. -1.
         22    1    1    0    0    0 -0.20738719760E+01 -0.30180783757E+02 -0.36108125470E+01  0.30466680495E+02  0.00000000000E+00 0. -1.
</event>
<event>
 5    1  0.1320187E-009  0.9118800E+02  0.7818608E-02  0.1130116E+00
         25   -1    0    0    0    0  0.00000000000E+00  0.00000000000E+00  0.99999998245E-14  0.12500000000E+03  0.12500000000E+03 0.  0.
        -13    1    3    3    0    0 -0.46569963199E+02 -0.19571186753E+02 -0.21793301320E+02  0.55015924692E+02  0.10566000000E+00 0. -1.
         23    2    1    0    0    0 -0.71429502768E+01 -0.14130587896E+02 -0.25495044899E+02  0.94988459431E+02  0.90122776575E+02 0.  0.
         13    1    3    3    0    0  0.39427012922E+02  0.54405988574E+01 -0.37017435793E+01  0.39972534739E+02  0.10566000000E+00 0.  1.
         22    1    1    0    0    0  0.71429502768E+01  0.14130587896E+02  0.25495044899E+02  0.30011540569E+02  0.00000000000E+00 0. -1.
</event>
<event>
 5    1  0.1320187E-009  0.9118800E+02  0.7818608E-02  0.1130116E+00
         25   -1    0    0    0    0  0.00000000000E+00  0.00000000000E+00  0.99999998245E-14  0.12500000000E+03  0.12500000000E+03 0.  0.
        -13    1    3    3    0    0  0.23559629843E+02  0.45507578770E+02  0.20886553357E+02  0.55337646852E+02  0.10566000000E+00 0.  1.
         23    2    1    0    0    0  0.18074062166E+02  0.72526016296E+01  0.23980438891E+02  0.94107712888E+02  0.88892790608E+02 0.  0.
         13    1    3    3    0    0 -0.54855676773E+01 -0.38254977141E+02  0.30938855337E+01  0.38770066037E+02  0.10566000000E+00 0. -1.
         22    1    1    0    0    0 -0.18074062166E+02 -0.72526016296E+01 -0.23980438891E+02  0.30892287112E+02  0.00000000000E+00 0.  1.
</event>
<event>
 5    1  0.1320187E-009  0.9118800E+02  0.7818608E-02  0.1130116E+00
         25   -1    0    0    0    0  0.00000000000E+00  0.00000000000E+00  0.99999998245E-14  0.12500000000E+03  0.12500000000E+03 0.  0.
        -13    1    3    3    0    0  0.87031323290E+01  0.43717732858E+02  0.31690718781E+02  0.54692755457E+02  0.10566000000E+00 0. -1.
         23    2    1    0    0    0  0.11632708374E+02  0.29529442872E+01  0.26522694106E+02  0.95888265481E+02  0.91362280894E+02 0.  0.
         13    1    3    3    0    0  0.29295760447E+01 -0.40764788571E+02 -0.51680246745E+01  0.41195510024E+02  0.10566000000E+00 0.  1.
         22    1    1    0    0    0 -0.11632708374E+02 -0.29529442872E+01 -0.26522694106E+02  0.29111734519E+02  0.00000000000E+00 0. -1.
</event>
<event>
 5    1  0.1320187E-009  0.9118800E+02  0.7818608E-02  0.1130116E+00
         25   -1    0    0    0    0  0.00000000000E+00  0.00000000000E+00  0.99999998245E-14  0.12500000000E+03  0.12500000000E+03 0.  0.
        -13    1    3    3    0    0 -0.26191661014E+02  0.94684875604E+01 -0.18851060008E+02  0.33630774460E+02  0.10566000000E+00 0.  1.
         23    2    1    0    0    0  0.21077777964E+02 -0.88863934229E+01  0.17648192124E+02  0.96108835309E+02  0.91663563247E+02 0.  0.
         13    1    3    3    0    0  0.47269438978E+02 -0.18354880983E+02  0.36499252131E+02  0.62478060849E+02  0.10566000000E+00 0. -1.
         22    1    1    0    0    0 -0.21077777964E+02  0.88863934229E+01 -0.17648192124E+02  0.28891164691E+02  0.00000000000E+00 0. -1.
</event>
<event>
 5    1  0.1320187E-009  0.9118800E+02  0.7818608E-02  0.1130116E+00
         25   -1    0    0    0    0  0.00000000000E+00  0.00000000000E+00  0.99999998245E-14  0.12500000000E+03  0.12500000000E+03 0.  0.
        -13    1    3    3    0    0  0.41763911829E+01 -0.19325237220E+02 -0.31206581188E+02  0.36942778867E+02  0.10566000000E+00 0. -1.
         23    2    1    0    0    0 -0.23272112563E+02 -0.10430276050E+02  0.17860654103E+02  0.93865054254E+02  0.88550909445E+02 0.  0.
         13    1    3    3    0    0 -0.27448503745E+02  0.88949611701E+01  0.49067235291E+02  0.56922275387E+02  0.10566000000E+00 0.  1.
         22    1    1    0    0    0  0.23272112563E+02  0.10430276050E+02 -0.17860654103E+02  0.31134945746E+02  0.00000000000E+00 0.  1.
</event>
<event>
 5    1  0.1320187E-009  0.9118800E+02  0.7818608E-02  0.1130116E+00
         25   -1    0    0    0    0  0.00000000000E+00  0.00000000000E+00  0.99999998245E-14  0.12500000000E+03  0.12500000000E+03 0.  0.
        -13    1    3    3    0    0 -0.34720049204E+02  0.27880540648E+02  0.39272253309E+02  0.59372783391E+02  0.10566000000E+00 0. -1.
         23    2    1    0    0    0 -0.98083922025E+01  0.75027127553E+01  0.29517736111E+02  0.93003250143E+02  0.87325898425E+02 0.  0.
         13    1    3    3    0    0  0.24911657001E+02 -0.20377827892E+02 -0.97545171981E+01  0.33630466752E+02  0.10566000000E+00 0.  1.
         22    1    1    0    0    0  0.98083922025E+01 -0.75027127553E+01 -0.29517736111E+02  0.31996749857E+02  0.00000000000E+00 0. -1.
</event>
<event>
 5    1  0.1320187E-009  0.9118800E+02  0.7818608E-02  0.1130116E+00
         25   -1    0    0    0    0  0.00000000000E+00  0.00000000000E+00  0.99999998245E-14  0.12500000000E+03  0.12500000000E+03 0.  0.
        -13    1    3    3    0    0 -0.14306222054E+01 -0.15783390716E+02 -0.36343577747E+02  0.39648819779E+02  0.10566000000E+00 0.  1.
         23    2    1    0    0    0 -0.90727850376E+00  0.29126459251E+02 -0.27608773083E+01  0.95728918259E+02  0.91144004547E+02 0.  0.
         13    1    3    3    0    0  0.52334370163E+00  0.44909849967E+02  0.33582700439E+02  0.56080098480E+02  0.10566000000E+00 0. -1.
         22    1    1    0    0    0  0.90727850376E+00 -0.29126459251E+02  0.27608773083E+01  0.29271081741E+02  0.00000000000E+00 0. -1.
</event>
<event>
 5    1  0.1320187E-009  0.9118800E+02  0.7818608E-02  0.1130116E+00
         25   -1    0    0    0    0  0.00000000000E+00  0.00000000000E+00  0.99999998245E-14  0.12500000000E+03  0.12500000000E+03 0.  0.
        -13    1    3    3    0    0 -0.40711335322E+02 -0.21137987702E+02  0.36798690446E+01  0.46019343194E+02  0.10566000000E+00 0. -1.
         23    2    1    0    0    0 -0.18939773932E+02  0.15633163809E+02  0.21539095143E+02  0.92334368722E+02  0.86363141330E+02 0.  0.
         13    1    3    3    0    0  0.21771561391E+02  0.36771151510E+02  0.17859226098E+02  0.46315025528E+02  0.10566000000E+00 0.  1.
         22    1    1    0    0    0  0.18939773932E+02 -0.15633163809E+02 -0.21539095143E+02  0.32665631278E+02  0.00000000000E+00 0.  1.
</event>
<event>
 5    1  0.1320187E-009  0.9118800E+02  0.7818608E-02  0.1130116E+00
         25   -1    0    0    0    0  0.00000000000E+00  0.00000000000E+00  0.99999998245E-14  0.12500000000E+03  0.12500000000E+03 0.  0.
        -13    1    3    3    0    0  0.35294267908E+01  0.91175537747E+01 -0.41193590716E+02  0.42338041055E+02  0.10566000000E+00 0.  1.
         23    2    1    0    0    0 -0.23200224403E+02 -0.84491636540E+01  0.62255451267E+01  0.99536375141E+02  0.96224185033E+02 0.  0.
         13    1    3    3    0    0 -0.26729651194E+02 -0.17566717429E+02  0.47419135842E+02  0.57198334086E+02  0.10566000000E+00 0. -1.
         22    1    1    0    0    0  0.23200224403E+02  0.84491636540E+01 -0.62255451267E+01  0.25463624859E+02  0.00000000000E+00 0. -1.
</event>
<event>
 5    1  0.1320187E-009  0.9118800E+02  0.7818608E-02  0.1130116E+00
         25   -1    0    0    0    0  0.00000000000E+00  0.00000000000E+00  0.99999998245E-14  0.12500000000E+03  0.12500000000E+03 0.  0.
        -13    1    3    3    0    0  0.38660455416E+02 -0.26040347272E+02  0.38370787226E+02  0.60374323809E+02  0.10566000000E+00 0. -1.
         23    2    1    0    0    0  0.14373445284E+02 -0.22715211947E+02  0.15131041272E+02  0.94153198008E+02  0.88956728256E+02 0.  0.
         13    1    3    3    0    0 -0.24287010132E+02  0.33251353244E+01 -0.23239745954E+02  0.33778874199E+02  0.10566000000E+00 0.  1.
         22    1    1    0    0    0 -0.14373445284E+02  0.22715211947E+02 -0.15131041272E+02  0.30846801992E+02  0.00000000000E+00 0. -1.
</event>
<event>
 5    1  0.1320187E-009  0.9118800E+02  0.7818608E-02  0.1130116E+00
         25   -1    0    0    0    0  0.00000000000E+00  0.00000000000E+00  0.99999998245E-14  0.12500000000E+03  0.12500000000E+03 0.  0.
        -13    1    3    3    0    0  0.89823655705E+01 -0.26907012188E+02  0.28311141515E+02  0.40077451192E+02  0.10566000000E+00 0.  1.
         23    2    1    0    0    0 -0.26093724323E+02  0.97739686569E+01  0.24796680338E+01  0.97025696329E+02  0.92905457763E+02 0.  0.
         13    1    3    3    0    0 -0.35076089893E+02  0.36680980844E+02 -0.25831473481E+02  0.56948245137E+02  0.10566000000E+00 0. -1.
         22    1    1    0    0    0  0.26093724323E+02 -0.97739686569E+01 -0.24796680338E+01  0.27974303671E+02  0.00000000000E+00 0. -1.
</event>
<event>
 5    1  0.1320187E-009  0.9118800E+02  0.7818608E-02  0.1130116E+00
         25   -1    0    0    0    0  0.00000000000E+00  0.00000000000E+00  0.99999998245E-14  0.12500000000E+03  0.12500000000E+03 0.  0.
        -13    1    3    3    0    0  0.12351678897E+02 -0.57082133070E+02 -0.12753202190E+02  0.59779504995E+02  0.10566000000E+00 0.  1.
         23    2    1    0    0    0  0.14967443716E+02 -0.21827558745E+02 -0.13810768532E+02  0.95146959625E+02  0.90342348355E+02 0.  0.
         13    1    3    3    0    0  0.26157648188E+01  0.35254574324E+02 -0.10575663421E+01  0.35367454630E+02  0.10566000000E+00 0. -1.
         22    1    1    0    0    0 -0.14967443716E+02  0.21827558745E+02  0.13810768532E+02  0.29853040375E+02  0.00000000000E+00 0.  1.
</event>
<event>
 5    1  0.1320187E-009  0.9118800E+02  0.7818608E-02  0.1130116E+00
         25   -1    0    0    0    0  0.00000000000E+00  0.00000000000E+00  0.99999998245E-14  0.12500000000E+03  0.12500000000E+03 0.  0.
        -13    1    3    3    0    0 -0.58735936702E+02  0.12211898689E+02 -0.96721517160E+01  0.60766787086E+02  0.10566000000E+00 0.  1.
         23    2    1    0    0    0 -0.24161571253E+02  0.15574093363E+02 -0.36361281904E+01  0.96024918677E+02  0.91549056080E+02 0.  0.
         13    1    3    3    0    0  0.34574365449E+02  0.33621946735E+01  0.60360235256E+01  0.35258131591E+02  0.10566000000E+00 0. -1.
         22    1    1    0    0    0  0.24161571253E+02 -0.15574093363E+02  0.36361281904E+01  0.28975081323E+02  0.00000000000E+00 0.  1.
</event>
<event>
 5    1  0.1320187E-009  0.9118800E+02  0.7818608E-02  0.1130116E+00
         25   -1    0    0    0    0  0.00000000000E+00  0.00000000000E+00  0.99999998245E-14  0.12500000000E+03  0.12500000000E+03 0.  0.
        -13    1    3    3    0    0 -0.21854539834E+02  0.20889947156E+02  0.37286334196E+02  0.48003048709E+02  0.10566000000E+00 0. -1.
         23    2    1    0    0    0 -0.17874725744E+02 -0.19689162315E+02  0.14690376886E+02  0.94619478178E+02  0.89609539361E+02 0.  0.
         13    1    3    3    0    0  0.39798140898E+01 -0.40579109472E+02 -0.22595957309E+02  0.46616429469E+02  0.10566000000E+00 0.  1.
         22    1    1    0    0    0  0.17874725744E+02  0.19689162315E+02 -0.14690376886E+02  0.30380521822E+02  0.00000000000E+00 0. -1.
</event>
<event>
 5    1  0.1320187E-009  0.9118800E+02  0.7818608E-02  0.1130116E+00
         25   -1    0    0    0    0  0.00000000000E+00  0.00000000000E+00  0.99999998245E-14  0.12500000000E+03  0.12500000000E+03 0.  0.
        -13    1    3    3    0    0  0.11142088181E+02  0.29373336762E+02  0.47305221711E+02  0.56786743230E+02  0.10566000000E+00 0. -1.
         23    2    1    0    0    0  0.23409310429E+02  0.13204295221E+02  0.17212575398E+02  0.93084142203E+02  0.87441612238E+02 0.  0.
         13    1    3    3    0    0  0.12267222249E+02 -0.16169041541E+02 -0.30092646313E+02  0.36297398973E+02  0.10566000000E+00 0.  1.
         22    1    1    0    0    0 -0.23409310429E+02 -0.13204295221E+02 -0.17212575398E+02  0.31915857797E+02  0.00000000000E+00 0. -1.
</event>
<event>
 5    1  0.1320187E-009  0.9118800E+02  0.7818608E-02  0.1130116E+00
         25   -1    0    0    0    0  0.00000000000E+00  0.00000000000E+00  0.99999998245E-14  0.12500000000E+03  0.12500000000E+03 0.  0.
        -13    1    3    3    0    0 -0.32143589891E+02 -0.71650813164E+01 -0.45150056695E+02  0.55884591301E+02  0.10566000000E+00 0.  1.
         23    2    1    0    0    0 -0.81690155563E+01 -0.22190368819E+02 -0.16392590964E+02  0.96227403280E+02  0.91825109965E+02 0.  0.
         13    1    3    3    0    0  0.23974574335E+02 -0.15025287503E+02  0.28757465731E+02  0.40342811979E+02  0.10566000000E+00 0. -1.
         22    1    1    0    0    0  0.81690155563E+01  0.22190368819E+02  0.16392590964E+02  0.28772596720E+02  0.00000000000E+00 0.  1.
</event>
<event>
 5    1  0.1320187E-009  0.9118800E+02  0.7818608E-02  0.1130116E+00
         25   -1    0    0    0    0  0.00000000000E+00  0.00000000000E+00  0.99999998245E-14  0.12500000000E+03  0.12500000000E+03 0.  0.
        -13    1    3    3    0    0  0.34259710580E+02 -0.34873527178E+02  0.17907563719E+02  0.52063256422E+02  0.10566000000E+00 0.  1.
         23    2    1    0    0    0 -0.78241890544E+01 -0.25653857576E+02  0.15886179101E+01  0.98132509426E+02  0.94382876394E+02 0.  0.
         13    1    3    3    0    0 -0.42083899634E+02  0.92196696025E+01 -0.16318945809E+02  0.46069253004E+02  0.10566000000E+00 0. -1.
         22    1    1    0    0    0  0.78241890544E+01  0.25653857576E+02 -0.15886179101E+01  0.26867490574E+02  0.00000000000E+00 0.  1.
</event>
<event>
 5    1  0.1320187E-009  0.9118800E+02  0.7818608E-02  0.1130116E+00
         25   -1    0    0    0    0  0.00000000000E+00  0.00000000000E+00  0.99999998245E-14  0.12500000000E+03  0.12500000000E+03 0.  0.
        -13    1    3    3    0    0  0.41161058172E+02  0.22716955396E+01  0.10737206220E+02  0.42599202715E+02  0.10566000000E+00 0. -1.
         23    2    1    0    0    0  0.11275348836E+02  0.24238437362E+02 -0.20675884794E+02  0.91204622370E+02  0.84712192703E+02 0.  0.
         13    1    3    3    0    0 -0.29885709336E+02  0.21966741823E+02 -0.31413091014E+02  0.48605419656E+02  0.10566000000E+00 0.  1.
         22    1    1    0    0    0 -0.11275348836E+02 -0.24238437362E+02  0.20675884794E+02  0.33795377630E+02  0.00000000000E+00 0. -1.
</event>
<event>
 5    1  0.1320187E-009  0.9118800E+02  0.7818608E-02  0.1130116E+00
         25   -1    0    0    0    0  0.00000000000E+00  0.00000000000E+00  0.99999998245E-14  0.12500000000E+03  0.12500000000E+03 0.  0.
        -13    1    3    3    0    0  0.46102150613E+02  0.75787350266E+01  0.34906035157E+02  0.58320562156E+02  0.10566000000E+00 0.  1.
         23    2    1    0    0    0  0.27742828469E+02  0.70626642270E+01  0.16336838697E+01  0.96325713951E+02  0.91958841270E+02 0.  0.
         13    1    3    3    0    0 -0.18359322144E+02 -0.51607079957E+00 -0.33272351288E+02  0.38005151794E+02  0.10566000000E+00 0. -1.
         22    1    1    0    0    0 -0.27742828469E+02 -0.70626642270E+01 -0.16336838697E+01  0.28674286049E+02  0.00000000000E+00 0.  1.
</event>
<event>
 5    1  0.1320187E-009  0.9118800E+02  0.7818608E-02  0.1130116E+00
         25   -1    0    0    0    0  0.00000000000E+00  0.00000000000E+00  0.99999998245E-14  0.12500000000E+03  0.12500000000E+03 0.  0.
        -13    1    3    3    0    0  0.30604485289E+02  0.21640902117E+02  0.48517071451E+01  0.37795679522E+02  0.10566000000E+00 0.  1.
         23    2    1    0    0    0  0.18084625833E+01 -0.24912747351E+02 -0.14811837219E+02  0.95960267920E+02  0.91460740101E+02 0.  0.
         13    1    3    3    0    0 -0.28796022705E+02 -0.46553649469E+02 -0.19663544364E+02  0.58164588398E+02  0.10566000000E+00 0. -1.
         22    1    1    0    0    0 -0.18084625833E+01  0.24912747351E+02  0.14811837219E+02  0.29039732080E+02  0.00000000000E+00 0. -1.
</event>
<event>
 5    1  0.1320187E-009  0.9118800E+02  0.7818608E-02  0.1130116E+00
         25   -1    0    0    0    0  0.00000000000E+00  0.00000000000E+00  0.99999998245E-14  0.12500000000E+03  0.12500000000E+03 0.  0.
        -13    1    3    3    0    0  0.19040977778E+01  0.43097342595E+02 -0.47943912832E+01  0.43405113511E+02  0.10566000000E+00 0. -1.
         23    2    1    0    0    0 -0.84173128292E+01  0.83503235718E+01  0.29438944574E+02  0.93263104805E+02  0.87697070653E+02 0.  0.
         13    1    3    3    0    0 -0.10321410607E+02 -0.34747019023E+02  0.34233335857E+02  0.49857991294E+02  0.10566000000E+00 0.  1.
         22    1    1    0    0    0  0.84173128292E+01 -0.83503235718E+01 -0.29438944574E+02  0.31736895195E+02  0.00000000000E+00 0.  1.
</event>
<event>
 5    1  0.1320187E-009  0.9118800E+02  0.7818608E-02  0.1130116E+00
         25   -1    0    0    0    0  0.00000000000E+00  0.00000000000E+00  0.99999998245E-14  0.12500000000E+03  0.12500000000E+03 0.  0.
        -13    1    3    3    0    0 -0.44731598227E+02  0.39730488971E+02  0.11367725467E+02  0.60898801139E+02  0.10566000000E+00 0.  1.
         23    2    1    0    0    0 -0.24030603102E+02  0.17382574670E+02 -0.40933187189E+01  0.95060410060E+02  0.90222516675E+02 0.  0.
         13    1    3    3    0    0  0.20700995125E+02 -0.22347914301E+02 -0.15461044186E+02  0.34161608922E+02  0.10566000000E+00 0. -1.
         22    1    1    0    0    0  0.24030603102E+02 -0.17382574670E+02  0.40933187189E+01  0.29939589940E+02  0.00000000000E+00 0.  1.
</event>
<event>
 5    1  0.1320187E-009  0.9118800E+02  0.7818608E-02  0.1130116E+00
         25   -1    0    0    0    0  0.00000000000E+00  0.00000000000E+00  0.99999998245E-14  0.12500000000E+03  0.12500000000E+03 0.  0.
        -13    1    3    3    0    0  0.16050920071E+01  0.45819572869E+02  0.38225848695E+02  0.59692849243E+02  0.10566000000E+00 0. -1.
         23    2    1    0    0    0  0.11301778387E+02  0.24404107925E+02  0.10288736369E+02  0.96205056444E+02  0.91794684546E+02 0.  0.
         13    1    3    3    0    0  0.96966863803E+01 -0.21415464944E+02 -0.27937112325E+02  0.36512207201E+02  0.10566000000E+00 0.  1.
         22    1    1    0    0    0 -0.11301778387E+02 -0.24404107925E+02 -0.10288736369E+02  0.28794943556E+02  0.00000000000E+00 0. -1.
</event>
<event>
 5    1  0.1320187E-009  0.9118800E+02  0.7818608E-02  0.1130116E+00
         25   -1    0    0    0    0  0.00000000000E+00  0.00000000000E+00  0.99999998245E-14  0.12500000000E+03  0.12500000000E+03 0.  0.
        -13    1    3    3    0    0  0.50466089382E+01 -0.54037737436E+02 -0.99299865968E+01  0.55173917088E+02  0.10566000000E+00 0. -1.
         23    2    1    0    0    0 -0.44748574626E+01 -0.18619512154E+02 -0.23859647893E+02  0.94405991113E+02  0.89311241052E+02 0.  0.
         13    1    3    3    0    0 -0.95214664008E+01  0.35418225281E+02 -0.13929661296E+02  0.39232074026E+02  0.10566000000E+00 0.  1.
         22    1    1    0    0    0  0.44748574626E+01  0.18619512154E+02  0.23859647893E+02  0.30594008887E+02  0.00000000000E+00 0. -1.
</event>
<event>
 5    1  0.1320187E-009  0.9118800E+02  0.7818608E-02  0.1130116E+00
         25   -1    0    0    0    0  0.00000000000E+00  0.00000000000E+00  0.99999998245E-14  0.12500000000E+03  0.12500000000E+03 0.  0.
        -13    1    3    3    0    0  0.41963953268E+02  0.44500609728E+02 -0.99652131608E+01  0.61972528409E+02  0.10566000000E+00 0. -1.
         23    2    1    0    0    0  0.23666581094E+02  0.18187979418E+02 -0.80815991098E+01  0.94077162159E+02  0.88849820144E+02 0.  0.
         13    1    3    3    0    0 -0.18297372173E+02 -0.26312630310E+02  0.18836140510E+01  0.32104633750E+02  0.10566000000E+00 0.  1.
         22    1    1    0    0    0 -0.23666581094E+02 -0.18187979418E+02  0.80815991098E+01  0.30922837841E+02  0.00000000000E+00 0. -1.
</event>
<event>
 5    1  0.1320187E-009  0.9118800E+02  0.7818608E-02  0.1130116E+00
         25   -1    0    0    0    0  0.00000000000E+00  0.00000000000E+00  0.99999998245E-14  0.12500000000E+03  0.12500000000E+03 0.  0.
        -13    1    3    3    0    0 -0.20098400524E+02  0.14956933507E+02 -0.22828449457E+02  0.33894023547E+02  0.10566000000E+00 0.  1.
         23    2    1    0    0    0  0.17334150378E+02 -0.14924301999E+02  0.17253127510E+02  0.96349031982E+02  0.91990532097E+02 0.  0.
         13    1    3    3    0    0  0.37432550902E+02 -0.29881235506E+02  0.40081576967E+02  0.62455008435E+02  0.10566000000E+00 0. -1.
         22    1    1    0    0    0 -0.17334150378E+02  0.14924301999E+02 -0.17253127510E+02  0.28650968018E+02  0.00000000000E+00 0. -1.
</event>
<event>
 5    1  0.1320187E-009  0.9118800E+02  0.7818608E-02  0.1130116E+00
         25   -1    0    0    0    0  0.00000000000E+00  0.00000000000E+00  0.99999998245E-14  0.12500000000E+03  0.12500000000E+03 0.  0.
        -13    1    3    3    0    0 -0.16738879068E+02  0.90217760284E+01  0.35361966577E+01  0.19341622631E+02  0.10566000000E+00 0.  1.
         23    2    1    0    0    0  0.40249982979E+02 -0.15286320001E+02 -0.40218868435E+01  0.81757563866E+02  0.69385812430E+02 0.  0.
         13    1    3    3    0    0  0.56988862047E+02 -0.24308096030E+02 -0.75580835013E+01  0.62415941235E+02  0.10566000000E+00 0. -1.
         22    1    1    0    0    0 -0.40249982979E+02  0.15286320001E+02  0.40218868435E+01  0.43242436134E+02  0.00000000000E+00 0. -1.
</event>
<event>
 5    1  0.1320187E-009  0.9118800E+02  0.7818608E-02  0.1130116E+00
         25   -1    0    0    0    0  0.00000000000E+00  0.00000000000E+00  0.99999998245E-14  0.12500000000E+03  0.12500000000E+03 0.  0.
        -13    1    3    3    0    0 -0.22031713112E+02 -0.50929235596E+02 -0.91955102868E+01  0.56247239883E+02  0.10566000000E+00 0.  1.
         23    2    1    0    0    0 -0.30979276463E+01 -0.20604183291E+02 -0.22445580795E+02  0.94374298016E+02  0.89266872377E+02 0.  0.
         13    1    3    3    0    0  0.18933785466E+02  0.30325052304E+02 -0.13250070508E+02  0.38127058133E+02  0.10566000000E+00 0. -1.
         22    1    1    0    0    0  0.30979276463E+01  0.20604183291E+02  0.22445580795E+02  0.30625701984E+02  0.00000000000E+00 0.  1.
</event>
<event>
 5    1  0.1320187E-009  0.9118800E+02  0.7818608E-02  0.1130116E+00
         25   -1    0    0    0    0  0.00000000000E+00  0.00000000000E+00  0.99999998245E-14  0.12500000000E+03  0.12500000000E+03 0.  0.
        -13    1    3    3    0    0 -0.18391631323E+02 -0.38495221716E+02  0.36863200592E+02  0.56382984309E+02  0.10566000000E+00 0. -1.
         23    2    1    0    0    0  0.46710088348E+01 -0.26155012504E+01  0.23229444101E+02  0.10116166441E+03  0.98312848108E+02 0.  0.
         13    1    3    3    0    0  0.23062640158E+02  0.35879720465E+02 -0.13633756491E+02  0.44778680103E+02  0.10566000000E+00 0.  1.
         22    1    1    0    0    0 -0.46710088348E+01  0.26155012504E+01 -0.23229444101E+02  0.23838335587E+02  0.00000000000E+00 0.  1.
</event>
<event>
 5    1  0.1320187E-009  0.9118800E+02  0.7818608E-02  0.1130116E+00
         25   -1    0    0    0    0  0.00000000000E+00  0.00000000000E+00  0.99999998245E-14  0.12500000000E+03  0.12500000000E+03 0.  0.
        -13    1    3    3    0    0  0.12149879467E+02 -0.13597626541E+02 -0.52005958726E+02  0.55110306891E+02  0.10566000000E+00 0.  1.
         23    2    1    0    0    0 -0.56207017208E+01  0.13231337315E+02 -0.18556580337E+02  0.10152645641E+03  0.98775574419E+02 0.  0.
         13    1    3    3    0    0 -0.17770581188E+02  0.26828963856E+02  0.33449378388E+02  0.46416149517E+02  0.10566000000E+00 0. -1.
         22    1    1    0    0    0  0.56207017208E+01 -0.13231337315E+02  0.18556580337E+02  0.23473543592E+02  0.00000000000E+00 0.  1.
</event>
<event>
 5    1  0.1320187E-009  0.9118800E+02  0.7818608E-02  0.1130116E+00
         25   -1    0    0    0    0  0.00000000000E+00  0.00000000000E+00  0.99999998245E-14  0.12500000000E+03  0.12500000000E+03 0.  0.
        -13    1    3    3    0    0  0.19437676741E+02 -0.81972253133E+01 -0.26954156455E+02  0.34227992845E+02  0.10566000000E+00 0.  1.
         23    2    1    0    0    0 -0.23138493665E+02 -0.14983908747E+02  0.14339572459E+02  0.93927009337E+02  0.88638323169E+02 0.  0.
         13    1    3    3    0    0 -0.42576170406E+02 -0.67866834341E+01  0.41293728915E+02  0.59699016492E+02  0.10566000000E+00 0. -1.
         22    1    1    0    0    0  0.23138493665E+02  0.14983908747E+02 -0.14339572459E+02  0.31072990663E+02  0.00000000000E+00 0. -1.
</event>
<event>
 5    1  0.1320187E-009  0.9118800E+02  0.7818608E-02  0.1130116E+00
         25   -1    0    0    0    0  0.00000000000E+00  0.00000000000E+00  0.99999998245E-14  0.12500000000E+03  0.12500000000E+03 0.  0.
        -13    1    3    3    0    0 -0.45025762663E+01  0.43158139637E+02 -0.40976365145E+02  0.59682257619E+02  0.10566000000E+00 0. -1.
         23    2    1    0    0    0  0.11180899007E+02  0.18784613350E+02 -0.18570729729E+02  0.96316447152E+02  0.91946244012E+02 0.  0.
         13    1    3    3    0    0  0.15683475273E+02 -0.24373526287E+02  0.22405635415E+02  0.36634189533E+02  0.10566000000E+00 0.  1.
         22    1    1    0    0    0 -0.11180899007E+02 -0.18784613350E+02  0.18570729729E+02  0.28683552848E+02  0.00000000000E+00 0. -1.
</event>
<event>
 5    1  0.1320187E-009  0.9118800E+02  0.7818608E-02  0.1130116E+00
         25   -1    0    0    0    0  0.00000000000E+00  0.00000000000E+00  0.99999998245E-14  0.12500000000E+03  0.12500000000E+03 0.  0.
        -13    1    3    3    0    0 -0.96859284606E+01  0.16208389640E+02 -0.56957202216E+02  0.60005526022E+02  0.10566000000E+00 0. -1.
         23    2    1    0    0    0  0.54285096146E+01 -0.15411907469E+00 -0.27674310689E+02  0.96797873459E+02  0.92598425282E+02 0.  0.
         13    1    3    3    0    0  0.15114438075E+02 -0.16362508715E+02  0.29282891527E+02  0.36792347438E+02  0.10566000000E+00 0.  1.
         22    1    1    0    0    0 -0.54285096146E+01  0.15411907469E+00  0.27674310689E+02  0.28202126541E+02  0.00000000000E+00 0. -1.
</event>
<event>
 5    1  0.1320187E-009  0.9118800E+02  0.7818608E-02  0.1130116E+00
         25   -1    0    0    0    0  0.00000000000E+00  0.00000000000E+00  0.99999998245E-14  0.12500000000E+03  0.12500000000E+03 0.  0.
        -13    1    3    3    0    0  0.31365607040E+02 -0.38879910993E+01 -0.14359511387E+02  0.34714903299E+02  0.10566000000E+00 0.  1.
         23    2    1    0    0    0 -0.24182151479E+02  0.16195820363E+02  0.14437869478E+01  0.95859554428E+02  0.91322990572E+02 0.  0.
         13    1    3    3    0    0 -0.55547758519E+02  0.20083811462E+02  0.15803298334E+02  0.61144651129E+02  0.10566000000E+00 0. -1.
         22    1    1    0    0    0  0.24182151479E+02 -0.16195820363E+02 -0.14437869478E+01  0.29140445572E+02  0.00000000000E+00 0. -1.
</event>
<event>
 5    1  0.1320187E-009  0.9118800E+02  0.7818608E-02  0.1130116E+00
         25   -1    0    0    0    0  0.00000000000E+00  0.00000000000E+00  0.99999998245E-14  0.12500000000E+03  0.12500000000E+03 0.  0.
        -13    1    3    3    0    0 -0.39289723501E+02  0.34636563621E+02  0.15712773500E+02  0.54683419127E+02  0.10566000000E+00 0. -1.
         23    2    1    0    0    0 -0.33481272767E+02  0.74950080263E+00  0.12649422569E+02  0.89201043746E+02  0.81702270082E+02 0.  0.
         13    1    3    3    0    0  0.58084507342E+01 -0.33887062818E+02 -0.30633509315E+01  0.34517624619E+02  0.10566000000E+00 0.  1.
         22    1    1    0    0    0  0.33481272767E+02 -0.74950080263E+00 -0.12649422569E+02  0.35798956254E+02  0.00000000000E+00 0. -1.
</event>
<event>
 5    1  0.1320187E-009  0.9118800E+02  0.7818608E-02  0.1130116E+00
         25   -1    0    0    0    0  0.00000000000E+00  0.00000000000E+00  0.99999998245E-14  0.12500000000E+03  0.12500000000E+03 0.  0.
        -13    1    3    3    0    0 -0.30241535620E+02  0.42343283427E+02  0.16640485475E+02  0.54629854923E+02  0.10566000000E+00 0. -1.
         23    2    1    0    0    0 -0.10422859727E+01  0.13674546464E+02  0.25083246662E+02  0.96412435498E+02  0.92076646738E+02 0.  0.
         13    1    3    3    0    0  0.29199249647E+02 -0.28668736963E+02  0.84427611870E+01  0.41782580575E+02  0.10566000000E+00 0.  1.
         22    1    1    0    0    0  0.10422859727E+01 -0.13674546464E+02 -0.25083246662E+02  0.28587564502E+02  0.00000000000E+00 0. -1.
</event>
<event>
 5    1  0.1320187E-009  0.9118800E+02  0.7818608E-02  0.1130116E+00
         25   -1    0    0    0    0  0.00000000000E+00  0.00000000000E+00  0.99999998245E-14  0.12500000000E+03  0.12500000000E+03 0.  0.
        -13    1    3    3    0    0  0.23436165711E+02 -0.34722605601E+02 -0.23585707785E+02  0.48075045281E+02  0.10566000000E+00 0. -1.
         23    2    1    0    0    0  0.29278164043E+02  0.23051079656E+01  0.49896187755E+01  0.95210392618E+02  0.90430073285E+02 0.  0.
         13    1    3    3    0    0  0.58419983323E+01  0.37027713567E+02  0.28575326561E+02  0.47135347337E+02  0.10566000000E+00 0.  1.
         22    1    1    0    0    0 -0.29278164043E+02 -0.23051079656E+01 -0.49896187755E+01  0.29789607382E+02  0.00000000000E+00 0. -1.
</event>
<event>
 5    1  0.1320187E-009  0.9118800E+02  0.7818608E-02  0.1130116E+00
         25   -1    0    0    0    0  0.00000000000E+00  0.00000000000E+00  0.99999998245E-14  0.12500000000E+03  0.12500000000E+03 0.  0.
        -13    1    3    3    0    0 -0.38858952774E+01 -0.33024198114E+02 -0.21321551656E+02  0.39500855336E+02  0.10566000000E+00 0.  1.
         23    2    1    0    0    0  0.50287816405E+01  0.15104057984E+02 -0.31692039666E+02  0.89534430915E+02  0.82210751904E+02 0.  0.
         13    1    3    3    0    0  0.89146769179E+01  0.48128256098E+02 -0.10370488010E+02  0.50033575579E+02  0.10566000000E+00 0. -1.
         22    1    1    0    0    0 -0.50287816405E+01 -0.15104057984E+02  0.31692039666E+02  0.35465569085E+02  0.00000000000E+00 0. -1.
</event>
<event>
 5    1  0.1320187E-009  0.9118800E+02  0.7818608E-02  0.1130116E+00
         25   -1    0    0    0    0  0.00000000000E+00  0.00000000000E+00  0.99999998245E-14  0.12500000000E+03  0.12500000000E+03 0.  0.
        -13    1    3    3    0    0  0.16938886371E+02 -0.45741058868E+02 -0.13576617363E+02  0.50631077817E+02  0.10566000000E+00 0.  1.
         23    2    1    0    0    0  0.27506963100E+02 -0.27643016884E+01  0.13062191144E+01  0.97323645631E+02  0.93305473621E+02 0.  0.
         13    1    3    3    0    0  0.10568076728E+02  0.42976757179E+02  0.14882836478E+02  0.46692567814E+02  0.10566000000E+00 0. -1.
         22    1    1    0    0    0 -0.27506963100E+02  0.27643016884E+01 -0.13062191144E+01  0.27676354369E+02  0.00000000000E+00 0.  1.
</event>
<event>
 5    1  0.1320187E-009  0.9118800E+02  0.7818608E-02  0.1130116E+00
         25   -1    0    0    0    0  0.00000000000E+00  0.00000000000E+00  0.99999998245E-14  0.12500000000E+03  0.12500000000E+03 0.  0.
        -13    1    3    3    0    0  0.51815753131E+02 -0.13245929402E+02 -0.35858454898E+01  0.53602204900E+02  0.10566000000E+00 0.  1.
         23    2    1    0    0    0  0.23390763922E+02  0.10323812711E+02  0.15430244002E+02  0.95136956355E+02  0.90328506513E+02 0.  0.
         13    1    3    3    0    0 -0.28424989209E+02  0.23569742113E+02  0.19016089492E+02  0.41534751455E+02  0.10566000000E+00 0. -1.
         22    1    1    0    0    0 -0.23390763922E+02 -0.10323812711E+02 -0.15430244002E+02  0.29863043645E+02  0.00000000000E+00 0.  1.
</event>
<event>
 5    1  0.1320187E-009  0.9118800E+02  0.7818608E-02  0.1130116E+00
         25   -1    0    0    0    0  0.00000000000E+00  0.00000000000E+00  0.99999998245E-14  0.12500000000E+03  0.12500000000E+03 0.  0.
        -13    1    3    3    0    0  0.97899210513E+01  0.37870468295E+01 -0.37929881657E+02  0.39355703074E+02  0.10566000000E+00 0. -1.
         23    2    1    0    0    0  0.10909129569E+02  0.23431192369E+02  0.14505664008E+02  0.95361441127E+02  0.90638624668E+02 0.  0.
         13    1    3    3    0    0  0.11192085178E+01  0.19644145539E+02  0.52435545665E+02  0.56005738053E+02  0.10566000000E+00 0.  1.
         22    1    1    0    0    0 -0.10909129569E+02 -0.23431192369E+02 -0.14505664008E+02  0.29638558873E+02  0.00000000000E+00 0.  1.
</event>
<event>
 5    1  0.1320187E-009  0.9118800E+02  0.7818608E-02  0.1130116E+00
         25   -1    0    0    0    0  0.00000000000E+00  0.00000000000E+00  0.99999998245E-14  0.12500000000E+03  0.12500000000E+03 0.  0.
        -13    1    3    3    0    0 -0.83703166599E+01  0.12254923690E+02  0.33968703122E+02  0.37069250214E+02  0.10566000000E+00 0.  1.
         23    2    1    0    0    0 -0.17970440036E+02 -0.21258311228E+02 -0.11937566237E+02  0.94712081633E+02  0.89738622723E+02 0.  0.
         13    1    3    3    0    0 -0.96001233761E+01 -0.33513234917E+02 -0.45906269359E+02  0.57642831419E+02  0.10566000000E+00 0. -1.
         22    1    1    0    0    0  0.17970440036E+02  0.21258311228E+02  0.11937566237E+02  0.30287918367E+02  0.00000000000E+00 0. -1.
</event>
<event>
 5    1  0.1320187E-009  0.9118800E+02  0.7818608E-02  0.1130116E+00
         25   -1    0    0    0    0  0.00000000000E+00  0.00000000000E+00  0.99999998245E-14  0.12500000000E+03  0.12500000000E+03 0.  0.
        -13    1    3    3    0    0 -0.33705426004E+02 -0.43188598585E+02  0.30096045986E+01  0.54866926957E+02  0.10566000000E+00 0. -1.
         23    2    1    0    0    0 -0.26618098190E+02 -0.54553929100E+01 -0.10930404968E+02  0.95712490447E+02  0.91121471739E+02 0.  0.
         13    1    3    3    0    0  0.70873278139E+01  0.37733205675E+02 -0.13940009567E+02  0.40845563490E+02  0.10566000000E+00 0.  1.
         22    1    1    0    0    0  0.26618098190E+02  0.54553929100E+01  0.10930404968E+02  0.29287509553E+02  0.00000000000E+00 0. -1.
</event>
<event>
 5    1  0.1320187E-009  0.9118800E+02  0.7818608E-02  0.1130116E+00
         25   -1    0    0    0    0  0.00000000000E+00  0.00000000000E+00  0.99999998245E-14  0.12500000000E+03  0.12500000000E+03 0.  0.
        -13    1    3    3    0    0  0.17123529114E+02  0.17076756354E+02  0.44686146407E+01  0.24592896083E+02  0.10566000000E+00 0. -1.
         23    2    1    0    0    0 -0.12652309374E+02  0.18727421508E+02 -0.40540592393E+02  0.78585165298E+02  0.63413652508E+02 0.  0.
         13    1    3    3    0    0 -0.29775838488E+02  0.16506651539E+01 -0.45009207034E+02  0.53992269215E+02  0.10566000000E+00 0.  1.
         22    1    1    0    0    0  0.12652309374E+02 -0.18727421508E+02  0.40540592393E+02  0.46414834702E+02  0.00000000000E+00 0.  1.
</event>
<event>
 5    1  0.1320187E-009  0.9118800E+02  0.7818608E-02  0.1130116E+00
         25   -1    0    0    0    0  0.00000000000E+00  0.00000000000E+00  0.99999998245E-14  0.12500000000E+03  0.12500000000E+03 0.  0.
        -13    1    3    3    0    0 -0.29080029737E+02  0.93865051931E+01 -0.49552549386E+02  0.58217015759E+02  0.10566000000E+00 0.  1.
         23    2    1    0    0    0 -0.18171231696E+02  0.17794380129E+02 -0.14859092051E+02  0.95544504042E+02  0.90890736660E+02 0.  0.
         13    1    3    3    0    0  0.10908798041E+02  0.84078749360E+01  0.34693457335E+02  0.37327488283E+02  0.10566000000E+00 0. -1.
         22    1    1    0    0    0  0.18171231696E+02 -0.17794380129E+02  0.14859092051E+02  0.29455495958E+02  0.00000000000E+00 0.  1.
</event>
<event>
 5    1  0.1320187E-009  0.9118800E+02  0.7818608E-02  0.1130116E+00
         25   -1    0    0    0    0  0.00000000000E+00  0.00000000000E+00  0.99999998245E-14  0.12500000000E+03  0.12500000000E+03 0.  0.
        -13    1    3    3    0    0 -0.14712856978E+02 -0.51494670148E+02  0.14864234473E+01  0.53576019195E+02  0.10566000000E+00 0. -1.
         23    2    1    0    0    0 -0.26118492147E+02 -0.94119406256E+01  0.18123790536E+01  0.97178336207E+02  0.93110601178E+02 0.  0.
         13    1    3    3    0    0 -0.11405635169E+02  0.42082729523E+02  0.32595560626E+00  0.43602317012E+02  0.10566000000E+00 0.  1.
         22    1    1    0    0    0  0.26118492147E+02  0.94119406256E+01 -0.18123790536E+01  0.27821663793E+02  0.00000000000E+00 0. -1.
</event>
<event>
 5    1  0.1320187E-009  0.9118800E+02  0.7818608E-02  0.1130116E+00
         25   -1    0    0    0    0  0.00000000000E+00  0.00000000000E+00  0.99999998245E-14  0.12500000000E+03  0.12500000000E+03 0.  0.
        -13    1    3    3    0    0 -0.27890495472E+02  0.79366859121E+01 -0.34899126447E+02  0.45374341998E+02  0.10566000000E+00 0.  1.
         23    2    1    0    0    0  0.80200073049E+01 -0.22211977354E+02 -0.18334827755E+02  0.95102535828E+02  0.90280861521E+02 0.  0.
         13    1    3    3    0    0  0.35910502777E+02 -0.30148663266E+02  0.16564298692E+02  0.49728193830E+02  0.10566000000E+00 0. -1.
         22    1    1    0    0    0 -0.80200073049E+01  0.22211977354E+02  0.18334827755E+02  0.29897464172E+02  0.00000000000E+00 0. -1.
</event>
<event>
 5    1  0.1320187E-009  0.9118800E+02  0.7818608E-02  0.1130116E+00
         25   -1    0    0    0    0  0.00000000000E+00  0.00000000000E+00  0.99999998245E-14  0.12500000000E+03  0.12500000000E+03 0.  0.
        -13    1    3    3    0    0 -0.36586586699E+02  0.27462039758E+02  0.31430443297E+02  0.55503386238E+02  0.10566000000E+00 0. -1.
         23    2    1    0    0    0 -0.18949472787E+01  0.26910040852E+02  0.10322514285E+02  0.96115827431E+02  0.91673097786E+02 0.  0.
         13    1    3    3    0    0  0.34691639420E+02 -0.55199890581E+00 -0.21107929012E+02  0.40612441193E+02  0.10566000000E+00 0.  1.
         22    1    1    0    0    0  0.18949472787E+01 -0.26910040852E+02 -0.10322514285E+02  0.28884172569E+02  0.00000000000E+00 0. -1.
</event>
<event>
 5    1  0.1320187E-009  0.9118800E+02  0.7818608E-02  0.1130116E+00
         25   -1    0    0    0    0  0.00000000000E+00  0.00000000000E+00  0.99999998245E-14  0.12500000000E+03  0.12500000000E+03 0.  0.
        -13    1    3    3    0    0  0.87478391374E+01 -0.11969637875E+02  0.52690753213E+02  0.54736857405E+02  0.10566000000E+00 0. -1.
         23    2    1    0    0    0 -0.14781966847E+02 -0.12636905983E+02  0.37514275832E+02  0.82744600015E+02  0.71141759915E+02 0.  0.
         13    1    3    3    0    0 -0.23529805984E+02 -0.66726810849E+00 -0.15176477381E+02  0.28007742610E+02  0.10566000000E+00 0.  1.
         22    1    1    0    0    0  0.14781966847E+02  0.12636905983E+02 -0.37514275832E+02  0.42255399985E+02  0.00000000000E+00 0. -1.
</event>
<event>
 5    1  0.1320187E-009  0.9118800E+02  0.7818608E-02  0.1130116E+00
         25   -1    0    0    0    0  0.00000000000E+00  0.00000000000E+00  0.99999998245E-14  0.12500000000E+03  0.12500000000E+03 0.  0.
        -13    1    3    3    0    0  0.32922549075E+02 -0.56987494267E+00 -0.22421499208E+02  0.39836588532E+02  0.10566000000E+00 0. -1.
         23    2    1    0    0    0 -0.65974738453E+01  0.28714690590E+02  0.33162409488E+01  0.95351094947E+02  0.90624355097E+02 0.  0.
         13    1    3    3    0    0 -0.39520022921E+02  0.29284565533E+02  0.25737740157E+02  0.55514506415E+02  0.10566000000E+00 0.  1.
         22    1    1    0    0    0  0.65974738453E+01 -0.28714690590E+02 -0.33162409488E+01  0.29648905053E+02  0.00000000000E+00 0.  1.
</event>
<event>
 5    1  0.1320187E-009  0.9118800E+02  0.7818608E-02  0.1130116E+00
         25   -1    0    0    0    0  0.00000000000E+00  0.00000000000E+00  0.99999998245E-14  0.12500000000E+03  0.12500000000E+03 0.  0.
        -13    1    3    3    0    0  0.14758706589E+02 -0.76615887441E+01 -0.44833476015E+02  0.47818104290E+02  0.10566000000E+00 0. -1.
         23    2    1    0    0    0  0.11353219182E+02  0.23106846283E+02 -0.41777996881E+01  0.98917899985E+02  0.95417372613E+02 0.  0.
         13    1    3    3    0    0 -0.34054874070E+01  0.30768435027E+02  0.40655676327E+02  0.51099795696E+02  0.10566000000E+00 0.  1.
         22    1    1    0    0    0 -0.11353219182E+02 -0.23106846283E+02  0.41777996881E+01  0.26082100015E+02  0.00000000000E+00 0.  1.
</event>
<event>
 5    1  0.1320187E-009  0.9118800E+02  0.7818608E-02  0.1130116E+00
         25   -1    0    0    0    0  0.00000000000E+00  0.00000000000E+00  0.99999998245E-14  0.12500000000E+03  0.12500000000E+03 0.  0.
        -13    1    3    3    0    0 -0.19389579663E+02 -0.16054999154E+02  0.32767252297E+02  0.41320972695E+02  0.10566000000E+00 0.  1.
         23    2    1    0    0    0 -0.19933333774E+02  0.21210789139E+02 -0.61973777812E+01  0.95240247605E+02  0.90471331931E+02 0.  0.
         13    1    3    3    0    0 -0.54375411100E+00  0.37265788293E+02 -0.38964630078E+02  0.53919274910E+02  0.10566000000E+00 0. -1.
         22    1    1    0    0    0  0.19933333774E+02 -0.21210789139E+02  0.61973777812E+01  0.29759752395E+02  0.00000000000E+00 0. -1.
</event>
<event>
 5    1  0.1320187E-009  0.9118800E+02  0.7818608E-02  0.1130116E+00
         25   -1    0    0    0    0  0.00000000000E+00  0.00000000000E+00  0.99999998245E-14  0.12500000000E+03  0.12500000000E+03 0.  0.
        -13    1    3    3    0    0  0.14104170256E+02  0.17042737854E+01 -0.40664819834E+02  0.43075177353E+02  0.10566000000E+00 0.  1.
         23    2    1    0    0    0 -0.28042718128E+02 -0.10681555976E+01 -0.10253090288E+02  0.95122569441E+02  0.90308595162E+02 0.  0.
         13    1    3    3    0    0 -0.42146888384E+02 -0.27724293830E+01  0.30411729546E+02  0.52047392088E+02  0.10566000000E+00 0. -1.
         22    1    1    0    0    0  0.28042718128E+02  0.10681555976E+01  0.10253090288E+02  0.29877430559E+02  0.00000000000E+00 0. -1.
</event>
<event>
 5    1  0.1320187E-009  0.9118800E+02  0.7818608E-02  0.1130116E+00
         25   -1    0    0    0    0  0.00000000000E+00  0.00000000000E+00  0.99999998245E-14  0.12500000000E+03  0.12500000000E+03 0.  0.
        -13    1    3    3    0    0  0.92956731227E+01  0.19214427483E+02 -0.53813691446E+02  0.57892385625E+02  0.10566000000E+00 0. -1.
         23    2    1    0    0    0 -0.12711892649E+02  0.95883558172E+01 -0.24335699420E+02  0.95918131968E+02  0.91403134475E+02 0.  0.
         13    1    3    3    0    0 -0.22007565772E+02 -0.96260716661E+01  0.29477992026E+02  0.38025746342E+02  0.10566000000E+00 0.  1.
         22    1    1    0    0    0  0.12711892649E+02 -0.95883558172E+01  0.24335699420E+02  0.29081868032E+02  0.00000000000E+00 0. -1.
</event>
<event>
 5    1  0.1320187E-009  0.9118800E+02  0.7818608E-02  0.1130116E+00
         25   -1    0    0    0    0  0.00000000000E+00  0.00000000000E+00  0.99999998245E-14  0.12500000000E+03  0.12500000000E+03 0.  0.
        -13    1    3    3    0    0  0.46757112583E+02 -0.18456626123E+02  0.18699132612E+02  0.53633416350E+02  0.10566000000E+00 0.  1.
         23    2    1    0    0    0  0.17727747262E+02  0.11780236420E+02  0.20308828365E+02  0.95580695068E+02  0.90940495749E+02 0.  0.
         13    1    3    3    0    0 -0.29029365320E+02  0.30236862544E+02  0.16096957532E+01  0.41947278718E+02  0.10566000000E+00 0. -1.
         22    1    1    0    0    0 -0.17727747262E+02 -0.11780236420E+02 -0.20308828365E+02  0.29419304932E+02  0.00000000000E+00 0.  1.
</event>
<event>
 5    1  0.1320187E-009  0.9118800E+02  0.7818608E-02  0.1130116E+00
         25   -1    0    0    0    0  0.00000000000E+00  0.00000000000E+00  0.99999998245E-14  0.12500000000E+03  0.12500000000E+03 0.  0.
        -13    1    3    3    0    0 -0.12334019140E+02 -0.25273186188E+02 -0.94685773986E+01  0.29673676723E+02  0.10566000000E+00 0. -1.
         23    2    1    0    0    0  0.19799053950E+02 -0.27950325444E+02  0.29177573670E+02  0.80004955439E+02  0.66153147014E+02 0.  0.
         13    1    3    3    0    0  0.32133073090E+02 -0.26771392562E+01  0.38646151068E+02  0.50331278717E+02  0.10566000000E+00 0.  1.
         22    1    1    0    0    0 -0.19799053950E+02  0.27950325444E+02 -0.29177573670E+02  0.44995044561E+02  0.00000000000E+00 0.  1.
</event>
<event>
 5    1  0.1320187E-009  0.9118800E+02  0.7818608E-02  0.1130116E+00
         25   -1    0    0    0    0  0.00000000000E+00  0.00000000000E+00  0.99999998245E-14  0.12500000000E+03  0.12500000000E+03 0.  0.
        -13    1    3    3    0    0 -0.94969648350E+01  0.75714517960E+01  0.26580937735E+02  0.29224589617E+02  0.10566000000E+00 0.  1.
         23    2    1    0    0    0 -0.24533471968E+02 -0.27674749156E+02 -0.14383282472E+02  0.85317991453E+02  0.75528126306E+02 0.  0.
         13    1    3    3    0    0 -0.15036507133E+02 -0.35246200952E+02 -0.40964220207E+02  0.56093401836E+02  0.10566000000E+00 0. -1.
         22    1    1    0    0    0  0.24533471968E+02  0.27674749156E+02  0.14383282472E+02  0.39682008547E+02  0.00000000000E+00 0. -1.
</event>
<event>
 5    1  0.1320187E-009  0.9118800E+02  0.7818608E-02  0.1130116E+00
         25   -1    0    0    0    0  0.00000000000E+00  0.00000000000E+00  0.99999998245E-14  0.12500000000E+03  0.12500000000E+03 0.  0.
        -13    1    3    3    0    0 -0.10100331834E+02 -0.13361196786E+02  0.30800732540E+02  0.35060441694E+02  0.10566000000E+00 0.  1.
         23    2    1    0    0    0 -0.93580962190E+01 -0.82504273710E+01 -0.28135484490E+02  0.94222589386E+02  0.89054182083E+02 0.  0.
         13    1    3    3    0    0  0.74223561483E+00  0.51107694151E+01 -0.58936217030E+02  0.59162147692E+02  0.10566000000E+00 0. -1.
         22    1    1    0    0    0  0.93580962190E+01  0.82504273710E+01  0.28135484490E+02  0.30777410614E+02  0.00000000000E+00 0. -1.
</event>
<event>
 5    1  0.1320187E-009  0.9118800E+02  0.7818608E-02  0.1130116E+00
         25   -1    0    0    0    0  0.00000000000E+00  0.00000000000E+00  0.99999998245E-14  0.12500000000E+03  0.12500000000E+03 0.  0.
        -13    1    3    3    0    0  0.32350467241E+02  0.87955328644E+01  0.92747602848E+01  0.34784284835E+02  0.10566000000E+00 0.  1.
         23    2    1    0    0    0 -0.20425682976E+02 -0.40944364035E+01 -0.19676502221E+02  0.96344500106E+02  0.91984373817E+02 0.  0.
         13    1    3    3    0    0 -0.52776150217E+02 -0.12889969268E+02 -0.28951262506E+02  0.61560215271E+02  0.10566000000E+00 0. -1.
         22    1    1    0    0    0  0.20425682976E+02  0.40944364035E+01  0.19676502221E+02  0.28655499894E+02  0.00000000000E+00 0. -1.
</event>
<event>
 5    1  0.1320187E-009  0.9118800E+02  0.7818608E-02  0.1130116E+00
         25   -1    0    0    0    0  0.00000000000E+00  0.00000000000E+00  0.99999998245E-14  0.12500000000E+03  0.12500000000E+03 0.  0.
        -13    1    3    3    0    0  0.19301656046E+02  0.52909664908E+01  0.55249239754E+02  0.58762555339E+02  0.10566000000E+00 0. -1.
         23    2    1    0    0    0  0.13860049367E+01  0.15736202648E+02  0.24126443652E+02  0.96161928519E+02  0.91735936959E+02 0.  0.
         13    1    3    3    0    0 -0.17915651109E+02  0.10445236157E+02 -0.31122796101E+02  0.37399373180E+02  0.10566000000E+00 0.  1.
         22    1    1    0    0    0 -0.13860049367E+01 -0.15736202648E+02 -0.24126443652E+02  0.28838071481E+02  0.00000000000E+00 0. -1.
</event>
<event>
 5    1  0.1320187E-009  0.9118800E+02  0.7818608E-02  0.1130116E+00
         25   -1    0    0    0    0  0.00000000000E+00  0.00000000000E+00  0.99999998245E-14  0.12500000000E+03  0.12500000000E+03 0.  0.
        -13    1    3    3    0    0  0.16918819975E+02  0.47863306961E+02 -0.33496630674E+02  0.60820868566E+02  0.10566000000E+00 0.  1.
         23    2    1    0    0    0  0.14385283407E+02  0.23141891021E+02 -0.76025180892E+01  0.96710747978E+02  0.92480738505E+02 0.  0.
         13    1    3    3    0    0 -0.25335365683E+01 -0.24721415940E+02  0.25894112584E+02  0.35889879412E+02  0.10566000000E+00 0. -1.
         22    1    1    0    0    0 -0.14385283407E+02 -0.23141891021E+02  0.76025180892E+01  0.28289252022E+02  0.00000000000E+00 0.  1.
</event>
<event>
 5    1  0.1320187E-009  0.9118800E+02  0.7818608E-02  0.1130116E+00
         25   -1    0    0    0    0  0.00000000000E+00  0.00000000000E+00  0.99999998245E-14  0.12500000000E+03  0.12500000000E+03 0.  0.
        -13    1    3    3    0    0 -0.41680553942E+02 -0.42826908156E+02  0.80133329342E+01  0.60296246217E+02  0.10566000000E+00 0. -1.
         23    2    1    0    0    0 -0.29010190993E+02 -0.13399092478E+02  0.66208182990E+01  0.92366243004E+02  0.86409263109E+02 0.  0.
         13    1    3    3    0    0  0.12670362949E+02  0.29427815678E+02 -0.13925146352E+01  0.32069996787E+02  0.10566000000E+00 0.  1.
         22    1    1    0    0    0  0.29010190993E+02  0.13399092478E+02 -0.66208182990E+01  0.32633756996E+02  0.00000000000E+00 0. -1.
</event>
<event>
 5    1  0.1320187E-009  0.9118800E+02  0.7818608E-02  0.1130116E+00
         25   -1    0    0    0    0  0.00000000000E+00  0.00000000000E+00  0.99999998245E-14  0.12500000000E+03  0.12500000000E+03 0.  0.
        -13    1    3    3    0    0 -0.15944835255E+02  0.12808240716E+02  0.36043427228E+02  0.41441870276E+02  0.10566000000E+00 0.  1.
         23    2    1    0    0    0  0.28196795575E+02 -0.16311452513E+01  0.82097713523E+01  0.95587073230E+02  0.90949262270E+02 0.  0.
         13    1    3    3    0    0  0.44141630830E+02 -0.14439385967E+02 -0.27833655876E+02  0.54145202954E+02  0.10566000000E+00 0. -1.
         22    1    1    0    0    0 -0.28196795575E+02  0.16311452513E+01 -0.82097713523E+01  0.29412926770E+02  0.00000000000E+00 0. -1.
</event>
<event>
 5    1  0.1320187E-009  0.9118800E+02  0.7818608E-02  0.1130116E+00
         25   -1    0    0    0    0  0.00000000000E+00  0.00000000000E+00  0.99999998245E-14  0.12500000000E+03  0.12500000000E+03 0.  0.
        -13    1    3    3    0    0 -0.15782001487E+02  0.10269582008E+02 -0.33443327874E+02  0.38379724190E+02  0.10566000000E+00 0. -1.
         23    2    1    0    0    0 -0.81918395919E+01 -0.30835672434E+02  0.17847127984E+01  0.93044873179E+02  0.87385458143E+02 0.  0.
         13    1    3    3    0    0  0.75901618956E+01 -0.41105254442E+02  0.35228040673E+02  0.54665148989E+02  0.10566000000E+00 0.  1.
         22    1    1    0    0    0  0.81918395919E+01  0.30835672434E+02 -0.17847127984E+01  0.31955126821E+02  0.00000000000E+00 0.  1.
</event>
<event>
 5    1  0.1320187E-009  0.9118800E+02  0.7818608E-02  0.1130116E+00
         25   -1    0    0    0    0  0.00000000000E+00  0.00000000000E+00  0.99999998245E-14  0.12500000000E+03  0.12500000000E+03 0.  0.
        -13    1    3    3    0    0 -0.42511126502E+02 -0.97214709051E+01 -0.26718756527E+02  0.51142995487E+02  0.10566000000E+00 0.  1.
         23    2    1    0    0    0 -0.16887109745E+02  0.21539525915E+02 -0.45179082692E+01  0.97259467429E+02  0.93219455358E+02 0.  0.
         13    1    3    3    0    0  0.25624016757E+02  0.31260996820E+02  0.22200848258E+02  0.46116471942E+02  0.10566000000E+00 0. -1.
         22    1    1    0    0    0  0.16887109745E+02 -0.21539525915E+02  0.45179082692E+01  0.27740532571E+02  0.00000000000E+00 0. -1.
</event>
<event>
 5    1  0.1320187E-009  0.9118800E+02  0.7818608E-02  0.1130116E+00
         25   -1    0    0    0    0  0.00000000000E+00  0.00000000000E+00  0.99999998245E-14  0.12500000000E+03  0.12500000000E+03 0.  0.
        -13    1    3    3    0    0 -0.28819701303E+02 -0.20375034138E+02  0.19088616714E+02  0.40126096887E+02  0.10566000000E+00 0. -1.
         23    2    1    0    0    0  0.44897425966E+01 -0.17043131236E+02 -0.24333600035E+02  0.94954198270E+02  0.90075243921E+02 0.  0.
         13    1    3    3    0    0  0.33309443900E+02  0.33319029016E+01 -0.43422216749E+02  0.54828101383E+02  0.10566000000E+00 0.  1.
         22    1    1    0    0    0 -0.44897425966E+01  0.17043131236E+02  0.24333600035E+02  0.30045801730E+02  0.00000000000E+00 0.  1.
</event>
<event>
 5    1  0.1320187E-009  0.9118800E+02  0.7818608E-02  0.1130116E+00
         25   -1    0    0    0    0  0.00000000000E+00  0.00000000000E+00  0.99999998245E-14  0.12500000000E+03  0.12500000000E+03 0.  0.
        -13    1    3    3    0    0  0.18819786198E+02 -0.14264615499E+02 -0.20293141123E+02  0.31136575736E+02  0.10566000000E+00 0. -1.
         23    2    1    0    0    0  0.11331290169E+02  0.28685541826E+02  0.18107537976E+02  0.89234913976E+02  0.81754073257E+02 0.  0.
         13    1    3    3    0    0 -0.74884960285E+01  0.42950157325E+02  0.38400679099E+02  0.58098338241E+02  0.10566000000E+00 0.  1.
         22    1    1    0    0    0 -0.11331290169E+02 -0.28685541826E+02 -0.18107537976E+02  0.35765086024E+02  0.00000000000E+00 0.  1.
</event>
<event>
 5    1  0.1320187E-009  0.9118800E+02  0.7818608E-02  0.1130116E+00
         25   -1    0    0    0    0  0.00000000000E+00  0.00000000000E+00  0.99999998245E-14  0.12500000000E+03  0.12500000000E+03 0.  0.
        -13    1    3    3    0    0 -0.43378569650E+02 -0.17933684282E+02 -0.17808769749E+02  0.50204390055E+02  0.10566000000E+00 0.  1.
         23    2    1    0    0    0 -0.28369138487E+02  0.13570076233E+02  0.66983835650E+01  0.92846876826E+02  0.87101774991E+02 0.  0.
         13    1    3    3    0    0  0.15009431163E+02  0.31503760515E+02  0.24507153314E+02  0.42642486771E+02  0.10566000000E+00 0. -1.
         22    1    1    0    0    0  0.28369138487E+02 -0.13570076233E+02 -0.66983835650E+01  0.32153123174E+02  0.00000000000E+00 0. -1.
</event>
<event>
 5    1  0.1320187E-009  0.9118800E+02  0.7818608E-02  0.1130116E+00
         25   -1    0    0    0    0  0.00000000000E+00  0.00000000000E+00  0.99999998245E-14  0.12500000000E+03  0.12500000000E+03 0.  0.
        -13    1    3    3    0    0  0.98561000754E+00  0.13062376401E+02 -0.56019977118E+02  0.57531261977E+02  0.10566000000E+00 0.  1.
         23    2    1    0    0    0 -0.16476502333E+02  0.94780119193E+01 -0.22101770568E+02  0.95848737569E+02  0.91308183600E+02 0.  0.
         13    1    3    3    0    0 -0.17462112340E+02 -0.35843644813E+01  0.33918206550E+02  0.38317475592E+02  0.10566000000E+00 0. -1.
         22    1    1    0    0    0  0.16476502333E+02 -0.94780119193E+01  0.22101770568E+02  0.29151262431E+02  0.00000000000E+00 0.  1.
</event>
<event>
 5    1  0.1320187E-009  0.9118800E+02  0.7818608E-02  0.1130116E+00
         25   -1    0    0    0    0  0.00000000000E+00  0.00000000000E+00  0.99999998245E-14  0.12500000000E+03  0.12500000000E+03 0.  0.
        -13    1    3    3    0    0 -0.30030821305E+02 -0.21257935308E+02  0.26912539711E+01  0.36891788433E+02  0.10566000000E+00 0. -1.
         23    2    1    0    0    0  0.26632042219E+02 -0.65672206366E+01 -0.80669542921E+01  0.96408571018E+02  0.92071400308E+02 0.  0.
         13    1    3    3    0    0  0.56662863524E+02  0.14690714672E+02 -0.10758208263E+02  0.59516782586E+02  0.10566000000E+00 0.  1.
         22    1    1    0    0    0 -0.26632042219E+02  0.65672206366E+01  0.80669542921E+01  0.28591428982E+02  0.00000000000E+00 0.  1.
</event>
<event>
 5    1  0.1320187E-009  0.9118800E+02  0.7818608E-02  0.1130116E+00
         25   -1    0    0    0    0  0.00000000000E+00  0.00000000000E+00  0.99999998245E-14  0.12500000000E+03  0.12500000000E+03 0.  0.
        -13    1    3    3    0    0  0.28904073618E+02 -0.33728908649E+02  0.41609019573E+02  0.60863835109E+02  0.10566000000E+00 0.  1.
         23    2    1    0    0    0  0.89471593450E+01 -0.24181449557E+02  0.16222699450E+02  0.94537397674E+02  0.89494968677E+02 0.  0.
         13    1    3    3    0    0 -0.19956914273E+02  0.95474590926E+01 -0.25386320123E+02  0.33673562565E+02  0.10566000000E+00 0. -1.
         22    1    1    0    0    0 -0.89471593450E+01  0.24181449557E+02 -0.16222699450E+02  0.30462602326E+02  0.00000000000E+00 0.  1.
</event>
<event>
 5    1  0.1320187E-009  0.9118800E+02  0.7818608E-02  0.1130116E+00
         25   -1    0    0    0    0  0.00000000000E+00  0.00000000000E+00  0.99999998245E-14  0.12500000000E+03  0.12500000000E+03 0.  0.
        -13    1    3    3    0    0  0.24584360037E+02 -0.37099686863E+02 -0.38919551275E+02  0.59122924143E+02  0.10566000000E+00 0.  1.
         23    2    1    0    0    0 -0.17247785973E+01 -0.21890964907E+02 -0.22053570619E+02  0.93878477177E+02  0.88569855449E+02 0.  0.
         13    1    3    3    0    0 -0.26309138634E+02  0.15208721956E+02  0.16865980656E+02  0.34755553034E+02  0.10566000000E+00 0. -1.
         22    1    1    0    0    0  0.17247785973E+01  0.21890964907E+02  0.22053570619E+02  0.31121522823E+02  0.00000000000E+00 0.  1.
</event>
<event>
 5    1  0.1320187E-009  0.9118800E+02  0.7818608E-02  0.1130116E+00
         25   -1    0    0    0    0  0.00000000000E+00  0.00000000000E+00  0.99999998245E-14  0.12500000000E+03  0.12500000000E+03 0.  0.
        -13    1    3    3    0    0  0.22561141152E+02 -0.16606595883E+02 -0.30900370646E+02  0.41708850224E+02  0.10566000000E+00 0. -1.
         23    2    1    0    0    0 -0.52458642009E+01 -0.25718943524E+02  0.13960592822E+02  0.95269858743E+02  0.90512235005E+02 0.  0.
         13    1    3    3    0    0 -0.27807005353E+02 -0.91123476418E+01  0.44860963468E+02  0.53561008519E+02  0.10566000000E+00 0.  1.
         22    1    1    0    0    0  0.52458642009E+01  0.25718943524E+02 -0.13960592822E+02  0.29730141257E+02  0.00000000000E+00 0.  1.
</event>
<event>
 5    1  0.1320187E-009  0.9118800E+02  0.7818608E-02  0.1130116E+00
         25   -1    0    0    0    0  0.00000000000E+00  0.00000000000E+00  0.99999998245E-14  0.12500000000E+03  0.12500000000E+03 0.  0.
        -13    1    3    3    0    0 -0.23706799147E+02 -0.48061997611E+02 -0.22370637881E+02  0.58072579961E+02  0.10566000000E+00 0. -1.
         23    2    1    0    0    0 -0.29279619027E+01 -0.40224188182E+02 -0.18553549613E+02  0.80606391461E+02  0.67279996027E+02 0.  0.
         13    1    3    3    0    0  0.20778837244E+02  0.78378094281E+01  0.38170882682E+01  0.22533811500E+02  0.10566000000E+00 0.  1.
         22    1    1    0    0    0  0.29279619027E+01  0.40224188182E+02  0.18553549613E+02  0.44393608539E+02  0.00000000000E+00 0. -1.
</event>
<event>
 5    1  0.1320187E-009  0.9118800E+02  0.7818608E-02  0.1130116E+00
         25   -1    0    0    0    0  0.00000000000E+00  0.00000000000E+00  0.99999998245E-14  0.12500000000E+03  0.12500000000E+03 0.  0.
        -13    1    3    3    0    0  0.43652188413E+02 -0.48897598642E+01 -0.72563660760E+01  0.44520661691E+02  0.10566000000E+00 0. -1.
         23    2    1    0    0    0  0.72479270545E+01  0.29035845967E+02  0.14492324129E+01  0.95038139708E+02  0.90191656637E+02 0.  0.
         13    1    3    3    0    0 -0.36404261358E+02  0.33925605831E+02  0.87055984889E+01  0.50517478016E+02  0.10566000000E+00 0.  1.
         22    1    1    0    0    0 -0.72479270545E+01 -0.29035845967E+02 -0.14492324129E+01  0.29961860292E+02  0.00000000000E+00 0.  1.
</event>
<event>
 5    1  0.1320187E-009  0.9118800E+02  0.7818608E-02  0.1130116E+00
         25   -1    0    0    0    0  0.00000000000E+00  0.00000000000E+00  0.99999998245E-14  0.12500000000E+03  0.12500000000E+03 0.  0.
        -13    1    3    3    0    0  0.23883172677E+02  0.31767591550E+01 -0.50885976549E+02  0.56301789574E+02  0.10566000000E+00 0.  1.
         23    2    1    0    0    0  0.10986597429E+02 -0.18039253079E+02 -0.20203963694E+02  0.95771244918E+02  0.91202035227E+02 0.  0.
         13    1    3    3    0    0 -0.12896575248E+02 -0.21216012234E+02  0.30682012856E+02  0.39469455344E+02  0.10566000000E+00 0. -1.
         22    1    1    0    0    0 -0.10986597429E+02  0.18039253079E+02  0.20203963694E+02  0.29228755082E+02  0.00000000000E+00 0.  1.
</event>
<event>
 5    1  0.1320187E-009  0.9118800E+02  0.7818608E-02  0.1130116E+00
         25   -1    0    0    0    0  0.00000000000E+00  0.00000000000E+00  0.99999998245E-14  0.12500000000E+03  0.12500000000E+03 0.  0.
        -13    1    3    3    0    0  0.38317482615E+02 -0.14390930949E+02 -0.31069916568E+02  0.51387539804E+02  0.10566000000E+00 0. -1.
         23    2    1    0    0    0  0.27244167561E+02  0.99090291681E+01  0.42855455337E+01  0.95694720175E+02  0.91097091302E+02 0.  0.
         13    1    3    3    0    0 -0.11073315054E+02  0.24299960117E+02  0.35355462101E+02  0.44307180371E+02  0.10566000000E+00 0.  1.
         22    1    1    0    0    0 -0.27244167561E+02 -0.99090291681E+01 -0.42855455337E+01  0.29305279825E+02  0.00000000000E+00 0.  1.
</event>
<event>
 5    1  0.1320187E-009  0.9118800E+02  0.7818608E-02  0.1130116E+00
         25   -1    0    0    0    0  0.00000000000E+00  0.00000000000E+00  0.99999998245E-14  0.12500000000E+03  0.12500000000E+03 0.  0.
        -13    1    3    3    0    0  0.15607371623E+02 -0.69272877472E+01 -0.32483950701E+02  0.36698713624E+02  0.10566000000E+00 0.  1.
         23    2    1    0    0    0  0.33939977198E+01 -0.66627423264E+01  0.26773280212E+02  0.97202160351E+02  0.93142579349E+02 0.  0.
         13    1    3    3    0    0 -0.12213373903E+02  0.26454542078E+00  0.59257230913E+02  0.60503446727E+02  0.10566000000E+00 0. -1.
         22    1    1    0    0    0 -0.33939977198E+01  0.66627423264E+01 -0.26773280212E+02  0.27797839649E+02  0.00000000000E+00 0. -1.
</event>
<event>
 5    1  0.1320187E-009  0.9118800E+02  0.7818608E-02  0.1130116E+00
         25   -1    0    0    0    0  0.00000000000E+00  0.00000000000E+00  0.99999998245E-14  0.12500000000E+03  0.12500000000E+03 0.  0.
        -13    1    3    3    0    0 -0.19320081630E+02 -0.26584035307E+02 -0.19784173114E+02  0.38358847183E+02  0.10566000000E+00 0. -1.
         23    2    1    0    0    0  0.75350669732E+01 -0.85946120259E+01  0.27261776711E+02  0.95439061929E+02  0.90745608612E+02 0.  0.
         13    1    3    3    0    0  0.26855148603E+02  0.17989423281E+02  0.47045949825E+02  0.57080214746E+02  0.10566000000E+00 0.  1.
         22    1    1    0    0    0 -0.75350669732E+01  0.85946120259E+01 -0.27261776711E+02  0.29560938071E+02  0.00000000000E+00 0.  1.
</event>
<event>
 5    1  0.1320187E-009  0.9118800E+02  0.7818608E-02  0.1130116E+00
         25   -1    0    0    0    0  0.00000000000E+00  0.00000000000E+00  0.99999998245E-14  0.12500000000E+03  0.12500000000E+03 0.  0.
        -13    1    3    3    0    0  0.19618491169E+02  0.26757232130E+02  0.14428303822E+02  0.36180406054E+02  0.10566000000E+00 0. -1.
         23    2    1    0    0    0 -0.86279358450E+01 -0.25594370788E+02  0.11220231682E+02  0.95752663506E+02  0.91176564295E+02 0.  0.
         13    1    3    3    0    0 -0.28246427014E+02 -0.52351602918E+02 -0.32080721401E+01  0.59572257452E+02  0.10566000000E+00 0.  1.
         22    1    1    0    0    0  0.86279358450E+01  0.25594370788E+02 -0.11220231682E+02  0.29247336494E+02  0.00000000000E+00 0.  1.
</event>
<event>
 5    1  0.1320187E-009  0.9118800E+02  0.7818608E-02  0.1130116E+00
         25   -1    0    0    0    0  0.00000000000E+00  0.00000000000E+00  0.99999998245E-14  0.12500000000E+03  0.12500000000E+03 0.  0.
        -13    1    3    3    0    0  0.47734932205E+02  0.22179562716E+02 -0.11373911234E+02  0.53851033190E+02  0.10566000000E+00 0.  1.
         23    2    1    0    0    0  0.13187782777E+02  0.37917384186E+01 -0.25975917483E+02  0.95622403367E+02  0.90997806797E+02 0.  0.
         13    1    3    3    0    0 -0.34547149427E+02 -0.18387824297E+02 -0.14602006249E+02  0.41771370177E+02  0.10566000000E+00 0. -1.
         22    1    1    0    0    0 -0.13187782777E+02 -0.37917384186E+01  0.25975917483E+02  0.29377596633E+02  0.00000000000E+00 0.  1.
</event>
<event>
 5    1  0.1320187E-009  0.9118800E+02  0.7818608E-02  0.1130116E+00
         25   -1    0    0    0    0  0.00000000000E+00  0.00000000000E+00  0.99999998245E-14  0.12500000000E+03  0.12500000000E+03 0.  0.
        -13    1    3    3    0    0 -0.25962710494E+02  0.85377581615E+01  0.53730139866E+02  0.60281794471E+02  0.10566000000E+00 0. -1.
         23    2    1    0    0    0 -0.12906267639E+02  0.15214856777E+02  0.21628534001E+02  0.95574550231E+02  0.90932049123E+02 0.  0.
         13    1    3    3    0    0  0.13056442855E+02  0.66770986155E+01 -0.32101605865E+02  0.35292755760E+02  0.10566000000E+00 0.  1.
         22    1    1    0    0    0  0.12906267639E+02 -0.15214856777E+02 -0.21628534001E+02  0.29425449769E+02  0.00000000000E+00 0. -1.
</event>
<event>
 5    1  0.1320187E-009  0.9118800E+02  0.7818608E-02  0.1130116E+00
         25   -1    0    0    0    0  0.00000000000E+00  0.00000000000E+00  0.99999998245E-14  0.12500000000E+03  0.12500000000E+03 0.  0.
        -13    1    3    3    0    0  0.44233738474E+01 -0.51807625169E+02 -0.66301595669E+00  0.52000452075E+02  0.10566000000E+00 0.  1.
         23    2    1    0    0    0 -0.21354618455E+02 -0.17127737269E+02  0.88188538782E+01  0.96239761874E+02  0.91841931973E+02 0.  0.
         13    1    3    3    0    0 -0.25777992302E+02  0.34679887900E+02  0.94818698349E+01  0.44239309799E+02  0.10566000000E+00 0. -1.
         22    1    1    0    0    0  0.21354618455E+02  0.17127737269E+02 -0.88188538782E+01  0.28760238126E+02  0.00000000000E+00 0. -1.
</event>
<event>
 5    1  0.1320187E-009  0.9118800E+02  0.7818608E-02  0.1130116E+00
         25   -1    0    0    0    0  0.00000000000E+00  0.00000000000E+00  0.99999998245E-14  0.12500000000E+03  0.12500000000E+03 0.  0.
        -13    1    3    3    0    0  0.35012778272E+02 -0.32235946790E+02  0.29028700847E+02  0.55746995835E+02  0.10566000000E+00 0.  1.
         23    2    1    0    0    0  0.17162915458E+02  0.30830439005E+01  0.23548433001E+02  0.95698131057E+02  0.91101771467E+02 0.  0.
         13    1    3    3    0    0 -0.17849862813E+02  0.35318990691E+02 -0.54802678458E+01  0.39951135222E+02  0.10566000000E+00 0. -1.
         22    1    1    0    0    0 -0.17162915458E+02 -0.30830439005E+01 -0.23548433001E+02  0.29301868943E+02  0.00000000000E+00 0.  1.
</event>
<event>
 5    1  0.1320187E-009  0.9118800E+02  0.7818608E-02  0.1130116E+00
         25   -1    0    0    0    0  0.00000000000E+00  0.00000000000E+00  0.99999998245E-14  0.12500000000E+03  0.12500000000E+03 0.  0.
        -13    1    3    3    0    0  0.30938252525E+02 -0.66706329721E+01 -0.29843762431E+02  0.43500967042E+02  0.10566000000E+00 0.  1.
         23    2    1    0    0    0  0.13656863593E+01 -0.13916170254E+02  0.19212355350E+02  0.10123785591E+03  0.98409674204E+02 0.  0.
         13    1    3    3    0    0 -0.29572566166E+02 -0.72455372822E+01  0.49056117780E+02  0.57736888865E+02  0.10566000000E+00 0. -1.
         22    1    1    0    0    0 -0.13656863593E+01  0.13916170254E+02 -0.19212355350E+02  0.23762144092E+02  0.00000000000E+00 0. -1.
</event>
<event>
 5    1  0.1320187E-009  0.9118800E+02  0.7818608E-02  0.1130116E+00
         25   -1    0    0    0    0  0.00000000000E+00  0.00000000000E+00  0.99999998245E-14  0.12500000000E+03  0.12500000000E+03 0.  0.
        -13    1    3    3    0    0  0.19393472575E+02 -0.53867288604E+02  0.83765731988E+00  0.57258225557E+02  0.10566000000E+00 0.  1.
         23    2    1    0    0    0  0.22178363890E+02 -0.15827420458E+02  0.90792959500E+01  0.96280308530E+02  0.91897100784E+02 0.  0.
         13    1    3    3    0    0  0.27848913151E+01  0.38039868146E+02  0.82416386302E+01  0.39022082973E+02  0.10566000000E+00 0. -1.
         22    1    1    0    0    0 -0.22178363890E+02  0.15827420458E+02 -0.90792959500E+01  0.28719691470E+02  0.00000000000E+00 0.  1.
</event>
<event>
 5    1  0.1320187E-009  0.9118800E+02  0.7818608E-02  0.1130116E+00
         25   -1    0    0    0    0  0.00000000000E+00  0.00000000000E+00  0.99999998245E-14  0.12500000000E+03  0.12500000000E+03 0.  0.
        -13    1    3    3    0    0 -0.24479582716E+02 -0.45817368902E+02 -0.23783847949E+02  0.57132861388E+02  0.10566000000E+00 0.  1.
         23    2    1    0    0    0 -0.25452426180E+02 -0.14341036347E+02 -0.14322853031E+01  0.95750337384E+02  0.91173375203E+02 0.  0.
         13    1    3    3    0    0 -0.97284346447E+00  0.31476332555E+02  0.22351562646E+02  0.38617475996E+02  0.10566000000E+00 0. -1.
         22    1    1    0    0    0  0.25452426180E+02  0.14341036347E+02  0.14322853031E+01  0.29249662616E+02  0.00000000000E+00 0.  1.
</event>
<event>
 5    1  0.1320187E-009  0.9118800E+02  0.7818608E-02  0.1130116E+00
         25   -1    0    0    0    0  0.00000000000E+00  0.00000000000E+00  0.99999998245E-14  0.12500000000E+03  0.12500000000E+03 0.  0.
        -13    1    3    3    0    0  0.27849408924E+02  0.27938097442E+00 -0.21202038493E+02  0.35002931755E+02  0.10566000000E+00 0.  1.
         23    2    1    0    0    0 -0.13352254567E+01 -0.45362179703E+00  0.30547851578E+02  0.94419616814E+02  0.89330309545E+02 0.  0.
         13    1    3    3    0    0 -0.29184634380E+02 -0.73300277144E+00  0.51749890071E+02  0.59416685059E+02  0.10566000000E+00 0. -1.
         22    1    1    0    0    0  0.13352254567E+01  0.45362179703E+00 -0.30547851578E+02  0.30580383186E+02  0.00000000000E+00 0. -1.
</event>
<event>
 5    1  0.1320187E-009  0.9118800E+02  0.7818608E-02  0.1130116E+00
         25   -1    0    0    0    0  0.00000000000E+00  0.00000000000E+00  0.99999998245E-14  0.12500000000E+03  0.12500000000E+03 0.  0.
        -13    1    3    3    0    0  0.19659912737E+02 -0.44563484140E+02  0.11789103202E+02  0.50113974157E+02  0.10566000000E+00 0.  1.
         23    2    1    0    0    0 -0.13179623117E+02 -0.23871371192E+02 -0.11529212261E+02  0.95394805127E+02  0.90684625389E+02 0.  0.
         13    1    3    3    0    0 -0.32839535853E+02  0.20692112948E+02 -0.23318315463E+02  0.45280830970E+02  0.10566000000E+00 0. -1.
         22    1    1    0    0    0  0.13179623117E+02  0.23871371192E+02  0.11529212261E+02  0.29605194873E+02  0.00000000000E+00 0. -1.
</event>
<event>
 5    1  0.1320187E-009  0.9118800E+02  0.7818608E-02  0.1130116E+00
         25   -1    0    0    0    0  0.00000000000E+00  0.00000000000E+00  0.99999998245E-14  0.12500000000E+03  0.12500000000E+03 0.  0.
        -13    1    3    3    0    0  0.35970891330E+02  0.35252309316E+01  0.16152455045E+02  0.39588448368E+02  0.10566000000E+00 0. -1.
         23    2    1    0    0    0 -0.95610150605E+01  0.25470855903E+02 -0.93879447212E+01  0.96219607099E+02  0.91814496539E+02 0.  0.
         13    1    3    3    0    0 -0.45531906390E+02  0.21945624972E+02 -0.25540399766E+02  0.56631158731E+02  0.10566000000E+00 0.  1.
         22    1    1    0    0    0  0.95610150605E+01 -0.25470855903E+02  0.93879447212E+01  0.28780392901E+02  0.00000000000E+00 0.  1.
</event>
<event>
 5    1  0.1320187E-009  0.9118800E+02  0.7818608E-02  0.1130116E+00
         25   -1    0    0    0    0  0.00000000000E+00  0.00000000000E+00  0.99999998245E-14  0.12500000000E+03  0.12500000000E+03 0.  0.
        -13    1    3    3    0    0  0.35405004392E+02 -0.38303608929E+02 -0.41478293607E+01  0.52324912283E+02  0.10566000000E+00 0.  1.
         23    2    1    0    0    0  0.31200535273E+02  0.22074246874E+01 -0.62308125581E+01  0.93106910620E+02  0.87474154211E+02 0.  0.
         13    1    3    3    0    0 -0.42044691187E+01  0.40511033617E+02 -0.20829831974E+01  0.40781998336E+02  0.10566000000E+00 0. -1.
         22    1    1    0    0    0 -0.31200535273E+02 -0.22074246874E+01  0.62308125581E+01  0.31893089380E+02  0.00000000000E+00 0.  1.
</event>
<event>
 5    1  0.1320187E-009  0.9118800E+02  0.7818608E-02  0.1130116E+00
         25   -1    0    0    0    0  0.00000000000E+00  0.00000000000E+00  0.99999998245E-14  0.12500000000E+03  0.12500000000E+03 0.  0.
        -13    1    3    3    0    0 -0.32702692636E+01  0.41928336269E+02  0.11260466333E+01  0.42070882905E+02  0.10566000000E+00 0.  1.
         23    2    1    0    0    0  0.24663340382E+02 -0.30180078471E+01  0.13925886937E+02  0.96516337014E+02  0.92217591887E+02 0.  0.
         13    1    3    3    0    0  0.27933609645E+02 -0.44946344116E+02  0.12799840303E+02  0.54445454108E+02  0.10566000000E+00 0. -1.
         22    1    1    0    0    0 -0.24663340382E+02  0.30180078471E+01 -0.13925886937E+02  0.28483662986E+02  0.00000000000E+00 0. -1.
</event>
<event>
 5    1  0.1320187E-009  0.9118800E+02  0.7818608E-02  0.1130116E+00
         25   -1    0    0    0    0  0.00000000000E+00  0.00000000000E+00  0.99999998245E-14  0.12500000000E+03  0.12500000000E+03 0.  0.
        -13    1    3    3    0    0  0.55684727705E+02  0.70236765256E+01  0.32408059460E+01  0.56219524355E+02  0.10566000000E+00 0.  1.
         23    2    1    0    0    0  0.21891614971E+02  0.10400069795E+02 -0.16666999448E+02  0.95585834563E+02  0.90947559839E+02 0.  0.
         13    1    3    3    0    0 -0.33793112734E+02  0.33763932694E+01 -0.19907805394E+02  0.39366310208E+02  0.10566000000E+00 0. -1.
         22    1    1    0    0    0 -0.21891614971E+02 -0.10400069795E+02  0.16666999448E+02  0.29414165437E+02  0.00000000000E+00 0.  1.
</event>
<event>
 5    1  0.1320187E-009  0.9118800E+02  0.7818608E-02  0.1130116E+00
         25   -1    0    0    0    0  0.00000000000E+00  0.00000000000E+00  0.99999998245E-14  0.12500000000E+03  0.12500000000E+03 0.  0.
        -13    1    3    3    0    0  0.24540668179E+02  0.86811418154E+01 -0.38409449956E+02  0.46399392538E+02  0.10566000000E+00 0. -1.
         23    2    1    0    0    0  0.11626992212E+02 -0.27085597296E+02 -0.99725131003E+01  0.93883002293E+02  0.88576241585E+02 0.  0.
         13    1    3    3    0    0 -0.12913675967E+02 -0.35766739111E+02  0.28436936856E+02  0.47483609755E+02  0.10566000000E+00 0.  1.
         22    1    1    0    0    0 -0.11626992212E+02  0.27085597296E+02  0.99725131003E+01  0.31116997707E+02  0.00000000000E+00 0. -1.
</event>
<event>
 5    1  0.1320187E-009  0.9118800E+02  0.7818608E-02  0.1130116E+00
         25   -1    0    0    0    0  0.00000000000E+00  0.00000000000E+00  0.99999998245E-14  0.12500000000E+03  0.12500000000E+03 0.  0.
        -13    1    3    3    0    0  0.15672328511E+02  0.31268773104E+01  0.29918268774E+02  0.33919215986E+02  0.10566000000E+00 0.  1.
         23    2    1    0    0    0 -0.23811026284E+02 -0.95130489930E+01 -0.15200065631E+02  0.95192197849E+02  0.90404919459E+02 0.  0.
         13    1    3    3    0    0 -0.39483354795E+02 -0.12639926303E+02 -0.45118334405E+02  0.61272981863E+02  0.10566000000E+00 0. -1.
         22    1    1    0    0    0  0.23811026284E+02  0.95130489930E+01  0.15200065631E+02  0.29807802151E+02  0.00000000000E+00 0. -1.
</event>
<event>
 5    1  0.1320187E-009  0.9118800E+02  0.7818608E-02  0.1130116E+00
         25   -1    0    0    0    0  0.00000000000E+00  0.00000000000E+00  0.99999998245E-14  0.12500000000E+03  0.12500000000E+03 0.  0.
        -13    1    3    3    0    0  0.15495545271E+02  0.67292816760E+01  0.36812181953E+02  0.40503617855E+02  0.10566000000E+00 0.  1.
         23    2    1    0    0    0 -0.54301205971E+01 -0.30123794617E+02  0.39392220099E+01  0.94138265087E+02  0.88935742374E+02 0.  0.
         13    1    3    3    0    0 -0.20925665868E+02 -0.36853076293E+02 -0.32872959943E+02  0.53634647232E+02  0.10566000000E+00 0. -1.
         22    1    1    0    0    0  0.54301205971E+01  0.30123794617E+02 -0.39392220099E+01  0.30861734913E+02  0.00000000000E+00 0.  1.
</event>
<event>
 5    1  0.1320187E-009  0.9118800E+02  0.7818608E-02  0.1130116E+00
         25   -1    0    0    0    0  0.00000000000E+00  0.00000000000E+00  0.99999998245E-14  0.12500000000E+03  0.12500000000E+03 0.  0.
        -13    1    3    3    0    0 -0.20102490464E+02  0.12743471452E+02 -0.34532891465E+02  0.41940886310E+02  0.10566000000E+00 0. -1.
         23    2    1    0    0    0  0.21993835188E+02  0.19344974710E+02 -0.18349097304E+01  0.95651682731E+02  0.91038017788E+02 0.  0.
         13    1    3    3    0    0  0.42096325652E+02  0.66015032580E+01  0.32697981734E+02  0.53710796421E+02  0.10566000000E+00 0.  1.
         22    1    1    0    0    0 -0.21993835188E+02 -0.19344974710E+02  0.18349097304E+01  0.29348317269E+02  0.00000000000E+00 0.  1.
</event>
<event>
 5    1  0.1320187E-009  0.9118800E+02  0.7818608E-02  0.1130116E+00
         25   -1    0    0    0    0  0.00000000000E+00  0.00000000000E+00  0.99999998245E-14  0.12500000000E+03  0.12500000000E+03 0.  0.
        -13    1    3    3    0    0 -0.42260905793E+02  0.14313111826E+02  0.37049097882E+02  0.57995656272E+02  0.10566000000E+00 0. -1.
         23    2    1    0    0    0 -0.14543324919E+02 -0.99679659125E+01  0.19175504916E+02  0.98950650048E+02  0.95460266667E+02 0.  0.
         13    1    3    3    0    0  0.27717580874E+02 -0.24281077738E+02 -0.17873592966E+02  0.40954993776E+02  0.10566000000E+00 0.  1.
         22    1    1    0    0    0  0.14543324919E+02  0.99679659125E+01 -0.19175504916E+02  0.26049349952E+02  0.00000000000E+00 0. -1.
</event>
<event>
 5    1  0.1320187E-009  0.9118800E+02  0.7818608E-02  0.1130116E+00
         25   -1    0    0    0    0  0.00000000000E+00  0.00000000000E+00  0.99999998245E-14  0.12500000000E+03  0.12500000000E+03 0.  0.
        -13    1    3    3    0    0 -0.14281025022E+02 -0.32795379822E+02 -0.43965971744E+00  0.35772742110E+02  0.10566000000E+00 0.  1.
         23    2    1    0    0    0 -0.38710995503E+01  0.27482399546E+02 -0.35401673111E+01  0.97021428180E+02  0.92899714988E+02 0.  0.
         13    1    3    3    0    0  0.10409925471E+02  0.60277779368E+02 -0.31005075936E+01  0.61248686070E+02  0.10566000000E+00 0. -1.
         22    1    1    0    0    0  0.38710995503E+01 -0.27482399546E+02  0.35401673111E+01  0.27978571820E+02  0.00000000000E+00 0. -1.
</event>
<event>
 5    1  0.1320187E-009  0.9118800E+02  0.7818608E-02  0.1130116E+00
         25   -1    0    0    0    0  0.00000000000E+00  0.00000000000E+00  0.99999998245E-14  0.12500000000E+03  0.12500000000E+03 0.  0.
        -13    1    3    3    0    0  0.50811922424E+02 -0.20179369581E+02 -0.69644510931E+01  0.55114182932E+02  0.10566000000E+00 0. -1.
         23    2    1    0    0    0  0.22898882868E+02  0.70073844059E+01 -0.17336787147E+02  0.95436061470E+02  0.90741475454E+02 0.  0.
         13    1    3    3    0    0 -0.27913039556E+02  0.27186753987E+02 -0.10372336054E+02  0.40321878539E+02  0.10566000000E+00 0.  1.
         22    1    1    0    0    0 -0.22898882868E+02 -0.70073844059E+01  0.17336787147E+02  0.29563938530E+02  0.00000000000E+00 0. -1.
</event>
<event>
 5    1  0.1320187E-009  0.9118800E+02  0.7818608E-02  0.1130116E+00
         25   -1    0    0    0    0  0.00000000000E+00  0.00000000000E+00  0.99999998245E-14  0.12500000000E+03  0.12500000000E+03 0.  0.
        -13    1    3    3    0    0  0.17439713399E+02  0.99328008429E+01  0.49145160560E+02  0.53085422731E+02  0.10566000000E+00 0. -1.
         23    2    1    0    0    0  0.26919989750E+02  0.15222866580E+01  0.69318502885E+01  0.97160212766E+02  0.93086267470E+02 0.  0.
         13    1    3    3    0    0  0.94802763508E+01 -0.84105141850E+01 -0.42213310271E+02  0.44074790035E+02  0.10566000000E+00 0.  1.
         22    1    1    0    0    0 -0.26919989750E+02 -0.15222866580E+01 -0.69318502885E+01  0.27839787234E+02  0.00000000000E+00 0. -1.
</event>
<event>
 5    1  0.1320187E-009  0.9118800E+02  0.7818608E-02  0.1130116E+00
         25   -1    0    0    0    0  0.00000000000E+00  0.00000000000E+00  0.99999998245E-14  0.12500000000E+03  0.12500000000E+03 0.  0.
        -13    1    3    3    0    0  0.36843084809E+02 -0.39459010084E+02 -0.88716987053E+01  0.54709638794E+02  0.10566000000E+00 0. -1.
         23    2    1    0    0    0  0.29771805028E+02 -0.74535264461E+00 -0.83617685705E+01  0.94067248767E+02  0.88835872213E+02 0.  0.
         13    1    3    3    0    0 -0.70712797809E+01  0.38713657439E+02  0.50993013487E+00  0.39357609973E+02  0.10566000000E+00 0.  1.
         22    1    1    0    0    0 -0.29771805028E+02  0.74535264461E+00  0.83617685705E+01  0.30932751233E+02  0.00000000000E+00 0. -1.
</event>
<event>
 5    1  0.1320187E-009  0.9118800E+02  0.7818608E-02  0.1130116E+00
         25   -1    0    0    0    0  0.00000000000E+00  0.00000000000E+00  0.99999998245E-14  0.12500000000E+03  0.12500000000E+03 0.  0.
        -13    1    3    3    0    0  0.22995765455E+02  0.57144215187E+01 -0.25908141516E+02  0.35109867602E+02  0.10566000000E+00 0. -1.
         23    2    1    0    0    0 -0.23096424317E+02  0.13656992035E+02  0.12280090378E+02  0.95491376390E+02  0.90817641995E+02 0.  0.
         13    1    3    3    0    0 -0.46092189772E+02  0.79425705164E+01  0.38188231894E+02  0.60381508788E+02  0.10566000000E+00 0.  1.
         22    1    1    0    0    0  0.23096424317E+02 -0.13656992035E+02 -0.12280090378E+02  0.29508623610E+02  0.00000000000E+00 0.  1.
</event>
<event>
 5    1  0.1320187E-009  0.9118800E+02  0.7818608E-02  0.1130116E+00
         25   -1    0    0    0    0  0.00000000000E+00  0.00000000000E+00  0.99999998245E-14  0.12500000000E+03  0.12500000000E+03 0.  0.
        -13    1    3    3    0    0 -0.28946713334E+02  0.40989118122E+02 -0.96780269799E+01  0.51104749168E+02  0.10566000000E+00 0. -1.
         23    2    1    0    0    0 -0.25010759169E+02 -0.37126675408E+01 -0.13845296062E+02  0.96172683137E+02  0.91750590103E+02 0.  0.
         13    1    3    3    0    0  0.39359541654E+01 -0.44701785663E+02 -0.41672690823E+01  0.45067933969E+02  0.10566000000E+00 0.  1.
         22    1    1    0    0    0  0.25010759169E+02  0.37126675408E+01  0.13845296062E+02  0.28827316863E+02  0.00000000000E+00 0. -1.
</event>
<event>
 5    1  0.1320187E-009  0.9118800E+02  0.7818608E-02  0.1130116E+00
         25   -1    0    0    0    0  0.00000000000E+00  0.00000000000E+00  0.99999998245E-14  0.12500000000E+03  0.12500000000E+03 0.  0.
        -13    1    3    3    0    0 -0.19999334826E+02 -0.35911677317E+02 -0.24871607893E+02  0.48044042340E+02  0.10566000000E+00 0. -1.
         23    2    1    0    0    0 -0.59197869212E+01 -0.23142382554E+02  0.18098497409E+02  0.95030526265E+02  0.90181104264E+02 0.  0.
         13    1    3    3    0    0  0.14079547904E+02  0.12769294763E+02  0.42970105302E+02  0.46986483925E+02  0.10566000000E+00 0.  1.
         22    1    1    0    0    0  0.59197869212E+01  0.23142382554E+02 -0.18098497409E+02  0.29969473735E+02  0.00000000000E+00 0. -1.
</event>
<event>
 5    1  0.1320187E-009  0.9118800E+02  0.7818608E-02  0.1130116E+00
         25   -1    0    0    0    0  0.00000000000E+00  0.00000000000E+00  0.99999998245E-14  0.12500000000E+03  0.12500000000E+03 0.  0.
        -13    1    3    3    0    0 -0.86850346514E+01 -0.22941518777E+02 -0.36524340213E+02  0.43997519279E+02  0.10566000000E+00 0.  1.
         23    2    1    0    0    0 -0.19388846487E+02  0.19337847320E+02 -0.67767662394E+01  0.96789997027E+02  0.92587792158E+02 0.  0.
         13    1    3    3    0    0 -0.10703811836E+02  0.42279366098E+02  0.29747573973E+02  0.52792477748E+02  0.10566000000E+00 0. -1.
         22    1    1    0    0    0  0.19388846487E+02 -0.19337847320E+02  0.67767662394E+01  0.28210002973E+02  0.00000000000E+00 0. -1.
</event>
<event>
 5    1  0.1320187E-009  0.9118800E+02  0.7818608E-02  0.1130116E+00
         25   -1    0    0    0    0  0.00000000000E+00  0.00000000000E+00  0.99999998245E-14  0.12500000000E+03  0.12500000000E+03 0.  0.
        -13    1    3    3    0    0 -0.55063104244E+02  0.55172081318E+01  0.21287082545E+02  0.59291956300E+02  0.10566000000E+00 0.  1.
         23    2    1    0    0    0 -0.28579362662E+02 -0.25392299926E+01 -0.30438106476E+01  0.96147054875E+02  0.91715667793E+02 0.  0.
         13    1    3    3    0    0  0.26483741582E+02 -0.80564381244E+01 -0.24330893192E+02  0.36855098575E+02  0.10566000000E+00 0. -1.
         22    1    1    0    0    0  0.28579362662E+02  0.25392299926E+01  0.30438106476E+01  0.28852945125E+02  0.00000000000E+00 0.  1.
</event>
<event>
 5    1  0.1320187E-009  0.9118800E+02  0.7818608E-02  0.1130116E+00
         25   -1    0    0    0    0  0.00000000000E+00  0.00000000000E+00  0.99999998245E-14  0.12500000000E+03  0.12500000000E+03 0.  0.
        -13    1    3    3    0    0  0.14343545404E+02  0.38293067804E+02 -0.64716556926E+01  0.41400360241E+02  0.10566000000E+00 0. -1.
         23    2    1    0    0    0  0.23020778462E+02 -0.16191033069E+02 -0.10652833759E+01  0.96835472283E+02  0.92649166595E+02 0.  0.
         13    1    3    3    0    0  0.86772330587E+01 -0.54484100873E+02  0.54063723166E+01  0.55435112042E+02  0.10566000000E+00 0.  1.
         22    1    1    0    0    0 -0.23020778462E+02  0.16191033069E+02  0.10652833759E+01  0.28164527717E+02  0.00000000000E+00 0.  1.
</event>
<event>
 5    1  0.1320187E-009  0.9118800E+02  0.7818608E-02  0.1130116E+00
         25   -1    0    0    0    0  0.00000000000E+00  0.00000000000E+00  0.99999998245E-14  0.12500000000E+03  0.12500000000E+03 0.  0.
        -13    1    3    3    0    0 -0.12853553401E+02  0.62175836895E+01 -0.32334811399E+02  0.35347183398E+02  0.10566000000E+00 0.  1.
         23    2    1    0    0    0  0.40092664950E+01  0.14078446746E+02  0.25222842755E+02  0.95837203885E+02  0.91292392735E+02 0.  0.
         13    1    3    3    0    0  0.16862819896E+02  0.78608630566E+01  0.57557654153E+02  0.60490020487E+02  0.10566000000E+00 0. -1.
         22    1    1    0    0    0 -0.40092664950E+01 -0.14078446746E+02 -0.25222842755E+02  0.29162796115E+02  0.00000000000E+00 0. -1.
</event>
<event>
 5    1  0.1320187E-009  0.9118800E+02  0.7818608E-02  0.1130116E+00
         25   -1    0    0    0    0  0.00000000000E+00  0.00000000000E+00  0.99999998245E-14  0.12500000000E+03  0.12500000000E+03 0.  0.
        -13    1    3    3    0    0 -0.23649878638E+02  0.24227748011E+02  0.96164232068E+01  0.35196410223E+02  0.10566000000E+00 0.  1.
         23    2    1    0    0    0  0.13306755346E+02 -0.77424318781E+01 -0.25389719177E+02  0.95307360691E+02  0.90564011466E+02 0.  0.
         13    1    3    3    0    0  0.36956633983E+02 -0.31970179889E+02 -0.35006142384E+02  0.60110950468E+02  0.10566000000E+00 0. -1.
         22    1    1    0    0    0 -0.13306755346E+02  0.77424318781E+01  0.25389719177E+02  0.29692639309E+02  0.00000000000E+00 0. -1.
</event>
<event>
 5    1  0.1320187E-009  0.9118800E+02  0.7818608E-02  0.1130116E+00
         25   -1    0    0    0    0  0.00000000000E+00  0.00000000000E+00  0.99999998245E-14  0.12500000000E+03  0.12500000000E+03 0.  0.
        -13    1    3    3    0    0 -0.39152245682E+02 -0.18337227541E+02  0.71451092357E+00  0.43239726476E+02  0.10566000000E+00 0.  1.
         23    2    1    0    0    0 -0.10988180398E+01  0.60177739009E+01 -0.27713474808E+02  0.96619413506E+02  0.92357205330E+02 0.  0.
         13    1    3    3    0    0  0.38053427642E+02  0.24355001442E+02 -0.28427985732E+02  0.53379687030E+02  0.10566000000E+00 0. -1.
         22    1    1    0    0    0  0.10988180398E+01 -0.60177739009E+01  0.27713474808E+02  0.28380586494E+02  0.00000000000E+00 0. -1.
</event>
<event>
 5    1  0.1320187E-009  0.9118800E+02  0.7818608E-02  0.1130116E+00
         25   -1    0    0    0    0  0.00000000000E+00  0.00000000000E+00  0.99999998245E-14  0.12500000000E+03  0.12500000000E+03 0.  0.
        -13    1    3    3    0    0 -0.40500993888E+02  0.41785941039E+01  0.38398937730E+02  0.55966782447E+02  0.10566000000E+00 0.  1.
         23    2    1    0    0    0 -0.18210370444E+02 -0.16701242572E+02  0.80787756095E+01  0.99003544270E+02  0.95529503649E+02 0.  0.
         13    1    3    3    0    0  0.22290623444E+02 -0.20879836676E+02 -0.30320162121E+02  0.43036761823E+02  0.10566000000E+00 0. -1.
         22    1    1    0    0    0  0.18210370444E+02  0.16701242572E+02 -0.80787756095E+01  0.25996455730E+02  0.00000000000E+00 0.  1.
</event>
<event>
 5    1  0.1320187E-009  0.9118800E+02  0.7818608E-02  0.1130116E+00
         25   -1    0    0    0    0  0.00000000000E+00  0.00000000000E+00  0.99999998245E-14  0.12500000000E+03  0.12500000000E+03 0.  0.
        -13    1    3    3    0    0 -0.16232906922E+01 -0.57741502358E+02  0.13226288575E+02  0.59259278099E+02  0.10566000000E+00 0.  1.
         23    2    1    0    0    0 -0.98656304680E+01 -0.18797728410E+02  0.14839162435E+02  0.99098532867E+02  0.95653715122E+02 0.  0.
         13    1    3    3    0    0 -0.82423397759E+01  0.38943773949E+02  0.16128738600E+01  0.39839254768E+02  0.10566000000E+00 0. -1.
         22    1    1    0    0    0  0.98656304680E+01  0.18797728410E+02 -0.14839162435E+02  0.25901467133E+02  0.00000000000E+00 0.  1.
</event>
<event>
 5    1  0.1320187E-009  0.9118800E+02  0.7818608E-02  0.1130116E+00
         25   -1    0    0    0    0  0.00000000000E+00  0.00000000000E+00  0.99999998245E-14  0.12500000000E+03  0.12500000000E+03 0.  0.
        -13    1    3    3    0    0 -0.46489740779E+02 -0.99848968941E+01  0.23581666530E+02  0.53076363139E+02  0.10566000000E+00 0.  1.
         23    2    1    0    0    0 -0.13050900882E+02  0.15905307784E+02  0.21236347160E+02  0.95431650871E+02  0.90735399474E+02 0.  0.
         13    1    3    3    0    0  0.33438839897E+02  0.25890204678E+02 -0.23453193703E+01  0.42355287732E+02  0.10566000000E+00 0. -1.
         22    1    1    0    0    0  0.13050900882E+02 -0.15905307784E+02 -0.21236347160E+02  0.29568349129E+02  0.00000000000E+00 0.  1.
</event>
<event>
 5    1  0.1320187E-009  0.9118800E+02  0.7818608E-02  0.1130116E+00
         25   -1    0    0    0    0  0.00000000000E+00  0.00000000000E+00  0.99999998245E-14  0.12500000000E+03  0.12500000000E+03 0.  0.
        -13    1    3    3    0    0  0.30415403546E+02 -0.60865953802E+01  0.25659092841E+02  0.40255976273E+02  0.10566000000E+00 0.  1.
         23    2    1    0    0    0  0.14118256522E+02 -0.21799280006E+01 -0.26419944826E+02  0.94965174581E+02  0.90090474776E+02 0.  0.
         13    1    3    3    0    0 -0.16297147025E+02  0.39066673796E+01 -0.52079037668E+02  0.54709198309E+02  0.10566000000E+00 0. -1.
         22    1    1    0    0    0 -0.14118256522E+02  0.21799280006E+01  0.26419944826E+02  0.30034825419E+02  0.00000000000E+00 0. -1.
</event>
<event>
 5    1  0.1320187E-009  0.9118800E+02  0.7818608E-02  0.1130116E+00
         25   -1    0    0    0    0  0.00000000000E+00  0.00000000000E+00  0.99999998245E-14  0.12500000000E+03  0.12500000000E+03 0.  0.
        -13    1    3    3    0    0 -0.39960014413E+02 -0.34360431652E+02 -0.10111917354E+02  0.53662874055E+02  0.10566000000E+00 0. -1.
         23    2    1    0    0    0 -0.52036342554E+01 -0.18558150260E+02  0.16026688368E+02  0.99933339062E+02  0.96738486475E+02 0.  0.
         13    1    3    3    0    0  0.34756380157E+02  0.15802281392E+02  0.26138605723E+02  0.46270465007E+02  0.10566000000E+00 0.  1.
         22    1    1    0    0    0  0.52036342554E+01  0.18558150260E+02 -0.16026688368E+02  0.25066660938E+02  0.00000000000E+00 0. -1.
</event>
<event>
 5    1  0.1320187E-009  0.9118800E+02  0.7818608E-02  0.1130116E+00
         25   -1    0    0    0    0  0.00000000000E+00  0.00000000000E+00  0.99999998245E-14  0.12500000000E+03  0.12500000000E+03 0.  0.
        -13    1    3    3    0    0  0.45393776170E+02  0.96920389216E+01 -0.26277350555E+02  0.53338924339E+02  0.10566000000E+00 0.  1.
         23    2    1    0    0    0  0.26272067416E+02 -0.51343629355E+01  0.95557839996E+01  0.96576484790E+02  0.92299085572E+02 0.  0.
         13    1    3    3    0    0 -0.19121708754E+02 -0.14826401857E+02  0.35833134555E+02  0.43237560451E+02  0.10566000000E+00 0. -1.
         22    1    1    0    0    0 -0.26272067416E+02  0.51343629355E+01 -0.95557839996E+01  0.28423515210E+02  0.00000000000E+00 0.  1.
</event>
<event>
 5    1  0.1320187E-009  0.9118800E+02  0.7818608E-02  0.1130116E+00
         25   -1    0    0    0    0  0.00000000000E+00  0.00000000000E+00  0.99999998245E-14  0.12500000000E+03  0.12500000000E+03 0.  0.
        -13    1    3    3    0    0  0.24646129876E+02 -0.23027075004E+02  0.39482218152E+01  0.33959939938E+02  0.10566000000E+00 0.  1.
         23    2    1    0    0    0 -0.46858921278E+01  0.28867517288E+02  0.10493960164E+02  0.93928882554E+02  0.88640964788E+02 0.  0.
         13    1    3    3    0    0 -0.29332022003E+02  0.51894592292E+02  0.65457383487E+01  0.59968942616E+02  0.10566000000E+00 0. -1.
         22    1    1    0    0    0  0.46858921278E+01 -0.28867517288E+02 -0.10493960164E+02  0.31071117446E+02  0.00000000000E+00 0. -1.
</event>
<event>
 5    1  0.1320187E-009  0.9118800E+02  0.7818608E-02  0.1130116E+00
         25   -1    0    0    0    0  0.00000000000E+00  0.00000000000E+00  0.99999998245E-14  0.12500000000E+03  0.12500000000E+03 0.  0.
        -13    1    3    3    0    0  0.32457987434E+01  0.38910399018E+02 -0.98085254054E+01  0.40258821342E+02  0.10566000000E+00 0. -1.
         23    2    1    0    0    0  0.24885622034E+02 -0.12608300701E+02 -0.71492520724E+01  0.96201124401E+02  0.91789329991E+02 0.  0.
         13    1    3    3    0    0  0.21639823291E+02 -0.51518699719E+02  0.26592733330E+01  0.55942303058E+02  0.10566000000E+00 0.  1.
         22    1    1    0    0    0 -0.24885622034E+02  0.12608300701E+02  0.71492520724E+01  0.28798875599E+02  0.00000000000E+00 0. -1.
</event>
<event>
 5    1  0.1320187E-009  0.9118800E+02  0.7818608E-02  0.1130116E+00
         25   -1    0    0    0    0  0.00000000000E+00  0.00000000000E+00  0.99999998245E-14  0.12500000000E+03  0.12500000000E+03 0.  0.
        -13    1    3    3    0    0  0.44846423332E+02 -0.17902766373E+02  0.34260254917E+01  0.48409291920E+02  0.10566000000E+00 0.  1.
         23    2    1    0    0    0  0.16723287727E+02  0.72455622153E+01 -0.23864130576E+02  0.94972291923E+02  0.90100349503E+02 0.  0.
         13    1    3    3    0    0 -0.28123135605E+02  0.25148328588E+02 -0.27290156068E+02  0.46563000003E+02  0.10566000000E+00 0. -1.
         22    1    1    0    0    0 -0.16723287727E+02 -0.72455622153E+01  0.23864130576E+02  0.30027708077E+02  0.00000000000E+00 0.  1.
</event>
<event>
 5    1  0.1320187E-009  0.9118800E+02  0.7818608E-02  0.1130116E+00
         25   -1    0    0    0    0  0.00000000000E+00  0.00000000000E+00  0.99999998245E-14  0.12500000000E+03  0.12500000000E+03 0.  0.
        -13    1    3    3    0    0  0.32477831367E+02 -0.33875839341E+02  0.22262666379E+02  0.51942463358E+02  0.10566000000E+00 0. -1.
         23    2    1    0    0    0  0.10995174199E+02  0.32066918647E+01  0.27589007053E+02  0.95128106210E+02  0.90316258517E+02 0.  0.
         13    1    3    3    0    0 -0.21482657167E+02  0.37082531206E+02  0.53263406741E+01  0.43185642853E+02  0.10566000000E+00 0.  1.
         22    1    1    0    0    0 -0.10995174199E+02 -0.32066918647E+01 -0.27589007053E+02  0.29871893790E+02  0.00000000000E+00 0. -1.
</event>
<event>
 5    1  0.1320187E-009  0.9118800E+02  0.7818608E-02  0.1130116E+00
         25   -1    0    0    0    0  0.00000000000E+00  0.00000000000E+00  0.99999998245E-14  0.12500000000E+03  0.12500000000E+03 0.  0.
        -13    1    3    3    0    0  0.63173011342E+01 -0.42019837243E+01  0.61863727440E+02  0.62327336680E+02  0.10566000000E+00 0. -1.
         23    2    1    0    0    0 -0.21463439404E+00 -0.22031676197E+01  0.30164494354E+02  0.94754393127E+02  0.89797540511E+02 0.  0.
         13    1    3    3    0    0 -0.65319355282E+01  0.19988161046E+01 -0.31699233086E+02  0.32427056448E+02  0.10566000000E+00 0.  1.
         22    1    1    0    0    0  0.21463439404E+00  0.22031676197E+01 -0.30164494354E+02  0.30245606873E+02  0.00000000000E+00 0. -1.
</event>
<event>
 5    1  0.1320187E-009  0.9118800E+02  0.7818608E-02  0.1130116E+00
         25   -1    0    0    0    0  0.00000000000E+00  0.00000000000E+00  0.99999998245E-14  0.12500000000E+03  0.12500000000E+03 0.  0.
        -13    1    3    3    0    0 -0.58643601158E+02  0.85075587284E+01 -0.47077613140E+01  0.59444299078E+02  0.10566000000E+00 0. -1.
         23    2    1    0    0    0 -0.25045935518E+02 -0.13936548707E+01 -0.14773321134E+02  0.95888281102E+02  0.91362302266E+02 0.  0.
         13    1    3    3    0    0  0.33597665640E+02 -0.99012135991E+01 -0.10065559820E+02  0.36443982023E+02  0.10566000000E+00 0.  1.
         22    1    1    0    0    0  0.25045935518E+02  0.13936548707E+01  0.14773321134E+02  0.29111718898E+02  0.00000000000E+00 0. -1.
</event>
<event>
 5    1  0.1320187E-009  0.9118800E+02  0.7818608E-02  0.1130116E+00
         25   -1    0    0    0    0  0.00000000000E+00  0.00000000000E+00  0.99999998245E-14  0.12500000000E+03  0.12500000000E+03 0.  0.
        -13    1    3    3    0    0 -0.29482150323E+02 -0.15102519213E+01  0.36482608351E+02  0.46930479698E+02  0.10566000000E+00 0.  1.
         23    2    1    0    0    0 -0.19224367907E+02  0.26268945698E+02  0.19954014689E+01  0.92386882140E+02  0.86439114613E+02 0.  0.
         13    1    3    3    0    0  0.10257782416E+02  0.27779197619E+02 -0.34487206882E+02  0.45456402443E+02  0.10566000000E+00 0. -1.
         22    1    1    0    0    0  0.19224367907E+02 -0.26268945698E+02 -0.19954014689E+01  0.32613117860E+02  0.00000000000E+00 0.  1.
</event>
<event>
 5    1  0.1320187E-009  0.9118800E+02  0.7818608E-02  0.1130116E+00
         25   -1    0    0    0    0  0.00000000000E+00  0.00000000000E+00  0.99999998245E-14  0.12500000000E+03  0.12500000000E+03 0.  0.
        -13    1    3    3    0    0  0.32409226042E+02  0.13696760568E+02  0.28578442091E+02  0.45328773413E+02  0.10566000000E+00 0. -1.
         23    2    1    0    0    0  0.27370652057E+02 -0.84973837339E+01 -0.13616567481E+02  0.93270376077E+02  0.87707434230E+02 0.  0.
         13    1    3    3    0    0 -0.50385739853E+01 -0.22194144302E+02 -0.42195009573E+02  0.47941602664E+02  0.10566000000E+00 0.  1.
         22    1    1    0    0    0 -0.27370652057E+02  0.84973837339E+01  0.13616567481E+02  0.31729623923E+02  0.00000000000E+00 0. -1.
</event>
<event>
 5    1  0.1320187E-009  0.9118800E+02  0.7818608E-02  0.1130116E+00
         25   -1    0    0    0    0  0.00000000000E+00  0.00000000000E+00  0.99999998245E-14  0.12500000000E+03  0.12500000000E+03 0.  0.
        -13    1    3    3    0    0 -0.24701418612E+02 -0.18785302723E+02  0.11514890701E+02  0.33100627664E+02  0.10566000000E+00 0. -1.
         23    2    1    0    0    0  0.26426862542E+02  0.85966573191E+01 -0.10717855319E+02  0.95214869422E+02  0.90436261287E+02 0.  0.
         13    1    3    3    0    0  0.51128281154E+02  0.27381960042E+02 -0.22232746020E+02  0.62114241758E+02  0.10566000000E+00 0.  1.
         22    1    1    0    0    0 -0.26426862542E+02 -0.85966573191E+01  0.10717855319E+02  0.29785130578E+02  0.00000000000E+00 0.  1.
</event>
<event>
 5    1  0.1320187E-009  0.9118800E+02  0.7818608E-02  0.1130116E+00
         25   -1    0    0    0    0  0.00000000000E+00  0.00000000000E+00  0.99999998245E-14  0.12500000000E+03  0.12500000000E+03 0.  0.
        -13    1    3    3    0    0  0.15393230581E+02  0.19805679815E+02  0.32492644666E+02  0.41048746900E+02  0.10566000000E+00 0. -1.
         23    2    1    0    0    0 -0.27754186022E+02  0.48149306533E+00  0.22955259878E+01  0.97146883175E+02  0.93068366236E+02 0.  0.
         13    1    3    3    0    0 -0.43147416603E+02 -0.19324186750E+02 -0.30197118678E+02  0.56098136275E+02  0.10566000000E+00 0.  1.
         22    1    1    0    0    0  0.27754186022E+02 -0.48149306533E+00 -0.22955259878E+01  0.27853116825E+02  0.00000000000E+00 0.  1.
</event>
<event>
 5    1  0.1320187E-009  0.9118800E+02  0.7818608E-02  0.1130116E+00
         25   -1    0    0    0    0  0.00000000000E+00  0.00000000000E+00  0.99999998245E-14  0.12500000000E+03  0.12500000000E+03 0.  0.
        -13    1    3    3    0    0 -0.66070578179E+01 -0.42169662098E+02 -0.17248178576E+01  0.42719079756E+02  0.10566000000E+00 0.  1.
         23    2    1    0    0    0  0.70673557308E+01 -0.89383074631E-01 -0.29303126961E+02  0.94856530457E+02  0.89939605371E+02 0.  0.
         13    1    3    3    0    0  0.13674413549E+02  0.42080279024E+02 -0.27578309104E+02  0.52137450702E+02  0.10566000000E+00 0. -1.
         22    1    1    0    0    0 -0.70673557308E+01  0.89383074631E-01  0.29303126961E+02  0.30143469543E+02  0.00000000000E+00 0. -1.
</event>
<event>
 5    1  0.1320187E-009  0.9118800E+02  0.7818608E-02  0.1130116E+00
         25   -1    0    0    0    0  0.00000000000E+00  0.00000000000E+00  0.99999998245E-14  0.12500000000E+03  0.12500000000E+03 0.  0.
        -13    1    3    3    0    0  0.97971035641E+01 -0.68412667053E+01 -0.49455947622E+02  0.50879151797E+02  0.10566000000E+00 0.  1.
         23    2    1    0    0    0  0.19280300032E+02  0.10434542350E+02 -0.11540714158E+01  0.10304683339E+03  0.10068122142E+03 0.  0.
         13    1    3    3    0    0  0.94831964680E+01  0.17275809055E+02  0.48301876206E+02  0.52167681593E+02  0.10566000000E+00 0. -1.
         22    1    1    0    0    0 -0.19280300032E+02 -0.10434542350E+02  0.11540714158E+01  0.21953166610E+02  0.00000000000E+00 0. -1.
</event>
<event>
 5    1  0.1320187E-009  0.9118800E+02  0.7818608E-02  0.1130116E+00
         25   -1    0    0    0    0  0.00000000000E+00  0.00000000000E+00  0.99999998245E-14  0.12500000000E+03  0.12500000000E+03 0.  0.
        -13    1    3    3    0    0 -0.57756406737E+01  0.32250119282E+02 -0.30010142085E+02  0.44430260082E+02  0.10566000000E+00 0.  1.
         23    2    1    0    0    0 -0.57781974369E+01  0.20749232638E+02  0.19916336954E+02  0.95664378337E+02  0.91055447856E+02 0.  0.
         13    1    3    3    0    0 -0.25567631687E-02 -0.11500886644E+02  0.49926479039E+02  0.51234118255E+02  0.10566000000E+00 0. -1.
         22    1    1    0    0    0  0.57781974369E+01 -0.20749232638E+02 -0.19916336954E+02  0.29335621663E+02  0.00000000000E+00 0.  1.
</event>
<event>
 5    1  0.1320187E-009  0.9118800E+02  0.7818608E-02  0.1130116E+00
         25   -1    0    0    0    0  0.00000000000E+00  0.00000000000E+00  0.99999998245E-14  0.12500000000E+03  0.12500000000E+03 0.  0.
        -13    1    3    3    0    0 -0.26797038463E+02  0.15825184937E+02  0.21725515273E+02  0.37954274154E+02  0.10566000000E+00 0. -1.
         23    2    1    0    0    0  0.16101243915E+01 -0.30026484322E+02  0.11213919104E+02  0.92907411401E+02  0.87188605049E+02 0.  0.
         13    1    3    3    0    0  0.28407162854E+02 -0.45851669259E+02 -0.10511596169E+02  0.54953137247E+02  0.10566000000E+00 0.  1.
         22    1    1    0    0    0 -0.16101243915E+01  0.30026484322E+02 -0.11213919104E+02  0.32092588599E+02  0.00000000000E+00 0.  1.
</event>
<event>
 5    1  0.1320187E-009  0.9118800E+02  0.7818608E-02  0.1130116E+00
         25   -1    0    0    0    0  0.00000000000E+00  0.00000000000E+00  0.99999998245E-14  0.12500000000E+03  0.12500000000E+03 0.  0.
        -13    1    3    3    0    0  0.22821287711E+02 -0.26746930775E+01 -0.93265282302E+01  0.24798396091E+02  0.10566000000E+00 0. -1.
         23    2    1    0    0    0 -0.31807144109E+02  0.20454278965E+02  0.74689237819E+01  0.86453187333E+02  0.77384086434E+02 0.  0.
         13    1    3    3    0    0 -0.54628431819E+02  0.23128972042E+02  0.16795452012E+02  0.61654791242E+02  0.10566000000E+00 0.  1.
         22    1    1    0    0    0  0.31807144109E+02 -0.20454278965E+02 -0.74689237819E+01  0.38546812667E+02  0.00000000000E+00 0.  1.
</event>
<event>
 5    1  0.1320187E-009  0.9118800E+02  0.7818608E-02  0.1130116E+00
         25   -1    0    0    0    0  0.00000000000E+00  0.00000000000E+00  0.99999998245E-14  0.12500000000E+03  0.12500000000E+03 0.  0.
        -13    1    3    3    0    0  0.66726843039E+01  0.27714286184E+02 -0.52618535666E+02  0.59844196328E+02  0.10566000000E+00 0. -1.
         23    2    1    0    0    0  0.14180713512E+02  0.62493518488E+01 -0.24544093949E+02  0.95973123109E+02  0.91478307687E+02 0.  0.
         13    1    3    3    0    0  0.75080292081E+01 -0.21464934335E+02  0.28074441717E+02  0.36128926781E+02  0.10566000000E+00 0.  1.
         22    1    1    0    0    0 -0.14180713512E+02 -0.62493518488E+01  0.24544093949E+02  0.29026876891E+02  0.00000000000E+00 0. -1.
</event>
<event>
 5    1  0.1320187E-009  0.9118800E+02  0.7818608E-02  0.1130116E+00
         25   -1    0    0    0    0  0.00000000000E+00  0.00000000000E+00  0.99999998245E-14  0.12500000000E+03  0.12500000000E+03 0.  0.
        -13    1    3    3    0    0  0.80241093691E+01 -0.26603199276E+02  0.26538298730E+02  0.38424068062E+02  0.10566000000E+00 0.  1.
         23    2    1    0    0    0  0.15331582353E+02  0.61098403238E+01 -0.22052965012E+02  0.97455112415E+02  0.93481431866E+02 0.  0.
         13    1    3    3    0    0  0.73074729844E+01  0.32713039600E+02 -0.48591263742E+02  0.59031044353E+02  0.10566000000E+00 0. -1.
         22    1    1    0    0    0 -0.15331582353E+02 -0.61098403238E+01  0.22052965012E+02  0.27544887585E+02  0.00000000000E+00 0. -1.
</event>
<event>
 5    1  0.1320187E-009  0.9118800E+02  0.7818608E-02  0.1130116E+00
         25   -1    0    0    0    0  0.00000000000E+00  0.00000000000E+00  0.99999998245E-14  0.12500000000E+03  0.12500000000E+03 0.  0.
        -13    1    3    3    0    0 -0.35698404591E+02  0.86007851742E+01 -0.18835771910E+02  0.41269202360E+02  0.10566000000E+00 0. -1.
         23    2    1    0    0    0  0.18888975349E+02  0.23771753429E+01 -0.21509566743E+02  0.96275344844E+02  0.91890348846E+02 0.  0.
         13    1    3    3    0    0  0.54587379941E+02 -0.62236098313E+01 -0.26737948330E+01  0.55006142484E+02  0.10566000000E+00 0.  1.
         22    1    1    0    0    0 -0.18888975349E+02 -0.23771753429E+01  0.21509566743E+02  0.28724655156E+02  0.00000000000E+00 0.  1.
</event>
<event>
 5    1  0.1320187E-009  0.9118800E+02  0.7818608E-02  0.1130116E+00
         25   -1    0    0    0    0  0.00000000000E+00  0.00000000000E+00  0.99999998245E-14  0.12500000000E+03  0.12500000000E+03 0.  0.
        -13    1    3    3    0    0 -0.19646316502E+02 -0.42604603326E+02  0.37386169331E+02  0.59990555906E+02  0.10566000000E+00 0.  1.
         23    2    1    0    0    0  0.16346505951E+01 -0.25697167700E+02  0.15017205751E+02  0.95191729689E+02  0.90404272146E+02 0.  0.
         13    1    3    3    0    0  0.21280967097E+02  0.16907435626E+02 -0.22368963580E+02  0.35201173783E+02  0.10566000000E+00 0. -1.
         22    1    1    0    0    0 -0.16346505951E+01  0.25697167700E+02 -0.15017205751E+02  0.29808270311E+02  0.00000000000E+00 0.  1.
</event>
<event>
 5    1  0.1320187E-009  0.9118800E+02  0.7818608E-02  0.1130116E+00
         25   -1    0    0    0    0  0.00000000000E+00  0.00000000000E+00  0.99999998245E-14  0.12500000000E+03  0.12500000000E+03 0.  0.
        -13    1    3    3    0    0  0.47397534761E+02  0.53431553906E+01 -0.79146447538E+01  0.48350060771E+02  0.10566000000E+00 0.  1.
         23    2    1    0    0    0  0.91516948136E+01  0.24325240887E+02  0.13051182977E+02  0.95917286247E+02  0.91401977887E+02 0.  0.
         13    1    3    3    0    0 -0.38245839947E+02  0.18982085496E+02  0.20965827731E+02  0.47567225476E+02  0.10566000000E+00 0. -1.
         22    1    1    0    0    0 -0.91516948136E+01 -0.24325240887E+02 -0.13051182977E+02  0.29082713753E+02  0.00000000000E+00 0.  1.
</event>
<event>
 5    1  0.1320187E-009  0.9118800E+02  0.7818608E-02  0.1130116E+00
         25   -1    0    0    0    0  0.00000000000E+00  0.00000000000E+00  0.99999998245E-14  0.12500000000E+03  0.12500000000E+03 0.  0.
        -13    1    3    3    0    0  0.13855412805E+02 -0.54046422582E+02 -0.64519498829E+01  0.56166066974E+02  0.10566000000E+00 0. -1.
         23    2    1    0    0    0 -0.88543676998E+01 -0.20785600224E+02 -0.15698732590E+02  0.97488344125E+02  0.93525857554E+02 0.  0.
         13    1    3    3    0    0 -0.22709780505E+02  0.33260822358E+02 -0.92467827072E+01  0.41322277152E+02  0.10566000000E+00 0.  1.
         22    1    1    0    0    0  0.88543676998E+01  0.20785600224E+02  0.15698732590E+02  0.27511655875E+02  0.00000000000E+00 0. -1.
</event>
<event>
 5    1  0.1320187E-009  0.9118800E+02  0.7818608E-02  0.1130116E+00
         25   -1    0    0    0    0  0.00000000000E+00  0.00000000000E+00  0.99999998245E-14  0.12500000000E+03  0.12500000000E+03 0.  0.
        -13    1    3    3    0    0 -0.38842065605E+02  0.83697717655E+01  0.49679420451E+01  0.40043111169E+02  0.10566000000E+00 0. -1.
         23    2    1    0    0    0  0.10846662652E+02  0.17716327598E+02 -0.19763068917E+02  0.96327761732E+02  0.91961624785E+02 0.  0.
         13    1    3    3    0    0  0.49688728257E+02  0.93465558329E+01 -0.24731010962E+02  0.56284650563E+02  0.10566000000E+00 0.  1.
         22    1    1    0    0    0 -0.10846662652E+02 -0.17716327598E+02  0.19763068917E+02  0.28672238268E+02  0.00000000000E+00 0.  1.
</event>
<event>
 5    1  0.1320187E-009  0.9118800E+02  0.7818608E-02  0.1130116E+00
         25   -1    0    0    0    0  0.00000000000E+00  0.00000000000E+00  0.99999998245E-14  0.12500000000E+03  0.12500000000E+03 0.  0.
        -13    1    3    3    0    0  0.36984094372E+02 -0.73184603790E+01  0.10338667172E+01  0.37715555720E+02  0.10566000000E+00 0. -1.
         23    2    1    0    0    0 -0.13502500499E+02  0.74893264937E+01  0.25067785483E+02  0.95558508868E+02  0.90909995144E+02 0.  0.
         13    1    3    3    0    0 -0.50486594870E+02  0.14807786873E+02  0.24033918766E+02  0.57842953149E+02  0.10566000000E+00 0.  1.
         22    1    1    0    0    0  0.13502500499E+02 -0.74893264937E+01 -0.25067785483E+02  0.29441491132E+02  0.00000000000E+00 0. -1.
</event>
<event>
 5    1  0.1320187E-009  0.9118800E+02  0.7818608E-02  0.1130116E+00
         25   -1    0    0    0    0  0.00000000000E+00  0.00000000000E+00  0.99999998245E-14  0.12500000000E+03  0.12500000000E+03 0.  0.
        -13    1    3    3    0    0  0.35351150852E+02 -0.27321592346E+01  0.48371843615E+02  0.59975119670E+02  0.10566000000E+00 0. -1.
         23    2    1    0    0    0  0.15497449188E+02  0.11268939081E+02  0.21372050752E+02  0.96295915400E+02  0.91918327063E+02 0.  0.
         13    1    3    3    0    0 -0.19853701664E+02  0.14001098316E+02 -0.26999792863E+02  0.36320795730E+02  0.10566000000E+00 0.  1.
         22    1    1    0    0    0 -0.15497449188E+02 -0.11268939081E+02 -0.21372050752E+02  0.28704084600E+02  0.00000000000E+00 0. -1.
</event>
<event>
 5    1  0.1320187E-009  0.9118800E+02  0.7818608E-02  0.1130116E+00
         25   -1    0    0    0    0  0.00000000000E+00  0.00000000000E+00  0.99999998245E-14  0.12500000000E+03  0.12500000000E+03 0.  0.
        -13    1    3    3    0    0  0.44435001979E+02 -0.25513960954E+01  0.35566653489E+02  0.56973476525E+02  0.10566000000E+00 0.  1.
         23    2    1    0    0    0  0.27974283768E+02 -0.85296931068E+01  0.98406540313E+00  0.95737658987E+02  0.91155991283E+02 0.  0.
         13    1    3    3    0    0 -0.16460718210E+02 -0.59782970114E+01 -0.34582588086E+02  0.38764182462E+02  0.10566000000E+00 0. -1.
         22    1    1    0    0    0 -0.27974283768E+02  0.85296931068E+01 -0.98406540313E+00  0.29262341013E+02  0.00000000000E+00 0.  1.
</event>
<event>
 5    1  0.1320187E-009  0.9118800E+02  0.7818608E-02  0.1130116E+00
         25   -1    0    0    0    0  0.00000000000E+00  0.00000000000E+00  0.99999998245E-14  0.12500000000E+03  0.12500000000E+03 0.  0.
        -13    1    3    3    0    0  0.43801446091E+01 -0.36425459770E+02  0.31209951147E+02  0.48167125728E+02  0.10566000000E+00 0. -1.
         23    2    1    0    0    0  0.14013621951E+02  0.95506699731E+01  0.23880999955E+02  0.95710086105E+02  0.91118173414E+02 0.  0.
         13    1    3    3    0    0  0.96334773418E+01  0.45976129743E+02 -0.73289511916E+01  0.47542960377E+02  0.10566000000E+00 0.  1.
         22    1    1    0    0    0 -0.14013621951E+02 -0.95506699731E+01 -0.23880999955E+02  0.29289913895E+02  0.00000000000E+00 0.  1.
</event>
<event>
 5    1  0.1320187E-009  0.9118800E+02  0.7818608E-02  0.1130116E+00
         25   -1    0    0    0    0  0.00000000000E+00  0.00000000000E+00  0.99999998245E-14  0.12500000000E+03  0.12500000000E+03 0.  0.
        -13    1    3    3    0    0 -0.12907999332E+01  0.39557104892E+02  0.68721524474E+00  0.39584266328E+02  0.10566000000E+00 0.  1.
         23    2    1    0    0    0 -0.46171978245E+01 -0.83228074682E+01 -0.27949998748E+02  0.95473908658E+02  0.90793596495E+02 0.  0.
         13    1    3    3    0    0 -0.33263978913E+01 -0.47879912360E+02 -0.28637213993E+02  0.55889642330E+02  0.10566000000E+00 0. -1.
         22    1    1    0    0    0  0.46171978245E+01  0.83228074682E+01  0.27949998748E+02  0.29526091342E+02  0.00000000000E+00 0. -1.
</event>
<event>
 5    1  0.1320187E-009  0.9118800E+02  0.7818608E-02  0.1130116E+00
         25   -1    0    0    0    0  0.00000000000E+00  0.00000000000E+00  0.99999998245E-14  0.12500000000E+03  0.12500000000E+03 0.  0.
        -13    1    3    3    0    0 -0.21724272142E+02  0.45723650850E+01  0.27172561638E+02  0.35088599183E+02  0.10566000000E+00 0. -1.
         23    2    1    0    0    0  0.59947491714E+01  0.16639471080E+02 -0.24397088509E+02  0.94866514587E+02  0.89953480459E+02 0.  0.
         13    1    3    3    0    0  0.27719021314E+02  0.12067105995E+02 -0.51569650147E+02  0.59777915404E+02  0.10566000000E+00 0.  1.
         22    1    1    0    0    0 -0.59947491714E+01 -0.16639471080E+02  0.24397088509E+02  0.30133485413E+02  0.00000000000E+00 0. -1.
</event>
<event>
 5    1  0.1320187E-009  0.9118800E+02  0.7818608E-02  0.1130116E+00
         25   -1    0    0    0    0  0.00000000000E+00  0.00000000000E+00  0.99999998245E-14  0.12500000000E+03  0.12500000000E+03 0.  0.
        -13    1    3    3    0    0  0.31416050269E+02 -0.23556255919E+02 -0.17558859330E+02  0.43013836291E+02  0.10566000000E+00 0. -1.
         23    2    1    0    0    0  0.28249019889E+02  0.30601625865E+01  0.20783151757E+02  0.89796149121E+02  0.82607731359E+02 0.  0.
         13    1    3    3    0    0 -0.31670303804E+01  0.26616418505E+02  0.38342011087E+02  0.46782312830E+02  0.10566000000E+00 0.  1.
         22    1    1    0    0    0 -0.28249019889E+02 -0.30601625865E+01 -0.20783151757E+02  0.35203850879E+02  0.00000000000E+00 0.  1.
</event>
<event>
 5    1  0.1320187E-009  0.9118800E+02  0.7818608E-02  0.1130116E+00
         25   -1    0    0    0    0  0.00000000000E+00  0.00000000000E+00  0.99999998245E-14  0.12500000000E+03  0.12500000000E+03 0.  0.
        -13    1    3    3    0    0 -0.36590211582E+02 -0.24593798610E+02 -0.38189726275E+02  0.58328079607E+02  0.10566000000E+00 0.  1.
         23    2    1    0    0    0 -0.21165316020E+02  0.40672583471E+01 -0.19911425431E+02  0.95657572435E+02  0.91046104303E+02 0.  0.
         13    1    3    3    0    0  0.15424895562E+02  0.28661056957E+02  0.18278300844E+02  0.37329492828E+02  0.10566000000E+00 0. -1.
         22    1    1    0    0    0  0.21165316020E+02 -0.40672583471E+01  0.19911425431E+02  0.29342427565E+02  0.00000000000E+00 0.  1.
</event>
