<event>
 5    1  0.3186486E-003  0.9118800E+02  0.7818608E-02  0.1130116E+00
         25   -1    0    0    0    0  0.00000000000E+00  0.00000000000E+00  0.99999998245E-14  0.12500000000E+03  0.12500000000E+03 0.  0.
        -11    1    3    3    0    0  0.16277289986E+02 -0.38083309887E+02 -0.22517884611E+02  0.47141741470E+02  0.51100000000E-03 0.  1.
         23    2    1    0    0    0 -0.22810771425E+02 -0.99409721379E+01 -0.15152484496E+02  0.95866651300E+02  0.91332704028E+02 0.  0.
         11    1    3    3    0    0 -0.39088061411E+02  0.28142337749E+02  0.73654001147E+01  0.48724909830E+02  0.51100000000E-03 0. -1.
         22    1    1    0    0    0  0.22810771425E+02  0.99409721379E+01  0.15152484496E+02  0.29133348700E+02  0.00000000000E+00 0. -1.
</event>
<event>
 5    1  0.3186486E-003  0.9118800E+02  0.7818608E-02  0.1130116E+00
         25   -1    0    0    0    0  0.00000000000E+00  0.00000000000E+00  0.99999998245E-14  0.12500000000E+03  0.12500000000E+03 0.  0.
        -11    1    3    3    0    0 -0.13016035059E+02 -0.30556253993E+02 -0.23839643109E+02  0.40883131125E+02  0.51100000000E-03 0. -1.
         23    2    1    0    0    0 -0.18925974464E+02  0.21020909715E+02 -0.12772926786E+02  0.93964233321E+02  0.88690801836E+02 0.  0.
         11    1    3    3    0    0 -0.59099394050E+01  0.51577163708E+02  0.11066716323E+02  0.53081102196E+02  0.51100000000E-03 0.  1.
         22    1    1    0    0    0  0.18925974464E+02 -0.21020909715E+02  0.12772926786E+02  0.31035766679E+02  0.00000000000E+00 0.  1.
</event>
<event>
 5    1  0.3186486E-003  0.9118800E+02  0.7818608E-02  0.1130116E+00
         25   -1    0    0    0    0  0.00000000000E+00  0.00000000000E+00  0.99999998245E-14  0.12500000000E+03  0.12500000000E+03 0.  0.
        -11    1    3    3    0    0 -0.22034539298E+02  0.48150593693E+02 -0.17629806272E+02  0.55810488839E+02  0.51100000000E-03 0. -1.
         23    2    1    0    0    0  0.10700411719E+02  0.21870646745E+02 -0.10893221012E+02  0.98326300144E+02  0.94639183407E+02 0.  0.
         11    1    3    3    0    0  0.32734951017E+02 -0.26279946948E+02  0.67365852598E+01  0.42515811305E+02  0.51100000000E-03 0.  1.
         22    1    1    0    0    0 -0.10700411719E+02 -0.21870646745E+02  0.10893221012E+02  0.26673699856E+02  0.00000000000E+00 0. -1.
</event>
<event>
 5    1  0.3186486E-003  0.9118800E+02  0.7818608E-02  0.1130116E+00
         25   -1    0    0    0    0  0.00000000000E+00  0.00000000000E+00  0.99999998245E-14  0.12500000000E+03  0.12500000000E+03 0.  0.
        -11    1    3    3    0    0 -0.18375047546E+02 -0.26190952071E+02  0.10536576748E+02  0.33684236558E+02  0.51100000000E-03 0. -1.
         23    2    1    0    0    0  0.14222891899E+02  0.22993259646E+02 -0.10016754938E+02  0.96167448559E+02  0.91743458294E+02 0.  0.
         11    1    3    3    0    0  0.32597939444E+02  0.49184211717E+02 -0.20553331686E+02  0.62483212001E+02  0.51100000000E-03 0.  1.
         22    1    1    0    0    0 -0.14222891899E+02 -0.22993259646E+02  0.10016754938E+02  0.28832551441E+02  0.00000000000E+00 0.  1.
</event>
<event>
 5    1  0.3186486E-003  0.9118800E+02  0.7818608E-02  0.1130116E+00
         25   -1    0    0    0    0  0.00000000000E+00  0.00000000000E+00  0.99999998245E-14  0.12500000000E+03  0.12500000000E+03 0.  0.
        -11    1    3    3    0    0  0.31958092019E+02 -0.33143140928E+02  0.15174175909E+02  0.48477242607E+02  0.51100000000E-03 0. -1.
         23    2    1    0    0    0  0.67576083203E+01 -0.34925432157E+02 -0.13732854533E+02  0.86868092427E+02  0.78051413227E+02 0.  0.
         11    1    3    3    0    0 -0.25200483698E+02 -0.17822912292E+01 -0.28907030441E+02  0.38390849820E+02  0.51100000000E-03 0.  1.
         22    1    1    0    0    0 -0.67576083203E+01  0.34925432157E+02  0.13732854533E+02  0.38131907573E+02  0.00000000000E+00 0.  1.
</event>
<event>
 5    1  0.3186486E-003  0.9118800E+02  0.7818608E-02  0.1130116E+00
         25   -1    0    0    0    0  0.00000000000E+00  0.00000000000E+00  0.99999998245E-14  0.12500000000E+03  0.12500000000E+03 0.  0.
        -11    1    3    3    0    0  0.88558594101E-01 -0.11602739556E+02  0.59565701366E+02  0.60685288063E+02  0.51100000000E-03 0. -1.
         23    2    1    0    0    0 -0.45231812241E+01 -0.14951396311E+02  0.26498349508E+02  0.94240189424E+02  0.89078882773E+02 0.  0.
         11    1    3    3    0    0 -0.46117398182E+01 -0.33486567551E+01 -0.33067351858E+02  0.33554901361E+02  0.51100000000E-03 0.  1.
         22    1    1    0    0    0  0.45231812241E+01  0.14951396311E+02 -0.26498349508E+02  0.30759810576E+02  0.00000000000E+00 0. -1.
</event>
<event>
 5    1  0.3186486E-003  0.9118800E+02  0.7818608E-02  0.1130116E+00
         25   -1    0    0    0    0  0.00000000000E+00  0.00000000000E+00  0.99999998245E-14  0.12500000000E+03  0.12500000000E+03 0.  0.
        -11    1    3    3    0    0 -0.80970872075E+01  0.25995816194E+02  0.18613878257E+02  0.32982142818E+02  0.51100000000E-03 0. -1.
         23    2    1    0    0    0  0.11486342206E+02 -0.22488793805E+02 -0.15456750847E+02  0.95392685856E+02  0.90681704130E+02 0.  0.
         11    1    3    3    0    0  0.19583429414E+02 -0.48484609999E+02 -0.34070629105E+02  0.62410543037E+02  0.51100000000E-03 0.  1.
         22    1    1    0    0    0 -0.11486342206E+02  0.22488793805E+02  0.15456750847E+02  0.29607314144E+02  0.00000000000E+00 0.  1.
</event>
<event>
 5    1  0.3186486E-003  0.9118800E+02  0.7818608E-02  0.1130116E+00
         25   -1    0    0    0    0  0.00000000000E+00  0.00000000000E+00  0.99999998245E-14  0.12500000000E+03  0.12500000000E+03 0.  0.
        -11    1    3    3    0    0  0.21851813378E+02  0.23341934778E+02 -0.26514848482E+02  0.41537752194E+02  0.51100000000E-03 0.  1.
         23    2    1    0    0    0  0.42728281472E+01 -0.24001653833E+02  0.36299090505E+01  0.10035222755E+03  0.97278244676E+02 0.  0.
         11    1    3    3    0    0 -0.17578985230E+02 -0.47343588611E+02  0.30144757532E+02  0.58814475355E+02  0.51100000000E-03 0. -1.
         22    1    1    0    0    0 -0.42728281472E+01  0.24001653833E+02 -0.36299090505E+01  0.24647772451E+02  0.00000000000E+00 0. -1.
</event>
<event>
 5    1  0.3186486E-003  0.9118800E+02  0.7818608E-02  0.1130116E+00
         25   -1    0    0    0    0  0.00000000000E+00  0.00000000000E+00  0.99999998245E-14  0.12500000000E+03  0.12500000000E+03 0.  0.
        -11    1    3    3    0    0  0.14306542027E+02  0.11694751566E+02 -0.31221988948E+02  0.36280255692E+02  0.51100000000E-03 0.  1.
         23    2    1    0    0    0 -0.13755872029E+02 -0.17023354748E+02  0.15720612086E+02  0.98052713188E+02  0.94277135600E+02 0.  0.
         11    1    3    3    0    0 -0.28062414056E+02 -0.28718106315E+02  0.46942601034E+02  0.61772457496E+02  0.51100000000E-03 0. -1.
         22    1    1    0    0    0  0.13755872029E+02  0.17023354748E+02 -0.15720612086E+02  0.26947286812E+02  0.00000000000E+00 0. -1.
</event>
<event>
 5    1  0.3186486E-003  0.9118800E+02  0.7818608E-02  0.1130116E+00
         25   -1    0    0    0    0  0.00000000000E+00  0.00000000000E+00  0.99999998245E-14  0.12500000000E+03  0.12500000000E+03 0.  0.
        -11    1    3    3    0    0  0.36934899553E+02  0.93895875065E+01  0.10307335326E+02  0.39479011136E+02  0.51100000000E-03 0. -1.
         23    2    1    0    0    0 -0.23320658057E+01 -0.15288158944E+02 -0.23497922123E+02  0.96869612891E+02  0.92695216828E+02 0.  0.
         11    1    3    3    0    0 -0.39266965359E+02 -0.24677746450E+02 -0.33805257449E+02  0.57390601755E+02  0.51100000000E-03 0.  1.
         22    1    1    0    0    0  0.23320658057E+01  0.15288158944E+02  0.23497922123E+02  0.28130387109E+02  0.00000000000E+00 0. -1.
</event>
<event>
 5    1  0.3186486E-003  0.9118800E+02  0.7818608E-02  0.1130116E+00
         25   -1    0    0    0    0  0.00000000000E+00  0.00000000000E+00  0.99999998245E-14  0.12500000000E+03  0.12500000000E+03 0.  0.
        -11    1    3    3    0    0  0.32122528646E+02  0.70878174182E+01  0.34838812459E+02  0.47914891800E+02  0.51100000000E-03 0.  1.
         23    2    1    0    0    0 -0.12769173593E+02  0.11214187185E+02  0.26130599120E+02  0.93829212412E+02  0.88500300017E+02 0.  0.
         11    1    3    3    0    0 -0.44891702240E+02  0.41263697672E+01 -0.87082133395E+01  0.45914320612E+02  0.51100000000E-03 0. -1.
         22    1    1    0    0    0  0.12769173593E+02 -0.11214187185E+02 -0.26130599120E+02  0.31170787588E+02  0.00000000000E+00 0.  1.
</event>
<event>
 5    1  0.3186486E-003  0.9118800E+02  0.7818608E-02  0.1130116E+00
         25   -1    0    0    0    0  0.00000000000E+00  0.00000000000E+00  0.99999998245E-14  0.12500000000E+03  0.12500000000E+03 0.  0.
        -11    1    3    3    0    0 -0.30362839478E+01 -0.16334158782E+02  0.10415092221E+02  0.19608618248E+02  0.51100000000E-03 0.  1.
         23    2    1    0    0    0 -0.22563912590E+02  0.35362310562E+02 -0.15021796390E+02  0.80443546747E+02  0.66976762290E+02 0.  0.
         11    1    3    3    0    0 -0.19527628643E+02  0.51696469344E+02 -0.25436888611E+02  0.60834928500E+02  0.51100000000E-03 0. -1.
         22    1    1    0    0    0  0.22563912590E+02 -0.35362310562E+02  0.15021796390E+02  0.44556453253E+02  0.00000000000E+00 0. -1.
</event>
<event>
 5    1  0.3186486E-003  0.9118800E+02  0.7818608E-02  0.1130116E+00
         25   -1    0    0    0    0  0.00000000000E+00  0.00000000000E+00  0.99999998245E-14  0.12500000000E+03  0.12500000000E+03 0.  0.
        -11    1    3    3    0    0 -0.57522323880E+02 -0.15144620554E+02 -0.49523827523E+01  0.59688385566E+02  0.51100000000E-03 0.  1.
         23    2    1    0    0    0 -0.28075420586E+02 -0.20604046941E+02 -0.60332504053E+01  0.89656597477E+02  0.82396294634E+02 0.  0.
         11    1    3    3    0    0  0.29446903293E+02 -0.54594263869E+01 -0.10808676530E+01  0.29968211912E+02  0.51100000000E-03 0. -1.
         22    1    1    0    0    0  0.28075420586E+02  0.20604046941E+02  0.60332504053E+01  0.35343402523E+02  0.00000000000E+00 0.  1.
</event>
<event>
 5    1  0.3186486E-003  0.9118800E+02  0.7818608E-02  0.1130116E+00
         25   -1    0    0    0    0  0.00000000000E+00  0.00000000000E+00  0.99999998245E-14  0.12500000000E+03  0.12500000000E+03 0.  0.
        -11    1    3    3    0    0 -0.13075032705E+02 -0.18659048246E+02  0.37908280703E+02  0.44228433251E+02  0.51100000000E-03 0.  1.
         23    2    1    0    0    0 -0.18006767952E+02 -0.20324304890E+02 -0.12643182550E+02  0.95047185002E+02  0.90204191978E+02 0.  0.
         11    1    3    3    0    0 -0.49317352462E+01 -0.16652566446E+01 -0.50551463253E+02  0.50818751751E+02  0.51100000000E-03 0. -1.
         22    1    1    0    0    0  0.18006767952E+02  0.20324304890E+02  0.12643182550E+02  0.29952814998E+02  0.00000000000E+00 0. -1.
</event>
<event>
 5    1  0.3186486E-003  0.9118800E+02  0.7818608E-02  0.1130116E+00
         25   -1    0    0    0    0  0.00000000000E+00  0.00000000000E+00  0.99999998245E-14  0.12500000000E+03  0.12500000000E+03 0.  0.
        -11    1    3    3    0    0  0.92155130214E+01 -0.56095447813E+02 -0.25924410774E+02  0.62479596828E+02  0.51100000000E-03 0.  1.
         23    2    1    0    0    0  0.30971143058E+01 -0.25197965459E+02 -0.12064565175E+02  0.96891579319E+02  0.92724833943E+02 0.  0.
         11    1    3    3    0    0 -0.61183987156E+01  0.30897482354E+02  0.13859845599E+02  0.34411982491E+02  0.51100000000E-03 0. -1.
         22    1    1    0    0    0 -0.30971143058E+01  0.25197965459E+02  0.12064565175E+02  0.28108420681E+02  0.00000000000E+00 0.  1.
</event>
<event>
 5    1  0.3186486E-003  0.9118800E+02  0.7818608E-02  0.1130116E+00
         25   -1    0    0    0    0  0.00000000000E+00  0.00000000000E+00  0.99999998245E-14  0.12500000000E+03  0.12500000000E+03 0.  0.
        -11    1    3    3    0    0 -0.20839679260E+02  0.37220499912E+02 -0.31915101272E+02  0.53275055465E+02  0.51100000000E-03 0.  1.
         23    2    1    0    0    0 -0.21515468565E+02  0.21303842543E+02  0.57589624062E+01  0.94178988617E+02  0.88992961262E+02 0.  0.
         11    1    3    3    0    0 -0.67578930554E+00 -0.15916657369E+02  0.37674063678E+02  0.40903933152E+02  0.51100000000E-03 0. -1.
         22    1    1    0    0    0  0.21515468565E+02 -0.21303842543E+02 -0.57589624062E+01  0.30821011383E+02  0.00000000000E+00 0.  1.
</event>
<event>
 5    1  0.3186486E-003  0.9118800E+02  0.7818608E-02  0.1130116E+00
         25   -1    0    0    0    0  0.00000000000E+00  0.00000000000E+00  0.99999998245E-14  0.12500000000E+03  0.12500000000E+03 0.  0.
        -11    1    3    3    0    0 -0.42303015978E+02 -0.27228446399E+01  0.11164975075E+02  0.43836237435E+02  0.51100000000E-03 0.  1.
         23    2    1    0    0    0  0.22310777998E+00  0.27229875840E+02  0.10380099118E+02  0.95857893469E+02  0.91320717076E+02 0.  0.
         11    1    3    3    0    0  0.42526123758E+02  0.29952720480E+02 -0.78487595705E+00  0.52021656034E+02  0.51100000000E-03 0. -1.
         22    1    1    0    0    0 -0.22310777998E+00 -0.27229875840E+02 -0.10380099118E+02  0.29142106531E+02  0.00000000000E+00 0. -1.
</event>
<event>
 5    1  0.3186486E-003  0.9118800E+02  0.7818608E-02  0.1130116E+00
         25   -1    0    0    0    0  0.00000000000E+00  0.00000000000E+00  0.99999998245E-14  0.12500000000E+03  0.12500000000E+03 0.  0.
        -11    1    3    3    0    0  0.32557051431E+02  0.22844716375E+02 -0.38849197407E+02  0.55597687035E+02  0.51100000000E-03 0.  1.
         23    2    1    0    0    0  0.25621438843E+02 -0.57535442880E+01 -0.97329112724E+01  0.96994804730E+02  0.92863885244E+02 0.  0.
         11    1    3    3    0    0 -0.69356125885E+01 -0.28598260663E+02  0.29116286135E+02  0.41397117696E+02  0.51100000000E-03 0. -1.
         22    1    1    0    0    0 -0.25621438843E+02  0.57535442880E+01  0.97329112724E+01  0.28005195270E+02  0.00000000000E+00 0.  1.
</event>
<event>
 5    1  0.3186486E-003  0.9118800E+02  0.7818608E-02  0.1130116E+00
         25   -1    0    0    0    0  0.00000000000E+00  0.00000000000E+00  0.99999998245E-14  0.12500000000E+03  0.12500000000E+03 0.  0.
        -11    1    3    3    0    0  0.15142765594E+02  0.32523849538E+02 -0.75773426337E+01  0.36667700504E+02  0.51100000000E-03 0.  1.
         23    2    1    0    0    0 -0.82491152118E+01 -0.76327335099E+01  0.27761043258E+02  0.95050341481E+02  0.90208565947E+02 0.  0.
         11    1    3    3    0    0 -0.23391880805E+02 -0.40156583048E+02  0.35338385892E+02  0.58382640977E+02  0.51100000000E-03 0. -1.
         22    1    1    0    0    0  0.82491152118E+01  0.76327335099E+01 -0.27761043258E+02  0.29949658519E+02  0.00000000000E+00 0. -1.
</event>
<event>
 5    1  0.3186486E-003  0.9118800E+02  0.7818608E-02  0.1130116E+00
         25   -1    0    0    0    0  0.00000000000E+00  0.00000000000E+00  0.99999998245E-14  0.12500000000E+03  0.12500000000E+03 0.  0.
        -11    1    3    3    0    0  0.53285606521E+02  0.30928724713E+01 -0.28777707335E+02  0.60638916235E+02  0.51100000000E-03 0.  1.
         23    2    1    0    0    0  0.29806446825E+02 -0.50503993135E+01 -0.63609013479E+01  0.94106766574E+02  0.88891459901E+02 0.  0.
         11    1    3    3    0    0 -0.23479159695E+02 -0.81432717847E+01  0.22416805987E+02  0.33467850339E+02  0.51100000000E-03 0. -1.
         22    1    1    0    0    0 -0.29806446825E+02  0.50503993135E+01  0.63609013479E+01  0.30893233426E+02  0.00000000000E+00 0.  1.
</event>
<event>
 5    1  0.3186486E-003  0.9118800E+02  0.7818608E-02  0.1130116E+00
         25   -1    0    0    0    0  0.00000000000E+00  0.00000000000E+00  0.99999998245E-14  0.12500000000E+03  0.12500000000E+03 0.  0.
        -11    1    3    3    0    0  0.20874539581E+02  0.55602937922E+02  0.98535187103E+00  0.59400370595E+02  0.51100000000E-03 0. -1.
         23    2    1    0    0    0  0.21175346867E+02  0.19444183925E+02 -0.42559577196E+01  0.95938259179E+02  0.91430655661E+02 0.  0.
         11    1    3    3    0    0  0.30080728608E+00 -0.36158753997E+02 -0.52413095906E+01  0.36537888583E+02  0.51100000000E-03 0.  1.
         22    1    1    0    0    0 -0.21175346867E+02 -0.19444183925E+02  0.42559577196E+01  0.29061740821E+02  0.00000000000E+00 0. -1.
</event>
<event>
 5    1  0.3186486E-003  0.9118800E+02  0.7818608E-02  0.1130116E+00
         25   -1    0    0    0    0  0.00000000000E+00  0.00000000000E+00  0.99999998245E-14  0.12500000000E+03  0.12500000000E+03 0.  0.
        -11    1    3    3    0    0  0.19377577155E+02  0.10500691505E+02 -0.44153458837E+02  0.49348586059E+02  0.51100000000E-03 0.  1.
         23    2    1    0    0    0 -0.86232595199E+01  0.26234494344E+02 -0.11700433780E+02  0.95008176966E+02  0.90150120586E+02 0.  0.
         11    1    3    3    0    0 -0.28000836675E+02  0.15733802839E+02  0.32453025057E+02  0.45659590907E+02  0.51100000000E-03 0. -1.
         22    1    1    0    0    0  0.86232595199E+01 -0.26234494344E+02  0.11700433780E+02  0.29991823034E+02  0.00000000000E+00 0. -1.
</event>
<event>
 5    1  0.3186486E-003  0.9118800E+02  0.7818608E-02  0.1130116E+00
         25   -1    0    0    0    0  0.00000000000E+00  0.00000000000E+00  0.99999998245E-14  0.12500000000E+03  0.12500000000E+03 0.  0.
        -11    1    3    3    0    0 -0.10417109186E+02  0.27250555899E+02 -0.22130152338E+02  0.36617654258E+02  0.51100000000E-03 0.  1.
         23    2    1    0    0    0  0.16853185802E+02  0.32025754072E+01  0.24090842725E+02  0.95425432140E+02  0.90726831946E+02 0.  0.
         11    1    3    3    0    0  0.27270294989E+02 -0.24047980492E+02  0.46220995063E+02  0.58807777881E+02  0.51100000000E-03 0. -1.
         22    1    1    0    0    0 -0.16853185802E+02 -0.32025754072E+01 -0.24090842725E+02  0.29574567860E+02  0.00000000000E+00 0. -1.
</event>
<event>
 5    1  0.3186486E-003  0.9118800E+02  0.7818608E-02  0.1130116E+00
         25   -1    0    0    0    0  0.00000000000E+00  0.00000000000E+00  0.99999998245E-14  0.12500000000E+03  0.12500000000E+03 0.  0.
        -11    1    3    3    0    0 -0.32910196639E+02  0.28495316545E+02  0.21927711700E+01  0.43587525205E+02  0.51100000000E-03 0.  1.
         23    2    1    0    0    0  0.10521036195E+02  0.24239688816E+02 -0.19343961301E+02  0.92251816000E+02  0.86243573673E+02 0.  0.
         11    1    3    3    0    0  0.43431232833E+02 -0.42556277297E+01 -0.21536732471E+02  0.48664290795E+02  0.51100000000E-03 0. -1.
         22    1    1    0    0    0 -0.10521036195E+02 -0.24239688816E+02  0.19343961301E+02  0.32748184000E+02  0.00000000000E+00 0. -1.
</event>
<event>
 5    1  0.3186486E-003  0.9118800E+02  0.7818608E-02  0.1130116E+00
         25   -1    0    0    0    0  0.00000000000E+00  0.00000000000E+00  0.99999998245E-14  0.12500000000E+03  0.12500000000E+03 0.  0.
        -11    1    3    3    0    0  0.52828042870E+02 -0.22111073202E+02  0.24339521776E+02  0.62226312699E+02  0.51100000000E-03 0. -1.
         23    2    1    0    0    0  0.23776239407E+02 -0.13491165521E+02  0.88040743253E+01  0.96280096933E+02  0.91896812965E+02 0.  0.
         11    1    3    3    0    0 -0.29051803463E+02  0.86199076812E+01 -0.15535447451E+02  0.34053784233E+02  0.51100000000E-03 0.  1.
         22    1    1    0    0    0 -0.23776239407E+02  0.13491165521E+02 -0.88040743253E+01  0.28719903067E+02  0.00000000000E+00 0. -1.
</event>
<event>
 5    1  0.3186486E-003  0.9118800E+02  0.7818608E-02  0.1130116E+00
         25   -1    0    0    0    0  0.00000000000E+00  0.00000000000E+00  0.99999998245E-14  0.12500000000E+03  0.12500000000E+03 0.  0.
        -11    1    3    3    0    0 -0.14741415797E+02 -0.39834896161E+02 -0.17379359177E+02  0.45893032342E+02  0.51100000000E-03 0.  1.
         23    2    1    0    0    0 -0.25081270374E+02  0.23410882313E+01 -0.24456131931E+02  0.89890838708E+02  0.82750889281E+02 0.  0.
         11    1    3    3    0    0 -0.10339854576E+02  0.42175984392E+02 -0.70767727540E+01  0.43997806366E+02  0.51100000000E-03 0. -1.
         22    1    1    0    0    0  0.25081270374E+02 -0.23410882313E+01  0.24456131931E+02  0.35109161292E+02  0.00000000000E+00 0. -1.
</event>
<event>
 5    1  0.3186486E-003  0.9118800E+02  0.7818608E-02  0.1130116E+00
         25   -1    0    0    0    0  0.00000000000E+00  0.00000000000E+00  0.99999998245E-14  0.12500000000E+03  0.12500000000E+03 0.  0.
        -11    1    3    3    0    0 -0.15994405636E+00  0.43995507733E+02  0.89984176116E-01  0.43995890492E+02  0.51100000000E-03 0. -1.
         23    2    1    0    0    0 -0.21447143371E+02  0.20058009798E+01  0.20459887365E+02  0.95291243928E+02  0.90541763745E+02 0.  0.
         11    1    3    3    0    0 -0.21287199315E+02 -0.41989706753E+02  0.20369903189E+02  0.51295353436E+02  0.51100000000E-03 0.  1.
         22    1    1    0    0    0  0.21447143371E+02 -0.20058009798E+01 -0.20459887365E+02  0.29708756072E+02  0.00000000000E+00 0. -1.
</event>
<event>
 5    1  0.3186486E-003  0.9118800E+02  0.7818608E-02  0.1130116E+00
         25   -1    0    0    0    0  0.00000000000E+00  0.00000000000E+00  0.99999998245E-14  0.12500000000E+03  0.12500000000E+03 0.  0.
        -11    1    3    3    0    0 -0.31819201474E+01 -0.41455825636E+02  0.30331936917E+02  0.51465876970E+02  0.51100000000E-03 0.  1.
         23    2    1    0    0    0 -0.25474572725E+02 -0.11354982250E+02  0.50519624388E+01  0.96655480214E+02  0.92406006588E+02 0.  0.
         11    1    3    3    0    0 -0.22292652577E+02  0.30100843386E+02 -0.25279974478E+02  0.45189603244E+02  0.51100000000E-03 0. -1.
         22    1    1    0    0    0  0.25474572725E+02  0.11354982250E+02 -0.50519624388E+01  0.28344519786E+02  0.00000000000E+00 0.  1.
</event>
<event>
 5    1  0.3186486E-003  0.9118800E+02  0.7818608E-02  0.1130116E+00
         25   -1    0    0    0    0  0.00000000000E+00  0.00000000000E+00  0.99999998245E-14  0.12500000000E+03  0.12500000000E+03 0.  0.
        -11    1    3    3    0    0 -0.20794704299E+01  0.25159418119E+02 -0.42121069356E+02  0.49107076896E+02  0.51100000000E-03 0. -1.
         23    2    1    0    0    0  0.42145423220E+01 -0.17096478351E+02 -0.23309176962E+02  0.95787508329E+02  0.91224322865E+02 0.  0.
         11    1    3    3    0    0  0.62940127519E+01 -0.42255896470E+02  0.18811892394E+02  0.46680431433E+02  0.51100000000E-03 0.  1.
         22    1    1    0    0    0 -0.42145423220E+01  0.17096478351E+02  0.23309176962E+02  0.29212491671E+02  0.00000000000E+00 0. -1.
</event>
<event>
 5    1  0.3186486E-003  0.9118800E+02  0.7818608E-02  0.1130116E+00
         25   -1    0    0    0    0  0.00000000000E+00  0.00000000000E+00  0.99999998245E-14  0.12500000000E+03  0.12500000000E+03 0.  0.
        -11    1    3    3    0    0  0.83183147852E+01 -0.15173186021E+02 -0.53802898872E+02  0.56517005071E+02  0.51100000000E-03 0.  1.
         23    2    1    0    0    0 -0.90728163034E+01  0.82687841390E+01 -0.22847368947E+02  0.99063711626E+02  0.95608199996E+02 0.  0.
         11    1    3    3    0    0 -0.17391131089E+02  0.23441970161E+02  0.30955529925E+02  0.42546706556E+02  0.51100000000E-03 0. -1.
         22    1    1    0    0    0  0.90728163034E+01 -0.82687841390E+01  0.22847368947E+02  0.25936288374E+02  0.00000000000E+00 0.  1.
</event>
<event>
 4    1  0.3186486E-003  0.9118800E+02  0.7818608E-02  0.1130116E+00
         25   -1    0    0    0    0  0.00000000000E+00  0.00000000000E+00  0.99999998245E-14  0.12500000000E+03  0.12500000000E+03 0.  0.
        -11    1    1    0    0    0 -0.20492279601E+01  0.19238336396E+02 -0.88377733234E+01  0.21270147157E+02  0.51100000000E-03 0.  1.
         11    1    1    0    0    0 -0.27239777165E+02  0.32335522383E+02  0.13110218113E+02  0.44265893044E+02  0.51100000000E-03 0. -1.
         22    1    1    0    0    0  0.29289005125E+02 -0.51573858778E+02 -0.42724447898E+01  0.59463959799E+02  0.00000000000E+00 0. -1.
</event>
<event>
 5    1  0.3186486E-003  0.9118800E+02  0.7818608E-02  0.1130116E+00
         25   -1    0    0    0    0  0.00000000000E+00  0.00000000000E+00  0.99999998245E-14  0.12500000000E+03  0.12500000000E+03 0.  0.
        -11    1    3    3    0    0  0.91098998334E+01  0.48358631779E+02 -0.10424803565E+02  0.50301332708E+02  0.51100000000E-03 0.  1.
         23    2    1    0    0    0  0.20918429381E+00  0.77122069679E+01 -0.28358286756E+02  0.95610982968E+02  0.90982117705E+02 0.  0.
         11    1    3    3    0    0 -0.89007155396E+01 -0.40646424812E+02 -0.17933483191E+02  0.45309650260E+02  0.51100000000E-03 0. -1.
         22    1    1    0    0    0 -0.20918429381E+00 -0.77122069679E+01  0.28358286756E+02  0.29389017032E+02  0.00000000000E+00 0.  1.
</event>
<event>
 5    1  0.3186486E-003  0.9118800E+02  0.7818608E-02  0.1130116E+00
         25   -1    0    0    0    0  0.00000000000E+00  0.00000000000E+00  0.99999998245E-14  0.12500000000E+03  0.12500000000E+03 0.  0.
        -11    1    3    3    0    0 -0.48313329806E+02 -0.37535276106E+02 -0.11207062209E+02  0.62198657807E+02  0.51100000000E-03 0.  1.
         23    2    1    0    0    0 -0.19958365489E+02 -0.20964364770E+02 -0.48218831310E+01  0.95655639381E+02  0.91043450315E+02 0.  0.
         11    1    3    3    0    0  0.28354964317E+02  0.16570911337E+02  0.63851790781E+01  0.33456981574E+02  0.51100000000E-03 0. -1.
         22    1    1    0    0    0  0.19958365489E+02  0.20964364770E+02  0.48218831310E+01  0.29344360619E+02  0.00000000000E+00 0.  1.
</event>
<event>
 5    1  0.3186486E-003  0.9118800E+02  0.7818608E-02  0.1130116E+00
         25   -1    0    0    0    0  0.00000000000E+00  0.00000000000E+00  0.99999998245E-14  0.12500000000E+03  0.12500000000E+03 0.  0.
        -11    1    3    3    0    0  0.31160030953E+01 -0.39344942232E+02  0.71195800044E+01  0.40105141493E+02  0.51100000000E-03 0.  1.
         23    2    1    0    0    0 -0.22582414507E+02  0.89594262830E+01  0.16518538649E+02  0.95621455391E+02  0.90996504590E+02 0.  0.
         11    1    3    3    0    0 -0.25698417602E+02  0.48304368515E+02  0.93989586442E+01  0.55516313897E+02  0.51100000000E-03 0. -1.
         22    1    1    0    0    0  0.22582414507E+02 -0.89594262830E+01 -0.16518538649E+02  0.29378544609E+02  0.00000000000E+00 0. -1.
</event>
<event>
 5    1  0.3186486E-003  0.9118800E+02  0.7818608E-02  0.1130116E+00
         25   -1    0    0    0    0  0.00000000000E+00  0.00000000000E+00  0.99999998245E-14  0.12500000000E+03  0.12500000000E+03 0.  0.
        -11    1    3    3    0    0 -0.19170402737E+02 -0.25799000924E+02  0.47358533766E+02  0.57235683891E+02  0.51100000000E-03 0.  1.
         23    2    1    0    0    0 -0.25044008105E+02 -0.95038200940E+01  0.14113157525E+02  0.94722844360E+02  0.89753613241E+02 0.  0.
         11    1    3    3    0    0 -0.58736053685E+01  0.16295180830E+02 -0.33245376241E+02  0.37487160468E+02  0.51100000000E-03 0. -1.
         22    1    1    0    0    0  0.25044008105E+02  0.95038200940E+01 -0.14113157525E+02  0.30277155640E+02  0.00000000000E+00 0.  1.
</event>
<event>
 5    1  0.3186486E-003  0.9118800E+02  0.7818608E-02  0.1130116E+00
         25   -1    0    0    0    0  0.00000000000E+00  0.00000000000E+00  0.99999998245E-14  0.12500000000E+03  0.12500000000E+03 0.  0.
        -11    1    3    3    0    0 -0.42787070929E+02  0.12902648248E+02  0.96203678236E+00  0.44700528918E+02  0.51100000000E-03 0. -1.
         23    2    1    0    0    0 -0.39726077326E+01  0.37748016737E+00 -0.29263961224E+02  0.95465214916E+02  0.90781626604E+02 0.  0.
         11    1    3    3    0    0  0.38814463197E+02 -0.12525168081E+02 -0.30225998006E+02  0.50764685998E+02  0.51100000000E-03 0.  1.
         22    1    1    0    0    0  0.39726077326E+01 -0.37748016737E+00  0.29263961224E+02  0.29534785084E+02  0.00000000000E+00 0.  1.
</event>
<event>
 5    1  0.3186486E-003  0.9118800E+02  0.7818608E-02  0.1130116E+00
         25   -1    0    0    0    0  0.00000000000E+00  0.00000000000E+00  0.99999998245E-14  0.12500000000E+03  0.12500000000E+03 0.  0.
        -11    1    3    3    0    0  0.27885018491E+02 -0.10594758729E+02 -0.43414542671E+02  0.52674905642E+02  0.51100000000E-03 0. -1.
         23    2    1    0    0    0 -0.95096157687E+01 -0.14696988484E+02 -0.24791511433E+02  0.94651140027E+02  0.89653694886E+02 0.  0.
         11    1    3    3    0    0 -0.37394634260E+02 -0.41022297550E+01  0.18623031238E+02  0.41976234385E+02  0.51100000000E-03 0.  1.
         22    1    1    0    0    0  0.95096157687E+01  0.14696988484E+02  0.24791511433E+02  0.30348859973E+02  0.00000000000E+00 0. -1.
</event>
<event>
 5    1  0.3186486E-003  0.9118800E+02  0.7818608E-02  0.1130116E+00
         25   -1    0    0    0    0  0.00000000000E+00  0.00000000000E+00  0.99999998245E-14  0.12500000000E+03  0.12500000000E+03 0.  0.
        -11    1    3    3    0    0  0.37486565251E+00  0.41405720046E+02  0.14460504344E+01  0.41432659086E+02  0.51100000000E-03 0.  1.
         23    2    1    0    0    0 -0.24770213342E+02 -0.85620148414E+01 -0.66701082824E+01  0.97956296266E+02  0.94149211715E+02 0.  0.
         11    1    3    3    0    0 -0.25145078995E+02 -0.49967734888E+02 -0.81161587168E+01  0.56523637180E+02  0.51100000000E-03 0. -1.
         22    1    1    0    0    0  0.24770213342E+02  0.85620148414E+01  0.66701082824E+01  0.27043703734E+02  0.00000000000E+00 0. -1.
</event>
<event>
 5    1  0.3186486E-003  0.9118800E+02  0.7818608E-02  0.1130116E+00
         25   -1    0    0    0    0  0.00000000000E+00  0.00000000000E+00  0.99999998245E-14  0.12500000000E+03  0.12500000000E+03 0.  0.
        -11    1    3    3    0    0 -0.27655262430E+02 -0.14781490335E+02  0.29817289489E+02  0.43270968898E+02  0.51100000000E-03 0.  1.
         23    2    1    0    0    0  0.93895178749E+01  0.20357740073E+02  0.19334536438E+02  0.95395525235E+02  0.90685617982E+02 0.  0.
         11    1    3    3    0    0  0.37044780305E+02  0.35139230408E+02 -0.10482753051E+02  0.52124556337E+02  0.51100000000E-03 0. -1.
         22    1    1    0    0    0 -0.93895178749E+01 -0.20357740073E+02 -0.19334536438E+02  0.29604474765E+02  0.00000000000E+00 0. -1.
</event>
<event>
 5    1  0.3186486E-003  0.9118800E+02  0.7818608E-02  0.1130116E+00
         25   -1    0    0    0    0  0.00000000000E+00  0.00000000000E+00  0.99999998245E-14  0.12500000000E+03  0.12500000000E+03 0.  0.
        -11    1    3    3    0    0 -0.17176038030E+01  0.44404145058E+02 -0.17147287861E+02  0.47630953616E+02  0.51100000000E-03 0.  1.
         23    2    1    0    0    0 -0.28137356640E+02  0.80272216959E+01 -0.24313337133E-01  0.95739997984E+02  0.91159198636E+02 0.  0.
         11    1    3    3    0    0 -0.26419752837E+02 -0.36376923362E+02  0.17122974524E+02  0.48109044368E+02  0.51100000000E-03 0. -1.
         22    1    1    0    0    0  0.28137356640E+02 -0.80272216959E+01  0.24313337133E-01  0.29260002016E+02  0.00000000000E+00 0. -1.
</event>
<event>
 5    1  0.3186486E-003  0.9118800E+02  0.7818608E-02  0.1130116E+00
         25   -1    0    0    0    0  0.00000000000E+00  0.00000000000E+00  0.99999998245E-14  0.12500000000E+03  0.12500000000E+03 0.  0.
        -11    1    3    3    0    0 -0.63145214525E+01  0.23624377660E+02 -0.50183758028E+02  0.55824671706E+02  0.51100000000E-03 0.  1.
         23    2    1    0    0    0  0.12176773408E+02  0.26177258653E+02 -0.28583323447E+02  0.84373296215E+02  0.73948117310E+02 0.  0.
         11    1    3    3    0    0  0.18491294860E+02  0.25528809929E+01  0.21600434581E+02  0.28548624509E+02  0.51100000000E-03 0. -1.
         22    1    1    0    0    0 -0.12176773408E+02 -0.26177258653E+02  0.28583323447E+02  0.40626703785E+02  0.00000000000E+00 0.  1.
</event>
<event>
 5    1  0.3186486E-003  0.9118800E+02  0.7818608E-02  0.1130116E+00
         25   -1    0    0    0    0  0.00000000000E+00  0.00000000000E+00  0.99999998245E-14  0.12500000000E+03  0.12500000000E+03 0.  0.
        -11    1    3    3    0    0 -0.13136505731E+01  0.98386594589E+01 -0.35055691330E+02  0.36433863268E+02  0.51100000000E-03 0.  1.
         23    2    1    0    0    0 -0.18570862404E+02 -0.15543704763E+02  0.15978055442E+02  0.95986521341E+02  0.91496613791E+02 0.  0.
         11    1    3    3    0    0 -0.17257211831E+02 -0.25382364222E+02  0.51033746772E+02  0.59552658073E+02  0.51100000000E-03 0. -1.
         22    1    1    0    0    0  0.18570862404E+02  0.15543704763E+02 -0.15978055442E+02  0.29013478659E+02  0.00000000000E+00 0. -1.
</event>
<event>
 5    1  0.3186486E-003  0.9118800E+02  0.7818608E-02  0.1130116E+00
         25   -1    0    0    0    0  0.00000000000E+00  0.00000000000E+00  0.99999998245E-14  0.12500000000E+03  0.12500000000E+03 0.  0.
        -11    1    3    3    0    0 -0.29619091105E+02  0.30719739840E+02 -0.45612204524E+02  0.62461717680E+02  0.51100000000E-03 0. -1.
         23    2    1    0    0    0 -0.11927580441E+02  0.14582816097E+02 -0.20133451888E+02  0.97426795880E+02  0.93443560346E+02 0.  0.
         11    1    3    3    0    0  0.17691510664E+02 -0.16136923743E+02  0.25478752636E+02  0.34965078201E+02  0.51100000000E-03 0.  1.
         22    1    1    0    0    0  0.11927580441E+02 -0.14582816097E+02  0.20133451888E+02  0.27573204120E+02  0.00000000000E+00 0. -1.
</event>
<event>
 5    1  0.3186486E-003  0.9118800E+02  0.7818608E-02  0.1130116E+00
         25   -1    0    0    0    0  0.00000000000E+00  0.00000000000E+00  0.99999998245E-14  0.12500000000E+03  0.12500000000E+03 0.  0.
        -11    1    3    3    0    0 -0.22849201843E+01  0.38523547273E+02  0.12051055316E+02  0.40429104482E+02  0.51100000000E-03 0.  1.
         23    2    1    0    0    0  0.21610313789E+02 -0.21848014982E+01 -0.18342171639E+02  0.96570890269E+02  0.92291508641E+02 0.  0.
         11    1    3    3    0    0  0.23895233974E+02 -0.40708348771E+02 -0.30393226956E+02  0.56141785787E+02  0.51100000000E-03 0. -1.
         22    1    1    0    0    0 -0.21610313789E+02  0.21848014982E+01  0.18342171639E+02  0.28429109731E+02  0.00000000000E+00 0. -1.
</event>
<event>
 5    1  0.3186486E-003  0.9118800E+02  0.7818608E-02  0.1130116E+00
         25   -1    0    0    0    0  0.00000000000E+00  0.00000000000E+00  0.99999998245E-14  0.12500000000E+03  0.12500000000E+03 0.  0.
        -11    1    3    3    0    0 -0.26717699254E+02 -0.27229148463E+02  0.24802840304E+02  0.45502119366E+02  0.51100000000E-03 0.  1.
         23    2    1    0    0    0 -0.53922979064E+00  0.16101992587E+02  0.23951186674E+02  0.96134375511E+02  0.91698385361E+02 0.  0.
         11    1    3    3    0    0  0.26178469463E+02  0.43331141050E+02 -0.85165362978E+00  0.50632256145E+02  0.51100000000E-03 0. -1.
         22    1    1    0    0    0  0.53922979064E+00 -0.16101992587E+02 -0.23951186674E+02  0.28865624489E+02  0.00000000000E+00 0.  1.
</event>
<event>
 5    1  0.3186486E-003  0.9118800E+02  0.7818608E-02  0.1130116E+00
         25   -1    0    0    0    0  0.00000000000E+00  0.00000000000E+00  0.99999998245E-14  0.12500000000E+03  0.12500000000E+03 0.  0.
        -11    1    3    3    0    0  0.17911943321E+02 -0.24630770670E+02  0.23862537246E+02  0.38690221780E+02  0.51100000000E-03 0. -1.
         23    2    1    0    0    0 -0.75184304194E+01  0.24898871252E+02  0.14725196503E+02  0.95111674559E+02  0.90293513830E+02 0.  0.
         11    1    3    3    0    0 -0.25430373741E+02  0.49529641922E+02 -0.91373407425E+01  0.56421452779E+02  0.51100000000E-03 0.  1.
         22    1    1    0    0    0  0.75184304194E+01 -0.24898871252E+02 -0.14725196503E+02  0.29888325441E+02  0.00000000000E+00 0.  1.
</event>
<event>
 5    1  0.3186486E-003  0.9118800E+02  0.7818608E-02  0.1130116E+00
         25   -1    0    0    0    0  0.00000000000E+00  0.00000000000E+00  0.99999998245E-14  0.12500000000E+03  0.12500000000E+03 0.  0.
        -11    1    3    3    0    0 -0.45436715033E+01  0.60372866374E+01  0.37650498421E+02  0.38401221495E+02  0.51100000000E-03 0.  1.
         23    2    1    0    0    0 -0.49712944293E+01 -0.24792297008E+02 -0.12128860067E+02  0.96955731321E+02  0.92811275340E+02 0.  0.
         11    1    3    3    0    0 -0.42762292602E+00 -0.30829583645E+02 -0.49779358489E+02  0.58554509826E+02  0.51100000000E-03 0. -1.
         22    1    1    0    0    0  0.49712944293E+01  0.24792297008E+02  0.12128860067E+02  0.28044268679E+02  0.00000000000E+00 0. -1.
</event>
<event>
 5    1  0.3186486E-003  0.9118800E+02  0.7818608E-02  0.1130116E+00
         25   -1    0    0    0    0  0.00000000000E+00  0.00000000000E+00  0.99999998245E-14  0.12500000000E+03  0.12500000000E+03 0.  0.
        -11    1    3    3    0    0  0.22174270825E+02 -0.84831832243E+01 -0.45996740971E+02  0.51762562383E+02  0.51100000000E-03 0. -1.
         23    2    1    0    0    0  0.10746576266E+02 -0.26339238072E+02 -0.77104670491E+01  0.95526356422E+02  0.90865775215E+02 0.  0.
         11    1    3    3    0    0 -0.11427694559E+02 -0.17856054848E+02  0.38286273921E+02  0.43763794039E+02  0.51100000000E-03 0.  1.
         22    1    1    0    0    0 -0.10746576266E+02  0.26339238072E+02  0.77104670491E+01  0.29473643578E+02  0.00000000000E+00 0. -1.
</event>
<event>
 5    1  0.3186486E-003  0.9118800E+02  0.7818608E-02  0.1130116E+00
         25   -1    0    0    0    0  0.00000000000E+00  0.00000000000E+00  0.99999998245E-14  0.12500000000E+03  0.12500000000E+03 0.  0.
        -11    1    3    3    0    0  0.17793618545E+02 -0.53757919979E+02  0.13269476411E+02  0.58160173881E+02  0.51100000000E-03 0. -1.
         23    2    1    0    0    0 -0.72536743355E+01 -0.25786162507E+02  0.11781087429E+02  0.95736780950E+02  0.91154787243E+02 0.  0.
         11    1    3    3    0    0 -0.25047292881E+02  0.27971757472E+02 -0.14883889819E+01  0.37576607068E+02  0.51100000000E-03 0.  1.
         22    1    1    0    0    0  0.72536743355E+01  0.25786162507E+02 -0.11781087429E+02  0.29263219050E+02  0.00000000000E+00 0. -1.
</event>
<event>
 5    1  0.3186486E-003  0.9118800E+02  0.7818608E-02  0.1130116E+00
         25   -1    0    0    0    0  0.00000000000E+00  0.00000000000E+00  0.99999998245E-14  0.12500000000E+03  0.12500000000E+03 0.  0.
        -11    1    3    3    0    0  0.24043388682E+02 -0.15193052547E+02  0.22867980694E+02  0.36494628732E+02  0.51100000000E-03 0. -1.
         23    2    1    0    0    0 -0.17288772986E+02  0.23171211076E+02  0.49258641375E+01  0.95673035759E+02  0.91067331903E+02 0.  0.
         11    1    3    3    0    0 -0.41332161668E+02  0.38364263623E+02 -0.17942116557E+02  0.59178407027E+02  0.51100000000E-03 0.  1.
         22    1    1    0    0    0  0.17288772986E+02 -0.23171211076E+02 -0.49258641375E+01  0.29326964241E+02  0.00000000000E+00 0.  1.
</event>
<event>
 5    1  0.3186486E-003  0.9118800E+02  0.7818608E-02  0.1130116E+00
         25   -1    0    0    0    0  0.00000000000E+00  0.00000000000E+00  0.99999998245E-14  0.12500000000E+03  0.12500000000E+03 0.  0.
        -11    1    3    3    0    0 -0.48489718554E+02 -0.35607408157E+00  0.20896851001E+01  0.48536031752E+02  0.51100000000E-03 0.  1.
         23    2    1    0    0    0  0.57169273644E+00  0.15517490300E+02 -0.15539716940E+02  0.10303179251E+03  0.10066254580E+03 0.  0.
         11    1    3    3    0    0  0.49061411290E+02  0.15873564382E+02 -0.17629402040E+02  0.54495760757E+02  0.51100000000E-03 0. -1.
         22    1    1    0    0    0 -0.57169273644E+00 -0.15517490300E+02  0.15539716940E+02  0.21968207491E+02  0.00000000000E+00 0. -1.
</event>
<event>
 5    1  0.3186486E-003  0.9118800E+02  0.7818608E-02  0.1130116E+00
         25   -1    0    0    0    0  0.00000000000E+00  0.00000000000E+00  0.99999998245E-14  0.12500000000E+03  0.12500000000E+03 0.  0.
        -11    1    3    3    0    0 -0.39236809827E+02 -0.32127087051E+02  0.20872573272E+02  0.54839231240E+02  0.51100000000E-03 0.  1.
         23    2    1    0    0    0 -0.11872556310E+02 -0.26714815646E+01  0.26882925534E+02  0.95490915088E+02  0.90817007064E+02 0.  0.
         11    1    3    3    0    0  0.27364253516E+02  0.29455605487E+02  0.60103522619E+01  0.40651683848E+02  0.51100000000E-03 0. -1.
         22    1    1    0    0    0  0.11872556310E+02  0.26714815646E+01 -0.26882925534E+02  0.29509084912E+02  0.00000000000E+00 0.  1.
</event>
<event>
 5    1  0.3186486E-003  0.9118800E+02  0.7818608E-02  0.1130116E+00
         25   -1    0    0    0    0  0.00000000000E+00  0.00000000000E+00  0.99999998245E-14  0.12500000000E+03  0.12500000000E+03 0.  0.
        -11    1    3    3    0    0  0.17275812394E+02  0.22949913438E+02  0.15048982721E+02  0.32428754245E+02  0.51100000000E-03 0.  1.
         23    2    1    0    0    0 -0.25527932782E+01 -0.30593183705E+02  0.17656781622E+02  0.89585009107E+02  0.82287619219E+02 0.  0.
         11    1    3    3    0    0 -0.19828605672E+02 -0.53543097142E+02  0.26077989014E+01  0.57156254862E+02  0.51100000000E-03 0. -1.
         22    1    1    0    0    0  0.25527932782E+01  0.30593183705E+02 -0.17656781622E+02  0.35414990893E+02  0.00000000000E+00 0. -1.
</event>
<event>
 5    1  0.3186486E-003  0.9118800E+02  0.7818608E-02  0.1130116E+00
         25   -1    0    0    0    0  0.00000000000E+00  0.00000000000E+00  0.99999998245E-14  0.12500000000E+03  0.12500000000E+03 0.  0.
        -11    1    3    3    0    0 -0.32781869011E+02 -0.10212355519E+02 -0.53937080122E+01  0.34756801169E+02  0.51100000000E-03 0.  1.
         23    2    1    0    0    0  0.17358580693E+02  0.10759496976E+02  0.21457215850E+02  0.95377386832E+02  0.90660612771E+02 0.  0.
         11    1    3    3    0    0  0.50140449704E+02  0.20971852496E+02  0.26850923862E+02  0.60620585663E+02  0.51100000000E-03 0. -1.
         22    1    1    0    0    0 -0.17358580693E+02 -0.10759496976E+02 -0.21457215850E+02  0.29622613168E+02  0.00000000000E+00 0. -1.
</event>
<event>
 5    1  0.3186486E-003  0.9118800E+02  0.7818608E-02  0.1130116E+00
         25   -1    0    0    0    0  0.00000000000E+00  0.00000000000E+00  0.99999998245E-14  0.12500000000E+03  0.12500000000E+03 0.  0.
        -11    1    3    3    0    0 -0.86379060951E+01 -0.30867632906E+02  0.27160372201E+02  0.42013212223E+02  0.51100000000E-03 0.  1.
         23    2    1    0    0    0  0.12773577251E+02  0.18727610605E+02  0.16209483620E+02  0.97131827581E+02  0.93048142890E+02 0.  0.
         11    1    3    3    0    0  0.21411483346E+02  0.49595243511E+02 -0.10950888582E+02  0.55118615358E+02  0.51100000000E-03 0. -1.
         22    1    1    0    0    0 -0.12773577251E+02 -0.18727610605E+02 -0.16209483620E+02  0.27868172419E+02  0.00000000000E+00 0.  1.
</event>
<event>
 5    1  0.3186486E-003  0.9118800E+02  0.7818608E-02  0.1130116E+00
         25   -1    0    0    0    0  0.00000000000E+00  0.00000000000E+00  0.99999998245E-14  0.12500000000E+03  0.12500000000E+03 0.  0.
        -11    1    3    3    0    0  0.34215178669E+02 -0.21312336827E+02 -0.24635759541E+02  0.47242087177E+02  0.51100000000E-03 0.  1.
         23    2    1    0    0    0 -0.75925837158E+01 -0.88300572335E+01 -0.31505630766E+02  0.91410983817E+02  0.85016151137E+02 0.  0.
         11    1    3    3    0    0 -0.41807762385E+02  0.12482279593E+02 -0.68698712246E+01  0.44168896640E+02  0.51100000000E-03 0. -1.
         22    1    1    0    0    0  0.75925837158E+01  0.88300572335E+01  0.31505630766E+02  0.33589016183E+02  0.00000000000E+00 0. -1.
</event>
<event>
 5    1  0.3186486E-003  0.9118800E+02  0.7818608E-02  0.1130116E+00
         25   -1    0    0    0    0  0.00000000000E+00  0.00000000000E+00  0.99999998245E-14  0.12500000000E+03  0.12500000000E+03 0.  0.
        -11    1    3    3    0    0  0.27577925697E+02 -0.42615909682E+02 -0.96180881529E+01  0.51663965815E+02  0.51100000000E-03 0. -1.
         23    2    1    0    0    0  0.11805004171E+02 -0.81504601223E+01 -0.27810986889E+02  0.93707203458E+02  0.88327803463E+02 0.  0.
         11    1    3    3    0    0 -0.15772921527E+02  0.34465449560E+02 -0.18192898736E+02  0.42043237643E+02  0.51100000000E-03 0.  1.
         22    1    1    0    0    0 -0.11805004171E+02  0.81504601223E+01  0.27810986889E+02  0.31292796542E+02  0.00000000000E+00 0.  1.
</event>
<event>
 5    1  0.3186486E-003  0.9118800E+02  0.7818608E-02  0.1130116E+00
         25   -1    0    0    0    0  0.00000000000E+00  0.00000000000E+00  0.99999998245E-14  0.12500000000E+03  0.12500000000E+03 0.  0.
        -11    1    3    3    0    0  0.23614187147E+02 -0.45665606864E+02 -0.14936294161E+02  0.53535692471E+02  0.51100000000E-03 0. -1.
         23    2    1    0    0    0  0.19827130594E+02 -0.13808413753E+02  0.14285752979E+02  0.96930975504E+02  0.92777927742E+02 0.  0.
         11    1    3    3    0    0 -0.37870565536E+01  0.31857193110E+02  0.29222047140E+02  0.43395283033E+02  0.51100000000E-03 0.  1.
         22    1    1    0    0    0 -0.19827130594E+02  0.13808413753E+02 -0.14285752979E+02  0.28069024496E+02  0.00000000000E+00 0.  1.
</event>
<event>
 5    1  0.3186486E-003  0.9118800E+02  0.7818608E-02  0.1130116E+00
         25   -1    0    0    0    0  0.00000000000E+00  0.00000000000E+00  0.99999998245E-14  0.12500000000E+03  0.12500000000E+03 0.  0.
        -11    1    3    3    0    0  0.22344245279E+02 -0.23183844971E+02 -0.48557678775E+02  0.58263231399E+02  0.51100000000E-03 0. -1.
         23    2    1    0    0    0  0.18974397845E+02  0.31140344866E+01 -0.21802416616E+02  0.95929906180E+02  0.91419235093E+02 0.  0.
         11    1    3    3    0    0 -0.33698474336E+01  0.26297879457E+02  0.26755262159E+02  0.37666674782E+02  0.51100000000E-03 0.  1.
         22    1    1    0    0    0 -0.18974397845E+02 -0.31140344866E+01  0.21802416616E+02  0.29070093820E+02  0.00000000000E+00 0. -1.
</event>
<event>
 5    1  0.3186486E-003  0.9118800E+02  0.7818608E-02  0.1130116E+00
         25   -1    0    0    0    0  0.00000000000E+00  0.00000000000E+00  0.99999998245E-14  0.12500000000E+03  0.12500000000E+03 0.  0.
        -11    1    3    3    0    0  0.47000996416E+02 -0.32209021888E+02 -0.13491656154E+02  0.58553732085E+02  0.51100000000E-03 0. -1.
         23    2    1    0    0    0  0.19487782898E+02 -0.17299968032E+02  0.93694927440E+01  0.97307943910E+02  0.93284435881E+02 0.  0.
         11    1    3    3    0    0 -0.27513213518E+02  0.14909053855E+02  0.22861148898E+02  0.38754211825E+02  0.51100000000E-03 0.  1.
         22    1    1    0    0    0 -0.19487782898E+02  0.17299968032E+02 -0.93694927440E+01  0.27692056090E+02  0.00000000000E+00 0. -1.
</event>
<event>
 5    1  0.3186486E-003  0.9118800E+02  0.7818608E-02  0.1130116E+00
         25   -1    0    0    0    0  0.00000000000E+00  0.00000000000E+00  0.99999998245E-14  0.12500000000E+03  0.12500000000E+03 0.  0.
        -11    1    3    3    0    0 -0.13173443978E+02  0.36101975188E+02 -0.46125709838E+01  0.38706175865E+02  0.51100000000E-03 0.  1.
         23    2    1    0    0    0 -0.26678583610E+02  0.14559842922E+01  0.26632248297E+02  0.87275427596E+02  0.78701060343E+02 0.  0.
         11    1    3    3    0    0 -0.13505139632E+02 -0.34645990896E+02  0.31244819281E+02  0.48569251732E+02  0.51100000000E-03 0. -1.
         22    1    1    0    0    0  0.26678583610E+02 -0.14559842922E+01 -0.26632248297E+02  0.37724572404E+02  0.00000000000E+00 0. -1.
</event>
<event>
 5    1  0.3186486E-003  0.9118800E+02  0.7818608E-02  0.1130116E+00
         25   -1    0    0    0    0  0.00000000000E+00  0.00000000000E+00  0.99999998245E-14  0.12500000000E+03  0.12500000000E+03 0.  0.
        -11    1    3    3    0    0 -0.11633890385E+02  0.11748652487E+02 -0.41433707998E+02  0.44610877591E+02  0.51100000000E-03 0.  1.
         23    2    1    0    0    0  0.21946211028E+02  0.19902709692E+02 -0.47722154580E+01  0.94991200092E+02  0.90126577783E+02 0.  0.
         11    1    3    3    0    0  0.33580101413E+02  0.81540572047E+01  0.36661492540E+02  0.50380322501E+02  0.51100000000E-03 0. -1.
         22    1    1    0    0    0 -0.21946211028E+02 -0.19902709692E+02  0.47722154580E+01  0.30008799908E+02  0.00000000000E+00 0.  1.
</event>
<event>
 5    1  0.3186486E-003  0.9118800E+02  0.7818608E-02  0.1130116E+00
         25   -1    0    0    0    0  0.00000000000E+00  0.00000000000E+00  0.99999998245E-14  0.12500000000E+03  0.12500000000E+03 0.  0.
        -11    1    3    3    0    0 -0.37560572146E+02 -0.18220082262E+02 -0.95699715306E+01  0.42829339628E+02  0.51100000000E-03 0. -1.
         23    2    1    0    0    0 -0.11649151045E+02  0.17365704520E+02 -0.27578235091E+02  0.90390327013E+02  0.83501986523E+02 0.  0.
         11    1    3    3    0    0  0.25911421101E+02  0.35585786782E+02 -0.18008263560E+02  0.47560987385E+02  0.51100000000E-03 0.  1.
         22    1    1    0    0    0  0.11649151045E+02 -0.17365704520E+02  0.27578235091E+02  0.34609672987E+02  0.00000000000E+00 0.  1.
</event>
<event>
 5    1  0.3186486E-003  0.9118800E+02  0.7818608E-02  0.1130116E+00
         25   -1    0    0    0    0  0.00000000000E+00  0.00000000000E+00  0.99999998245E-14  0.12500000000E+03  0.12500000000E+03 0.  0.
        -11    1    3    3    0    0  0.28484396675E+02 -0.29174077503E+02  0.17516264023E+02  0.44376876385E+02  0.51100000000E-03 0. -1.
         23    2    1    0    0    0  0.23081955228E+00 -0.18531054589E+02 -0.23351957629E+02  0.95187801373E+02  0.90398840387E+02 0.  0.
         11    1    3    3    0    0 -0.28253577123E+02  0.10643022914E+02 -0.40868221652E+02  0.50810924989E+02  0.51100000000E-03 0.  1.
         22    1    1    0    0    0 -0.23081955228E+00  0.18531054589E+02  0.23351957629E+02  0.29812198627E+02  0.00000000000E+00 0.  1.
</event>
<event>
 5    1  0.3186486E-003  0.9118800E+02  0.7818608E-02  0.1130116E+00
         25   -1    0    0    0    0  0.00000000000E+00  0.00000000000E+00  0.99999998245E-14  0.12500000000E+03  0.12500000000E+03 0.  0.
        -11    1    3    3    0    0 -0.50882661943E+01  0.30957591849E+02  0.80938628376E+01  0.32400209287E+02  0.51100000000E-03 0. -1.
         23    2    1    0    0    0 -0.55639590790E+01 -0.29574363844E+02 -0.54161071165E+01  0.94423295572E+02  0.89335457087E+02 0.  0.
         11    1    3    3    0    0 -0.47569288473E+00 -0.60531955693E+02 -0.13509969954E+02  0.62023086284E+02  0.51100000000E-03 0.  1.
         22    1    1    0    0    0  0.55639590790E+01  0.29574363844E+02  0.54161071165E+01  0.30576704428E+02  0.00000000000E+00 0.  1.
</event>
<event>
 5    1  0.3186486E-003  0.9118800E+02  0.7818608E-02  0.1130116E+00
         25   -1    0    0    0    0  0.00000000000E+00  0.00000000000E+00  0.99999998245E-14  0.12500000000E+03  0.12500000000E+03 0.  0.
        -11    1    3    3    0    0  0.24831058531E+02  0.14611658171E+02 -0.41899332276E+02  0.50849150118E+02  0.51100000000E-03 0. -1.
         23    2    1    0    0    0  0.29190991216E+02  0.39897519693E+01  0.12610078607E+01  0.95510642092E+02  0.90844155140E+02 0.  0.
         11    1    3    3    0    0  0.43599326860E+01 -0.10621906202E+02  0.43160340137E+02  0.44661491974E+02  0.51100000000E-03 0.  1.
         22    1    1    0    0    0 -0.29190991216E+02 -0.39897519693E+01 -0.12610078607E+01  0.29489357908E+02  0.00000000000E+00 0. -1.
</event>
<event>
 5    1  0.3186486E-003  0.9118800E+02  0.7818608E-02  0.1130116E+00
         25   -1    0    0    0    0  0.00000000000E+00  0.00000000000E+00  0.99999998245E-14  0.12500000000E+03  0.12500000000E+03 0.  0.
        -11    1    3    3    0    0  0.41619756947E+02  0.76028925088E+00 -0.36811069185E+02  0.55568309520E+02  0.51100000000E-03 0.  1.
         23    2    1    0    0    0  0.24619816312E+02  0.15664185706E+02 -0.38084610148E+01  0.95572012567E+02  0.90928560649E+02 0.  0.
         11    1    3    3    0    0 -0.16999940636E+02  0.14903896455E+02  0.33002608170E+02  0.40003703047E+02  0.51100000000E-03 0. -1.
         22    1    1    0    0    0 -0.24619816312E+02 -0.15664185706E+02  0.38084610148E+01  0.29427987433E+02  0.00000000000E+00 0. -1.
</event>
<event>
 5    1  0.3186486E-003  0.9118800E+02  0.7818608E-02  0.1130116E+00
         25   -1    0    0    0    0  0.00000000000E+00  0.00000000000E+00  0.99999998245E-14  0.12500000000E+03  0.12500000000E+03 0.  0.
        -11    1    3    3    0    0 -0.17686450782E+02  0.29206123327E+02 -0.11587776907E+02  0.36056688075E+02  0.51100000000E-03 0. -1.
         23    2    1    0    0    0 -0.20459352132E+02 -0.24839709528E+02  0.44809704017E+01  0.92508841898E+02  0.86615301618E+02 0.  0.
         11    1    3    3    0    0 -0.27729013495E+01 -0.54045832855E+02  0.16068747308E+02  0.56452153822E+02  0.51100000000E-03 0.  1.
         22    1    1    0    0    0  0.20459352132E+02  0.24839709528E+02 -0.44809704017E+01  0.32491158102E+02  0.00000000000E+00 0.  1.
</event>
<event>
 5    1  0.3186486E-003  0.9118800E+02  0.7818608E-02  0.1130116E+00
         25   -1    0    0    0    0  0.00000000000E+00  0.00000000000E+00  0.99999998245E-14  0.12500000000E+03  0.12500000000E+03 0.  0.
        -11    1    3    3    0    0 -0.42208693063E+00  0.29686470314E+02  0.32012162843E+02  0.43660545659E+02  0.51100000000E-03 0.  1.
         23    2    1    0    0    0 -0.30843341669E+02  0.23321698578E+00  0.53596178162E+01  0.93693585024E+02  0.88308528785E+02 0.  0.
         11    1    3    3    0    0 -0.30421254739E+02 -0.29453253328E+02 -0.26652545027E+02  0.50033039366E+02  0.51100000000E-03 0. -1.
         22    1    1    0    0    0  0.30843341669E+02 -0.23321698578E+00 -0.53596178162E+01  0.31306414976E+02  0.00000000000E+00 0. -1.
</event>
<event>
 5    1  0.3186486E-003  0.9118800E+02  0.7818608E-02  0.1130116E+00
         25   -1    0    0    0    0  0.00000000000E+00  0.00000000000E+00  0.99999998245E-14  0.12500000000E+03  0.12500000000E+03 0.  0.
        -11    1    3    3    0    0  0.24233068509E+02 -0.11686269723E+02 -0.43311628649E+02  0.50987328680E+02  0.51100000000E-03 0.  1.
         23    2    1    0    0    0 -0.30066955675E+01 -0.27129594026E+02 -0.12289765362E+02  0.95065180426E+02  0.90229125600E+02 0.  0.
         11    1    3    3    0    0 -0.27239764077E+02 -0.15443324303E+02  0.31021863287E+02  0.44077851746E+02  0.51100000000E-03 0. -1.
         22    1    1    0    0    0  0.30066955675E+01  0.27129594026E+02  0.12289765362E+02  0.29934819574E+02  0.00000000000E+00 0. -1.
</event>
<event>
 5    1  0.3186486E-003  0.9118800E+02  0.7818608E-02  0.1130116E+00
         25   -1    0    0    0    0  0.00000000000E+00  0.00000000000E+00  0.99999998245E-14  0.12500000000E+03  0.12500000000E+03 0.  0.
        -11    1    3    3    0    0 -0.40390300502E+02  0.64591417297E-01  0.41521200901E+02  0.57925734102E+02  0.51100000000E-03 0. -1.
         23    2    1    0    0    0 -0.23180065715E+02 -0.14134059471E+02  0.11059070960E+02  0.95684643373E+02  0.91083263244E+02 0.  0.
         11    1    3    3    0    0  0.17210234788E+02 -0.14198650888E+02 -0.30462129941E+02  0.37758909271E+02  0.51100000000E-03 0.  1.
         22    1    1    0    0    0  0.23180065715E+02  0.14134059471E+02 -0.11059070960E+02  0.29315356627E+02  0.00000000000E+00 0. -1.
</event>
<event>
 5    1  0.3186486E-003  0.9118800E+02  0.7818608E-02  0.1130116E+00
         25   -1    0    0    0    0  0.00000000000E+00  0.00000000000E+00  0.99999998245E-14  0.12500000000E+03  0.12500000000E+03 0.  0.
        -11    1    3    3    0    0 -0.53094905446E+02 -0.61152752784E+01  0.29043082278E+01  0.53524766067E+02  0.51100000000E-03 0.  1.
         23    2    1    0    0    0 -0.18616938564E+02  0.37508688881E+00 -0.21722453790E+02  0.96388881701E+02  0.92044665382E+02 0.  0.
         11    1    3    3    0    0  0.34477966882E+02  0.64903621672E+01 -0.24626762017E+02  0.42864115634E+02  0.51100000000E-03 0. -1.
         22    1    1    0    0    0  0.18616938564E+02 -0.37508688881E+00  0.21722453790E+02  0.28611118299E+02  0.00000000000E+00 0.  1.
</event>
<event>
 5    1  0.3186486E-003  0.9118800E+02  0.7818608E-02  0.1130116E+00
         25   -1    0    0    0    0  0.00000000000E+00  0.00000000000E+00  0.99999998245E-14  0.12500000000E+03  0.12500000000E+03 0.  0.
        -11    1    3    3    0    0 -0.38624476686E+02  0.48070077558E+02 -0.30003083936E+01  0.61738030471E+02  0.51100000000E-03 0. -1.
         23    2    1    0    0    0 -0.16269747893E+02  0.28878429245E+02 -0.58621595890E+01  0.91339440183E+02  0.84910894741E+02 0.  0.
         11    1    3    3    0    0  0.22354728793E+02 -0.19191648313E+02 -0.28618511954E+01  0.29601409712E+02  0.51100000000E-03 0.  1.
         22    1    1    0    0    0  0.16269747893E+02 -0.28878429245E+02  0.58621595890E+01  0.33660559817E+02  0.00000000000E+00 0. -1.
</event>
<event>
 5    1  0.3186486E-003  0.9118800E+02  0.7818608E-02  0.1130116E+00
         25   -1    0    0    0    0  0.00000000000E+00  0.00000000000E+00  0.99999998245E-14  0.12500000000E+03  0.12500000000E+03 0.  0.
        -11    1    3    3    0    0  0.18169143722E+02  0.39283688117E+02 -0.44255587181E+02  0.61902204586E+02  0.51100000000E-03 0.  1.
         23    2    1    0    0    0  0.13158461862E+02  0.19955505226E+02 -0.17093508466E+02  0.95613687896E+02  0.90985833919E+02 0.  0.
         11    1    3    3    0    0 -0.50106818600E+01 -0.19328182891E+02  0.27162078715E+02  0.33711483309E+02  0.51100000000E-03 0. -1.
         22    1    1    0    0    0 -0.13158461862E+02 -0.19955505226E+02  0.17093508466E+02  0.29386312104E+02  0.00000000000E+00 0.  1.
</event>
<event>
 5    1  0.3186486E-003  0.9118800E+02  0.7818608E-02  0.1130116E+00
         25   -1    0    0    0    0  0.00000000000E+00  0.00000000000E+00  0.99999998245E-14  0.12500000000E+03  0.12500000000E+03 0.  0.
        -11    1    3    3    0    0  0.24190995120E+01  0.39402395025E+02 -0.13136813723E+02  0.41605007526E+02  0.51100000000E-03 0. -1.
         23    2    1    0    0    0 -0.14199038486E+01 -0.12239026001E+02 -0.27093265259E+02  0.95236685218E+02  0.90466409813E+02 0.  0.
         11    1    3    3    0    0 -0.38390033606E+01 -0.51641421026E+02 -0.13956451536E+02  0.53631677692E+02  0.51100000000E-03 0.  1.
         22    1    1    0    0    0  0.14199038486E+01  0.12239026001E+02  0.27093265259E+02  0.29763314782E+02  0.00000000000E+00 0.  1.
</event>
<event>
 5    1  0.3186486E-003  0.9118800E+02  0.7818608E-02  0.1130116E+00
         25   -1    0    0    0    0  0.00000000000E+00  0.00000000000E+00  0.99999998245E-14  0.12500000000E+03  0.12500000000E+03 0.  0.
        -11    1    3    3    0    0  0.27352085720E+02  0.15094944564E+02  0.26638624146E+01  0.31354267777E+02  0.51100000000E-03 0.  1.
         23    2    1    0    0    0 -0.26748523803E+02 -0.14631002697E+02  0.84721802636E+01  0.93356239099E+02  0.87829720339E+02 0.  0.
         11    1    3    3    0    0 -0.54100609523E+02 -0.29725947261E+02  0.58083178490E+01  0.62001971322E+02  0.51100000000E-03 0. -1.
         22    1    1    0    0    0  0.26748523803E+02  0.14631002697E+02 -0.84721802636E+01  0.31643760901E+02  0.00000000000E+00 0. -1.
</event>
<event>
 5    1  0.3186486E-003  0.9118800E+02  0.7818608E-02  0.1130116E+00
         25   -1    0    0    0    0  0.00000000000E+00  0.00000000000E+00  0.99999998245E-14  0.12500000000E+03  0.12500000000E+03 0.  0.
        -11    1    3    3    0    0  0.48399997518E+02  0.29694108085E+02 -0.17465035632E+02  0.59408141568E+02  0.51100000000E-03 0. -1.
         23    2    1    0    0    0  0.28796711515E+02  0.16210378747E+01 -0.10173561795E+02  0.94416021883E+02  0.89325279013E+02 0.  0.
         11    1    3    3    0    0 -0.19603286003E+02 -0.28073070211E+02  0.72914738376E+01  0.35007880315E+02  0.51100000000E-03 0.  1.
         22    1    1    0    0    0 -0.28796711515E+02 -0.16210378747E+01  0.10173561795E+02  0.30583978117E+02  0.00000000000E+00 0. -1.
</event>
<event>
 5    1  0.3186486E-003  0.9118800E+02  0.7818608E-02  0.1130116E+00
         25   -1    0    0    0    0  0.00000000000E+00  0.00000000000E+00  0.99999998245E-14  0.12500000000E+03  0.12500000000E+03 0.  0.
        -11    1    3    3    0    0  0.30731487028E+02  0.22665110805E+02 -0.39957853865E+01  0.38393981871E+02  0.51100000000E-03 0.  1.
         23    2    1    0    0    0 -0.16165924544E+02  0.58208861229E+01  0.23948659756E+02  0.95525296681E+02  0.90864317365E+02 0.  0.
         11    1    3    3    0    0 -0.46897411572E+02 -0.16844224682E+02  0.27944445143E+02  0.57131314810E+02  0.51100000000E-03 0. -1.
         22    1    1    0    0    0  0.16165924544E+02 -0.58208861229E+01 -0.23948659756E+02  0.29474703319E+02  0.00000000000E+00 0. -1.
</event>
<event>
 5    1  0.3186486E-003  0.9118800E+02  0.7818608E-02  0.1130116E+00
         25   -1    0    0    0    0  0.00000000000E+00  0.00000000000E+00  0.99999998245E-14  0.12500000000E+03  0.12500000000E+03 0.  0.
        -11    1    3    3    0    0 -0.55691279059E+02  0.16542667092E+02 -0.53922638319E+01  0.58345993070E+02  0.51100000000E-03 0.  1.
         23    2    1    0    0    0 -0.23924250232E+02  0.97275579112E+01  0.13426214306E+02  0.95892297193E+02  0.91367796834E+02 0.  0.
         11    1    3    3    0    0  0.31767028827E+02 -0.68151091808E+01  0.18818478138E+02  0.37546304124E+02  0.51100000000E-03 0. -1.
         22    1    1    0    0    0  0.23924250232E+02 -0.97275579112E+01 -0.13426214306E+02  0.29107702807E+02  0.00000000000E+00 0.  1.
</event>
<event>
 5    1  0.3186486E-003  0.9118800E+02  0.7818608E-02  0.1130116E+00
         25   -1    0    0    0    0  0.00000000000E+00  0.00000000000E+00  0.99999998245E-14  0.12500000000E+03  0.12500000000E+03 0.  0.
        -11    1    3    3    0    0 -0.53420519839E+02 -0.18841605956E+02  0.72389741629E+01  0.57106574070E+02  0.51100000000E-03 0.  1.
         23    2    1    0    0    0 -0.16417209748E+02 -0.20020115258E+02  0.15203149416E+02  0.94975584219E+02  0.90104916928E+02 0.  0.
         11    1    3    3    0    0  0.37003310091E+02 -0.11785093021E+01  0.79641752532E+01  0.37869010148E+02  0.51100000000E-03 0. -1.
         22    1    1    0    0    0  0.16417209748E+02  0.20020115258E+02 -0.15203149416E+02  0.30024415781E+02  0.00000000000E+00 0.  1.
</event>
<event>
 5    1  0.3186486E-003  0.9118800E+02  0.7818608E-02  0.1130116E+00
         25   -1    0    0    0    0  0.00000000000E+00  0.00000000000E+00  0.99999998245E-14  0.12500000000E+03  0.12500000000E+03 0.  0.
        -11    1    3    3    0    0 -0.32061626702E+02  0.34409122598E+02 -0.15294692616E+02  0.49455669515E+02  0.51100000000E-03 0.  1.
         23    2    1    0    0    0 -0.29599424707E+02 -0.84713708294E+01 -0.93984277511E+01  0.92809620833E+02  0.87048292392E+02 0.  0.
         11    1    3    3    0    0  0.24622019953E+01 -0.42880493428E+02  0.58962648645E+01  0.43353951318E+02  0.51100000000E-03 0. -1.
         22    1    1    0    0    0  0.29599424707E+02  0.84713708294E+01  0.93984277511E+01  0.32190379167E+02  0.00000000000E+00 0. -1.
</event>
<event>
 5    1  0.3186486E-003  0.9118800E+02  0.7818608E-02  0.1130116E+00
         25   -1    0    0    0    0  0.00000000000E+00  0.00000000000E+00  0.99999998245E-14  0.12500000000E+03  0.12500000000E+03 0.  0.
        -11    1    3    3    0    0 -0.35530116686E+02 -0.28668724685E+02  0.15182969389E+02  0.48112446690E+02  0.51100000000E-03 0. -1.
         23    2    1    0    0    0 -0.16917704626E+02  0.81388365210E+01 -0.16408240451E+02  0.10006649354E+03  0.96910388426E+02 0.  0.
         11    1    3    3    0    0  0.18612412060E+02  0.36807561206E+02 -0.31591209840E+02  0.51954046849E+02  0.51100000000E-03 0.  1.
         22    1    1    0    0    0  0.16917704626E+02 -0.81388365210E+01  0.16408240451E+02  0.24933506460E+02  0.00000000000E+00 0.  1.
</event>
<event>
 5    1  0.3186486E-003  0.9118800E+02  0.7818608E-02  0.1130116E+00
         25   -1    0    0    0    0  0.00000000000E+00  0.00000000000E+00  0.99999998245E-14  0.12500000000E+03  0.12500000000E+03 0.  0.
        -11    1    3    3    0    0  0.39056013811E+02  0.95823675441E+01 -0.19946106764E+02  0.44889209816E+02  0.51100000000E-03 0. -1.
         23    2    1    0    0    0  0.14940614129E+02 -0.13056182943E+02  0.20051040066E+02  0.96791312131E+02  0.92589567623E+02 0.  0.
         11    1    3    3    0    0 -0.24115399682E+02 -0.22638550487E+02  0.39997146830E+02  0.51902102315E+02  0.51100000000E-03 0.  1.
         22    1    1    0    0    0 -0.14940614129E+02  0.13056182943E+02 -0.20051040066E+02  0.28208687869E+02  0.00000000000E+00 0.  1.
</event>
<event>
 5    1  0.3186486E-003  0.9118800E+02  0.7818608E-02  0.1130116E+00
         25   -1    0    0    0    0  0.00000000000E+00  0.00000000000E+00  0.99999998245E-14  0.12500000000E+03  0.12500000000E+03 0.  0.
        -11    1    3    3    0    0 -0.53062533958E+02  0.11446562833E+02  0.29396007105E+02  0.61731527964E+02  0.51100000000E-03 0. -1.
         23    2    1    0    0    0 -0.29303909219E+02  0.13770761029E+01  0.10023279507E+02  0.93998684445E+02  0.88739343648E+02 0.  0.
         11    1    3    3    0    0  0.23758624739E+02 -0.10069486730E+02 -0.19372727599E+02  0.32267156481E+02  0.51100000000E-03 0.  1.
         22    1    1    0    0    0  0.29303909219E+02 -0.13770761029E+01 -0.10023279507E+02  0.31001315555E+02  0.00000000000E+00 0. -1.
</event>
<event>
 5    1  0.3186486E-003  0.9118800E+02  0.7818608E-02  0.1130116E+00
         25   -1    0    0    0    0  0.00000000000E+00  0.00000000000E+00  0.99999998245E-14  0.12500000000E+03  0.12500000000E+03 0.  0.
        -11    1    3    3    0    0 -0.14949545868E+02 -0.41660678848E+02  0.41114417943E+02  0.60411062289E+02  0.51100000000E-03 0. -1.
         23    2    1    0    0    0  0.75996614885E+00 -0.24814738938E+02  0.30214888706E+02  0.85893883897E+02  0.76475296497E+02 0.  0.
         11    1    3    3    0    0  0.15709512017E+02  0.16845939910E+02 -0.10899529237E+02  0.25482821608E+02  0.51100000000E-03 0.  1.
         22    1    1    0    0    0 -0.75996614885E+00  0.24814738938E+02 -0.30214888706E+02  0.39106116103E+02  0.00000000000E+00 0. -1.
</event>
<event>
 5    1  0.3186486E-003  0.9118800E+02  0.7818608E-02  0.1130116E+00
         25   -1    0    0    0    0  0.00000000000E+00  0.00000000000E+00  0.99999998245E-14  0.12500000000E+03  0.12500000000E+03 0.  0.
        -11    1    3    3    0    0 -0.54419348475E+02  0.84885631991E+01  0.26122940731E+02  0.60958422111E+02  0.51100000000E-03 0. -1.
         23    2    1    0    0    0 -0.30864293714E+02  0.95979689720E+01  0.56482096469E+01  0.92187991420E+02  0.86151017725E+02 0.  0.
         11    1    3    3    0    0  0.23555054761E+02  0.11094057728E+01 -0.20474731085E+02  0.31229569309E+02  0.51100000000E-03 0.  1.
         22    1    1    0    0    0  0.30864293714E+02 -0.95979689720E+01 -0.56482096469E+01  0.32812008580E+02  0.00000000000E+00 0. -1.
</event>
<event>
 5    1  0.3186486E-003  0.9118800E+02  0.7818608E-02  0.1130116E+00
         25   -1    0    0    0    0  0.00000000000E+00  0.00000000000E+00  0.99999998245E-14  0.12500000000E+03  0.12500000000E+03 0.  0.
        -11    1    3    3    0    0 -0.29580754134E+02  0.10400781548E+02 -0.49129902578E+02  0.58283313217E+02  0.51100000000E-03 0. -1.
         23    2    1    0    0    0 -0.23035814870E+02  0.14383966707E+02 -0.13605147750E+02  0.94624889955E+02  0.89617088151E+02 0.  0.
         11    1    3    3    0    0  0.65449392636E+01  0.39831851593E+01  0.35524754828E+02  0.36341576738E+02  0.51100000000E-03 0.  1.
         22    1    1    0    0    0  0.23035814870E+02 -0.14383966707E+02  0.13605147750E+02  0.30375110045E+02  0.00000000000E+00 0. -1.
</event>
<event>
 5    1  0.3186486E-003  0.9118800E+02  0.7818608E-02  0.1130116E+00
         25   -1    0    0    0    0  0.00000000000E+00  0.00000000000E+00  0.99999998245E-14  0.12500000000E+03  0.12500000000E+03 0.  0.
        -11    1    3    3    0    0 -0.28524679483E+02  0.17512225925E+02 -0.47279657297E+02  0.57928416091E+02  0.51100000000E-03 0. -1.
         23    2    1    0    0    0 -0.15663588497E+02 -0.87203746592E+01 -0.22453066800E+02  0.96267907359E+02  0.91880230952E+02 0.  0.
         11    1    3    3    0    0  0.12861090986E+02 -0.26232600584E+02  0.24826590497E+02  0.38339491268E+02  0.51100000000E-03 0.  1.
         22    1    1    0    0    0  0.15663588497E+02  0.87203746592E+01  0.22453066800E+02  0.28732092641E+02  0.00000000000E+00 0. -1.
</event>
<event>
 5    1  0.3186486E-003  0.9118800E+02  0.7818608E-02  0.1130116E+00
         25   -1    0    0    0    0  0.00000000000E+00  0.00000000000E+00  0.99999998245E-14  0.12500000000E+03  0.12500000000E+03 0.  0.
        -11    1    3    3    0    0 -0.13964233519E+02 -0.26674048578E+02  0.50325676963E+02  0.58644509099E+02  0.51100000000E-03 0.  1.
         23    2    1    0    0    0  0.38855665643E+01 -0.22751185944E+02  0.18191600246E+02  0.95612104382E+02  0.90983658397E+02 0.  0.
         11    1    3    3    0    0  0.17849800083E+02  0.39228626342E+01 -0.32134076717E+02  0.36967595283E+02  0.51100000000E-03 0. -1.
         22    1    1    0    0    0 -0.38855665643E+01  0.22751185944E+02 -0.18191600246E+02  0.29387895618E+02  0.00000000000E+00 0.  1.
</event>
<event>
 5    1  0.3186486E-003  0.9118800E+02  0.7818608E-02  0.1130116E+00
         25   -1    0    0    0    0  0.00000000000E+00  0.00000000000E+00  0.99999998245E-14  0.12500000000E+03  0.12500000000E+03 0.  0.
        -11    1    3    3    0    0  0.51191973012E+02 -0.29472252972E+02  0.13533288998E+02  0.60600179104E+02  0.51100000000E-03 0.  1.
         23    2    1    0    0    0  0.19755875471E+02 -0.13084946045E+02  0.16423432325E+02  0.96168774601E+02  0.91745265002E+02 0.  0.
         11    1    3    3    0    0 -0.31436097541E+02  0.16387306927E+02  0.28901433274E+01  0.35568595497E+02  0.51100000000E-03 0. -1.
         22    1    1    0    0    0 -0.19755875471E+02  0.13084946045E+02 -0.16423432325E+02  0.28831225399E+02  0.00000000000E+00 0.  1.
</event>
<event>
 5    1  0.3186486E-003  0.9118800E+02  0.7818608E-02  0.1130116E+00
         25   -1    0    0    0    0  0.00000000000E+00  0.00000000000E+00  0.99999998245E-14  0.12500000000E+03  0.12500000000E+03 0.  0.
        -11    1    3    3    0    0  0.15559515132E+02 -0.19405633190E+02 -0.40272126553E+02  0.47334145054E+02  0.51100000000E-03 0.  1.
         23    2    1    0    0    0 -0.22697314007E+01 -0.31095168999E+02  0.10201484014E+01  0.93805418444E+02  0.88466686447E+02 0.  0.
         11    1    3    3    0    0 -0.17829246533E+02 -0.11689535809E+02  0.41292274954E+02  0.46471273390E+02  0.51100000000E-03 0. -1.
         22    1    1    0    0    0  0.22697314007E+01  0.31095168999E+02 -0.10201484014E+01  0.31194581556E+02  0.00000000000E+00 0.  1.
</event>
<event>
 5    1  0.3186486E-003  0.9118800E+02  0.7818608E-02  0.1130116E+00
         25   -1    0    0    0    0  0.00000000000E+00  0.00000000000E+00  0.99999998245E-14  0.12500000000E+03  0.12500000000E+03 0.  0.
        -11    1    3    3    0    0  0.15011969574E+02  0.17881267154E+02  0.42571684153E+02  0.48553550204E+02  0.51100000000E-03 0.  1.
         23    2    1    0    0    0 -0.63382354690E+01  0.27051257913E+02 -0.18421178775E+00  0.97215513007E+02  0.93160497270E+02 0.  0.
         11    1    3    3    0    0 -0.21350205043E+02  0.91699907586E+01 -0.42755895941E+02  0.48661962803E+02  0.51100000000E-03 0. -1.
         22    1    1    0    0    0  0.63382354690E+01 -0.27051257913E+02  0.18421178775E+00  0.27784486993E+02  0.00000000000E+00 0. -1.
</event>
<event>
 5    1  0.3186486E-003  0.9118800E+02  0.7818608E-02  0.1130116E+00
         25   -1    0    0    0    0  0.00000000000E+00  0.00000000000E+00  0.99999998245E-14  0.12500000000E+03  0.12500000000E+03 0.  0.
        -11    1    3    3    0    0  0.28312251786E+02 -0.78133216548E+01  0.23029065921E+02  0.37322506266E+02  0.51100000000E-03 0. -1.
         23    2    1    0    0    0 -0.12547425398E+02  0.27473004739E+02  0.41611406862E+01  0.94511986530E+02  0.89459469217E+02 0.  0.
         11    1    3    3    0    0 -0.40859677184E+02  0.35286326394E+02 -0.18867925235E+02  0.57189480264E+02  0.51100000000E-03 0.  1.
         22    1    1    0    0    0  0.12547425398E+02 -0.27473004739E+02 -0.41611406862E+01  0.30488013470E+02  0.00000000000E+00 0.  1.
</event>
<event>
 5    1  0.3186486E-003  0.9118800E+02  0.7818608E-02  0.1130116E+00
         25   -1    0    0    0    0  0.00000000000E+00  0.00000000000E+00  0.99999998245E-14  0.12500000000E+03  0.12500000000E+03 0.  0.
        -11    1    3    3    0    0 -0.17396736014E+02  0.33491841763E+02 -0.46060012452E+02  0.59547247090E+02  0.51100000000E-03 0.  1.
         23    2    1    0    0    0 -0.16378473756E+02  0.19737187611E+02 -0.11243807493E+02  0.96995818449E+02  0.92865249756E+02 0.  0.
         11    1    3    3    0    0  0.10182622573E+01 -0.13754654152E+02  0.34816204959E+02  0.37448571360E+02  0.51100000000E-03 0. -1.
         22    1    1    0    0    0  0.16378473756E+02 -0.19737187611E+02  0.11243807493E+02  0.28004181551E+02  0.00000000000E+00 0.  1.
</event>
<event>
 5    1  0.3186486E-003  0.9118800E+02  0.7818608E-02  0.1130116E+00
         25   -1    0    0    0    0  0.00000000000E+00  0.00000000000E+00  0.99999998245E-14  0.12500000000E+03  0.12500000000E+03 0.  0.
        -11    1    3    3    0    0 -0.14845137461E+02  0.28068252512E+02 -0.52021517535E+02  0.60946231977E+02  0.51100000000E-03 0.  1.
         23    2    1    0    0    0 -0.15594423484E+02  0.87503805901E+01 -0.22068985157E+02  0.96595857518E+02  0.92325318193E+02 0.  0.
         11    1    3    3    0    0 -0.74928602370E+00 -0.19317871922E+02  0.29952532377E+02  0.35649625541E+02  0.51100000000E-03 0. -1.
         22    1    1    0    0    0  0.15594423484E+02 -0.87503805901E+01  0.22068985157E+02  0.28404142482E+02  0.00000000000E+00 0.  1.
</event>
<event>
 5    1  0.3186486E-003  0.9118800E+02  0.7818608E-02  0.1130116E+00
         25   -1    0    0    0    0  0.00000000000E+00  0.00000000000E+00  0.99999998245E-14  0.12500000000E+03  0.12500000000E+03 0.  0.
        -11    1    3    3    0    0 -0.17731496817E+02  0.74429065309E+01 -0.28407125178E+02  0.34304046381E+02  0.51100000000E-03 0.  1.
         23    2    1    0    0    0  0.18156459855E+01  0.15759004361E+01  0.29345272235E+02  0.95556409270E+02  0.90907108179E+02 0.  0.
         11    1    3    3    0    0  0.19547142803E+02 -0.58670060949E+01  0.57752397413E+02  0.61252362889E+02  0.51100000000E-03 0. -1.
         22    1    1    0    0    0 -0.18156459855E+01 -0.15759004361E+01 -0.29345272235E+02  0.29443590730E+02  0.00000000000E+00 0. -1.
</event>
<event>
 5    1  0.3186486E-003  0.9118800E+02  0.7818608E-02  0.1130116E+00
         25   -1    0    0    0    0  0.00000000000E+00  0.00000000000E+00  0.99999998245E-14  0.12500000000E+03  0.12500000000E+03 0.  0.
        -11    1    3    3    0    0 -0.58894449511E+02  0.45249983317E+01  0.15526646617E+02  0.61074614601E+02  0.51100000000E-03 0.  1.
         23    2    1    0    0    0 -0.25863476756E+02 -0.58702886089E+01  0.12026796625E+02  0.95879155999E+02  0.91349816638E+02 0.  0.
         11    1    3    3    0    0  0.33030972755E+02 -0.10395286941E+02 -0.34998499928E+01  0.34804541399E+02  0.51100000000E-03 0. -1.
         22    1    1    0    0    0  0.25863476756E+02  0.58702886089E+01 -0.12026796625E+02  0.29120844001E+02  0.00000000000E+00 0.  1.
</event>
<event>
 5    1  0.3186486E-003  0.9118800E+02  0.7818608E-02  0.1130116E+00
         25   -1    0    0    0    0  0.00000000000E+00  0.00000000000E+00  0.99999998245E-14  0.12500000000E+03  0.12500000000E+03 0.  0.
        -11    1    3    3    0    0 -0.84924710159E+01  0.38165889860E+02  0.17651671938E+02  0.42899169401E+02  0.51100000000E-03 0.  1.
         23    2    1    0    0    0  0.28023578214E+01 -0.11987969378E+02  0.27159107350E+02  0.95180849589E+02  0.90389227219E+02 0.  0.
         11    1    3    3    0    0  0.11294828837E+02 -0.50153859238E+02  0.95074354120E+01  0.52281680188E+02  0.51100000000E-03 0. -1.
         22    1    1    0    0    0 -0.28023578214E+01  0.11987969378E+02 -0.27159107350E+02  0.29819150411E+02  0.00000000000E+00 0. -1.
</event>
<event>
 5    1  0.3186486E-003  0.9118800E+02  0.7818608E-02  0.1130116E+00
         25   -1    0    0    0    0  0.00000000000E+00  0.00000000000E+00  0.99999998245E-14  0.12500000000E+03  0.12500000000E+03 0.  0.
        -11    1    3    3    0    0 -0.31633049111E+02  0.27254176539E+02  0.45667205206E+02  0.61878377212E+02  0.51100000000E-03 0.  1.
         23    2    1    0    0    0 -0.13965248851E+02  0.79461055951E+01  0.25246733453E+02  0.95073985904E+02  0.90241323550E+02 0.  0.
         11    1    3    3    0    0  0.17667800259E+02 -0.19308070943E+02 -0.20420471753E+02  0.33195608692E+02  0.51100000000E-03 0. -1.
         22    1    1    0    0    0  0.13965248851E+02 -0.79461055951E+01 -0.25246733453E+02  0.29926014096E+02  0.00000000000E+00 0.  1.
</event>
<event>
 5    1  0.3186486E-003  0.9118800E+02  0.7818608E-02  0.1130116E+00
         25   -1    0    0    0    0  0.00000000000E+00  0.00000000000E+00  0.99999998245E-14  0.12500000000E+03  0.12500000000E+03 0.  0.
        -11    1    3    3    0    0 -0.36846983979E+02 -0.27367831823E+01 -0.62111264296E+01  0.37466896086E+02  0.51100000000E-03 0.  1.
         23    2    1    0    0    0 -0.28863199474E+01 -0.26189040497E+02  0.24586354707E+02  0.88962720375E+02  0.81336831102E+02 0.  0.
         11    1    3    3    0    0  0.33960664031E+02 -0.23452257314E+02  0.30797481137E+02  0.51495824289E+02  0.51100000000E-03 0. -1.
         22    1    1    0    0    0  0.28863199474E+01  0.26189040497E+02 -0.24586354707E+02  0.36037279625E+02  0.00000000000E+00 0. -1.
</event>
<event>
 5    1  0.3186486E-003  0.9118800E+02  0.7818608E-02  0.1130116E+00
         25   -1    0    0    0    0  0.00000000000E+00  0.00000000000E+00  0.99999998245E-14  0.12500000000E+03  0.12500000000E+03 0.  0.
        -11    1    3    3    0    0  0.37758611471E+02 -0.25503428171E+02  0.25716156773E+02  0.52320725416E+02  0.51100000000E-03 0.  1.
         23    2    1    0    0    0  0.28188676316E+02  0.61832618851E+01 -0.27934096271E+01  0.96006253479E+02  0.91523567292E+02 0.  0.
         11    1    3    3    0    0 -0.95699351551E+01  0.31686690056E+02 -0.28509566400E+02  0.43685528063E+02  0.51100000000E-03 0. -1.
         22    1    1    0    0    0 -0.28188676316E+02 -0.61832618851E+01  0.27934096271E+01  0.28993746521E+02  0.00000000000E+00 0.  1.
</event>
<event>
 5    1  0.3186486E-003  0.9118800E+02  0.7818608E-02  0.1130116E+00
         25   -1    0    0    0    0  0.00000000000E+00  0.00000000000E+00  0.99999998245E-14  0.12500000000E+03  0.12500000000E+03 0.  0.
        -11    1    3    3    0    0 -0.51546060800E+02  0.18756092826E+02  0.16042352084E+02  0.57150192150E+02  0.51100000000E-03 0. -1.
         23    2    1    0    0    0 -0.30893616034E+02  0.70284361796E+01 -0.93969834863E+01  0.91952795498E+02  0.85809083869E+02 0.  0.
         11    1    3    3    0    0  0.20652444767E+02 -0.11727656646E+02 -0.25439335570E+02  0.34802603348E+02  0.51100000000E-03 0.  1.
         22    1    1    0    0    0  0.30893616034E+02 -0.70284361796E+01  0.93969834863E+01  0.33047204502E+02  0.00000000000E+00 0. -1.
</event>
<event>
 5    1  0.3186486E-003  0.9118800E+02  0.7818608E-02  0.1130116E+00
         25   -1    0    0    0    0  0.00000000000E+00  0.00000000000E+00  0.99999998245E-14  0.12500000000E+03  0.12500000000E+03 0.  0.
        -11    1    3    3    0    0  0.32683614411E+01  0.11258976317E+02 -0.33055481616E+02  0.35072946830E+02  0.51100000000E-03 0. -1.
         23    2    1    0    0    0 -0.10945773690E+02  0.88547825283E+01  0.25767718923E+02  0.95636885830E+02  0.91017698595E+02 0.  0.
         11    1    3    3    0    0 -0.14214135131E+02 -0.24041937886E+01  0.58823200539E+02  0.60563939000E+02  0.51100000000E-03 0.  1.
         22    1    1    0    0    0  0.10945773690E+02 -0.88547825283E+01 -0.25767718923E+02  0.29363114170E+02  0.00000000000E+00 0.  1.
</event>
<event>
 5    1  0.3186486E-003  0.9118800E+02  0.7818608E-02  0.1130116E+00
         25   -1    0    0    0    0  0.00000000000E+00  0.00000000000E+00  0.99999998245E-14  0.12500000000E+03  0.12500000000E+03 0.  0.
        -11    1    3    3    0    0  0.37045560606E+02 -0.16749992761E+02 -0.68585480689E+01  0.41230759148E+02  0.51100000000E-03 0.  1.
         23    2    1    0    0    0 -0.10264523658E+02  0.19031153575E+02 -0.11090714383E+02  0.10069878197E+03  0.97722543418E+02 0.  0.
         11    1    3    3    0    0 -0.47310084264E+02  0.35781146336E+02 -0.42321663137E+01  0.59468022820E+02  0.51100000000E-03 0. -1.
         22    1    1    0    0    0  0.10264523658E+02 -0.19031153575E+02  0.11090714383E+02  0.24301218032E+02  0.00000000000E+00 0. -1.
</event>
<event>
 5    1  0.3186486E-003  0.9118800E+02  0.7818608E-02  0.1130116E+00
         25   -1    0    0    0    0  0.00000000000E+00  0.00000000000E+00  0.99999998245E-14  0.12500000000E+03  0.12500000000E+03 0.  0.
        -11    1    3    3    0    0 -0.16886453820E+02 -0.33969511504E+02 -0.46622124551E+02  0.60105761224E+02  0.51100000000E-03 0.  1.
         23    2    1    0    0    0 -0.49380293147E+01 -0.26957986971E+02 -0.17154660902E+02  0.92667360366E+02  0.86843768294E+02 0.  0.
         11    1    3    3    0    0  0.11948424505E+02  0.70115245325E+01  0.29467463650E+02  0.32561599141E+02  0.51100000000E-03 0. -1.
         22    1    1    0    0    0  0.49380293147E+01  0.26957986971E+02  0.17154660902E+02  0.32332639634E+02  0.00000000000E+00 0.  1.
</event>
<event>
 5    1  0.3186486E-003  0.9118800E+02  0.7818608E-02  0.1130116E+00
         25   -1    0    0    0    0  0.00000000000E+00  0.00000000000E+00  0.99999998245E-14  0.12500000000E+03  0.12500000000E+03 0.  0.
        -11    1    3    3    0    0  0.40977967340E+01  0.48986742728E+01 -0.32046548229E+02  0.32676753226E+02  0.51100000000E-03 0.  1.
         23    2    1    0    0    0  0.10942479925E+00 -0.82860044192E+01  0.28783735539E+02  0.95047149140E+02  0.90204142284E+02 0.  0.
         11    1    3    3    0    0 -0.39883719347E+01 -0.13184678692E+02  0.60830283769E+02  0.62370395915E+02  0.51100000000E-03 0. -1.
         22    1    1    0    0    0 -0.10942479925E+00  0.82860044192E+01 -0.28783735539E+02  0.29952850860E+02  0.00000000000E+00 0. -1.
</event>
<event>
 5    1  0.3186486E-003  0.9118800E+02  0.7818608E-02  0.1130116E+00
         25   -1    0    0    0    0  0.00000000000E+00  0.00000000000E+00  0.99999998245E-14  0.12500000000E+03  0.12500000000E+03 0.  0.
        -11    1    3    3    0    0 -0.47306791741E+02 -0.30124961478E+02 -0.24363254853E+02  0.61147477758E+02  0.51100000000E-03 0. -1.
         23    2    1    0    0    0 -0.16541505834E+02 -0.14376214711E+02 -0.18741366380E+02  0.96163637912E+02  0.91738266159E+02 0.  0.
         11    1    3    3    0    0  0.30765285907E+02  0.15748746766E+02  0.56218884725E+01  0.35016160154E+02  0.51100000000E-03 0.  1.
         22    1    1    0    0    0  0.16541505834E+02  0.14376214711E+02  0.18741366380E+02  0.28836362088E+02  0.00000000000E+00 0. -1.
</event>
<event>
 5    1  0.3186486E-003  0.9118800E+02  0.7818608E-02  0.1130116E+00
         25   -1    0    0    0    0  0.00000000000E+00  0.00000000000E+00  0.99999998245E-14  0.12500000000E+03  0.12500000000E+03 0.  0.
        -11    1    3    3    0    0  0.20612599360E+02  0.11056330807E+02  0.27341275330E+02  0.35981481907E+02  0.51100000000E-03 0. -1.
         23    2    1    0    0    0 -0.24501684356E+02 -0.14676226593E+02 -0.32444293955E+01  0.96255426853E+02  0.91863250069E+02 0.  0.
         11    1    3    3    0    0 -0.45114283716E+02 -0.25732557400E+02 -0.30585704726E+02  0.60273944946E+02  0.51100000000E-03 0.  1.
         22    1    1    0    0    0  0.24501684356E+02  0.14676226593E+02  0.32444293955E+01  0.28744573147E+02  0.00000000000E+00 0.  1.
</event>
<event>
 5    1  0.3186486E-003  0.9118800E+02  0.7818608E-02  0.1130116E+00
         25   -1    0    0    0    0  0.00000000000E+00  0.00000000000E+00  0.99999998245E-14  0.12500000000E+03  0.12500000000E+03 0.  0.
        -11    1    3    3    0    0  0.16674234965E+02 -0.20132589208E+02  0.17854616573E+02  0.31656572668E+02  0.51100000000E-03 0.  1.
         23    2    1    0    0    0 -0.35298711870E+02 -0.12973922217E+01  0.23705523279E+00  0.89676658122E+02  0.82426722187E+02 0.  0.
         11    1    3    3    0    0 -0.51972946835E+02  0.18835196986E+02 -0.17617561340E+02  0.58020085454E+02  0.51100000000E-03 0. -1.
         22    1    1    0    0    0  0.35298711870E+02  0.12973922217E+01 -0.23705523279E+00  0.35323341878E+02  0.00000000000E+00 0. -1.
</event>
<event>
 5    1  0.3186486E-003  0.9118800E+02  0.7818608E-02  0.1130116E+00
         25   -1    0    0    0    0  0.00000000000E+00  0.00000000000E+00  0.99999998245E-14  0.12500000000E+03  0.12500000000E+03 0.  0.
        -11    1    3    3    0    0 -0.23476168579E+02 -0.22537065806E+02  0.33380192959E+02  0.46618527524E+02  0.51100000000E-03 0. -1.
         23    2    1    0    0    0 -0.25925051134E+02  0.11555440648E+02 -0.29056987971E+01  0.96467920328E+02  0.92151940197E+02 0.  0.
         11    1    3    3    0    0 -0.24488825559E+01  0.34092506454E+02 -0.36285891756E+02  0.49849392804E+02  0.51100000000E-03 0.  1.
         22    1    1    0    0    0  0.25925051134E+02 -0.11555440648E+02  0.29056987971E+01  0.28532079672E+02  0.00000000000E+00 0. -1.
</event>
<event>
 5    1  0.3186486E-003  0.9118800E+02  0.7818608E-02  0.1130116E+00
         25   -1    0    0    0    0  0.00000000000E+00  0.00000000000E+00  0.99999998245E-14  0.12500000000E+03  0.12500000000E+03 0.  0.
        -11    1    3    3    0    0  0.39125451127E+02  0.39638261285E+02  0.22870884719E+02  0.60208554639E+02  0.51100000000E-03 0. -1.
         23    2    1    0    0    0  0.17167831643E+02  0.20468500987E+02 -0.15574355841E+01  0.98239589286E+02  0.94524585804E+02 0.  0.
         11    1    3    3    0    0 -0.21957619484E+02 -0.19169760297E+02 -0.24428320303E+02  0.38031034647E+02  0.51100000000E-03 0.  1.
         22    1    1    0    0    0 -0.17167831643E+02 -0.20468500987E+02  0.15574355841E+01  0.26760410714E+02  0.00000000000E+00 0. -1.
</event>
<event>
 5    1  0.3186486E-003  0.9118800E+02  0.7818608E-02  0.1130116E+00
         25   -1    0    0    0    0  0.00000000000E+00  0.00000000000E+00  0.99999998245E-14  0.12500000000E+03  0.12500000000E+03 0.  0.
        -11    1    3    3    0    0 -0.11902762047E+02 -0.55952332793E+02  0.38994554874E+00  0.57205693310E+02  0.51100000000E-03 0.  1.
         23    2    1    0    0    0 -0.22149812302E+02 -0.18182113988E+02 -0.15703487472E-01  0.96343348055E+02  0.91982808251E+02 0.  0.
         11    1    3    3    0    0 -0.10247050256E+02  0.37770218805E+02 -0.40564903621E+00  0.39137654745E+02  0.51100000000E-03 0. -1.
         22    1    1    0    0    0  0.22149812302E+02  0.18182113988E+02  0.15703487472E-01  0.28656651945E+02  0.00000000000E+00 0.  1.
</event>
<event>
 5    1  0.3186486E-003  0.9118800E+02  0.7818608E-02  0.1130116E+00
         25   -1    0    0    0    0  0.00000000000E+00  0.00000000000E+00  0.99999998245E-14  0.12500000000E+03  0.12500000000E+03 0.  0.
        -11    1    3    3    0    0 -0.53342209215E+01  0.34413340993E+02  0.44739715187E+02  0.56695450139E+02  0.51100000000E-03 0. -1.
         23    2    1    0    0    0 -0.19323016881E+02  0.68457406247E+01  0.20809105248E+02  0.95789351132E+02  0.91226847928E+02 0.  0.
         11    1    3    3    0    0 -0.13988795960E+02 -0.27567600369E+02 -0.23930609940E+02  0.39093900993E+02  0.51100000000E-03 0.  1.
         22    1    1    0    0    0  0.19323016881E+02 -0.68457406247E+01 -0.20809105248E+02  0.29210648868E+02  0.00000000000E+00 0. -1.
</event>
<event>
 5    1  0.3186486E-003  0.9118800E+02  0.7818608E-02  0.1130116E+00
         25   -1    0    0    0    0  0.00000000000E+00  0.00000000000E+00  0.99999998245E-14  0.12500000000E+03  0.12500000000E+03 0.  0.
        -11    1    3    3    0    0 -0.15377262296E+02  0.34796876865E+02  0.41941092065E+02  0.56624535664E+02  0.51100000000E-03 0. -1.
         23    2    1    0    0    0 -0.35878636767E+01 -0.10131125493E+01  0.27895207818E+02  0.96856763122E+02  0.92677887225E+02 0.  0.
         11    1    3    3    0    0  0.11789398620E+02 -0.35809989414E+02 -0.14045884248E+02  0.40232227458E+02  0.51100000000E-03 0.  1.
         22    1    1    0    0    0  0.35878636767E+01  0.10131125493E+01 -0.27895207818E+02  0.28143236878E+02  0.00000000000E+00 0. -1.
</event>
<event>
 5    1  0.3186486E-003  0.9118800E+02  0.7818608E-02  0.1130116E+00
         25   -1    0    0    0    0  0.00000000000E+00  0.00000000000E+00  0.99999998245E-14  0.12500000000E+03  0.12500000000E+03 0.  0.
        -11    1    3    3    0    0  0.11973076273E+02  0.33900442753E+02 -0.21627528549E+01  0.36017663368E+02  0.51100000000E-03 0.  1.
         23    2    1    0    0    0 -0.13839171360E+02 -0.17780558843E+02 -0.18272598772E+02  0.95990367072E+02  0.91501867566E+02 0.  0.
         11    1    3    3    0    0 -0.25812247633E+02 -0.51681001596E+02 -0.16109845917E+02  0.59972703705E+02  0.51100000000E-03 0. -1.
         22    1    1    0    0    0  0.13839171360E+02  0.17780558843E+02  0.18272598772E+02  0.29009632928E+02  0.00000000000E+00 0. -1.
</event>
<event>
 5    1  0.3186486E-003  0.9118800E+02  0.7818608E-02  0.1130116E+00
         25   -1    0    0    0    0  0.00000000000E+00  0.00000000000E+00  0.99999998245E-14  0.12500000000E+03  0.12500000000E+03 0.  0.
        -11    1    3    3    0    0 -0.37396824136E+01  0.16948500844E+02 -0.47409008396E+02  0.50486146444E+02  0.51100000000E-03 0.  1.
         23    2    1    0    0    0  0.13860568040E+02 -0.15362323707E+02 -0.17370404759E+02  0.97984313861E+02  0.94186402762E+02 0.  0.
         11    1    3    3    0    0  0.17600250454E+02 -0.32310824551E+02  0.30038603637E+02  0.47498167417E+02  0.51100000000E-03 0. -1.
         22    1    1    0    0    0 -0.13860568040E+02  0.15362323707E+02  0.17370404759E+02  0.27015686139E+02  0.00000000000E+00 0. -1.
</event>
<event>
 5    1  0.3186486E-003  0.9118800E+02  0.7818608E-02  0.1130116E+00
         25   -1    0    0    0    0  0.00000000000E+00  0.00000000000E+00  0.99999998245E-14  0.12500000000E+03  0.12500000000E+03 0.  0.
        -11    1    3    3    0    0 -0.11050833374E+02  0.35776564056E+02 -0.31766686159E+02  0.49104030423E+02  0.51100000000E-03 0.  1.
         23    2    1    0    0    0  0.19888071942E+02  0.32456349707E+01 -0.22222713830E+02  0.95001357332E+02  0.90140664148E+02 0.  0.
         11    1    3    3    0    0  0.30938905317E+02 -0.32530929086E+02  0.95439723293E+01  0.45897326910E+02  0.51100000000E-03 0. -1.
         22    1    1    0    0    0 -0.19888071942E+02 -0.32456349707E+01  0.22222713830E+02  0.29998642668E+02  0.00000000000E+00 0.  1.
</event>
<event>
 5    1  0.3186486E-003  0.9118800E+02  0.7818608E-02  0.1130116E+00
         25   -1    0    0    0    0  0.00000000000E+00  0.00000000000E+00  0.99999998245E-14  0.12500000000E+03  0.12500000000E+03 0.  0.
        -11    1    3    3    0    0  0.21873553805E+02 -0.26583215275E+02 -0.35664715874E+02  0.49569059392E+02  0.51100000000E-03 0.  1.
         23    2    1    0    0    0 -0.37597864235E+01 -0.27512398072E+02  0.41425089262E+01  0.96924594005E+02  0.92769329528E+02 0.  0.
         11    1    3    3    0    0 -0.25633340228E+02 -0.92918279618E+00  0.39807224800E+02  0.47355534612E+02  0.51100000000E-03 0. -1.
         22    1    1    0    0    0  0.37597864235E+01  0.27512398072E+02 -0.41425089262E+01  0.28075405995E+02  0.00000000000E+00 0.  1.
</event>
<event>
 5    1  0.3186486E-003  0.9118800E+02  0.7818608E-02  0.1130116E+00
         25   -1    0    0    0    0  0.00000000000E+00  0.00000000000E+00  0.99999998245E-14  0.12500000000E+03  0.12500000000E+03 0.  0.
        -11    1    3    3    0    0 -0.44152637505E+02 -0.95792871443E+01  0.59474710324E+01  0.45569623136E+02  0.51100000000E-03 0. -1.
         23    2    1    0    0    0 -0.10541571999E+02  0.26601237807E+02  0.88793960587E+01  0.95040122373E+02  0.90194404445E+02 0.  0.
         11    1    3    3    0    0  0.33611065505E+02  0.36180524951E+02  0.29319250263E+01  0.49470499237E+02  0.51100000000E-03 0.  1.
         22    1    1    0    0    0  0.10541571999E+02 -0.26601237807E+02 -0.88793960587E+01  0.29959877627E+02  0.00000000000E+00 0.  1.
</event>
<event>
 5    1  0.3186486E-003  0.9118800E+02  0.7818608E-02  0.1130116E+00
         25   -1    0    0    0    0  0.00000000000E+00  0.00000000000E+00  0.99999998245E-14  0.12500000000E+03  0.12500000000E+03 0.  0.
        -11    1    3    3    0    0  0.44474572036E+02 -0.19872322781E+02 -0.17810863579E+02  0.51866401766E+02  0.51100000000E-03 0.  1.
         23    2    1    0    0    0  0.30815954912E+02  0.94084275509E+01  0.62858351689E+01  0.92172369719E+02  0.86128348583E+02 0.  0.
         11    1    3    3    0    0 -0.13658617124E+02  0.29280750332E+02  0.24096698748E+02  0.40305967952E+02  0.51100000000E-03 0. -1.
         22    1    1    0    0    0 -0.30815954912E+02 -0.94084275509E+01 -0.62858351689E+01  0.32827630281E+02  0.00000000000E+00 0.  1.
</event>
<event>
 5    1  0.3186486E-003  0.9118800E+02  0.7818608E-02  0.1130116E+00
         25   -1    0    0    0    0  0.00000000000E+00  0.00000000000E+00  0.99999998245E-14  0.12500000000E+03  0.12500000000E+03 0.  0.
        -11    1    3    3    0    0 -0.24035551431E+02 -0.16445793748E+02 -0.27603468506E+02  0.40126342201E+02  0.51100000000E-03 0.  1.
         23    2    1    0    0    0 -0.98952029252E+01  0.27350158057E+02  0.35466564560E+01  0.95699403442E+02  0.91103517278E+02 0.  0.
         11    1    3    3    0    0  0.14140348506E+02  0.43795951804E+02  0.31150124962E+02  0.55573061241E+02  0.51100000000E-03 0. -1.
         22    1    1    0    0    0  0.98952029252E+01 -0.27350158057E+02 -0.35466564560E+01  0.29300596558E+02  0.00000000000E+00 0. -1.
</event>
<event>
 5    1  0.3186486E-003  0.9118800E+02  0.7818608E-02  0.1130116E+00
         25   -1    0    0    0    0  0.00000000000E+00  0.00000000000E+00  0.99999998245E-14  0.12500000000E+03  0.12500000000E+03 0.  0.
        -11    1    3    3    0    0 -0.38995026711E+02  0.32373974086E+02 -0.28621086943E+02  0.58205265435E+02  0.51100000000E-03 0.  1.
         23    2    1    0    0    0 -0.10715031661E+02  0.65859119141E+01 -0.25453607324E+02  0.96608588182E+02  0.92342552734E+02 0.  0.
         11    1    3    3    0    0  0.28279995049E+02 -0.25788062172E+02  0.31674796190E+01  0.38403322747E+02  0.51100000000E-03 0. -1.
         22    1    1    0    0    0  0.10715031661E+02 -0.65859119141E+01  0.25453607324E+02  0.28391411818E+02  0.00000000000E+00 0.  1.
</event>
<event>
 5    1  0.3186486E-003  0.9118800E+02  0.7818608E-02  0.1130116E+00
         25   -1    0    0    0    0  0.00000000000E+00  0.00000000000E+00  0.99999998245E-14  0.12500000000E+03  0.12500000000E+03 0.  0.
        -11    1    3    3    0    0  0.19818291692E+02  0.44732485601E+02 -0.51315827524E+01  0.49194441712E+02  0.51100000000E-03 0. -1.
         23    2    1    0    0    0  0.28665294950E+02  0.38219172263E+01  0.11011116316E+02  0.94055681161E+02  0.88819594067E+02 0.  0.
         11    1    3    3    0    0  0.88470032586E+01 -0.40910568374E+02  0.16142699069E+02  0.44861239448E+02  0.51100000000E-03 0.  1.
         22    1    1    0    0    0 -0.28665294950E+02 -0.38219172263E+01 -0.11011116316E+02  0.30944318839E+02  0.00000000000E+00 0.  1.
</event>
<event>
 5    1  0.3186486E-003  0.9118800E+02  0.7818608E-02  0.1130116E+00
         25   -1    0    0    0    0  0.00000000000E+00  0.00000000000E+00  0.99999998245E-14  0.12500000000E+03  0.12500000000E+03 0.  0.
        -11    1    3    3    0    0  0.10544851459E+02  0.28286004222E+02 -0.10882589597E+02  0.32089292353E+02  0.51100000000E-03 0.  1.
         23    2    1    0    0    0  0.12472528433E+02  0.19566857997E+01  0.36526486053E+02  0.86353179067E+02  0.77222372191E+02 0.  0.
         11    1    3    3    0    0  0.19276769742E+01 -0.26329318422E+02  0.47409075649E+02  0.54263886714E+02  0.51100000000E-03 0. -1.
         22    1    1    0    0    0 -0.12472528433E+02 -0.19566857997E+01 -0.36526486053E+02  0.38646820933E+02  0.00000000000E+00 0. -1.
</event>
<event>
 5    1  0.3186486E-003  0.9118800E+02  0.7818608E-02  0.1130116E+00
         25   -1    0    0    0    0  0.00000000000E+00  0.00000000000E+00  0.99999998245E-14  0.12500000000E+03  0.12500000000E+03 0.  0.
        -11    1    3    3    0    0 -0.52544782400E+00 -0.95229183515E+01  0.37884919893E+02  0.39066983821E+02  0.51100000000E-03 0. -1.
         23    2    1    0    0    0  0.12280491546E+02  0.28202420427E+02 -0.28193786406E+00  0.94238555309E+02  0.89076589670E+02 0.  0.
         11    1    3    3    0    0  0.12805939370E+02  0.37725338778E+02 -0.38166857757E+02  0.55171571487E+02  0.51100000000E-03 0.  1.
         22    1    1    0    0    0 -0.12280491546E+02 -0.28202420427E+02  0.28193786406E+00  0.30761444691E+02  0.00000000000E+00 0.  1.
</event>
<event>
 5    1  0.3186486E-003  0.9118800E+02  0.7818608E-02  0.1130116E+00
         25   -1    0    0    0    0  0.00000000000E+00  0.00000000000E+00  0.99999998245E-14  0.12500000000E+03  0.12500000000E+03 0.  0.
        -11    1    3    3    0    0  0.19117642575E+02  0.49469206436E+01  0.28625069965E+02  0.34775723030E+02  0.51100000000E-03 0.  1.
         23    2    1    0    0    0 -0.26730395430E+02  0.61992228679E+01 -0.11048891013E+02  0.95419222514E+02  0.90718276155E+02 0.  0.
         11    1    3    3    0    0 -0.45848038006E+02  0.12523022243E+01 -0.39673960978E+02  0.60643499485E+02  0.51100000000E-03 0. -1.
         22    1    1    0    0    0  0.26730395430E+02 -0.61992228679E+01  0.11048891013E+02  0.29580777486E+02  0.00000000000E+00 0. -1.
</event>
<event>
 5    1  0.3186486E-003  0.9118800E+02  0.7818608E-02  0.1130116E+00
         25   -1    0    0    0    0  0.00000000000E+00  0.00000000000E+00  0.99999998245E-14  0.12500000000E+03  0.12500000000E+03 0.  0.
        -11    1    3    3    0    0 -0.62617579768E+00 -0.25776370590E+02  0.31448558214E+02  0.40667249611E+02  0.51100000000E-03 0.  1.
         23    2    1    0    0    0 -0.17815536012E+02 -0.12556967306E+02 -0.19320540553E+02  0.95873482209E+02  0.91342052486E+02 0.  0.
         11    1    3    3    0    0 -0.17189360215E+02  0.13219403283E+02 -0.50769098768E+02  0.55206232598E+02  0.51100000000E-03 0. -1.
         22    1    1    0    0    0  0.17815536012E+02  0.12556967306E+02  0.19320540553E+02  0.29126517791E+02  0.00000000000E+00 0.  1.
</event>
<event>
 5    1  0.3186486E-003  0.9118800E+02  0.7818608E-02  0.1130116E+00
         25   -1    0    0    0    0  0.00000000000E+00  0.00000000000E+00  0.99999998245E-14  0.12500000000E+03  0.12500000000E+03 0.  0.
        -11    1    3    3    0    0 -0.14264529074E+02  0.10754325023E+02  0.55722106781E+02  0.58515685767E+02  0.51100000000E-03 0.  1.
         23    2    1    0    0    0 -0.21238358469E+02  0.27784809552E+01  0.20296065836E+02  0.95492066908E+02  0.90818592409E+02 0.  0.
         11    1    3    3    0    0 -0.69738293957E+01 -0.79758440680E+01 -0.35426040945E+02  0.36976381141E+02  0.51100000000E-03 0. -1.
         22    1    1    0    0    0  0.21238358469E+02 -0.27784809552E+01 -0.20296065836E+02  0.29507933092E+02  0.00000000000E+00 0.  1.
</event>
<event>
 5    1  0.3186486E-003  0.9118800E+02  0.7818608E-02  0.1130116E+00
         25   -1    0    0    0    0  0.00000000000E+00  0.00000000000E+00  0.99999998245E-14  0.12500000000E+03  0.12500000000E+03 0.  0.
        -11    1    3    3    0    0 -0.31769978366E+02 -0.17320923028E+02 -0.31865890261E+02  0.48215981399E+02  0.51100000000E-03 0.  1.
         23    2    1    0    0    0  0.13846272093E+02 -0.16791429404E+02 -0.20207105360E+02  0.95301541128E+02  0.90555978721E+02 0.  0.
         11    1    3    3    0    0  0.45616250459E+02  0.52949362358E+00  0.11658784900E+02  0.47085559730E+02  0.51100000000E-03 0. -1.
         22    1    1    0    0    0 -0.13846272093E+02  0.16791429404E+02  0.20207105360E+02  0.29698458872E+02  0.00000000000E+00 0. -1.
</event>
<event>
 5    1  0.3186486E-003  0.9118800E+02  0.7818608E-02  0.1130116E+00
         25   -1    0    0    0    0  0.00000000000E+00  0.00000000000E+00  0.99999998245E-14  0.12500000000E+03  0.12500000000E+03 0.  0.
        -11    1    3    3    0    0 -0.12226342692E+01 -0.38082890779E+02 -0.78884245972E+01  0.38910521039E+02  0.51100000000E-03 0.  1.
         23    2    1    0    0    0  0.23891588876E+02  0.10236899536E+02  0.11311866129E+02  0.96652858231E+02  0.92402459696E+02 0.  0.
         11    1    3    3    0    0  0.25114223145E+02  0.48319790315E+02  0.19200290727E+02  0.57742337193E+02  0.51100000000E-03 0. -1.
         22    1    1    0    0    0 -0.23891588876E+02 -0.10236899536E+02 -0.11311866129E+02  0.28347141769E+02  0.00000000000E+00 0. -1.
</event>
<event>
 5    1  0.3186486E-003  0.9118800E+02  0.7818608E-02  0.1130116E+00
         25   -1    0    0    0    0  0.00000000000E+00  0.00000000000E+00  0.99999998245E-14  0.12500000000E+03  0.12500000000E+03 0.  0.
        -11    1    3    3    0    0  0.27049524194E+02  0.44170454354E+02  0.24115948743E+02  0.57133919706E+02  0.51100000000E-03 0. -1.
         23    2    1    0    0    0 -0.43134684108E+01  0.21487652239E+02  0.18647214794E+02  0.96224249305E+02  0.91820816411E+02 0.  0.
         11    1    3    3    0    0 -0.31362992605E+02 -0.22682802115E+02 -0.54687339485E+01  0.39090329599E+02  0.51100000000E-03 0.  1.
         22    1    1    0    0    0  0.43134684108E+01 -0.21487652239E+02 -0.18647214794E+02  0.28775750695E+02  0.00000000000E+00 0. -1.
</event>
<event>
 5    1  0.3186486E-003  0.9118800E+02  0.7818608E-02  0.1130116E+00
         25   -1    0    0    0    0  0.00000000000E+00  0.00000000000E+00  0.99999998245E-14  0.12500000000E+03  0.12500000000E+03 0.  0.
        -11    1    3    3    0    0 -0.58021016802E+01 -0.43178208231E+02  0.19744233767E+02  0.47831546256E+02  0.51100000000E-03 0. -1.
         23    2    1    0    0    0 -0.65245565692E+01  0.15521686331E+01  0.30441116733E+02  0.93828849013E+02  0.88499786741E+02 0.  0.
         11    1    3    3    0    0 -0.72245488895E+00  0.44730376864E+02  0.10696882966E+02  0.45997302757E+02  0.51100000000E-03 0.  1.
         22    1    1    0    0    0  0.65245565692E+01 -0.15521686331E+01 -0.30441116733E+02  0.31171150987E+02  0.00000000000E+00 0. -1.
</event>
<event>
 5    1  0.3186486E-003  0.9118800E+02  0.7818608E-02  0.1130116E+00
         25   -1    0    0    0    0  0.00000000000E+00  0.00000000000E+00  0.99999998245E-14  0.12500000000E+03  0.12500000000E+03 0.  0.
        -11    1    3    3    0    0 -0.36967596316E+02  0.48500693946E+02  0.13466903604E+02  0.62452205594E+02  0.51100000000E-03 0.  1.
         23    2    1    0    0    0 -0.17861585959E+02  0.23047809391E+02  0.81917296051E+01  0.94712342372E+02  0.89738985915E+02 0.  0.
         11    1    3    3    0    0  0.19106010357E+02 -0.25452884555E+02 -0.52751739989E+01  0.32260136778E+02  0.51100000000E-03 0. -1.
         22    1    1    0    0    0  0.17861585959E+02 -0.23047809391E+02 -0.81917296051E+01  0.30287657628E+02  0.00000000000E+00 0.  1.
</event>
<event>
 5    1  0.3186486E-003  0.9118800E+02  0.7818608E-02  0.1130116E+00
         25   -1    0    0    0    0  0.00000000000E+00  0.00000000000E+00  0.99999998245E-14  0.12500000000E+03  0.12500000000E+03 0.  0.
        -11    1    3    3    0    0 -0.32505029435E+02  0.18239038408E+02 -0.15514863655E+02  0.40372644886E+02  0.51100000000E-03 0.  1.
         23    2    1    0    0    0  0.20232957663E+02  0.17068047851E+02  0.68322684856E+01  0.97661918028E+02  0.93757557066E+02 0.  0.
         11    1    3    3    0    0  0.52737987098E+02 -0.11709905569E+01  0.22347132141E+02  0.57289273142E+02  0.51100000000E-03 0. -1.
         22    1    1    0    0    0 -0.20232957663E+02 -0.17068047851E+02 -0.68322684856E+01  0.27338081972E+02  0.00000000000E+00 0. -1.
</event>
<event>
 5    1  0.3186486E-003  0.9118800E+02  0.7818608E-02  0.1130116E+00
         25   -1    0    0    0    0  0.00000000000E+00  0.00000000000E+00  0.99999998245E-14  0.12500000000E+03  0.12500000000E+03 0.  0.
        -11    1    3    3    0    0  0.59152119826E+02 -0.17238341939E+02 -0.97153618912E+01  0.62374048848E+02  0.51100000000E-03 0. -1.
         23    2    1    0    0    0  0.37832772943E+02 -0.11432316514E+02 -0.35242260948E+01  0.85320827390E+02  0.75532819672E+02 0.  0.
         11    1    3    3    0    0 -0.21319346884E+02  0.58060254241E+01  0.61911357964E+01  0.22946778543E+02  0.51100000000E-03 0.  1.
         22    1    1    0    0    0 -0.37832772943E+02  0.11432316514E+02  0.35242260948E+01  0.39679172610E+02  0.00000000000E+00 0. -1.
</event>
<event>
 5    1  0.3186486E-003  0.9118800E+02  0.7818608E-02  0.1130116E+00
         25   -1    0    0    0    0  0.00000000000E+00  0.00000000000E+00  0.99999998245E-14  0.12500000000E+03  0.12500000000E+03 0.  0.
        -11    1    3    3    0    0 -0.41847383193E+02  0.86395859003E+01  0.90324240900E+01  0.43674141204E+02  0.51100000000E-03 0.  1.
         23    2    1    0    0    0 -0.14742397453E+02 -0.28468022038E+02  0.14239746476E+02  0.89920990021E+02  0.82796422056E+02 0.  0.
         11    1    3    3    0    0  0.27104985740E+02 -0.37107607938E+02  0.52073223857E+01  0.46246848818E+02  0.51100000000E-03 0. -1.
         22    1    1    0    0    0  0.14742397453E+02  0.28468022038E+02 -0.14239746476E+02  0.35079009979E+02  0.00000000000E+00 0.  1.
</event>
<event>
 5    1  0.3186486E-003  0.9118800E+02  0.7818608E-02  0.1130116E+00
         25   -1    0    0    0    0  0.00000000000E+00  0.00000000000E+00  0.99999998245E-14  0.12500000000E+03  0.12500000000E+03 0.  0.
        -11    1    3    3    0    0  0.33885996148E+02  0.15362216518E+02 -0.23583167440E+02  0.44050246516E+02  0.51100000000E-03 0.  1.
         23    2    1    0    0    0 -0.60485659723E+01 -0.12123330512E+02 -0.29157199680E+02  0.92848754515E+02  0.87104469626E+02 0.  0.
         11    1    3    3    0    0 -0.39934562121E+02 -0.27485547030E+02 -0.55740322401E+01  0.48798508000E+02  0.51100000000E-03 0. -1.
         22    1    1    0    0    0  0.60485659723E+01  0.12123330512E+02  0.29157199680E+02  0.32151245485E+02  0.00000000000E+00 0. -1.
</event>
<event>
 5    1  0.3186486E-003  0.9118800E+02  0.7818608E-02  0.1130116E+00
         25   -1    0    0    0    0  0.00000000000E+00  0.00000000000E+00  0.99999998245E-14  0.12500000000E+03  0.12500000000E+03 0.  0.
        -11    1    3    3    0    0 -0.48004927309E+02 -0.38837140687E+02 -0.15025014103E+01  0.61766123834E+02  0.51100000000E-03 0. -1.
         23    2    1    0    0    0 -0.25110999678E+02 -0.12753820550E+02  0.26132875431E+01  0.96714818098E+02  0.92486239649E+02 0.  0.
         11    1    3    3    0    0  0.22893927631E+02  0.26083320138E+02  0.41157889534E+01  0.34948694264E+02  0.51100000000E-03 0.  1.
         22    1    1    0    0    0  0.25110999678E+02  0.12753820550E+02 -0.26132875431E+01  0.28285181902E+02  0.00000000000E+00 0. -1.
</event>
<event>
 5    1  0.3186486E-003  0.9118800E+02  0.7818608E-02  0.1130116E+00
         25   -1    0    0    0    0  0.00000000000E+00  0.00000000000E+00  0.99999998245E-14  0.12500000000E+03  0.12500000000E+03 0.  0.
        -11    1    3    3    0    0  0.27659114825E+01 -0.31981372095E+02 -0.17161877340E+02  0.36400390953E+02  0.51100000000E-03 0. -1.
         23    2    1    0    0    0  0.64293868232E+01  0.70263413000E+01  0.27550539368E+02  0.95849722018E+02  0.91309531290E+02 0.  0.
         11    1    3    3    0    0  0.36634753407E+01  0.39007713395E+02  0.44712416708E+02  0.59449331065E+02  0.51100000000E-03 0.  1.
         22    1    1    0    0    0 -0.64293868232E+01 -0.70263413000E+01 -0.27550539368E+02  0.29150277982E+02  0.00000000000E+00 0.  1.
</event>
<event>
 5    1  0.3186486E-003  0.9118800E+02  0.7818608E-02  0.1130116E+00
         25   -1    0    0    0    0  0.00000000000E+00  0.00000000000E+00  0.99999998245E-14  0.12500000000E+03  0.12500000000E+03 0.  0.
        -11    1    3    3    0    0  0.13827766736E+02  0.20253499677E+02  0.40195440722E+02  0.47085930353E+02  0.51100000000E-03 0. -1.
         23    2    1    0    0    0 -0.14970399883E+02 -0.13407445645E+02  0.22615193007E+02  0.94745753586E+02  0.89785513288E+02 0.  0.
         11    1    3    3    0    0 -0.28798166619E+02 -0.33660945322E+02 -0.17580247715E+02  0.47659823233E+02  0.51100000000E-03 0.  1.
         22    1    1    0    0    0  0.14970399883E+02  0.13407445645E+02 -0.22615193007E+02  0.30254246414E+02  0.00000000000E+00 0. -1.
</event>
<event>
 5    1  0.3186486E-003  0.9118800E+02  0.7818608E-02  0.1130116E+00
         25   -1    0    0    0    0  0.00000000000E+00  0.00000000000E+00  0.99999998245E-14  0.12500000000E+03  0.12500000000E+03 0.  0.
        -11    1    3    3    0    0  0.24515601110E+02  0.11841891565E+02 -0.21511435834E+02  0.34698515322E+02  0.51100000000E-03 0.  1.
         23    2    1    0    0    0 -0.14541826451E+02 -0.24549993482E+02  0.75556853872E+01  0.95482966305E+02  0.90806065745E+02 0.  0.
         11    1    3    3    0    0 -0.39057427561E+02 -0.36391885047E+02  0.29067121221E+02  0.60784450983E+02  0.51100000000E-03 0. -1.
         22    1    1    0    0    0  0.14541826451E+02  0.24549993482E+02 -0.75556853872E+01  0.29517033695E+02  0.00000000000E+00 0. -1.
</event>
<event>
 5    1  0.3186486E-003  0.9118800E+02  0.7818608E-02  0.1130116E+00
         25   -1    0    0    0    0  0.00000000000E+00  0.00000000000E+00  0.99999998245E-14  0.12500000000E+03  0.12500000000E+03 0.  0.
        -11    1    3    3    0    0 -0.33322443511E+02 -0.90794107698E+01 -0.96493129699E+01  0.35859868691E+02  0.51100000000E-03 0.  1.
         23    2    1    0    0    0  0.23192632928E+02 -0.16803742663E+02  0.74470896756E+01  0.95407380409E+02  0.90701957544E+02 0.  0.
         11    1    3    3    0    0  0.56515076439E+02 -0.77243318929E+01  0.17096402646E+02  0.59547511718E+02  0.51100000000E-03 0. -1.
         22    1    1    0    0    0 -0.23192632928E+02  0.16803742663E+02 -0.74470896756E+01  0.29592619591E+02  0.00000000000E+00 0. -1.
</event>
<event>
 5    1  0.3186486E-003  0.9118800E+02  0.7818608E-02  0.1130116E+00
         25   -1    0    0    0    0  0.00000000000E+00  0.00000000000E+00  0.99999998245E-14  0.12500000000E+03  0.12500000000E+03 0.  0.
        -11    1    3    3    0    0  0.27486661388E+02 -0.19678116227E+02  0.28050646913E+02  0.43927025907E+02  0.51100000000E-03 0. -1.
         23    2    1    0    0    0 -0.20684465960E+02 -0.57667890984E+01  0.21707175519E+02  0.94466338942E+02  0.89395663964E+02 0.  0.
         11    1    3    3    0    0 -0.48171127349E+02  0.13911327128E+02 -0.63434713937E+01  0.50539313036E+02  0.51100000000E-03 0.  1.
         22    1    1    0    0    0  0.20684465960E+02  0.57667890984E+01 -0.21707175519E+02  0.30533661058E+02  0.00000000000E+00 0. -1.
</event>
<event>
 5    1  0.3186486E-003  0.9118800E+02  0.7818608E-02  0.1130116E+00
         25   -1    0    0    0    0  0.00000000000E+00  0.00000000000E+00  0.99999998245E-14  0.12500000000E+03  0.12500000000E+03 0.  0.
        -11    1    3    3    0    0  0.13238587633E+02 -0.40846301042E+02 -0.41759433583E+02  0.59895999906E+02  0.51100000000E-03 0.  1.
         23    2    1    0    0    0  0.75448309715E+01 -0.10678217241E+02 -0.29087441536E+02  0.93109122732E+02  0.87477315247E+02 0.  0.
         11    1    3    3    0    0 -0.56937566613E+01  0.30168083801E+02  0.12671992047E+02  0.33213122826E+02  0.51100000000E-03 0. -1.
         22    1    1    0    0    0 -0.75448309715E+01  0.10678217241E+02  0.29087441536E+02  0.31890877268E+02  0.00000000000E+00 0.  1.
</event>
<event>
 5    1  0.3186486E-003  0.9118800E+02  0.7818608E-02  0.1130116E+00
         25   -1    0    0    0    0  0.00000000000E+00  0.00000000000E+00  0.99999998245E-14  0.12500000000E+03  0.12500000000E+03 0.  0.
        -11    1    3    3    0    0 -0.49437082481E+02 -0.36037318416E+02 -0.10026136505E+02  0.61993845310E+02  0.51100000000E-03 0.  1.
         23    2    1    0    0    0 -0.21236155653E+02 -0.20959197996E+02 -0.13337409104E+01  0.95132942020E+02  0.90322951154E+02 0.  0.
         11    1    3    3    0    0  0.28200926827E+02  0.15078120421E+02  0.86923955949E+01  0.33139096710E+02  0.51100000000E-03 0. -1.
         22    1    1    0    0    0  0.21236155653E+02  0.20959197996E+02  0.13337409104E+01  0.29867057980E+02  0.00000000000E+00 0.  1.
</event>
<event>
 5    1  0.3186486E-003  0.9118800E+02  0.7818608E-02  0.1130116E+00
         25   -1    0    0    0    0  0.00000000000E+00  0.00000000000E+00  0.99999998245E-14  0.12500000000E+03  0.12500000000E+03 0.  0.
        -11    1    3    3    0    0  0.16022648502E+02  0.19093181858E+02 -0.47304077782E+02  0.53469155909E+02  0.51100000000E-03 0.  1.
         23    2    1    0    0    0 -0.98894040348E+01  0.11507376059E+02 -0.41122816136E+02  0.81167295054E+02  0.68314154928E+02 0.  0.
         11    1    3    3    0    0 -0.25912052537E+02 -0.75858057986E+01  0.61812616466E+01  0.27698139145E+02  0.51100000000E-03 0. -1.
         22    1    1    0    0    0  0.98894040348E+01 -0.11507376059E+02  0.41122816136E+02  0.43832704946E+02  0.00000000000E+00 0.  1.
</event>
<event>
 5    1  0.3186486E-003  0.9118800E+02  0.7818608E-02  0.1130116E+00
         25   -1    0    0    0    0  0.00000000000E+00  0.00000000000E+00  0.99999998245E-14  0.12500000000E+03  0.12500000000E+03 0.  0.
        -11    1    3    3    0    0  0.35228243871E+02  0.14763551452E+02  0.76896168656E+01  0.38963082854E+02  0.51100000000E-03 0.  1.
         23    2    1    0    0    0 -0.20691437122E+02  0.20924385467E+02  0.21089796758E+01  0.95497232798E+02  0.90825702306E+02 0.  0.
         11    1    3    3    0    0 -0.55919680993E+02  0.61608340150E+01 -0.55806371899E+01  0.56534149943E+02  0.51100000000E-03 0. -1.
         22    1    1    0    0    0  0.20691437122E+02 -0.20924385467E+02 -0.21089796758E+01  0.29502767202E+02  0.00000000000E+00 0. -1.
</event>
<event>
 5    1  0.3186486E-003  0.9118800E+02  0.7818608E-02  0.1130116E+00
         25   -1    0    0    0    0  0.00000000000E+00  0.00000000000E+00  0.99999998245E-14  0.12500000000E+03  0.12500000000E+03 0.  0.
        -11    1    3    3    0    0  0.52099873660E+02 -0.51214918621E+01 -0.25716659188E+02  0.58326435467E+02  0.51100000000E-03 0. -1.
         23    2    1    0    0    0  0.28063336938E+02 -0.98779275707E+01  0.18287688111E+01  0.95192807436E+02  0.90405762311E+02 0.  0.
         11    1    3    3    0    0 -0.24036536722E+02 -0.47564357086E+01  0.27545427999E+02  0.36866371969E+02  0.51100000000E-03 0.  1.
         22    1    1    0    0    0 -0.28063336938E+02  0.98779275707E+01 -0.18287688111E+01  0.29807192564E+02  0.00000000000E+00 0. -1.
</event>
<event>
 5    1  0.3186486E-003  0.9118800E+02  0.7818608E-02  0.1130116E+00
         25   -1    0    0    0    0  0.00000000000E+00  0.00000000000E+00  0.99999998245E-14  0.12500000000E+03  0.12500000000E+03 0.  0.
        -11    1    3    3    0    0 -0.18150828219E+02 -0.23382131359E+02 -0.27038062520E+02  0.40090316250E+02  0.51100000000E-03 0.  1.
         23    2    1    0    0    0 -0.20176294736E+02  0.12793681875E+02  0.15922212536E+02  0.96289757625E+02  0.91909952705E+02 0.  0.
         11    1    3    3    0    0 -0.20254665162E+01  0.36175813234E+02  0.42960275056E+02  0.56199441375E+02  0.51100000000E-03 0. -1.
         22    1    1    0    0    0  0.20176294736E+02 -0.12793681875E+02 -0.15922212536E+02  0.28710242375E+02  0.00000000000E+00 0. -1.
</event>
<event>
 5    1  0.3186486E-003  0.9118800E+02  0.7818608E-02  0.1130116E+00
         25   -1    0    0    0    0  0.00000000000E+00  0.00000000000E+00  0.99999998245E-14  0.12500000000E+03  0.12500000000E+03 0.  0.
        -11    1    3    3    0    0  0.22896604767E+02 -0.35292979986E+02 -0.43872607100E+02  0.60783670505E+02  0.51100000000E-03 0.  1.
         23    2    1    0    0    0 -0.16570849060E+01 -0.11494029030E+02 -0.17636086611E+02  0.10388388803E+03  0.10171515132E+03 0.  0.
         11    1    3    3    0    0 -0.24553689673E+02  0.23798950956E+02  0.26236520489E+02  0.43100217526E+02  0.51100000000E-03 0. -1.
         22    1    1    0    0    0  0.16570849060E+01  0.11494029030E+02  0.17636086611E+02  0.21116111969E+02  0.00000000000E+00 0.  1.
</event>
<event>
 5    1  0.3186486E-003  0.9118800E+02  0.7818608E-02  0.1130116E+00
         25   -1    0    0    0    0  0.00000000000E+00  0.00000000000E+00  0.99999998245E-14  0.12500000000E+03  0.12500000000E+03 0.  0.
        -11    1    3    3    0    0 -0.47039973451E+02  0.73187856391E+01  0.15040599662E+02  0.49925377955E+02  0.51100000000E-03 0. -1.
         23    2    1    0    0    0 -0.21195122917E+02 -0.71408378812E+00 -0.21105117290E+02  0.95080622885E+02  0.90250516459E+02 0.  0.
         11    1    3    3    0    0  0.25844850534E+02 -0.80328694272E+01 -0.36145716952E+02  0.45155244929E+02  0.51100000000E-03 0.  1.
         22    1    1    0    0    0  0.21195122917E+02  0.71408378812E+00  0.21105117290E+02  0.29919377115E+02  0.00000000000E+00 0. -1.
</event>
<event>
 5    1  0.3186486E-003  0.9118800E+02  0.7818608E-02  0.1130116E+00
         25   -1    0    0    0    0  0.00000000000E+00  0.00000000000E+00  0.99999998245E-14  0.12500000000E+03  0.12500000000E+03 0.  0.
        -11    1    3    3    0    0  0.14964142765E+02 -0.67764534419E+01  0.24453106158E+02  0.29458450247E+02  0.51100000000E-03 0.  1.
         23    2    1    0    0    0 -0.23159919999E+02  0.12699931422E+02 -0.20521848914E+02  0.91551286492E+02  0.85222189734E+02 0.  0.
         11    1    3    3    0    0 -0.38124062763E+02  0.19476384864E+02 -0.44974955072E+02  0.62092836245E+02  0.51100000000E-03 0. -1.
         22    1    1    0    0    0  0.23159919999E+02 -0.12699931422E+02  0.20521848914E+02  0.33448713508E+02  0.00000000000E+00 0. -1.
</event>
<event>
 5    1  0.3186486E-003  0.9118800E+02  0.7818608E-02  0.1130116E+00
         25   -1    0    0    0    0  0.00000000000E+00  0.00000000000E+00  0.99999998245E-14  0.12500000000E+03  0.12500000000E+03 0.  0.
        -11    1    3    3    0    0  0.73377023183E+01 -0.31079260625E+02 -0.20668717132E+02  0.38038903566E+02  0.51100000000E-03 0. -1.
         23    2    1    0    0    0  0.20267692450E+02  0.21271239799E+02 -0.48861489246E+00  0.95614906085E+02  0.90987507502E+02 0.  0.
         11    1    3    3    0    0  0.12929990132E+02  0.52350500424E+02  0.20180102240E+02  0.57576002520E+02  0.51100000000E-03 0.  1.
         22    1    1    0    0    0 -0.20267692450E+02 -0.21271239799E+02  0.48861489246E+00  0.29385093915E+02  0.00000000000E+00 0.  1.
</event>
<event>
 5    1  0.3186486E-003  0.9118800E+02  0.7818608E-02  0.1130116E+00
         25   -1    0    0    0    0  0.00000000000E+00  0.00000000000E+00  0.99999998245E-14  0.12500000000E+03  0.12500000000E+03 0.  0.
        -11    1    3    3    0    0  0.14993202352E+02 -0.43849386503E+02 -0.12400314593E+02  0.47972206701E+02  0.51100000000E-03 0.  1.
         23    2    1    0    0    0 -0.15025179785E+02 -0.80414012996E+01 -0.23473841526E+02  0.95992390681E+02  0.91504631960E+02 0.  0.
         11    1    3    3    0    0 -0.30018382137E+02  0.35807985204E+02 -0.11073526933E+02  0.48020183980E+02  0.51100000000E-03 0. -1.
         22    1    1    0    0    0  0.15025179785E+02  0.80414012996E+01  0.23473841526E+02  0.29007609319E+02  0.00000000000E+00 0.  1.
</event>
<event>
 5    1  0.3186486E-003  0.9118800E+02  0.7818608E-02  0.1130116E+00
         25   -1    0    0    0    0  0.00000000000E+00  0.00000000000E+00  0.99999998245E-14  0.12500000000E+03  0.12500000000E+03 0.  0.
        -11    1    3    3    0    0 -0.15021770650E+02  0.19010507518E+02 -0.38804097816E+02  0.45747251252E+02  0.51100000000E-03 0.  1.
         23    2    1    0    0    0 -0.16191824294E+02  0.15111339903E+02  0.14058925686E+02  0.98766792817E+02  0.95219211319E+02 0.  0.
         11    1    3    3    0    0 -0.11700536441E+01 -0.38991676151E+01  0.52863023503E+02  0.53019541565E+02  0.51100000000E-03 0. -1.
         22    1    1    0    0    0  0.16191824294E+02 -0.15111339903E+02 -0.14058925686E+02  0.26233207183E+02  0.00000000000E+00 0. -1.
</event>
<event>
 5    1  0.3186486E-003  0.9118800E+02  0.7818608E-02  0.1130116E+00
         25   -1    0    0    0    0  0.00000000000E+00  0.00000000000E+00  0.99999998245E-14  0.12500000000E+03  0.12500000000E+03 0.  0.
        -11    1    3    3    0    0  0.17745543184E+02  0.49887606612E+02 -0.13033658198E+02  0.54530302059E+02  0.51100000000E-03 0.  1.
         23    2    1    0    0    0  0.39015487566E+01  0.16126391237E+02 -0.26758138688E+02  0.93515391648E+02  0.88055936268E+02 0.  0.
         11    1    3    3    0    0 -0.13843994427E+02 -0.33761215375E+02 -0.13724480490E+02  0.38985089589E+02  0.51100000000E-03 0. -1.
         22    1    1    0    0    0 -0.39015487566E+01 -0.16126391237E+02  0.26758138688E+02  0.31484608352E+02  0.00000000000E+00 0.  1.
</event>
<event>
 5    1  0.3186486E-003  0.9118800E+02  0.7818608E-02  0.1130116E+00
         25   -1    0    0    0    0  0.00000000000E+00  0.00000000000E+00  0.99999998245E-14  0.12500000000E+03  0.12500000000E+03 0.  0.
        -11    1    3    3    0    0 -0.30831104807E+02  0.31886627950E+02 -0.26983916502E+02  0.51917683074E+02  0.51100000000E-03 0.  1.
         23    2    1    0    0    0  0.62213138557E+01  0.15135747137E+02 -0.27972178443E+02  0.92592618829E+02  0.86736121122E+02 0.  0.
         11    1    3    3    0    0  0.37052418663E+02 -0.16750880813E+02 -0.98826194046E+00  0.40674935756E+02  0.51100000000E-03 0. -1.
         22    1    1    0    0    0 -0.62213138557E+01 -0.15135747137E+02  0.27972178443E+02  0.32407381171E+02  0.00000000000E+00 0.  1.
</event>
<event>
 5    1  0.3186486E-003  0.9118800E+02  0.7818608E-02  0.1130116E+00
         25   -1    0    0    0    0  0.00000000000E+00  0.00000000000E+00  0.99999998245E-14  0.12500000000E+03  0.12500000000E+03 0.  0.
        -11    1    3    3    0    0 -0.34749763948E+02  0.20924005476E+02  0.27825839812E+02  0.49189810541E+02  0.51100000000E-03 0. -1.
         23    2    1    0    0    0  0.15369192645E+01 -0.52376879010E+01  0.30510947587E+02  0.94004622634E+02  0.88747707906E+02 0.  0.
         11    1    3    3    0    0  0.36286683212E+02 -0.26161693377E+02  0.26851077752E+01  0.44814812093E+02  0.51100000000E-03 0.  1.
         22    1    1    0    0    0 -0.15369192645E+01  0.52376879010E+01 -0.30510947587E+02  0.30995377366E+02  0.00000000000E+00 0. -1.
</event>
<event>
 5    1  0.3186486E-003  0.9118800E+02  0.7818608E-02  0.1130116E+00
         25   -1    0    0    0    0  0.00000000000E+00  0.00000000000E+00  0.99999998245E-14  0.12500000000E+03  0.12500000000E+03 0.  0.
        -11    1    3    3    0    0 -0.24924993853E+02  0.20183923357E+02 -0.68234361169E+01  0.32790324203E+02  0.51100000000E-03 0. -1.
         23    2    1    0    0    0  0.16445246731E+02 -0.25485866077E+02 -0.26616013376E+01  0.94552346044E+02  0.89515845028E+02 0.  0.
         11    1    3    3    0    0  0.41370240584E+02 -0.45669789434E+02  0.41618347793E+01  0.61762021841E+02  0.51100000000E-03 0.  1.
         22    1    1    0    0    0 -0.16445246731E+02  0.25485866077E+02  0.26616013376E+01  0.30447653956E+02  0.00000000000E+00 0.  1.
</event>
<event>
 5    1  0.3186486E-003  0.9118800E+02  0.7818608E-02  0.1130116E+00
         25   -1    0    0    0    0  0.00000000000E+00  0.00000000000E+00  0.99999998245E-14  0.12500000000E+03  0.12500000000E+03 0.  0.
        -11    1    3    3    0    0  0.33010478501E+02  0.86307352489E+00 -0.82756541184E+01  0.34042958716E+02  0.51100000000E-03 0.  1.
         23    2    1    0    0    0 -0.18654162837E+02  0.42808511443E+01  0.23422166898E+02  0.94752663260E+02  0.89795132468E+02 0.  0.
         11    1    3    3    0    0 -0.51664641338E+02  0.34177776194E+01  0.31697821016E+02  0.60709704544E+02  0.51100000000E-03 0. -1.
         22    1    1    0    0    0  0.18654162837E+02 -0.42808511443E+01 -0.23422166898E+02  0.30247336740E+02  0.00000000000E+00 0. -1.
</event>
<event>
 5    1  0.3186486E-003  0.9118800E+02  0.7818608E-02  0.1130116E+00
         25   -1    0    0    0    0  0.00000000000E+00  0.00000000000E+00  0.99999998245E-14  0.12500000000E+03  0.12500000000E+03 0.  0.
        -11    1    3    3    0    0 -0.55499733158E+02 -0.10598091517E+02  0.21969586747E+02  0.60623449807E+02  0.51100000000E-03 0.  1.
         23    2    1    0    0    0 -0.19698344293E+02 -0.94589049409E+01  0.18051349171E+02  0.96656625864E+02  0.92407556325E+02 0.  0.
         11    1    3    3    0    0  0.35801388866E+02  0.11391865760E+01 -0.39182375766E+01  0.36033176057E+02  0.51100000000E-03 0. -1.
         22    1    1    0    0    0  0.19698344293E+02  0.94589049409E+01 -0.18051349171E+02  0.28343374136E+02  0.00000000000E+00 0.  1.
</event>
<event>
 5    1  0.3186486E-003  0.9118800E+02  0.7818608E-02  0.1130116E+00
         25   -1    0    0    0    0  0.00000000000E+00  0.00000000000E+00  0.99999998245E-14  0.12500000000E+03  0.12500000000E+03 0.  0.
        -11    1    3    3    0    0 -0.28709356809E+02  0.92122065365E+01  0.15280771057E+02  0.33802276285E+02  0.51100000000E-03 0. -1.
         23    2    1    0    0    0  0.20214670638E+02 -0.18397867339E+02 -0.10636833550E+02  0.95669867719E+02  0.91062983313E+02 0.  0.
         11    1    3    3    0    0  0.48924027448E+02 -0.27610073875E+02 -0.25917604607E+02  0.61867591435E+02  0.51100000000E-03 0.  1.
         22    1    1    0    0    0 -0.20214670638E+02  0.18397867339E+02  0.10636833550E+02  0.29330132281E+02  0.00000000000E+00 0.  1.
</event>
<event>
 5    1  0.3186486E-003  0.9118800E+02  0.7818608E-02  0.1130116E+00
         25   -1    0    0    0    0  0.00000000000E+00  0.00000000000E+00  0.99999998245E-14  0.12500000000E+03  0.12500000000E+03 0.  0.
        -11    1    3    3    0    0  0.11498838652E+02  0.36427006802E+02 -0.40544297025E+02  0.55704489374E+02  0.51100000000E-03 0.  1.
         23    2    1    0    0    0 -0.14909694578E+02  0.20007007252E+02 -0.15565430272E+02  0.95591464655E+02  0.90955297612E+02 0.  0.
         11    1    3    3    0    0 -0.26408533230E+02 -0.16419999550E+02  0.24978866753E+02  0.39886975281E+02  0.51100000000E-03 0. -1.
         22    1    1    0    0    0  0.14909694578E+02 -0.20007007252E+02  0.15565430272E+02  0.29408535345E+02  0.00000000000E+00 0.  1.
</event>
<event>
 5    1  0.3186486E-003  0.9118800E+02  0.7818608E-02  0.1130116E+00
         25   -1    0    0    0    0  0.00000000000E+00  0.00000000000E+00  0.99999998245E-14  0.12500000000E+03  0.12500000000E+03 0.  0.
        -11    1    3    3    0    0 -0.20397747005E+02  0.70658723680E+00 -0.33952681438E+02  0.39615046706E+02  0.51100000000E-03 0.  1.
         23    2    1    0    0    0  0.23601847541E+02  0.16305219682E+02 -0.18832228388E+01  0.96251888332E+02  0.91858435013E+02 0.  0.
         11    1    3    3    0    0  0.43999594545E+02  0.15598632445E+02  0.32069458599E+02  0.56636841626E+02  0.51100000000E-03 0. -1.
         22    1    1    0    0    0 -0.23601847541E+02 -0.16305219682E+02  0.18832228388E+01  0.28748111668E+02  0.00000000000E+00 0. -1.
</event>
<event>
 5    1  0.3186486E-003  0.9118800E+02  0.7818608E-02  0.1130116E+00
         25   -1    0    0    0    0  0.00000000000E+00  0.00000000000E+00  0.99999998245E-14  0.12500000000E+03  0.12500000000E+03 0.  0.
        -11    1    3    3    0    0 -0.10913713869E+02 -0.73347646980E+01 -0.20113918564E+02  0.24030764529E+02  0.51100000000E-03 0. -1.
         23    2    1    0    0    0 -0.25329306843E+01 -0.19074903377E+02  0.37192438708E+02  0.83124647181E+02  0.71806418901E+02 0.  0.
         11    1    3    3    0    0  0.83807831843E+01 -0.11740138678E+02  0.57306357271E+02  0.59093882653E+02  0.51100000000E-03 0.  1.
         22    1    1    0    0    0  0.25329306843E+01  0.19074903377E+02 -0.37192438708E+02  0.41875352819E+02  0.00000000000E+00 0.  1.
</event>
<event>
 5    1  0.3186486E-003  0.9118800E+02  0.7818608E-02  0.1130116E+00
         25   -1    0    0    0    0  0.00000000000E+00  0.00000000000E+00  0.99999998245E-14  0.12500000000E+03  0.12500000000E+03 0.  0.
        -11    1    3    3    0    0  0.12578760769E+02  0.12679805212E+02 -0.34803837261E+02  0.39119173956E+02  0.51100000000E-03 0. -1.
         23    2    1    0    0    0 -0.29642130523E+02  0.37531033142E+01  0.86863631116E+00  0.95108592950E+02  0.90289247629E+02 0.  0.
         11    1    3    3    0    0 -0.42220891291E+02 -0.89267018979E+01  0.35672473572E+02  0.55989418993E+02  0.51100000000E-03 0.  1.
         22    1    1    0    0    0  0.29642130523E+02 -0.37531033142E+01 -0.86863631116E+00  0.29891407050E+02  0.00000000000E+00 0.  1.
</event>
<event>
 5    1  0.3186486E-003  0.9118800E+02  0.7818608E-02  0.1130116E+00
         25   -1    0    0    0    0  0.00000000000E+00  0.00000000000E+00  0.99999998245E-14  0.12500000000E+03  0.12500000000E+03 0.  0.
        -11    1    3    3    0    0 -0.57615223855E+02 -0.12206585028E+02  0.10046819806E+02  0.59744902095E+02  0.51100000000E-03 0. -1.
         23    2    1    0    0    0 -0.27794490524E+02 -0.17973152348E+01 -0.78686028748E+01  0.96057316007E+02  0.91593280331E+02 0.  0.
         11    1    3    3    0    0  0.29820733331E+02  0.10409269793E+02 -0.17915422680E+02  0.36312413912E+02  0.51100000000E-03 0.  1.
         22    1    1    0    0    0  0.27794490524E+02  0.17973152348E+01  0.78686028748E+01  0.28942683993E+02  0.00000000000E+00 0. -1.
</event>
<event>
 5    1  0.3186486E-003  0.9118800E+02  0.7818608E-02  0.1130116E+00
         25   -1    0    0    0    0  0.00000000000E+00  0.00000000000E+00  0.99999998245E-14  0.12500000000E+03  0.12500000000E+03 0.  0.
        -11    1    3    3    0    0 -0.16672925415E+02 -0.19086661383E+02  0.32472571792E+02  0.41191686099E+02  0.51100000000E-03 0.  1.
         23    2    1    0    0    0 -0.84732419781E+01  0.26590994358E+02  0.23623722303E+02  0.88435576498E+02  0.80522631133E+02 0.  0.
         11    1    3    3    0    0  0.81996834372E+01  0.45677655741E+02 -0.88488494890E+01  0.47243890399E+02  0.51100000000E-03 0. -1.
         22    1    1    0    0    0  0.84732419781E+01 -0.26590994358E+02 -0.23623722303E+02  0.36564423502E+02  0.00000000000E+00 0. -1.
</event>
<event>
 5    1  0.3186486E-003  0.9118800E+02  0.7818608E-02  0.1130116E+00
         25   -1    0    0    0    0  0.00000000000E+00  0.00000000000E+00  0.99999998245E-14  0.12500000000E+03  0.12500000000E+03 0.  0.
        -11    1    3    3    0    0  0.13343420970E+01 -0.27757817772E+02 -0.25729572915E+02  0.37871992804E+02  0.51100000000E-03 0.  1.
         23    2    1    0    0    0 -0.24163922537E+02  0.11622274905E+02  0.95127995353E+01  0.96548887872E+02  0.92261703691E+02 0.  0.
         11    1    3    3    0    0 -0.25498264634E+02  0.39380092677E+02  0.35242372450E+02  0.58676895068E+02  0.51100000000E-03 0. -1.
         22    1    1    0    0    0  0.24163922537E+02 -0.11622274905E+02 -0.95127995353E+01  0.28451112128E+02  0.00000000000E+00 0. -1.
</event>
<event>
 5    1  0.3186486E-003  0.9118800E+02  0.7818608E-02  0.1130116E+00
         25   -1    0    0    0    0  0.00000000000E+00  0.00000000000E+00  0.99999998245E-14  0.12500000000E+03  0.12500000000E+03 0.  0.
        -11    1    3    3    0    0  0.29241771324E+02 -0.30704747416E+02  0.26040420414E+02  0.49759081580E+02  0.51100000000E-03 0.  1.
         23    2    1    0    0    0  0.24930295291E+02  0.27067259931E+01 -0.89904513590E+01  0.98360288955E+02  0.94684065390E+02 0.  0.
         11    1    3    3    0    0 -0.43114760332E+01  0.33411473409E+02 -0.35030871773E+02  0.48601207376E+02  0.51100000000E-03 0. -1.
         22    1    1    0    0    0 -0.24930295291E+02 -0.27067259931E+01  0.89904513590E+01  0.26639711045E+02  0.00000000000E+00 0.  1.
</event>
<event>
 5    1  0.3186486E-003  0.9118800E+02  0.7818608E-02  0.1130116E+00
         25   -1    0    0    0    0  0.00000000000E+00  0.00000000000E+00  0.99999998245E-14  0.12500000000E+03  0.12500000000E+03 0.  0.
        -11    1    3    3    0    0 -0.39591040029E+02 -0.48876437596E+01  0.28734028542E+02  0.49162830560E+02  0.51100000000E-03 0. -1.
         23    2    1    0    0    0 -0.10939595146E+02 -0.27770207781E+02  0.10030949445E+01  0.95135884717E+02  0.90327023527E+02 0.  0.
         11    1    3    3    0    0  0.28651444883E+02 -0.22882564022E+02 -0.27730933597E+02  0.45973054157E+02  0.51100000000E-03 0.  1.
         22    1    1    0    0    0  0.10939595146E+02  0.27770207781E+02 -0.10030949445E+01  0.29864115283E+02  0.00000000000E+00 0. -1.
</event>
<event>
 5    1  0.3186486E-003  0.9118800E+02  0.7818608E-02  0.1130116E+00
         25   -1    0    0    0    0  0.00000000000E+00  0.00000000000E+00  0.99999998245E-14  0.12500000000E+03  0.12500000000E+03 0.  0.
        -11    1    3    3    0    0  0.37403898282E+02  0.11431999513E+02  0.25743682262E+02  0.46823919061E+02  0.51100000000E-03 0. -1.
         23    2    1    0    0    0 -0.11255849436E+02  0.17178800779E+02  0.20299052876E+02  0.96123419690E+02  0.91683449556E+02 0.  0.
         11    1    3    3    0    0 -0.48659747719E+02  0.57468012662E+01 -0.54446293868E+01  0.49299500629E+02  0.51100000000E-03 0.  1.
         22    1    1    0    0    0  0.11255849436E+02 -0.17178800779E+02 -0.20299052876E+02  0.28876580310E+02  0.00000000000E+00 0.  1.
</event>
<event>
 5    1  0.3186486E-003  0.9118800E+02  0.7818608E-02  0.1130116E+00
         25   -1    0    0    0    0  0.00000000000E+00  0.00000000000E+00  0.99999998245E-14  0.12500000000E+03  0.12500000000E+03 0.  0.
        -11    1    3    3    0    0  0.86221009335E+01  0.31727903960E+02  0.28071537352E+01  0.32998191262E+02  0.51100000000E-03 0. -1.
         23    2    1    0    0    0 -0.10545020267E+02 -0.23475872915E+02  0.18261441874E+02  0.93443791089E+02  0.87954236806E+02 0.  0.
         11    1    3    3    0    0 -0.19167121201E+02 -0.55203776874E+02  0.15454288139E+02  0.60445599827E+02  0.51100000000E-03 0.  1.
         22    1    1    0    0    0  0.10545020267E+02  0.23475872915E+02 -0.18261441874E+02  0.31556208911E+02  0.00000000000E+00 0.  1.
</event>
<event>
 5    1  0.3186486E-003  0.9118800E+02  0.7818608E-02  0.1130116E+00
         25   -1    0    0    0    0  0.00000000000E+00  0.00000000000E+00  0.99999998245E-14  0.12500000000E+03  0.12500000000E+03 0.  0.
        -11    1    3    3    0    0 -0.27833591218E+02 -0.20744280205E+02 -0.16580375873E+02  0.38470025028E+02  0.51100000000E-03 0.  1.
         23    2    1    0    0    0  0.26927475438E+02 -0.42788229080E+01 -0.96779024451E+01  0.96068027121E+02  0.91607896931E+02 0.  0.
         11    1    3    3    0    0  0.54761066657E+02  0.16465457297E+02  0.69024734276E+01  0.57598002092E+02  0.51100000000E-03 0. -1.
         22    1    1    0    0    0 -0.26927475438E+02  0.42788229080E+01  0.96779024451E+01  0.28931972879E+02  0.00000000000E+00 0. -1.
</event>
<event>
 5    1  0.3186486E-003  0.9118800E+02  0.7818608E-02  0.1130116E+00
         25   -1    0    0    0    0  0.00000000000E+00  0.00000000000E+00  0.99999998245E-14  0.12500000000E+03  0.12500000000E+03 0.  0.
        -11    1    3    3    0    0  0.18464760289E+02 -0.23978131609E+02 -0.54336202511E+02  0.62195828410E+02  0.51100000000E-03 0. -1.
         23    2    1    0    0    0  0.49682382946E+01 -0.13473042098E+02 -0.26218488324E+02  0.95106599639E+02  0.90286487969E+02 0.  0.
         11    1    3    3    0    0 -0.13496521994E+02  0.10505089511E+02  0.28117714187E+02  0.32910771229E+02  0.51100000000E-03 0.  1.
         22    1    1    0    0    0 -0.49682382946E+01  0.13473042098E+02  0.26218488324E+02  0.29893400361E+02  0.00000000000E+00 0. -1.
</event>
<event>
 5    1  0.3186486E-003  0.9118800E+02  0.7818608E-02  0.1130116E+00
         25   -1    0    0    0    0  0.00000000000E+00  0.00000000000E+00  0.99999998245E-14  0.12500000000E+03  0.12500000000E+03 0.  0.
        -11    1    3    3    0    0 -0.18319227379E+02 -0.22254049721E+01  0.37964891945E+02  0.42212315025E+02  0.51100000000E-03 0. -1.
         23    2    1    0    0    0  0.23703139110E+02  0.14750550666E+02  0.10708902147E+02  0.95098526227E+02  0.90275309785E+02 0.  0.
         11    1    3    3    0    0  0.42022366489E+02  0.16975955638E+02 -0.27255989798E+02  0.52886211202E+02  0.51100000000E-03 0.  1.
         22    1    1    0    0    0 -0.23703139110E+02 -0.14750550666E+02 -0.10708902147E+02  0.29901473773E+02  0.00000000000E+00 0. -1.
</event>
<event>
 5    1  0.3186486E-003  0.9118800E+02  0.7818608E-02  0.1130116E+00
         25   -1    0    0    0    0  0.00000000000E+00  0.00000000000E+00  0.99999998245E-14  0.12500000000E+03  0.12500000000E+03 0.  0.
        -11    1    3    3    0    0  0.12809229438E+02 -0.42113290465E+02 -0.44255419782E+02  0.62419129863E+02  0.51100000000E-03 0.  1.
         23    2    1    0    0    0  0.72989968005E+01 -0.18937565657E+02 -0.22758952502E+02  0.94506120839E+02  0.89451272823E+02 0.  0.
         11    1    3    3    0    0 -0.55102326372E+01  0.23175724808E+02  0.21496467280E+02  0.32086990976E+02  0.51100000000E-03 0. -1.
         22    1    1    0    0    0 -0.72989968005E+01  0.18937565657E+02  0.22758952502E+02  0.30493879161E+02  0.00000000000E+00 0.  1.
</event>
<event>
 5    1  0.3186486E-003  0.9118800E+02  0.7818608E-02  0.1130116E+00
         25   -1    0    0    0    0  0.00000000000E+00  0.00000000000E+00  0.99999998245E-14  0.12500000000E+03  0.12500000000E+03 0.  0.
        -11    1    3    3    0    0  0.43615181284E+02  0.31363329943E+02  0.31333082274E+02  0.62190871907E+02  0.51100000000E-03 0. -1.
         23    2    1    0    0    0  0.23614700029E+02  0.13180314788E+02  0.12058711083E+02  0.95389406147E+02  0.90677183110E+02 0.  0.
         11    1    3    3    0    0 -0.20000481255E+02 -0.18183015155E+02 -0.19274371192E+02  0.33198534239E+02  0.51100000000E-03 0.  1.
         22    1    1    0    0    0 -0.23614700029E+02 -0.13180314788E+02 -0.12058711083E+02  0.29610593853E+02  0.00000000000E+00 0. -1.
</event>
<event>
 5    1  0.3186486E-003  0.9118800E+02  0.7818608E-02  0.1130116E+00
         25   -1    0    0    0    0  0.00000000000E+00  0.00000000000E+00  0.99999998245E-14  0.12500000000E+03  0.12500000000E+03 0.  0.
        -11    1    3    3    0    0  0.14443667374E+02 -0.45468831497E+02 -0.17744650898E+02  0.50900950882E+02  0.51100000000E-03 0.  1.
         23    2    1    0    0    0  0.97408607161E+01 -0.18394622690E+01 -0.27425263639E+02  0.95838157215E+02  0.91293698051E+02 0.  0.
         11    1    3    3    0    0 -0.47028066576E+01  0.43629369228E+02 -0.96806127416E+01  0.44937206333E+02  0.51100000000E-03 0. -1.
         22    1    1    0    0    0 -0.97408607161E+01  0.18394622690E+01  0.27425263639E+02  0.29161842785E+02  0.00000000000E+00 0. -1.
</event>
<event>
 5    1  0.3186486E-003  0.9118800E+02  0.7818608E-02  0.1130116E+00
         25   -1    0    0    0    0  0.00000000000E+00  0.00000000000E+00  0.99999998245E-14  0.12500000000E+03  0.12500000000E+03 0.  0.
        -11    1    3    3    0    0  0.59672035527E+01  0.61563127895E+00  0.13001007116E+02  0.14318264784E+02  0.51100000000E-03 0.  1.
         23    2    1    0    0    0 -0.15109767454E+02 -0.41985226605E+02 -0.23798628894E+02  0.74428871252E+02  0.54609686074E+02 0.  0.
         11    1    3    3    0    0 -0.21076971006E+02 -0.42600857884E+02 -0.36799636010E+02  0.60110606469E+02  0.51100000000E-03 0. -1.
         22    1    1    0    0    0  0.15109767454E+02  0.41985226605E+02  0.23798628894E+02  0.50571128748E+02  0.00000000000E+00 0. -1.
</event>
<event>
 5    1  0.3186486E-003  0.9118800E+02  0.7818608E-02  0.1130116E+00
         25   -1    0    0    0    0  0.00000000000E+00  0.00000000000E+00  0.99999998245E-14  0.12500000000E+03  0.12500000000E+03 0.  0.
        -11    1    3    3    0    0  0.42039712379E+01 -0.46729032661E+02  0.40160831638E+02  0.61758952920E+02  0.51100000000E-03 0.  1.
         23    2    1    0    0    0 -0.39448747500E+01 -0.26117057966E+02  0.18482003846E+02  0.92762642482E+02  0.86980806046E+02 0.  0.
         11    1    3    3    0    0 -0.81488459879E+01  0.20611974695E+02 -0.21678827792E+02  0.31003689562E+02  0.51100000000E-03 0. -1.
         22    1    1    0    0    0  0.39448747500E+01  0.26117057966E+02 -0.18482003846E+02  0.32237357518E+02  0.00000000000E+00 0.  1.
</event>
<event>
 5    1  0.3186486E-003  0.9118800E+02  0.7818608E-02  0.1130116E+00
         25   -1    0    0    0    0  0.00000000000E+00  0.00000000000E+00  0.99999998245E-14  0.12500000000E+03  0.12500000000E+03 0.  0.
        -11    1    3    3    0    0 -0.10598568602E+02 -0.35232690811E+02  0.43201854113E+02  0.56745681398E+02  0.51100000000E-03 0.  1.
         23    2    1    0    0    0 -0.22557202083E+02 -0.11255974330E+02  0.14910436377E+02  0.95711001436E+02  0.91119429098E+02 0.  0.
         11    1    3    3    0    0 -0.11958633481E+02  0.23976716481E+02 -0.28291417736E+02  0.38965320039E+02  0.51100000000E-03 0. -1.
         22    1    1    0    0    0  0.22557202083E+02  0.11255974330E+02 -0.14910436377E+02  0.29288998564E+02  0.00000000000E+00 0.  1.
</event>
<event>
 5    1  0.3186486E-003  0.9118800E+02  0.7818608E-02  0.1130116E+00
         25   -1    0    0    0    0  0.00000000000E+00  0.00000000000E+00  0.99999998245E-14  0.12500000000E+03  0.12500000000E+03 0.  0.
        -11    1    3    3    0    0  0.70087464953E+01 -0.35994055597E+02 -0.39317652920E+01  0.36880256837E+02  0.51100000000E-03 0.  1.
         23    2    1    0    0    0 -0.16075808080E+02  0.17930425562E+02  0.12597126557E+02  0.97822447429E+02  0.93971335296E+02 0.  0.
         11    1    3    3    0    0 -0.23084554575E+02  0.53924481159E+02  0.16528891849E+02  0.60942190593E+02  0.51100000000E-03 0. -1.
         22    1    1    0    0    0  0.16075808080E+02 -0.17930425562E+02 -0.12597126557E+02  0.27177552571E+02  0.00000000000E+00 0. -1.
</event>
<event>
 5    1  0.3186486E-003  0.9118800E+02  0.7818608E-02  0.1130116E+00
         25   -1    0    0    0    0  0.00000000000E+00  0.00000000000E+00  0.99999998245E-14  0.12500000000E+03  0.12500000000E+03 0.  0.
        -11    1    3    3    0    0 -0.15241711348E+02 -0.11119885157E+02 -0.54281359501E+02  0.57466752129E+02  0.51100000000E-03 0. -1.
         23    2    1    0    0    0 -0.80989795113E+01 -0.18657209452E+02 -0.11201993247E+02  0.10177997445E+03  0.99095880911E+02 0.  0.
         11    1    3    3    0    0  0.71427318370E+01 -0.75373242954E+01  0.43079366254E+02  0.44313222324E+02  0.51100000000E-03 0.  1.
         22    1    1    0    0    0  0.80989795113E+01  0.18657209452E+02  0.11201993247E+02  0.23220025546E+02  0.00000000000E+00 0. -1.
</event>
<event>
 5    1  0.3186486E-003  0.9118800E+02  0.7818608E-02  0.1130116E+00
         25   -1    0    0    0    0  0.00000000000E+00  0.00000000000E+00  0.99999998245E-14  0.12500000000E+03  0.12500000000E+03 0.  0.
        -11    1    3    3    0    0 -0.39542519478E+02  0.28641216116E+02  0.34742110624E+02  0.59924488801E+02  0.51100000000E-03 0. -1.
         23    2    1    0    0    0 -0.15535886810E+02  0.22716334676E+02  0.80143007839E+01  0.96336004167E+02  0.91972827736E+02 0.  0.
         11    1    3    3    0    0  0.24006632668E+02 -0.59248814406E+01 -0.26727809840E+02  0.36411515366E+02  0.51100000000E-03 0.  1.
         22    1    1    0    0    0  0.15535886810E+02 -0.22716334676E+02 -0.80143007839E+01  0.28663995833E+02  0.00000000000E+00 0. -1.
</event>
<event>
 5    1  0.3186486E-003  0.9118800E+02  0.7818608E-02  0.1130116E+00
         25   -1    0    0    0    0  0.00000000000E+00  0.00000000000E+00  0.99999998245E-14  0.12500000000E+03  0.12500000000E+03 0.  0.
        -11    1    3    3    0    0  0.22872197434E+02 -0.47825659950E+01  0.33450781651E+02  0.40803984442E+02  0.51100000000E-03 0.  1.
         23    2    1    0    0    0  0.21238898685E+02  0.67309343698E+01 -0.19729074083E+02  0.95240419038E+02  0.90471568792E+02 0.  0.
         11    1    3    3    0    0 -0.16332987495E+01  0.11513500365E+02 -0.53179855734E+02  0.54436434597E+02  0.51100000000E-03 0. -1.
         22    1    1    0    0    0 -0.21238898685E+02 -0.67309343698E+01  0.19729074083E+02  0.29759580962E+02  0.00000000000E+00 0. -1.
</event>
<event>
 5    1  0.3186486E-003  0.9118800E+02  0.7818608E-02  0.1130116E+00
         25   -1    0    0    0    0  0.00000000000E+00  0.00000000000E+00  0.99999998245E-14  0.12500000000E+03  0.12500000000E+03 0.  0.
        -11    1    3    3    0    0 -0.20571051224E+02  0.56783526794E+01  0.27510780305E+02  0.34817450666E+02  0.51100000000E-03 0. -1.
         23    2    1    0    0    0  0.13136273667E+02  0.15134215855E+01 -0.24630284799E+02  0.97044623772E+02  0.92930920274E+02 0.  0.
         11    1    3    3    0    0  0.33707324891E+02 -0.41649310939E+01 -0.52141065104E+02  0.62227173106E+02  0.51100000000E-03 0.  1.
         22    1    1    0    0    0 -0.13136273667E+02 -0.15134215855E+01  0.24630284799E+02  0.27955376228E+02  0.00000000000E+00 0.  1.
</event>
<event>
 5    1  0.3186486E-003  0.9118800E+02  0.7818608E-02  0.1130116E+00
         25   -1    0    0    0    0  0.00000000000E+00  0.00000000000E+00  0.99999998245E-14  0.12500000000E+03  0.12500000000E+03 0.  0.
        -11    1    3    3    0    0  0.36862765470E+02  0.32926898645E+02  0.18211979863E+02  0.52675614313E+02  0.51100000000E-03 0.  1.
         23    2    1    0    0    0  0.32432991501E+02 -0.25013095877E+01  0.65214922079E+00  0.92464161515E+02  0.86550796522E+02 0.  0.
         11    1    3    3    0    0 -0.44297739696E+01 -0.35428208232E+02 -0.17559830642E+02  0.39788547202E+02  0.51100000000E-03 0. -1.
         22    1    1    0    0    0 -0.32432991501E+02  0.25013095877E+01 -0.65214922079E+00  0.32535838485E+02  0.00000000000E+00 0.  1.
</event>
<event>
 5    1  0.3186486E-003  0.9118800E+02  0.7818608E-02  0.1130116E+00
         25   -1    0    0    0    0  0.00000000000E+00  0.00000000000E+00  0.99999998245E-14  0.12500000000E+03  0.12500000000E+03 0.  0.
        -11    1    3    3    0    0  0.46553319738E+02 -0.65511977688E+01 -0.26317120612E+02  0.53876902364E+02  0.51100000000E-03 0.  1.
         23    2    1    0    0    0  0.19640398967E+02 -0.23834168653E+02 -0.20077058457E+01  0.94050949130E+02  0.88812934208E+02 0.  0.
         11    1    3    3    0    0 -0.26912920771E+02 -0.17282970884E+02  0.24309414766E+02  0.40174046766E+02  0.51100000000E-03 0. -1.
         22    1    1    0    0    0 -0.19640398967E+02  0.23834168653E+02  0.20077058457E+01  0.30949050870E+02  0.00000000000E+00 0.  1.
</event>
<event>
 5    1  0.3186486E-003  0.9118800E+02  0.7818608E-02  0.1130116E+00
         25   -1    0    0    0    0  0.00000000000E+00  0.00000000000E+00  0.99999998245E-14  0.12500000000E+03  0.12500000000E+03 0.  0.
        -11    1    3    3    0    0  0.20911646939E+02  0.33013066258E+02 -0.24347690454E+01  0.39154662839E+02  0.51100000000E-03 0.  1.
         23    2    1    0    0    0  0.41671589255E+01 -0.18395584408E+02 -0.21421128983E+02  0.96458319844E+02  0.92138916647E+02 0.  0.
         11    1    3    3    0    0 -0.16744488014E+02 -0.51408650666E+02 -0.18986359938E+02  0.57303657005E+02  0.51100000000E-03 0. -1.
         22    1    1    0    0    0 -0.41671589255E+01  0.18395584408E+02  0.21421128983E+02  0.28541680156E+02  0.00000000000E+00 0. -1.
</event>
<event>
 5    1  0.3186486E-003  0.9118800E+02  0.7818608E-02  0.1130116E+00
         25   -1    0    0    0    0  0.00000000000E+00  0.00000000000E+00  0.99999998245E-14  0.12500000000E+03  0.12500000000E+03 0.  0.
        -11    1    3    3    0    0  0.81884548011E+01  0.16962715217E+02  0.53377703985E+02  0.56603566871E+02  0.51100000000E-03 0. -1.
         23    2    1    0    0    0  0.30196926555E+01 -0.10936140006E+02  0.28447310719E+02  0.94373749999E+02  0.89266104988E+02 0.  0.
         11    1    3    3    0    0 -0.51687621455E+01 -0.27898855223E+02 -0.24930393266E+02  0.37770183128E+02  0.51100000000E-03 0.  1.
         22    1    1    0    0    0 -0.30196926555E+01  0.10936140006E+02 -0.28447310719E+02  0.30626250001E+02  0.00000000000E+00 0. -1.
</event>
<event>
 5    1  0.3186486E-003  0.9118800E+02  0.7818608E-02  0.1130116E+00
         25   -1    0    0    0    0  0.00000000000E+00  0.00000000000E+00  0.99999998245E-14  0.12500000000E+03  0.12500000000E+03 0.  0.
        -11    1    3    3    0    0  0.30994192235E+02  0.35484373959E+02  0.25304359692E+02  0.53479822057E+02  0.51100000000E-03 0. -1.
         23    2    1    0    0    0 -0.16430023714E+01  0.85852425850E+01  0.27811031233E+02  0.95847653520E+02  0.91306699536E+02 0.  0.
         11    1    3    3    0    0 -0.32637194607E+02 -0.26899131374E+02  0.25066715410E+01  0.42367831464E+02  0.51100000000E-03 0.  1.
         22    1    1    0    0    0  0.16430023714E+01 -0.85852425850E+01 -0.27811031233E+02  0.29152346480E+02  0.00000000000E+00 0. -1.
</event>
<event>
 5    1  0.3186486E-003  0.9118800E+02  0.7818608E-02  0.1130116E+00
         25   -1    0    0    0    0  0.00000000000E+00  0.00000000000E+00  0.99999998245E-14  0.12500000000E+03  0.12500000000E+03 0.  0.
        -11    1    3    3    0    0 -0.42803002316E+02 -0.23428502698E+01  0.13918369603E+02  0.45070022935E+02  0.51100000000E-03 0.  1.
         23    2    1    0    0    0  0.51056014667E+01  0.31406155343E+01  0.28837123168E+02  0.95546472115E+02  0.90893443266E+02 0.  0.
         11    1    3    3    0    0  0.47908603783E+02  0.54834658041E+01  0.14918753565E+02  0.50476449180E+02  0.51100000000E-03 0. -1.
         22    1    1    0    0    0 -0.51056014667E+01 -0.31406155343E+01 -0.28837123168E+02  0.29453527885E+02  0.00000000000E+00 0.  1.
</event>
<event>
 5    1  0.3186486E-003  0.9118800E+02  0.7818608E-02  0.1130116E+00
         25   -1    0    0    0    0  0.00000000000E+00  0.00000000000E+00  0.99999998245E-14  0.12500000000E+03  0.12500000000E+03 0.  0.
        -11    1    3    3    0    0 -0.13266624876E+02  0.24185229310E+02 -0.84916628286E+01  0.28862380191E+02  0.51100000000E-03 0.  1.
         23    2    1    0    0    0  0.66527370259E+01 -0.24136060895E+02  0.23929404524E+02  0.90367287915E+02  0.83467490551E+02 0.  0.
         11    1    3    3    0    0  0.19919361902E+02 -0.48321290205E+02  0.32421067352E+02  0.61504907725E+02  0.51100000000E-03 0. -1.
         22    1    1    0    0    0 -0.66527370259E+01  0.24136060895E+02 -0.23929404524E+02  0.34632712085E+02  0.00000000000E+00 0. -1.
</event>
<event>
 5    1  0.3186486E-003  0.9118800E+02  0.7818608E-02  0.1130116E+00
         25   -1    0    0    0    0  0.00000000000E+00  0.00000000000E+00  0.99999998245E-14  0.12500000000E+03  0.12500000000E+03 0.  0.
        -11    1    3    3    0    0  0.61630757636E+02 -0.32651076036E+01 -0.48186785228E+01  0.61905014962E+02  0.51100000000E-03 0.  1.
         23    2    1    0    0    0  0.25632096975E+02 -0.31548575798E+01 -0.77870482874E+01  0.98026019153E+02  0.94241735915E+02 0.  0.
         11    1    3    3    0    0 -0.35998660661E+02  0.11025002384E+00 -0.29683697646E+01  0.36121004191E+02  0.51100000000E-03 0. -1.
         22    1    1    0    0    0 -0.25632096975E+02  0.31548575798E+01  0.77870482874E+01  0.26973980847E+02  0.00000000000E+00 0.  1.
</event>
<event>
 5    1  0.3186486E-003  0.9118800E+02  0.7818608E-02  0.1130116E+00
         25   -1    0    0    0    0  0.00000000000E+00  0.00000000000E+00  0.99999998245E-14  0.12500000000E+03  0.12500000000E+03 0.  0.
        -11    1    3    3    0    0  0.30683374202E+02 -0.17628976564E+02 -0.20144371987E+02  0.40719110871E+02  0.51100000000E-03 0. -1.
         23    2    1    0    0    0 -0.44240989810E+01  0.25065800594E+02 -0.12891207394E+02  0.96468434335E+02  0.92152637422E+02 0.  0.
         11    1    3    3    0    0 -0.35107473183E+02  0.42694777158E+02  0.72531645934E+01  0.55749323464E+02  0.51100000000E-03 0.  1.
         22    1    1    0    0    0  0.44240989810E+01 -0.25065800594E+02  0.12891207394E+02  0.28531565665E+02  0.00000000000E+00 0.  1.
</event>
<event>
 5    1  0.3186486E-003  0.9118800E+02  0.7818608E-02  0.1130116E+00
         25   -1    0    0    0    0  0.00000000000E+00  0.00000000000E+00  0.99999998245E-14  0.12500000000E+03  0.12500000000E+03 0.  0.
        -11    1    3    3    0    0 -0.13347941537E+02  0.12683906580E+02 -0.38842890328E+02  0.42986267094E+02  0.51100000000E-03 0.  1.
         23    2    1    0    0    0 -0.19355625070E+02  0.16805508567E+02  0.13633923115E+02  0.95966412562E+02  0.91469137639E+02 0.  0.
         11    1    3    3    0    0 -0.60076835327E+01  0.41216019873E+01  0.52476813443E+02  0.52980145467E+02  0.51100000000E-03 0. -1.
         22    1    1    0    0    0  0.19355625070E+02 -0.16805508567E+02 -0.13633923115E+02  0.29033587438E+02  0.00000000000E+00 0. -1.
</event>
<event>
 5    1  0.3186486E-003  0.9118800E+02  0.7818608E-02  0.1130116E+00
         25   -1    0    0    0    0  0.00000000000E+00  0.00000000000E+00  0.99999998245E-14  0.12500000000E+03  0.12500000000E+03 0.  0.
        -11    1    3    3    0    0 -0.14252562916E+02 -0.21017876837E+02 -0.52483566135E+02  0.58304471620E+02  0.51100000000E-03 0.  1.
         23    2    1    0    0    0  0.45103575096E+01 -0.20591727649E+02 -0.19342637260E+02  0.96390557702E+02  0.92046941424E+02 0.  0.
         11    1    3    3    0    0  0.18762920426E+02  0.42614918742E+00  0.33140928876E+02  0.38086086082E+02  0.51100000000E-03 0. -1.
         22    1    1    0    0    0 -0.45103575096E+01  0.20591727649E+02  0.19342637260E+02  0.28609442298E+02  0.00000000000E+00 0.  1.
</event>
<event>
 5    1  0.3186486E-003  0.9118800E+02  0.7818608E-02  0.1130116E+00
         25   -1    0    0    0    0  0.00000000000E+00  0.00000000000E+00  0.99999998245E-14  0.12500000000E+03  0.12500000000E+03 0.  0.
        -11    1    3    3    0    0  0.33216486972E+02  0.45800202217E+02  0.16261412653E+02  0.58867878097E+02  0.51100000000E-03 0.  1.
         23    2    1    0    0    0  0.16317046716E+02  0.13188966037E+02  0.20283794314E+02  0.95817348468E+02  0.91265202114E+02 0.  0.
         11    1    3    3    0    0 -0.16899440257E+02 -0.32611236180E+02  0.40223816616E+01  0.36949470371E+02  0.51100000000E-03 0. -1.
         22    1    1    0    0    0 -0.16317046716E+02 -0.13188966037E+02 -0.20283794314E+02  0.29182651532E+02  0.00000000000E+00 0.  1.
</event>
<event>
 5    1  0.3186486E-003  0.9118800E+02  0.7818608E-02  0.1130116E+00
         25   -1    0    0    0    0  0.00000000000E+00  0.00000000000E+00  0.99999998245E-14  0.12500000000E+03  0.12500000000E+03 0.  0.
        -11    1    3    3    0    0  0.32668393308E+02  0.51424029870E+02 -0.12693293838E+02  0.62231619601E+02  0.51100000000E-03 0. -1.
         23    2    1    0    0    0  0.15246873851E+02  0.25011788857E+02 -0.19642907365E+01  0.95641607978E+02  0.91024183569E+02 0.  0.
         11    1    3    3    0    0 -0.17421519458E+02 -0.26412241013E+02  0.10729003102E+02  0.33409988377E+02  0.51100000000E-03 0.  1.
         22    1    1    0    0    0 -0.15246873851E+02 -0.25011788857E+02  0.19642907365E+01  0.29358392022E+02  0.00000000000E+00 0. -1.
</event>
<event>
 5    1  0.3186486E-003  0.9118800E+02  0.7818608E-02  0.1130116E+00
         25   -1    0    0    0    0  0.00000000000E+00  0.00000000000E+00  0.99999998245E-14  0.12500000000E+03  0.12500000000E+03 0.  0.
        -11    1    3    3    0    0  0.27632666713E+02 -0.43007668936E+02  0.33853953821E+02  0.61313245278E+02  0.51100000000E-03 0.  1.
         23    2    1    0    0    0  0.14436201123E+02 -0.12602598518E+02  0.20187117088E+02  0.97165685052E+02  0.93093615587E+02 0.  0.
         11    1    3    3    0    0 -0.13196465590E+02  0.30405070418E+02 -0.13666836733E+02  0.35852439774E+02  0.51100000000E-03 0. -1.
         22    1    1    0    0    0 -0.14436201123E+02  0.12602598518E+02 -0.20187117088E+02  0.27834314948E+02  0.00000000000E+00 0.  1.
</event>
<event>
 5    1  0.3186486E-003  0.9118800E+02  0.7818608E-02  0.1130116E+00
         25   -1    0    0    0    0  0.00000000000E+00  0.00000000000E+00  0.99999998245E-14  0.12500000000E+03  0.12500000000E+03 0.  0.
        -11    1    3    3    0    0 -0.42059218349E+01 -0.33595484616E+02 -0.38693088832E+01  0.34078114921E+02  0.51100000000E-03 0. -1.
         23    2    1    0    0    0  0.23512001394E+02  0.16419317378E+02 -0.15456604508E+02  0.92422172945E+02  0.86490133751E+02 0.  0.
         11    1    3    3    0    0  0.27717923229E+02  0.50014801994E+02 -0.11587295624E+02  0.58344058024E+02  0.51100000000E-03 0.  1.
         22    1    1    0    0    0 -0.23512001394E+02 -0.16419317378E+02  0.15456604508E+02  0.32577827055E+02  0.00000000000E+00 0.  1.
</event>
<event>
 5    1  0.3186486E-003  0.9118800E+02  0.7818608E-02  0.1130116E+00
         25   -1    0    0    0    0  0.00000000000E+00  0.00000000000E+00  0.99999998245E-14  0.12500000000E+03  0.12500000000E+03 0.  0.
        -11    1    3    3    0    0 -0.37561158318E+02  0.13260146465E+02 -0.36981327105E+02  0.54353386768E+02  0.51100000000E-03 0. -1.
         23    2    1    0    0    0 -0.44503886073E+00 -0.32344151675E+01 -0.29087825705E+02  0.95729518192E+02  0.91144827324E+02 0.  0.
         11    1    3    3    0    0  0.37116119457E+02 -0.16494561633E+02  0.78935014004E+01  0.41376131424E+02  0.51100000000E-03 0.  1.
         22    1    1    0    0    0  0.44503886073E+00  0.32344151675E+01  0.29087825705E+02  0.29270481808E+02  0.00000000000E+00 0. -1.
</event>
<event>
 5    1  0.3186486E-003  0.9118800E+02  0.7818608E-02  0.1130116E+00
         25   -1    0    0    0    0  0.00000000000E+00  0.00000000000E+00  0.99999998245E-14  0.12500000000E+03  0.12500000000E+03 0.  0.
        -11    1    3    3    0    0  0.24064615569E+02  0.21954004250E+01  0.45928540397E+02  0.51897556096E+02  0.51100000000E-03 0. -1.
         23    2    1    0    0    0 -0.14428916790E+02 -0.47281420286E+01  0.23610841408E+02  0.96928291844E+02  0.92774311968E+02 0.  0.
         11    1    3    3    0    0 -0.38493532359E+02 -0.69235424535E+01 -0.22317698989E+02  0.45030735748E+02  0.51100000000E-03 0.  1.
         22    1    1    0    0    0  0.14428916790E+02  0.47281420286E+01 -0.23610841408E+02  0.28071708156E+02  0.00000000000E+00 0.  1.
</event>
<event>
 5    1  0.3186486E-003  0.9118800E+02  0.7818608E-02  0.1130116E+00
         25   -1    0    0    0    0  0.00000000000E+00  0.00000000000E+00  0.99999998245E-14  0.12500000000E+03  0.12500000000E+03 0.  0.
        -11    1    3    3    0    0  0.32139697629E+02  0.28282331690E+02 -0.95193738377E+01  0.43857370282E+02  0.51100000000E-03 0.  1.
         23    2    1    0    0    0  0.15573974059E+02 -0.22287945070E+02 -0.67677969847E+00  0.97801485442E+02  0.93943447672E+02 0.  0.
         11    1    3    3    0    0 -0.16565723570E+02 -0.50570276760E+02  0.88425941393E+01  0.53944115160E+02  0.51100000000E-03 0. -1.
         22    1    1    0    0    0 -0.15573974059E+02  0.22287945070E+02  0.67677969847E+00  0.27198514558E+02  0.00000000000E+00 0. -1.
</event>
<event>
 5    1  0.3186486E-003  0.9118800E+02  0.7818608E-02  0.1130116E+00
         25   -1    0    0    0    0  0.00000000000E+00  0.00000000000E+00  0.99999998245E-14  0.12500000000E+03  0.12500000000E+03 0.  0.
        -11    1    3    3    0    0 -0.12716784381E+02 -0.14122652342E+02  0.41936095556E+02  0.46041307811E+02  0.51100000000E-03 0.  1.
         23    2    1    0    0    0  0.25905868629E+02 -0.19154183848E+01  0.20750445350E+02  0.91752987514E+02  0.85517523809E+02 0.  0.
         11    1    3    3    0    0  0.38622653010E+02  0.12207233957E+02 -0.21185650206E+02  0.45711679703E+02  0.51100000000E-03 0. -1.
         22    1    1    0    0    0 -0.25905868629E+02  0.19154183848E+01 -0.20750445350E+02  0.33247012486E+02  0.00000000000E+00 0.  1.
</event>
<event>
 5    1  0.3186486E-003  0.9118800E+02  0.7818608E-02  0.1130116E+00
         25   -1    0    0    0    0  0.00000000000E+00  0.00000000000E+00  0.99999998245E-14  0.12500000000E+03  0.12500000000E+03 0.  0.
        -11    1    3    3    0    0  0.61203367269E+02  0.10712210652E+02 -0.62813981906E+01  0.62450457049E+02  0.51100000000E-03 0.  1.
         23    2    1    0    0    0  0.27969138733E+02  0.31181776858E+01 -0.27799927078E+01  0.96720606212E+02  0.92494062258E+02 0.  0.
         11    1    3    3    0    0 -0.33234228536E+02 -0.75940329666E+01  0.35014054828E+01  0.34270149163E+02  0.51100000000E-03 0. -1.
         22    1    1    0    0    0 -0.27969138733E+02 -0.31181776858E+01  0.27799927078E+01  0.28279393788E+02  0.00000000000E+00 0.  1.
</event>
<event>
 5    1  0.3186486E-003  0.9118800E+02  0.7818608E-02  0.1130116E+00
         25   -1    0    0    0    0  0.00000000000E+00  0.00000000000E+00  0.99999998245E-14  0.12500000000E+03  0.12500000000E+03 0.  0.
        -11    1    3    3    0    0  0.19410905096E+02 -0.12007665508E+02 -0.27907746804E+02  0.36052872279E+02  0.51100000000E-03 0.  1.
         23    2    1    0    0    0 -0.10608166270E+02  0.24650040020E+02  0.96168303602E+01  0.96493139584E+02  0.92186142646E+02 0.  0.
         11    1    3    3    0    0 -0.30019071366E+02  0.36657705529E+02  0.37524577164E+02  0.60440267305E+02  0.51100000000E-03 0. -1.
         22    1    1    0    0    0  0.10608166270E+02 -0.24650040020E+02 -0.96168303602E+01  0.28506860416E+02  0.00000000000E+00 0. -1.
</event>
<event>
 5    1  0.3186486E-003  0.9118800E+02  0.7818608E-02  0.1130116E+00
         25   -1    0    0    0    0  0.00000000000E+00  0.00000000000E+00  0.99999998245E-14  0.12500000000E+03  0.12500000000E+03 0.  0.
        -11    1    3    3    0    0  0.31504632594E+02 -0.94841960580E+01 -0.15927924977E+02  0.36553941567E+02  0.51100000000E-03 0.  1.
         23    2    1    0    0    0 -0.20283720103E+02  0.19087495678E+02 -0.49631282338E+01  0.96708756932E+02  0.92478047303E+02 0.  0.
         11    1    3    3    0    0 -0.51788352697E+02  0.28571691736E+02  0.10964796744E+02  0.60154815365E+02  0.51100000000E-03 0. -1.
         22    1    1    0    0    0  0.20283720103E+02 -0.19087495678E+02  0.49631282338E+01  0.28291243068E+02  0.00000000000E+00 0. -1.
</event>
<event>
 5    1  0.3186486E-003  0.9118800E+02  0.7818608E-02  0.1130116E+00
         25   -1    0    0    0    0  0.00000000000E+00  0.00000000000E+00  0.99999998245E-14  0.12500000000E+03  0.12500000000E+03 0.  0.
        -11    1    3    3    0    0  0.27750690551E+02 -0.43872605338E+02 -0.16193452294E+02  0.54379538640E+02  0.51100000000E-03 0.  1.
         23    2    1    0    0    0  0.27836544066E+02 -0.43762582003E+01 -0.68026358816E+00  0.96813343939E+02  0.92619306760E+02 0.  0.
         11    1    3    3    0    0  0.85853514749E-01  0.39496347138E+02  0.15513188706E+02  0.42433805299E+02  0.51100000000E-03 0. -1.
         22    1    1    0    0    0 -0.27836544066E+02  0.43762582003E+01  0.68026358816E+00  0.28186656061E+02  0.00000000000E+00 0. -1.
</event>
<event>
 5    1  0.3186486E-003  0.9118800E+02  0.7818608E-02  0.1130116E+00
         25   -1    0    0    0    0  0.00000000000E+00  0.00000000000E+00  0.99999998245E-14  0.12500000000E+03  0.12500000000E+03 0.  0.
        -11    1    3    3    0    0 -0.38306769976E+02  0.22895187941E+02  0.77599198338E+01  0.45296960305E+02  0.51100000000E-03 0.  1.
         23    2    1    0    0    0 -0.37835091341E+00  0.10580685231E+01  0.30405182127E+02  0.94574061089E+02  0.89546162800E+02 0.  0.
         11    1    3    3    0    0  0.37928419062E+02 -0.21837119418E+02  0.22645262294E+02  0.49277100784E+02  0.51100000000E-03 0. -1.
         22    1    1    0    0    0  0.37835091341E+00 -0.10580685231E+01 -0.30405182127E+02  0.30425938911E+02  0.00000000000E+00 0. -1.
</event>
<event>
 5    1  0.3186486E-003  0.9118800E+02  0.7818608E-02  0.1130116E+00
         25   -1    0    0    0    0  0.00000000000E+00  0.00000000000E+00  0.99999998245E-14  0.12500000000E+03  0.12500000000E+03 0.  0.
        -11    1    3    3    0    0  0.19663983730E+02 -0.58635307972E+02 -0.45418663477E+01  0.62011290482E+02  0.51100000000E-03 0.  1.
         23    2    1    0    0    0  0.92227016649E+01 -0.26151047884E+02  0.34520580155E+01  0.97056266606E+02  0.92946579558E+02 0.  0.
         11    1    3    3    0    0 -0.10441282065E+02  0.32484260087E+02  0.79939243633E+01  0.35044976125E+02  0.51100000000E-03 0. -1.
         22    1    1    0    0    0 -0.92227016649E+01  0.26151047884E+02 -0.34520580155E+01  0.27943733394E+02  0.00000000000E+00 0.  1.
</event>
<event>
 5    1  0.3186486E-003  0.9118800E+02  0.7818608E-02  0.1130116E+00
         25   -1    0    0    0    0  0.00000000000E+00  0.00000000000E+00  0.99999998245E-14  0.12500000000E+03  0.12500000000E+03 0.  0.
        -11    1    3    3    0    0  0.20775318771E+02 -0.46957435615E+02 -0.27671224338E+01  0.51422481430E+02  0.51100000000E-03 0.  1.
         23    2    1    0    0    0  0.24969211165E+02 -0.62455977615E+01  0.14057287739E+02  0.95672941911E+02  0.91067203085E+02 0.  0.
         11    1    3    3    0    0  0.41938923934E+01  0.40711837854E+02  0.16824410173E+02  0.44250460481E+02  0.51100000000E-03 0. -1.
         22    1    1    0    0    0 -0.24969211165E+02  0.62455977615E+01 -0.14057287739E+02  0.29327058089E+02  0.00000000000E+00 0.  1.
</event>
<event>
 5    1  0.3186486E-003  0.9118800E+02  0.7818608E-02  0.1130116E+00
         25   -1    0    0    0    0  0.00000000000E+00  0.00000000000E+00  0.99999998245E-14  0.12500000000E+03  0.12500000000E+03 0.  0.
        -11    1    3    3    0    0 -0.12493209478E+02 -0.28074614158E+02 -0.18163377248E+02  0.35695553176E+02  0.51100000000E-03 0.  1.
         23    2    1    0    0    0  0.17011762828E+01  0.28643577687E+02 -0.93347604386E+01  0.94825734542E+02  0.89896794356E+02 0.  0.
         11    1    3    3    0    0  0.14194385761E+02  0.56718191846E+02  0.88286168097E+01  0.59130181366E+02  0.51100000000E-03 0. -1.
         22    1    1    0    0    0 -0.17011762828E+01 -0.28643577687E+02  0.93347604386E+01  0.30174265458E+02  0.00000000000E+00 0. -1.
</event>
<event>
 5    1  0.3186486E-003  0.9118800E+02  0.7818608E-02  0.1130116E+00
         25   -1    0    0    0    0  0.00000000000E+00  0.00000000000E+00  0.99999998245E-14  0.12500000000E+03  0.12500000000E+03 0.  0.
        -11    1    3    3    0    0 -0.32269308202E+02  0.99062152707E+00  0.39149640118E+02  0.50744299232E+02  0.51100000000E-03 0.  1.
         23    2    1    0    0    0 -0.27712297585E+02 -0.50742506154E+01 -0.57212283167E+01  0.96251923365E+02  0.91858482685E+02 0.  0.
         11    1    3    3    0    0  0.45570106168E+01 -0.60648721424E+01 -0.44870868435E+02  0.45507624133E+02  0.51100000000E-03 0. -1.
         22    1    1    0    0    0  0.27712297585E+02  0.50742506154E+01  0.57212283167E+01  0.28748076635E+02  0.00000000000E+00 0.  1.
</event>
<event>
 5    1  0.3186486E-003  0.9118800E+02  0.7818608E-02  0.1130116E+00
         25   -1    0    0    0    0  0.00000000000E+00  0.00000000000E+00  0.99999998245E-14  0.12500000000E+03  0.12500000000E+03 0.  0.
        -11    1    3    3    0    0  0.10614525637E+02  0.16312017656E+02  0.29856270780E+02  0.35639121476E+02  0.51100000000E-03 0. -1.
         23    2    1    0    0    0  0.20663163527E+02 -0.62509645584E+01 -0.22677794178E+02  0.93689886080E+02  0.88303292804E+02 0.  0.
         11    1    3    3    0    0  0.10048637891E+02 -0.22562982214E+02 -0.52534064958E+02  0.58050764604E+02  0.51100000000E-03 0.  1.
         22    1    1    0    0    0 -0.20663163527E+02  0.62509645584E+01  0.22677794178E+02  0.31310113920E+02  0.00000000000E+00 0.  1.
</event>
<event>
 5    1  0.3186486E-003  0.9118800E+02  0.7818608E-02  0.1130116E+00
         25   -1    0    0    0    0  0.00000000000E+00  0.00000000000E+00  0.99999998245E-14  0.12500000000E+03  0.12500000000E+03 0.  0.
        -11    1    3    3    0    0  0.36693848890E+02  0.20408321575E+02 -0.45002316274E+02  0.61547921218E+02  0.51100000000E-03 0.  1.
         23    2    1    0    0    0  0.18710095704E+02  0.16364321939E+02 -0.17719355794E+02  0.94474039188E+02  0.89406430400E+02 0.  0.
         11    1    3    3    0    0 -0.17983753187E+02 -0.40439996355E+01  0.27282960481E+02  0.32926117970E+02  0.51100000000E-03 0. -1.
         22    1    1    0    0    0 -0.18710095704E+02 -0.16364321939E+02  0.17719355794E+02  0.30525960812E+02  0.00000000000E+00 0.  1.
</event>
<event>
 5    1  0.3186486E-003  0.9118800E+02  0.7818608E-02  0.1130116E+00
         25   -1    0    0    0    0  0.00000000000E+00  0.00000000000E+00  0.99999998245E-14  0.12500000000E+03  0.12500000000E+03 0.  0.
        -11    1    3    3    0    0  0.44016157608E+02  0.31350369181E+01  0.39479633408E+02  0.59210573729E+02  0.51100000000E-03 0.  1.
         23    2    1    0    0    0  0.25340719072E+02  0.11947651441E+02  0.98981855267E+01  0.95286829608E+02  0.90535669224E+02 0.  0.
         11    1    3    3    0    0 -0.18675438536E+02  0.88126145225E+01 -0.29581447881E+02  0.36076255879E+02  0.51100000000E-03 0. -1.
         22    1    1    0    0    0 -0.25340719072E+02 -0.11947651441E+02 -0.98981855267E+01  0.29713170392E+02  0.00000000000E+00 0.  1.
</event>
<event>
 5    1  0.3186486E-003  0.9118800E+02  0.7818608E-02  0.1130116E+00
         25   -1    0    0    0    0  0.00000000000E+00  0.00000000000E+00  0.99999998245E-14  0.12500000000E+03  0.12500000000E+03 0.  0.
        -11    1    3    3    0    0 -0.25332681468E+02  0.34319911308E+02  0.42064807352E+02  0.59908672831E+02  0.51100000000E-03 0.  1.
         23    2    1    0    0    0 -0.16677476689E+02  0.21129219755E+02  0.88763691548E+01  0.96656180823E+02  0.92406954315E+02 0.  0.
         11    1    3    3    0    0  0.86552047786E+01 -0.13190691553E+02 -0.33188438197E+02  0.36747507992E+02  0.51100000000E-03 0. -1.
         22    1    1    0    0    0  0.16677476689E+02 -0.21129219755E+02 -0.88763691548E+01  0.28343819177E+02  0.00000000000E+00 0.  1.
</event>
<event>
 5    1  0.3186486E-003  0.9118800E+02  0.7818608E-02  0.1130116E+00
         25   -1    0    0    0    0  0.00000000000E+00  0.00000000000E+00  0.99999998245E-14  0.12500000000E+03  0.12500000000E+03 0.  0.
        -11    1    3    3    0    0 -0.28032173922E+02  0.34657626615E+02 -0.31561469530E+02  0.54617581570E+02  0.51100000000E-03 0.  1.
         23    2    1    0    0    0 -0.26149361751E+02 -0.18414648340E+01 -0.10819852491E+02  0.96640710153E+02  0.92386024583E+02 0.  0.
         11    1    3    3    0    0  0.18828121715E+01 -0.36499091449E+02  0.20741617038E+02  0.42023128583E+02  0.51100000000E-03 0. -1.
         22    1    1    0    0    0  0.26149361751E+02  0.18414648340E+01  0.10819852491E+02  0.28359289847E+02  0.00000000000E+00 0.  1.
</event>
<event>
 5    1  0.3186486E-003  0.9118800E+02  0.7818608E-02  0.1130116E+00
         25   -1    0    0    0    0  0.00000000000E+00  0.00000000000E+00  0.99999998245E-14  0.12500000000E+03  0.12500000000E+03 0.  0.
        -11    1    3    3    0    0  0.39983259014E+02  0.36133446919E+02 -0.52125784716E+01  0.54142940096E+02  0.51100000000E-03 0.  1.
         23    2    1    0    0    0  0.34526217405E+02  0.16786552754E+01 -0.91330510894E+01  0.89246815610E+02  0.81772268542E+02 0.  0.
         11    1    3    3    0    0 -0.54570416096E+01 -0.34454791643E+02 -0.39204726178E+01  0.35103875514E+02  0.51100000000E-03 0. -1.
         22    1    1    0    0    0 -0.34526217405E+02 -0.16786552754E+01  0.91330510894E+01  0.35753184390E+02  0.00000000000E+00 0.  1.
</event>
<event>
 5    1  0.3186486E-003  0.9118800E+02  0.7818608E-02  0.1130116E+00
         25   -1    0    0    0    0  0.00000000000E+00  0.00000000000E+00  0.99999998245E-14  0.12500000000E+03  0.12500000000E+03 0.  0.
        -11    1    3    3    0    0 -0.10848281247E+02 -0.40670218305E+02 -0.59744714708E+01  0.42514070290E+02  0.51100000000E-03 0.  1.
         23    2    1    0    0    0  0.10272496307E+02  0.43271959105E+01 -0.26468004825E+02  0.96280597425E+02  0.91897493743E+02 0.  0.
         11    1    3    3    0    0  0.21120777554E+02  0.44997414216E+02 -0.20493533354E+02  0.53766527135E+02  0.51100000000E-03 0. -1.
         22    1    1    0    0    0 -0.10272496307E+02 -0.43271959105E+01  0.26468004825E+02  0.28719402575E+02  0.00000000000E+00 0. -1.
</event>
<event>
 5    1  0.3186486E-003  0.9118800E+02  0.7818608E-02  0.1130116E+00
         25   -1    0    0    0    0  0.00000000000E+00  0.00000000000E+00  0.99999998245E-14  0.12500000000E+03  0.12500000000E+03 0.  0.
        -11    1    3    3    0    0  0.90481020223E+01  0.32367562308E+02 -0.34627183841E+02  0.48255249465E+02  0.51100000000E-03 0.  1.
         23    2    1    0    0    0  0.22002386585E+02 -0.92390347837E+01 -0.18812752905E+02  0.94612758417E+02  0.89600165202E+02 0.  0.
         11    1    3    3    0    0  0.12954284563E+02 -0.41606597091E+02  0.15814430936E+02  0.46357508951E+02  0.51100000000E-03 0. -1.
         22    1    1    0    0    0 -0.22002386585E+02  0.92390347837E+01  0.18812752905E+02  0.30387241583E+02  0.00000000000E+00 0.  1.
</event>
<event>
 5    1  0.3186486E-003  0.9118800E+02  0.7818608E-02  0.1130116E+00
         25   -1    0    0    0    0  0.00000000000E+00  0.00000000000E+00  0.99999998245E-14  0.12500000000E+03  0.12500000000E+03 0.  0.
        -11    1    3    3    0    0 -0.11123458619E+02 -0.32304143438E+02  0.22628685645E+02  0.40979829541E+02  0.51100000000E-03 0.  1.
         23    2    1    0    0    0  0.29170462613E+02 -0.38598786292E+01 -0.75766350379E+00  0.95565520115E+02  0.90919635002E+02 0.  0.
         11    1    3    3    0    0  0.40293921232E+02  0.28444264808E+02 -0.23386349149E+02  0.54585690575E+02  0.51100000000E-03 0. -1.
         22    1    1    0    0    0 -0.29170462613E+02  0.38598786292E+01  0.75766350379E+00  0.29434479885E+02  0.00000000000E+00 0.  1.
</event>
<event>
 5    1  0.3186486E-003  0.9118800E+02  0.7818608E-02  0.1130116E+00
         25   -1    0    0    0    0  0.00000000000E+00  0.00000000000E+00  0.99999998245E-14  0.12500000000E+03  0.12500000000E+03 0.  0.
        -11    1    3    3    0    0  0.31042102642E+02 -0.24907589361E+02  0.28476582125E+02  0.48937877702E+02  0.51100000000E-03 0.  1.
         23    2    1    0    0    0  0.94074510186E+01 -0.34680191597E+02 -0.36475430908E+01  0.88881855052E+02  0.81212460638E+02 0.  0.
         11    1    3    3    0    0 -0.21634651623E+02 -0.97726022365E+01 -0.32124125216E+02  0.39943977349E+02  0.51100000000E-03 0. -1.
         22    1    1    0    0    0 -0.94074510186E+01  0.34680191597E+02  0.36475430908E+01  0.36118144948E+02  0.00000000000E+00 0.  1.
</event>
<event>
 5    1  0.3186486E-003  0.9118800E+02  0.7818608E-02  0.1130116E+00
         25   -1    0    0    0    0  0.00000000000E+00  0.00000000000E+00  0.99999998245E-14  0.12500000000E+03  0.12500000000E+03 0.  0.
        -11    1    3    3    0    0  0.10710044818E+02 -0.66106110760E+01  0.33099274828E+02  0.35411399763E+02  0.51100000000E-03 0.  1.
         23    2    1    0    0    0 -0.15041365534E+02 -0.97375075748E+01 -0.22187145035E+02  0.96481039014E+02  0.92169733392E+02 0.  0.
         11    1    3    3    0    0 -0.25751410352E+02 -0.31268964989E+01 -0.55286419863E+02  0.61069639251E+02  0.51100000000E-03 0. -1.
         22    1    1    0    0    0  0.15041365534E+02  0.97375075748E+01  0.22187145035E+02  0.28518960986E+02  0.00000000000E+00 0. -1.
</event>
<event>
 5    1  0.3186486E-003  0.9118800E+02  0.7818608E-02  0.1130116E+00
         25   -1    0    0    0    0  0.00000000000E+00  0.00000000000E+00  0.99999998245E-14  0.12500000000E+03  0.12500000000E+03 0.  0.
        -11    1    3    3    0    0  0.21730221337E+02  0.18277065909E+02  0.28590703151E+02  0.40294937208E+02  0.51100000000E-03 0. -1.
         23    2    1    0    0    0 -0.19284672613E+02  0.16432422416E+02 -0.11044364616E+02  0.97361239283E+02  0.93355823710E+02 0.  0.
         11    1    3    3    0    0 -0.41014893950E+02 -0.18446434938E+01 -0.39635067767E+02  0.57066302075E+02  0.51100000000E-03 0.  1.
         22    1    1    0    0    0  0.19284672613E+02 -0.16432422416E+02  0.11044364616E+02  0.27638760717E+02  0.00000000000E+00 0.  1.
</event>
<event>
 5    1  0.3186486E-003  0.9118800E+02  0.7818608E-02  0.1130116E+00
         25   -1    0    0    0    0  0.00000000000E+00  0.00000000000E+00  0.99999998245E-14  0.12500000000E+03  0.12500000000E+03 0.  0.
        -11    1    3    3    0    0  0.16700070405E+02 -0.17718472937E+02 -0.52487464055E+02  0.57859921517E+02  0.51100000000E-03 0.  1.
         23    2    1    0    0    0  0.17493766081E+02  0.19709156205E+01 -0.40282085342E+02  0.81039076903E+02  0.68079139431E+02 0.  0.
         11    1    3    3    0    0  0.79369567541E+00  0.19689388557E+02  0.12205378713E+02  0.23179155385E+02  0.51100000000E-03 0. -1.
         22    1    1    0    0    0 -0.17493766081E+02 -0.19709156205E+01  0.40282085342E+02  0.43960923097E+02  0.00000000000E+00 0.  1.
</event>
<event>
 5    1  0.3186486E-003  0.9118800E+02  0.7818608E-02  0.1130116E+00
         25   -1    0    0    0    0  0.00000000000E+00  0.00000000000E+00  0.99999998245E-14  0.12500000000E+03  0.12500000000E+03 0.  0.
        -11    1    3    3    0    0  0.46423795764E+02  0.73443039585E+01  0.11744228109E+02  0.48446202204E+02  0.51100000000E-03 0.  1.
         23    2    1    0    0    0  0.10145056968E+02 -0.19678660512E+02  0.20847004256E+02  0.94589977854E+02  0.89568378703E+02 0.  0.
         11    1    3    3    0    0 -0.36278738796E+02 -0.27022964471E+02  0.91027761469E+01  0.46143775650E+02  0.51100000000E-03 0. -1.
         22    1    1    0    0    0 -0.10145056968E+02  0.19678660512E+02 -0.20847004256E+02  0.30410022146E+02  0.00000000000E+00 0.  1.
</event>
<event>
 5    1  0.3186486E-003  0.9118800E+02  0.7818608E-02  0.1130116E+00
         25   -1    0    0    0    0  0.00000000000E+00  0.00000000000E+00  0.99999998245E-14  0.12500000000E+03  0.12500000000E+03 0.  0.
        -11    1    3    3    0    0  0.76771892802E+01 -0.13389189089E+02  0.38950679706E+02  0.41897077100E+02  0.51100000000E-03 0. -1.
         23    2    1    0    0    0 -0.30393673355E+02  0.37408951633E+01  0.23452085797E+02  0.86428378244E+02  0.77344001455E+02 0.  0.
         11    1    3    3    0    0 -0.38070862635E+02  0.17130084252E+02 -0.15498593908E+02  0.44531301145E+02  0.51100000000E-03 0.  1.
         22    1    1    0    0    0  0.30393673355E+02 -0.37408951633E+01 -0.23452085797E+02  0.38571621756E+02  0.00000000000E+00 0. -1.
</event>
<event>
 5    1  0.3186486E-003  0.9118800E+02  0.7818608E-02  0.1130116E+00
         25   -1    0    0    0    0  0.00000000000E+00  0.00000000000E+00  0.99999998245E-14  0.12500000000E+03  0.12500000000E+03 0.  0.
        -11    1    3    3    0    0  0.81381314594E+01  0.19595682071E+02  0.51835938061E+02  0.56010574131E+02  0.51100000000E-03 0. -1.
         23    2    1    0    0    0 -0.16199655064E+02  0.10703963339E+02  0.25415560402E+02  0.93016342206E+02  0.87344636649E+02 0.  0.
         11    1    3    3    0    0 -0.24337786524E+02 -0.88917187314E+01 -0.26420377660E+02  0.37005768075E+02  0.51100000000E-03 0.  1.
         22    1    1    0    0    0  0.16199655064E+02 -0.10703963339E+02 -0.25415560402E+02  0.31983657794E+02  0.00000000000E+00 0. -1.
</event>
<event>
 5    1  0.3186486E-003  0.9118800E+02  0.7818608E-02  0.1130116E+00
         25   -1    0    0    0    0  0.00000000000E+00  0.00000000000E+00  0.99999998245E-14  0.12500000000E+03  0.12500000000E+03 0.  0.
        -11    1    3    3    0    0 -0.20903220303E+02  0.47919652033E+02 -0.41976727941E+01  0.52448623692E+02  0.51100000000E-03 0. -1.
         23    2    1    0    0    0  0.61973020582E+01  0.21738315089E+02  0.17930902069E+02  0.96147302644E+02  0.91716005478E+02 0.  0.
         11    1    3    3    0    0  0.27100522362E+02 -0.26181336943E+02  0.22128574863E+02  0.43698678952E+02  0.51100000000E-03 0.  1.
         22    1    1    0    0    0 -0.61973020582E+01 -0.21738315089E+02 -0.17930902069E+02  0.28852697356E+02  0.00000000000E+00 0. -1.
</event>
<event>
 5    1  0.3186486E-003  0.9118800E+02  0.7818608E-02  0.1130116E+00
         25   -1    0    0    0    0  0.00000000000E+00  0.00000000000E+00  0.99999998245E-14  0.12500000000E+03  0.12500000000E+03 0.  0.
        -11    1    3    3    0    0 -0.76482211819E+00 -0.44333839235E+02 -0.38737698451E+02  0.58878549029E+02  0.51100000000E-03 0.  1.
         23    2    1    0    0    0  0.14388006220E+02 -0.21734933718E+02 -0.15400635516E+02  0.94724570341E+02  0.89756016987E+02 0.  0.
         11    1    3    3    0    0  0.15152828339E+02  0.22598905517E+02  0.23337062936E+02  0.35846021313E+02  0.51100000000E-03 0. -1.
         22    1    1    0    0    0 -0.14388006220E+02  0.21734933718E+02  0.15400635516E+02  0.30275429659E+02  0.00000000000E+00 0.  1.
</event>
<event>
 5    1  0.3186486E-003  0.9118800E+02  0.7818608E-02  0.1130116E+00
         25   -1    0    0    0    0  0.00000000000E+00  0.00000000000E+00  0.99999998245E-14  0.12500000000E+03  0.12500000000E+03 0.  0.
        -11    1    3    3    0    0  0.27449481434E+01  0.54094216138E+02 -0.13753196841E+02  0.55882639375E+02  0.51100000000E-03 0.  1.
         23    2    1    0    0    0 -0.64541418583E+00  0.25349064290E+02  0.14044126137E+02  0.96013294447E+02  0.91533183119E+02 0.  0.
         11    1    3    3    0    0 -0.33903623292E+01 -0.28745151849E+02  0.27797322978E+02  0.40130655072E+02  0.51100000000E-03 0. -1.
         22    1    1    0    0    0  0.64541418583E+00 -0.25349064290E+02 -0.14044126137E+02  0.28986705553E+02  0.00000000000E+00 0.  1.
</event>
<event>
 5    1  0.3186486E-003  0.9118800E+02  0.7818608E-02  0.1130116E+00
         25   -1    0    0    0    0  0.00000000000E+00  0.00000000000E+00  0.99999998245E-14  0.12500000000E+03  0.12500000000E+03 0.  0.
        -11    1    3    3    0    0 -0.29921924083E+02  0.14033588960E+02 -0.63744577548E+01  0.33658533418E+02  0.51100000000E-03 0. -1.
         23    2    1    0    0    0  0.24254854001E+02  0.66570683341E+01 -0.23114257898E+02  0.90840324656E+02  0.84172924174E+02 0.  0.
         11    1    3    3    0    0  0.54176778084E+02 -0.73765206258E+01 -0.16739800144E+02  0.57181791238E+02  0.51100000000E-03 0.  1.
         22    1    1    0    0    0 -0.24254854001E+02 -0.66570683341E+01  0.23114257898E+02  0.34159675344E+02  0.00000000000E+00 0.  1.
</event>
<event>
 5    1  0.3186486E-003  0.9118800E+02  0.7818608E-02  0.1130116E+00
         25   -1    0    0    0    0  0.00000000000E+00  0.00000000000E+00  0.99999998245E-14  0.12500000000E+03  0.12500000000E+03 0.  0.
        -11    1    3    3    0    0 -0.20793079257E+01 -0.27005071155E+02  0.52282766378E+02  0.58881958612E+02  0.51100000000E-03 0.  1.
         23    2    1    0    0    0  0.76607251697E+01 -0.23321709932E+02  0.18419476333E+02  0.94310164995E+02  0.89177021977E+02 0.  0.
         11    1    3    3    0    0  0.97400330954E+01  0.36833612235E+01 -0.33863290045E+02  0.35428206383E+02  0.51100000000E-03 0. -1.
         22    1    1    0    0    0 -0.76607251697E+01  0.23321709932E+02 -0.18419476333E+02  0.30689835005E+02  0.00000000000E+00 0.  1.
</event>
<event>
 5    1  0.3186486E-003  0.9118800E+02  0.7818608E-02  0.1130116E+00
         25   -1    0    0    0    0  0.00000000000E+00  0.00000000000E+00  0.99999998245E-14  0.12500000000E+03  0.12500000000E+03 0.  0.
        -11    1    3    3    0    0  0.38204364223E+02 -0.19610714267E+02 -0.22601148943E+02  0.48527986704E+02  0.51100000000E-03 0.  1.
         23    2    1    0    0    0 -0.64916984928E+01 -0.70302965695E+01 -0.28128287468E+02  0.95288591837E+02  0.90538102251E+02 0.  0.
         11    1    3    3    0    0 -0.44696062716E+02  0.12580417698E+02 -0.55271385252E+01  0.46760605132E+02  0.51100000000E-03 0. -1.
         22    1    1    0    0    0  0.64916984928E+01  0.70302965695E+01  0.28128287468E+02  0.29711408163E+02  0.00000000000E+00 0.  1.
</event>
<event>
 5    1  0.3186486E-003  0.9118800E+02  0.7818608E-02  0.1130116E+00
         25   -1    0    0    0    0  0.00000000000E+00  0.00000000000E+00  0.99999998245E-14  0.12500000000E+03  0.12500000000E+03 0.  0.
        -11    1    3    3    0    0 -0.24257144460E+02  0.15599083448E+02  0.40349577449E+02  0.49596661807E+02  0.51100000000E-03 0. -1.
         23    2    1    0    0    0  0.11772606620E+02 -0.10533886177E+02  0.22401938911E+02  0.97588252671E+02  0.93659293014E+02 0.  0.
         11    1    3    3    0    0  0.36029751080E+02 -0.26132969626E+02 -0.17947638538E+02  0.47991590864E+02  0.51100000000E-03 0.  1.
         22    1    1    0    0    0 -0.11772606620E+02  0.10533886177E+02 -0.22401938911E+02  0.27411747329E+02  0.00000000000E+00 0. -1.
</event>
<event>
 5    1  0.3186486E-003  0.9118800E+02  0.7818608E-02  0.1130116E+00
         25   -1    0    0    0    0  0.00000000000E+00  0.00000000000E+00  0.99999998245E-14  0.12500000000E+03  0.12500000000E+03 0.  0.
        -11    1    3    3    0    0  0.35716509783E+02 -0.29925291365E+02 -0.28038995343E+02  0.54381774469E+02  0.51100000000E-03 0. -1.
         23    2    1    0    0    0  0.86112047184E+01 -0.30756118049E+02 -0.46282734323E+00  0.93057773194E+02  0.87403908943E+02 0.  0.
         11    1    3    3    0    0 -0.27105305064E+02 -0.83082668427E+00  0.27576167999E+02  0.38675998725E+02  0.51100000000E-03 0.  1.
         22    1    1    0    0    0 -0.86112047184E+01  0.30756118049E+02  0.46282734323E+00  0.31942226806E+02  0.00000000000E+00 0.  1.
</event>
<event>
 5    1  0.3186486E-003  0.9118800E+02  0.7818608E-02  0.1130116E+00
         25   -1    0    0    0    0  0.00000000000E+00  0.00000000000E+00  0.99999998245E-14  0.12500000000E+03  0.12500000000E+03 0.  0.
        -11    1    3    3    0    0  0.48712590129E+02 -0.20739448836E+02  0.19588737860E+02  0.56451393484E+02  0.51100000000E-03 0.  1.
         23    2    1    0    0    0  0.28501399662E+02  0.33637466266E+00 -0.66748012574E+01  0.95725507649E+02  0.91139326924E+02 0.  0.
         11    1    3    3    0    0 -0.20211190467E+02  0.21075823498E+02 -0.26263539117E+02  0.39274114165E+02  0.51100000000E-03 0. -1.
         22    1    1    0    0    0 -0.28501399662E+02 -0.33637466266E+00  0.66748012574E+01  0.29274492351E+02  0.00000000000E+00 0.  1.
</event>
<event>
 5    1  0.3186486E-003  0.9118800E+02  0.7818608E-02  0.1130116E+00
         25   -1    0    0    0    0  0.00000000000E+00  0.00000000000E+00  0.99999998245E-14  0.12500000000E+03  0.12500000000E+03 0.  0.
        -11    1    3    3    0    0 -0.47060842977E+02  0.10594873556E+02 -0.25415794689E+02  0.54524644954E+02  0.51100000000E-03 0.  1.
         23    2    1    0    0    0 -0.22386707312E+02 -0.12271768957E+02 -0.26526967952E+02  0.88183685595E+02  0.80130652055E+02 0.  0.
         11    1    3    3    0    0  0.24674135665E+02 -0.22866642512E+02 -0.11111732634E+01  0.33659040641E+02  0.51100000000E-03 0. -1.
         22    1    1    0    0    0  0.22386707312E+02  0.12271768957E+02  0.26526967952E+02  0.36816314405E+02  0.00000000000E+00 0. -1.
</event>
<event>
 5    1  0.3186486E-003  0.9118800E+02  0.7818608E-02  0.1130116E+00
         25   -1    0    0    0    0  0.00000000000E+00  0.00000000000E+00  0.99999998245E-14  0.12500000000E+03  0.12500000000E+03 0.  0.
        -11    1    3    3    0    0  0.19978755791E+02  0.24182034642E+02 -0.20739713742E+02  0.37603952036E+02  0.51100000000E-03 0. -1.
         23    2    1    0    0    0  0.14081902874E+02 -0.14118247785E+02  0.22008011648E+02  0.95301894239E+02  0.90556466140E+02 0.  0.
         11    1    3    3    0    0 -0.58968529165E+01 -0.38300282427E+02  0.42747725389E+02  0.57697942203E+02  0.51100000000E-03 0.  1.
         22    1    1    0    0    0 -0.14081902874E+02  0.14118247785E+02 -0.22008011648E+02  0.29698105761E+02  0.00000000000E+00 0.  1.
</event>
<event>
 5    1  0.3186486E-003  0.9118800E+02  0.7818608E-02  0.1130116E+00
         25   -1    0    0    0    0  0.00000000000E+00  0.00000000000E+00  0.99999998245E-14  0.12500000000E+03  0.12500000000E+03 0.  0.
        -11    1    3    3    0    0  0.18754918011E+02  0.27371006988E+02 -0.21289671056E+02  0.39422951020E+02  0.51100000000E-03 0.  1.
         23    2    1    0    0    0 -0.27945318086E+02  0.68030252903E+01  0.32677123715E+01  0.96053499345E+02  0.91588071474E+02 0.  0.
         11    1    3    3    0    0 -0.46700236097E+02 -0.20567981698E+02  0.24557383428E+02  0.56630548326E+02  0.51100000000E-03 0. -1.
         22    1    1    0    0    0  0.27945318086E+02 -0.68030252903E+01 -0.32677123715E+01  0.28946500655E+02  0.00000000000E+00 0.  1.
</event>
<event>
 5    1  0.3186486E-003  0.9118800E+02  0.7818608E-02  0.1130116E+00
         25   -1    0    0    0    0  0.00000000000E+00  0.00000000000E+00  0.99999998245E-14  0.12500000000E+03  0.12500000000E+03 0.  0.
        -11    1    3    3    0    0  0.57643756989E+01  0.25442236044E+02 -0.22648784145E+02  0.34547110236E+02  0.51100000000E-03 0.  1.
         23    2    1    0    0    0  0.14685937289E+02 -0.25606679262E+02  0.75552417818E+01  0.94529350921E+02  0.89483728858E+02 0.  0.
         11    1    3    3    0    0  0.89215615900E+01 -0.51048915307E+02  0.30204025927E+02  0.59982240685E+02  0.51100000000E-03 0. -1.
         22    1    1    0    0    0 -0.14685937289E+02  0.25606679262E+02 -0.75552417818E+01  0.30470649079E+02  0.00000000000E+00 0. -1.
</event>
<event>
 5    1  0.3186486E-003  0.9118800E+02  0.7818608E-02  0.1130116E+00
         25   -1    0    0    0    0  0.00000000000E+00  0.00000000000E+00  0.99999998245E-14  0.12500000000E+03  0.12500000000E+03 0.  0.
        -11    1    3    3    0    0  0.50081538015E+02  0.18879638066E+02 -0.12294376824E+02  0.54915870977E+02  0.51100000000E-03 0. -1.
         23    2    1    0    0    0  0.10489594398E+02  0.18821255648E+02 -0.20398727142E+02  0.95328813239E+02  0.90593616275E+02 0.  0.
         11    1    3    3    0    0 -0.39591943617E+02 -0.58382417968E-01 -0.81043503179E+01  0.40412942261E+02  0.51100000000E-03 0.  1.
         22    1    1    0    0    0 -0.10489594398E+02 -0.18821255648E+02  0.20398727142E+02  0.29671186761E+02  0.00000000000E+00 0. -1.
</event>
<event>
 5    1  0.3186486E-003  0.9118800E+02  0.7818608E-02  0.1130116E+00
         25   -1    0    0    0    0  0.00000000000E+00  0.00000000000E+00  0.99999998245E-14  0.12500000000E+03  0.12500000000E+03 0.  0.
        -11    1    3    3    0    0  0.68265301949E+01  0.48268648623E+02 -0.96571902807E+01  0.49696330637E+02  0.51100000000E-03 0. -1.
         23    2    1    0    0    0  0.76464365177E+00  0.46899513489E+01 -0.27439411408E+02  0.97152170246E+02  0.93075467023E+02 0.  0.
         11    1    3    3    0    0 -0.60618865431E+01 -0.43578697274E+02 -0.17782221127E+02  0.47455839610E+02  0.51100000000E-03 0.  1.
         22    1    1    0    0    0 -0.76464365177E+00 -0.46899513489E+01  0.27439411408E+02  0.27847829754E+02  0.00000000000E+00 0.  1.
</event>
<event>
 5    1  0.3186486E-003  0.9118800E+02  0.7818608E-02  0.1130116E+00
         25   -1    0    0    0    0  0.00000000000E+00  0.00000000000E+00  0.99999998245E-14  0.12500000000E+03  0.12500000000E+03 0.  0.
        -11    1    3    3    0    0  0.52115287174E+02 -0.13820597257E+02 -0.23939701779E+01  0.53969835642E+02  0.51100000000E-03 0.  1.
         23    2    1    0    0    0  0.20376471279E+02  0.83904860865E+01  0.16882905508E+02  0.97239716555E+02  0.93192967217E+02 0.  0.
         11    1    3    3    0    0 -0.31738815895E+02  0.22211083344E+02  0.19276875686E+02  0.43269880913E+02  0.51100000000E-03 0. -1.
         22    1    1    0    0    0 -0.20376471279E+02 -0.83904860865E+01 -0.16882905508E+02  0.27760283445E+02  0.00000000000E+00 0.  1.
</event>
<event>
 5    1  0.3186486E-003  0.9118800E+02  0.7818608E-02  0.1130116E+00
         25   -1    0    0    0    0  0.00000000000E+00  0.00000000000E+00  0.99999998245E-14  0.12500000000E+03  0.12500000000E+03 0.  0.
        -11    1    3    3    0    0 -0.97260712267E+01 -0.30883807065E+02 -0.10794697499E+02  0.34131092785E+02  0.51100000000E-03 0.  1.
         23    2    1    0    0    0 -0.26253679679E+02  0.22320390689E+02 -0.26023260134E+01  0.90442401156E+02  0.83579903620E+02 0.  0.
         11    1    3    3    0    0 -0.16527608452E+02  0.53204197753E+02  0.81923714861E+01  0.56311308372E+02  0.51100000000E-03 0. -1.
         22    1    1    0    0    0  0.26253679679E+02 -0.22320390689E+02  0.26023260134E+01  0.34557598844E+02  0.00000000000E+00 0.  1.
</event>
<event>
 5    1  0.3186486E-003  0.9118800E+02  0.7818608E-02  0.1130116E+00
         25   -1    0    0    0    0  0.00000000000E+00  0.00000000000E+00  0.99999998245E-14  0.12500000000E+03  0.12500000000E+03 0.  0.
        -11    1    3    3    0    0  0.50026766493E+02 -0.49728965782E+01 -0.26134275531E+02  0.56660457322E+02  0.51100000000E-03 0.  1.
         23    2    1    0    0    0  0.11626103006E+02 -0.79625674298E+01 -0.26283189097E+02  0.95177612767E+02  0.90384750881E+02 0.  0.
         11    1    3    3    0    0 -0.38400663488E+02 -0.29896708516E+01 -0.14891356533E+00  0.38517155445E+02  0.51100000000E-03 0. -1.
         22    1    1    0    0    0 -0.11626103006E+02  0.79625674298E+01  0.26283189097E+02  0.29822387233E+02  0.00000000000E+00 0.  1.
</event>
<event>
 5    1  0.3186486E-003  0.9118800E+02  0.7818608E-02  0.1130116E+00
         25   -1    0    0    0    0  0.00000000000E+00  0.00000000000E+00  0.99999998245E-14  0.12500000000E+03  0.12500000000E+03 0.  0.
        -11    1    3    3    0    0 -0.18388790937E+02 -0.93578542575E+01 -0.16704996909E+01  0.20700426032E+02  0.51100000000E-03 0. -1.
         23    2    1    0    0    0  0.24462140721E+02  0.31477883521E+02  0.15334196450E+02  0.82287108967E+02  0.70333329523E+02 0.  0.
         11    1    3    3    0    0  0.42850931658E+02  0.40835737778E+02  0.17004696141E+02  0.61586682935E+02  0.51100000000E-03 0.  1.
         22    1    1    0    0    0 -0.24462140721E+02 -0.31477883521E+02 -0.15334196450E+02  0.42712891033E+02  0.00000000000E+00 0.  1.
</event>
<event>
 5    1  0.3186486E-003  0.9118800E+02  0.7818608E-02  0.1130116E+00
         25   -1    0    0    0    0  0.00000000000E+00  0.00000000000E+00  0.99999998245E-14  0.12500000000E+03  0.12500000000E+03 0.  0.
        -11    1    3    3    0    0  0.66848390567E+01  0.45427291134E+02  0.17534346792E+02  0.49150576504E+02  0.51100000000E-03 0. -1.
         23    2    1    0    0    0 -0.30101045688E+01  0.18427059320E+02 -0.20811720943E+02  0.97040297331E+02  0.92925100661E+02 0.  0.
         11    1    3    3    0    0 -0.96949436255E+01 -0.27000231814E+02 -0.38346067735E+02  0.47889720827E+02  0.51100000000E-03 0.  1.
         22    1    1    0    0    0  0.30101045688E+01 -0.18427059320E+02  0.20811720943E+02  0.27959702669E+02  0.00000000000E+00 0. -1.
</event>
<event>
 5    1  0.3186486E-003  0.9118800E+02  0.7818608E-02  0.1130116E+00
         25   -1    0    0    0    0  0.00000000000E+00  0.00000000000E+00  0.99999998245E-14  0.12500000000E+03  0.12500000000E+03 0.  0.
        -11    1    3    3    0    0  0.10105431957E+01  0.46532332736E+02  0.33932604415E+02  0.57599486370E+02  0.51100000000E-03 0. -1.
         23    2    1    0    0    0 -0.71545189837E+00  0.31832088334E+02  0.16457054243E+01  0.93117370474E+02  0.87489099999E+02 0.  0.
         11    1    3    3    0    0 -0.17259950941E+01 -0.14700244402E+02 -0.32286898991E+02  0.35517884104E+02  0.51100000000E-03 0.  1.
         22    1    1    0    0    0  0.71545189837E+00 -0.31832088334E+02 -0.16457054243E+01  0.31882629526E+02  0.00000000000E+00 0. -1.
</event>
<event>
 5    1  0.3186486E-003  0.9118800E+02  0.7818608E-02  0.1130116E+00
         25   -1    0    0    0    0  0.00000000000E+00  0.00000000000E+00  0.99999998245E-14  0.12500000000E+03  0.12500000000E+03 0.  0.
        -11    1    3    3    0    0 -0.67569787628E+01 -0.25243265549E+02 -0.38086339730E+02  0.46189268146E+02  0.51100000000E-03 0.  1.
         23    2    1    0    0    0  0.26182669509E+02  0.13285092295E+01 -0.10213876502E+02  0.96864250630E+02  0.92687985508E+02 0.  0.
         11    1    3    3    0    0  0.32939648272E+02  0.26571774778E+02  0.27872463228E+02  0.50674982484E+02  0.51100000000E-03 0. -1.
         22    1    1    0    0    0 -0.26182669509E+02 -0.13285092295E+01  0.10213876502E+02  0.28135749370E+02  0.00000000000E+00 0.  1.
</event>
<event>
 5    1  0.3186486E-003  0.9118800E+02  0.7818608E-02  0.1130116E+00
         25   -1    0    0    0    0  0.00000000000E+00  0.00000000000E+00  0.99999998245E-14  0.12500000000E+03  0.12500000000E+03 0.  0.
        -11    1    3    3    0    0 -0.15529481583E+02  0.14033211044E+01 -0.56874892424E+02  0.58973616956E+02  0.51100000000E-03 0.  1.
         23    2    1    0    0    0 -0.20085439936E+02 -0.44594391862E+01 -0.21030130971E+02  0.95579294638E+02  0.90938570803E+02 0.  0.
         11    1    3    3    0    0 -0.45559583533E+01 -0.58627602906E+01  0.35844761453E+02  0.36605677682E+02  0.51100000000E-03 0. -1.
         22    1    1    0    0    0  0.20085439936E+02  0.44594391862E+01  0.21030130971E+02  0.29420705362E+02  0.00000000000E+00 0.  1.
</event>
<event>
 5    1  0.3186486E-003  0.9118800E+02  0.7818608E-02  0.1130116E+00
         25   -1    0    0    0    0  0.00000000000E+00  0.00000000000E+00  0.99999998245E-14  0.12500000000E+03  0.12500000000E+03 0.  0.
        -11    1    3    3    0    0 -0.56934383581E+01  0.35887096099E+02 -0.43750663263E+02  0.56871956560E+02  0.51100000000E-03 0. -1.
         23    2    1    0    0    0  0.25707782181E+01  0.79400645485E+01 -0.37374969850E+02  0.86704544696E+02  0.77789049191E+02 0.  0.
         11    1    3    3    0    0  0.82642165762E+01 -0.27947031551E+02  0.63756934137E+01  0.29832588136E+02  0.51100000000E-03 0.  1.
         22    1    1    0    0    0 -0.25707782181E+01 -0.79400645485E+01  0.37374969850E+02  0.38295455304E+02  0.00000000000E+00 0. -1.
</event>
<event>
 5    1  0.3186486E-003  0.9118800E+02  0.7818608E-02  0.1130116E+00
         25   -1    0    0    0    0  0.00000000000E+00  0.00000000000E+00  0.99999998245E-14  0.12500000000E+03  0.12500000000E+03 0.  0.
        -11    1    3    3    0    0  0.30769093661E+02  0.48764385101E+02 -0.15741833596E+02  0.59770458457E+02  0.51100000000E-03 0. -1.
         23    2    1    0    0    0  0.22079956100E+02  0.13333967222E+02 -0.12332062128E+02  0.96409811131E+02  0.92073083921E+02 0.  0.
         11    1    3    3    0    0 -0.86891375609E+01 -0.35430417879E+02  0.34097714680E+01  0.36639352674E+02  0.51100000000E-03 0.  1.
         22    1    1    0    0    0 -0.22079956100E+02 -0.13333967222E+02  0.12332062128E+02  0.28590188869E+02  0.00000000000E+00 0. -1.
</event>
<event>
 5    1  0.3186486E-003  0.9118800E+02  0.7818608E-02  0.1130116E+00
         25   -1    0    0    0    0  0.00000000000E+00  0.00000000000E+00  0.99999998245E-14  0.12500000000E+03  0.12500000000E+03 0.  0.
        -11    1    3    3    0    0  0.30419129770E+02 -0.81543992394E+01 -0.15259035268E+02  0.34995083090E+02  0.51100000000E-03 0. -1.
         23    2    1    0    0    0 -0.26456832615E+02 -0.97048555511E+01  0.67863436563E+01  0.96013750268E+02  0.91533805597E+02 0.  0.
         11    1    3    3    0    0 -0.56875962385E+02 -0.15504563117E+01  0.22045378924E+02  0.61018667178E+02  0.51100000000E-03 0.  1.
         22    1    1    0    0    0  0.26456832615E+02  0.97048555511E+01 -0.67863436563E+01  0.28986249732E+02  0.00000000000E+00 0.  1.
</event>
<event>
 5    1  0.3186486E-003  0.9118800E+02  0.7818608E-02  0.1130116E+00
         25   -1    0    0    0    0  0.00000000000E+00  0.00000000000E+00  0.99999998245E-14  0.12500000000E+03  0.12500000000E+03 0.  0.
        -11    1    3    3    0    0  0.17966973150E+02 -0.44937251675E+02  0.80417070276E+01  0.49059532861E+02  0.51100000000E-03 0.  1.
         23    2    1    0    0    0  0.17324525194E+02 -0.92177673329E+01 -0.21843087417E+02  0.95636300034E+02  0.91016894083E+02 0.  0.
         11    1    3    3    0    0 -0.64244795657E+00  0.35719484343E+02 -0.29884794444E+02  0.46576767173E+02  0.51100000000E-03 0. -1.
         22    1    1    0    0    0 -0.17324525194E+02  0.92177673329E+01  0.21843087417E+02  0.29363699966E+02  0.00000000000E+00 0.  1.
</event>
<event>
 5    1  0.3186486E-003  0.9118800E+02  0.7818608E-02  0.1130116E+00
         25   -1    0    0    0    0  0.00000000000E+00  0.00000000000E+00  0.99999998245E-14  0.12500000000E+03  0.12500000000E+03 0.  0.
        -11    1    3    3    0    0  0.90425147253E+01 -0.41279247529E+02  0.22974308159E+02  0.48099502957E+02  0.51100000000E-03 0. -1.
         23    2    1    0    0    0  0.34631963367E+01  0.66550430311E+01  0.27429895569E+02  0.96562656637E+02  0.92280356302E+02 0.  0.
         11    1    3    3    0    0 -0.55793183885E+01  0.47934290560E+02  0.44555874098E+01  0.48463153680E+02  0.51100000000E-03 0.  1.
         22    1    1    0    0    0 -0.34631963367E+01 -0.66550430311E+01 -0.27429895569E+02  0.28437343363E+02  0.00000000000E+00 0. -1.
</event>
<event>
 5    1  0.3186486E-003  0.9118800E+02  0.7818608E-02  0.1130116E+00
         25   -1    0    0    0    0  0.00000000000E+00  0.00000000000E+00  0.99999998245E-14  0.12500000000E+03  0.12500000000E+03 0.  0.
        -11    1    3    3    0    0 -0.22722324926E+02  0.17379689448E+02 -0.54696698812E+02  0.61725898265E+02  0.51100000000E-03 0.  1.
         23    2    1    0    0    0 -0.65673234516E+01  0.24277339245E+01 -0.27012582060E+02  0.97094745676E+02  0.92998314066E+02 0.  0.
         11    1    3    3    0    0  0.16155001475E+02 -0.14951955523E+02  0.27684116753E+02  0.35368847412E+02  0.51100000000E-03 0. -1.
         22    1    1    0    0    0  0.65673234516E+01 -0.24277339245E+01  0.27012582060E+02  0.27905254324E+02  0.00000000000E+00 0.  1.
</event>
<event>
 5    1  0.3186486E-003  0.9118800E+02  0.7818608E-02  0.1130116E+00
         25   -1    0    0    0    0  0.00000000000E+00  0.00000000000E+00  0.99999998245E-14  0.12500000000E+03  0.12500000000E+03 0.  0.
        -11    1    3    3    0    0  0.46800565978E+01 -0.28228050750E+02  0.28868294487E+02  0.40646084753E+02  0.51100000000E-03 0. -1.
         23    2    1    0    0    0 -0.13064235938E+02 -0.13506510537E+02 -0.21743384672E+02  0.96261961366E+02  0.91872141270E+02 0.  0.
         11    1    3    3    0    0 -0.17744292536E+02  0.14721540214E+02 -0.50611679159E+02  0.55615876613E+02  0.51100000000E-03 0.  1.
         22    1    1    0    0    0  0.13064235938E+02  0.13506510537E+02  0.21743384672E+02  0.28738038634E+02  0.00000000000E+00 0.  1.
</event>
<event>
 5    1  0.3186486E-003  0.9118800E+02  0.7818608E-02  0.1130116E+00
         25   -1    0    0    0    0  0.00000000000E+00  0.00000000000E+00  0.99999998245E-14  0.12500000000E+03  0.12500000000E+03 0.  0.
        -11    1    3    3    0    0  0.11195154376E+02 -0.30533300335E+02 -0.15014880349E+00  0.32521323094E+02  0.51100000000E-03 0. -1.
         23    2    1    0    0    0 -0.16279757500E+02  0.25394441115E+02 -0.32614253936E+00  0.94833553196E+02  0.89907665408E+02 0.  0.
         11    1    3    3    0    0 -0.27474911876E+02  0.55927741450E+02 -0.17599373588E+00  0.62312230103E+02  0.51100000000E-03 0.  1.
         22    1    1    0    0    0  0.16279757500E+02 -0.25394441115E+02  0.32614253936E+00  0.30166446804E+02  0.00000000000E+00 0.  1.
</event>
<event>
 5    1  0.3186486E-003  0.9118800E+02  0.7818608E-02  0.1130116E+00
         25   -1    0    0    0    0  0.00000000000E+00  0.00000000000E+00  0.99999998245E-14  0.12500000000E+03  0.12500000000E+03 0.  0.
        -11    1    3    3    0    0  0.32720983387E+02 -0.13810367031E+01  0.25252254971E+01  0.32847325314E+02  0.51100000000E-03 0. -1.
         23    2    1    0    0    0 -0.28681444570E+02 -0.94254861431E+01  0.96199041404E+00  0.94794197955E+02  0.89852932555E+02 0.  0.
         11    1    3    3    0    0 -0.61402427957E+02 -0.80444494400E+01 -0.15632350831E+01  0.61946872641E+02  0.51100000000E-03 0.  1.
         22    1    1    0    0    0  0.28681444570E+02  0.94254861431E+01 -0.96199041404E+00  0.30205802045E+02  0.00000000000E+00 0.  1.
</event>
<event>
 5    1  0.3186486E-003  0.9118800E+02  0.7818608E-02  0.1130116E+00
         25   -1    0    0    0    0  0.00000000000E+00  0.00000000000E+00  0.99999998245E-14  0.12500000000E+03  0.12500000000E+03 0.  0.
        -11    1    3    3    0    0  0.24342601059E+02 -0.31014473328E+02 -0.58293639616E+01  0.39855253940E+02  0.51100000000E-03 0.  1.
         23    2    1    0    0    0 -0.27143892487E+02 -0.81226544758E+01 -0.51321904939E+01  0.96205768037E+02  0.91795653543E+02 0.  0.
         11    1    3    3    0    0 -0.51486493545E+02  0.22891818852E+02  0.69717346763E+00  0.56350514098E+02  0.51100000000E-03 0. -1.
         22    1    1    0    0    0  0.27143892487E+02  0.81226544758E+01  0.51321904939E+01  0.28794231963E+02  0.00000000000E+00 0. -1.
</event>
<event>
 5    1  0.3186486E-003  0.9118800E+02  0.7818608E-02  0.1130116E+00
         25   -1    0    0    0    0  0.00000000000E+00  0.00000000000E+00  0.99999998245E-14  0.12500000000E+03  0.12500000000E+03 0.  0.
        -11    1    3    3    0    0  0.44198476377E+02 -0.98890919182E+01  0.70038818394E+01  0.45829617216E+02  0.51100000000E-03 0. -1.
         23    2    1    0    0    0  0.18869992985E+01 -0.25397067048E+02 -0.14427499414E+02  0.95730143144E+02  0.91145684407E+02 0.  0.
         11    1    3    3    0    0 -0.42311477079E+02 -0.15507975130E+02 -0.21431381254E+02  0.49900525929E+02  0.51100000000E-03 0.  1.
         22    1    1    0    0    0 -0.18869992985E+01  0.25397067048E+02  0.14427499414E+02  0.29269856856E+02  0.00000000000E+00 0. -1.
</event>
<event>
 5    1  0.3186486E-003  0.9118800E+02  0.7818608E-02  0.1130116E+00
         25   -1    0    0    0    0  0.00000000000E+00  0.00000000000E+00  0.99999998245E-14  0.12500000000E+03  0.12500000000E+03 0.  0.
        -11    1    3    3    0    0 -0.31863104726E+02 -0.46442705299E+01  0.25335855976E+02  0.40972335665E+02  0.51100000000E-03 0.  1.
         23    2    1    0    0    0  0.17419202192E+02 -0.21826502364E+02  0.88262009425E+01  0.95713029629E+02  0.91122211382E+02 0.  0.
         11    1    3    3    0    0  0.49282306918E+02 -0.17182231834E+02 -0.16509655034E+02  0.54740693963E+02  0.51100000000E-03 0. -1.
         22    1    1    0    0    0 -0.17419202192E+02  0.21826502364E+02 -0.88262009425E+01  0.29286970371E+02  0.00000000000E+00 0. -1.
</event>
<event>
 5    1  0.3186486E-003  0.9118800E+02  0.7818608E-02  0.1130116E+00
         25   -1    0    0    0    0  0.00000000000E+00  0.00000000000E+00  0.99999998245E-14  0.12500000000E+03  0.12500000000E+03 0.  0.
        -11    1    3    3    0    0 -0.13674721199E+02  0.74106715093E+01  0.53257524708E+01  0.16440185271E+02  0.51100000000E-03 0. -1.
         23    2    1    0    0    0 -0.19933713699E+01 -0.12232750006E+01 -0.50663250856E+02  0.74282794651E+02  0.54274290992E+02 0.  0.
         11    1    3    3    0    0  0.11681349829E+02 -0.86339465099E+01 -0.55989003327E+02  0.57842609380E+02  0.51100000000E-03 0.  1.
         22    1    1    0    0    0  0.19933713699E+01  0.12232750006E+01  0.50663250856E+02  0.50717205349E+02  0.00000000000E+00 0.  1.
</event>
<event>
 5    1  0.3186486E-003  0.9118800E+02  0.7818608E-02  0.1130116E+00
         25   -1    0    0    0    0  0.00000000000E+00  0.00000000000E+00  0.99999998245E-14  0.12500000000E+03  0.12500000000E+03 0.  0.
        -11    1    3    3    0    0  0.19321327645E+02 -0.27507991797E+02 -0.49192936825E+01  0.33973559797E+02  0.51100000000E-03 0.  1.
         23    2    1    0    0    0 -0.14621981425E+02  0.21638890738E+02  0.12296138535E+02  0.96134121250E+02  0.91698038760E+02 0.  0.
         11    1    3    3    0    0 -0.33943309069E+02  0.49146882535E+02  0.17215432218E+02  0.62160561453E+02  0.51100000000E-03 0. -1.
         22    1    1    0    0    0  0.14621981425E+02 -0.21638890738E+02 -0.12296138535E+02  0.28865878750E+02  0.00000000000E+00 0. -1.
</event>
<event>
 5    1  0.3186486E-003  0.9118800E+02  0.7818608E-02  0.1130116E+00
         25   -1    0    0    0    0  0.00000000000E+00  0.00000000000E+00  0.99999998245E-14  0.12500000000E+03  0.12500000000E+03 0.  0.
        -11    1    3    3    0    0 -0.10382819322E+02 -0.29291884314E+02 -0.43267294178E+02  0.53271720167E+02  0.51100000000E-03 0. -1.
         23    2    1    0    0    0  0.25233122580E+01  0.20787623462E+01 -0.37108164855E+02  0.87748097276E+02  0.79448249313E+02 0.  0.
         11    1    3    3    0    0  0.12906131580E+02  0.31370646660E+02  0.61591293230E+01  0.34476377109E+02  0.51100000000E-03 0.  1.
         22    1    1    0    0    0 -0.25233122580E+01 -0.20787623462E+01  0.37108164855E+02  0.37251902724E+02  0.00000000000E+00 0. -1.
</event>
<event>
 5    1  0.3186486E-003  0.9118800E+02  0.7818608E-02  0.1130116E+00
         25   -1    0    0    0    0  0.00000000000E+00  0.00000000000E+00  0.99999998245E-14  0.12500000000E+03  0.12500000000E+03 0.  0.
        -11    1    3    3    0    0  0.14521193717E+02 -0.51237888847E+02 -0.27233961986E+02  0.59815340893E+02  0.51100000000E-03 0. -1.
         23    2    1    0    0    0  0.39585372632E+01 -0.17578951422E+02 -0.23640418428E+02  0.95275280762E+02  0.90519722660E+02 0.  0.
         11    1    3    3    0    0 -0.10562656454E+02  0.33658937425E+02  0.35935435589E+01  0.35459939869E+02  0.51100000000E-03 0.  1.
         22    1    1    0    0    0 -0.39585372632E+01  0.17578951422E+02  0.23640418428E+02  0.29724719238E+02  0.00000000000E+00 0. -1.
</event>
<event>
 5    1  0.3186486E-003  0.9118800E+02  0.7818608E-02  0.1130116E+00
         25   -1    0    0    0    0  0.00000000000E+00  0.00000000000E+00  0.99999998245E-14  0.12500000000E+03  0.12500000000E+03 0.  0.
        -11    1    3    3    0    0 -0.43129014305E+02 -0.38727091011E+02 -0.47297012187E+01  0.58157282665E+02  0.51100000000E-03 0.  1.
         23    2    1    0    0    0 -0.10321253328E+02 -0.25949243250E+02  0.85612068786E+01  0.95790656312E+02  0.91228636282E+02 0.  0.
         11    1    3    3    0    0  0.32807760977E+02  0.12777847761E+02  0.13290908097E+02  0.37633373647E+02  0.51100000000E-03 0. -1.
         22    1    1    0    0    0  0.10321253328E+02  0.25949243250E+02 -0.85612068786E+01  0.29209343688E+02  0.00000000000E+00 0.  1.
</event>
<event>
 5    1  0.3186486E-003  0.9118800E+02  0.7818608E-02  0.1130116E+00
         25   -1    0    0    0    0  0.00000000000E+00  0.00000000000E+00  0.99999998245E-14  0.12500000000E+03  0.12500000000E+03 0.  0.
        -11    1    3    3    0    0 -0.44608080405E+02 -0.10049045676E+02  0.31092840974E+02  0.55295830914E+02  0.51100000000E-03 0.  1.
         23    2    1    0    0    0 -0.26596671224E+02  0.15634634817E+02  0.12894419293E+02  0.91562135610E+02  0.85238101237E+02 0.  0.
         11    1    3    3    0    0  0.18011409181E+02  0.25683680493E+02 -0.18198421681E+02  0.36266304696E+02  0.51100000000E-03 0. -1.
         22    1    1    0    0    0  0.26596671224E+02 -0.15634634817E+02 -0.12894419293E+02  0.33437864390E+02  0.00000000000E+00 0.  1.
</event>
<event>
 5    1  0.3186486E-003  0.9118800E+02  0.7818608E-02  0.1130116E+00
         25   -1    0    0    0    0  0.00000000000E+00  0.00000000000E+00  0.99999998245E-14  0.12500000000E+03  0.12500000000E+03 0.  0.
        -11    1    3    3    0    0  0.28367234118E+02 -0.16522194408E+02  0.25867451131E+02  0.41794831114E+02  0.51100000000E-03 0. -1.
         23    2    1    0    0    0  0.79253188512E+01 -0.12909170378E+02 -0.24456590267E+02  0.96232272139E+02  0.91831737623E+02 0.  0.
         11    1    3    3    0    0 -0.20441915267E+02  0.36130240296E+01 -0.50324041399E+02  0.54437441025E+02  0.51100000000E-03 0.  1.
         22    1    1    0    0    0 -0.79253188512E+01  0.12909170378E+02  0.24456590267E+02  0.28767727861E+02  0.00000000000E+00 0. -1.
</event>
<event>
 5    1  0.3186486E-003  0.9118800E+02  0.7818608E-02  0.1130116E+00
         25   -1    0    0    0    0  0.00000000000E+00  0.00000000000E+00  0.99999998245E-14  0.12500000000E+03  0.12500000000E+03 0.  0.
        -11    1    3    3    0    0  0.11850649305E+02  0.32006304978E+02  0.15175897454E+01  0.34163496984E+02  0.51100000000E-03 0.  1.
         23    2    1    0    0    0 -0.80164241931E+01 -0.19745512915E+02 -0.21991687497E+02  0.94376762809E+02  0.89270323749E+02 0.  0.
         11    1    3    3    0    0 -0.19867073499E+02 -0.51751817892E+02 -0.23509277243E+02  0.60213265825E+02  0.51100000000E-03 0. -1.
         22    1    1    0    0    0  0.80164241931E+01  0.19745512915E+02  0.21991687497E+02  0.30623237191E+02  0.00000000000E+00 0. -1.
</event>
<event>
 5    1  0.3186486E-003  0.9118800E+02  0.7818608E-02  0.1130116E+00
         25   -1    0    0    0    0  0.00000000000E+00  0.00000000000E+00  0.99999998245E-14  0.12500000000E+03  0.12500000000E+03 0.  0.
        -11    1    3    3    0    0  0.10075035802E+02  0.64832026108E+01 -0.32801462791E+02  0.34920971120E+02  0.51100000000E-03 0. -1.
         23    2    1    0    0    0 -0.73625284418E+01  0.55499124660E+01  0.26605980252E+02  0.96841758958E+02  0.92657648035E+02 0.  0.
         11    1    3    3    0    0 -0.17437564244E+02 -0.93329014475E+00  0.59407443043E+02  0.61920787837E+02  0.51100000000E-03 0.  1.
         22    1    1    0    0    0  0.73625284418E+01 -0.55499124660E+01 -0.26605980252E+02  0.28158241042E+02  0.00000000000E+00 0.  1.
</event>
<event>
 5    1  0.3186486E-003  0.9118800E+02  0.7818608E-02  0.1130116E+00
         25   -1    0    0    0    0  0.00000000000E+00  0.00000000000E+00  0.99999998245E-14  0.12500000000E+03  0.12500000000E+03 0.  0.
        -11    1    3    3    0    0  0.36302368818E+02  0.16611356374E+02 -0.30571623931E+02  0.50283429999E+02  0.51100000000E-03 0. -1.
         23    2    1    0    0    0  0.10218794883E+02 -0.16916062982E+02 -0.25009023514E+02  0.93124802545E+02  0.87499717921E+02 0.  0.
         11    1    3    3    0    0 -0.26083573935E+02 -0.33527419356E+02  0.55626004174E+01  0.42841372546E+02  0.51100000000E-03 0.  1.
         22    1    1    0    0    0 -0.10218794883E+02  0.16916062982E+02  0.25009023514E+02  0.31875197455E+02  0.00000000000E+00 0. -1.
</event>
<event>
 5    1  0.3186486E-003  0.9118800E+02  0.7818608E-02  0.1130116E+00
         25   -1    0    0    0    0  0.00000000000E+00  0.00000000000E+00  0.99999998245E-14  0.12500000000E+03  0.12500000000E+03 0.  0.
        -11    1    3    3    0    0  0.23082075684E+02  0.42913986493E+02  0.17817581901E+02  0.51883125191E+02  0.51100000000E-03 0.  1.
         23    2    1    0    0    0  0.29358684010E+02  0.21450739797E+01  0.45506198928E+01  0.95213395451E+02  0.90434223957E+02 0.  0.
         11    1    3    3    0    0  0.62766083262E+01 -0.40768912513E+02 -0.13266962008E+02  0.43330270259E+02  0.51100000000E-03 0. -1.
         22    1    1    0    0    0 -0.29358684010E+02 -0.21450739797E+01 -0.45506198928E+01  0.29786604549E+02  0.00000000000E+00 0.  1.
</event>
<event>
 5    1  0.3186486E-003  0.9118800E+02  0.7818608E-02  0.1130116E+00
         25   -1    0    0    0    0  0.00000000000E+00  0.00000000000E+00  0.99999998245E-14  0.12500000000E+03  0.12500000000E+03 0.  0.
        -11    1    3    3    0    0 -0.52553714488E+01  0.16675189929E+02  0.31977855717E+02  0.36445358343E+02  0.51100000000E-03 0.  1.
         23    2    1    0    0    0 -0.67774118182E+01 -0.28644436974E+02 -0.52319898144E+01  0.95103331324E+02  0.90281962932E+02 0.  0.
         11    1    3    3    0    0 -0.15220403694E+01 -0.45319626903E+02 -0.37209845531E+02  0.58657972981E+02  0.51100000000E-03 0. -1.
         22    1    1    0    0    0  0.67774118182E+01  0.28644436974E+02  0.52319898144E+01  0.29896668676E+02  0.00000000000E+00 0. -1.
</event>
<event>
 5    1  0.3186486E-003  0.9118800E+02  0.7818608E-02  0.1130116E+00
         25   -1    0    0    0    0  0.00000000000E+00  0.00000000000E+00  0.99999998245E-14  0.12500000000E+03  0.12500000000E+03 0.  0.
        -11    1    3    3    0    0 -0.56801898226E+01  0.11497723041E+02  0.44810020202E+02  0.46609013102E+02  0.51100000000E-03 0.  1.
         23    2    1    0    0    0 -0.27566134880E+02 -0.12851936962E+02  0.29035438893E+02  0.82950971621E+02  0.71503446807E+02 0.  0.
         11    1    3    3    0    0 -0.21885945057E+02 -0.24349660003E+02 -0.15774581309E+02  0.36341958519E+02  0.51100000000E-03 0. -1.
         22    1    1    0    0    0  0.27566134880E+02  0.12851936962E+02 -0.29035438893E+02  0.42049028379E+02  0.00000000000E+00 0.  1.
</event>
<event>
 5    1  0.3186486E-003  0.9118800E+02  0.7818608E-02  0.1130116E+00
         25   -1    0    0    0    0  0.00000000000E+00  0.00000000000E+00  0.99999998245E-14  0.12500000000E+03  0.12500000000E+03 0.  0.
        -11    1    3    3    0    0 -0.35708554027E+02  0.25915194836E+01 -0.45874265356E+01  0.36095169849E+02  0.51100000000E-03 0.  1.
         23    2    1    0    0    0  0.16263648373E+02 -0.17330951732E+02 -0.20096642177E+02  0.93875360674E+02  0.88565456971E+02 0.  0.
         11    1    3    3    0    0  0.51972202400E+02 -0.19922471216E+02 -0.15509215642E+02  0.57780190825E+02  0.51100000000E-03 0. -1.
         22    1    1    0    0    0 -0.16263648373E+02  0.17330951732E+02  0.20096642177E+02  0.31124639326E+02  0.00000000000E+00 0. -1.
</event>
<event>
 5    1  0.3186486E-003  0.9118800E+02  0.7818608E-02  0.1130116E+00
         25   -1    0    0    0    0  0.00000000000E+00  0.00000000000E+00  0.99999998245E-14  0.12500000000E+03  0.12500000000E+03 0.  0.
        -11    1    3    3    0    0  0.50519862521E+02  0.12483212407E+02 -0.13722260750E+02  0.53818096784E+02  0.51100000000E-03 0.  1.
         23    2    1    0    0    0  0.12354005311E+02 -0.68093530358E+01 -0.23411696368E+02  0.97666938284E+02  0.93764249962E+02 0.  0.
         11    1    3    3    0    0 -0.38165857210E+02 -0.19292565443E+02 -0.96894356177E+01  0.43848841499E+02  0.51100000000E-03 0. -1.
         22    1    1    0    0    0 -0.12354005311E+02  0.68093530358E+01  0.23411696368E+02  0.27333061716E+02  0.00000000000E+00 0.  1.
</event>
<event>
 5    1  0.3186486E-003  0.9118800E+02  0.7818608E-02  0.1130116E+00
         25   -1    0    0    0    0  0.00000000000E+00  0.00000000000E+00  0.99999998245E-14  0.12500000000E+03  0.12500000000E+03 0.  0.
        -11    1    3    3    0    0  0.11230699510E+02 -0.16407547937E+02  0.29414252132E+02  0.35504006387E+02  0.51100000000E-03 0. -1.
         23    2    1    0    0    0  0.35812462503E+01 -0.49166783174E+01 -0.28918941892E+02  0.95448278383E+02  0.90758303178E+02 0.  0.
         11    1    3    3    0    0 -0.76494532600E+01  0.11490869619E+02 -0.58333194024E+02  0.59944271996E+02  0.51100000000E-03 0.  1.
         22    1    1    0    0    0 -0.35812462503E+01  0.49166783174E+01  0.28918941892E+02  0.29551721617E+02  0.00000000000E+00 0.  1.
</event>
<event>
 5    1  0.3186486E-003  0.9118800E+02  0.7818608E-02  0.1130116E+00
         25   -1    0    0    0    0  0.00000000000E+00  0.00000000000E+00  0.99999998245E-14  0.12500000000E+03  0.12500000000E+03 0.  0.
        -11    1    3    3    0    0  0.13711703213E+02 -0.51869148806E+02 -0.24273667467E+02  0.58886588757E+02  0.51100000000E-03 0. -1.
         23    2    1    0    0    0  0.57533671859E+01 -0.15902133842E+02 -0.23895991702E+02  0.95725480122E+02  0.91139289170E+02 0.  0.
         11    1    3    3    0    0 -0.79583360269E+01  0.35967014964E+02  0.37767576491E+00  0.36838891365E+02  0.51100000000E-03 0.  1.
         22    1    1    0    0    0 -0.57533671859E+01  0.15902133842E+02  0.23895991702E+02  0.29274519878E+02  0.00000000000E+00 0. -1.
</event>
<event>
 5    1  0.3186486E-003  0.9118800E+02  0.7818608E-02  0.1130116E+00
         25   -1    0    0    0    0  0.00000000000E+00  0.00000000000E+00  0.99999998245E-14  0.12500000000E+03  0.12500000000E+03 0.  0.
        -11    1    3    3    0    0 -0.35017705405E+02 -0.38469278419E+02 -0.13280827756E+02  0.53688969631E+02  0.51100000000E-03 0.  1.
         23    2    1    0    0    0 -0.47122892380E+01 -0.60188715836E+01 -0.24374589064E+02  0.99454881542E+02  0.96118262497E+02 0.  0.
         11    1    3    3    0    0  0.30305416167E+02  0.32450406835E+02 -0.11093761308E+02  0.45765911911E+02  0.51100000000E-03 0. -1.
         22    1    1    0    0    0  0.47122892380E+01  0.60188715836E+01  0.24374589064E+02  0.25545118458E+02  0.00000000000E+00 0.  1.
</event>
<event>
 5    1  0.3186486E-003  0.9118800E+02  0.7818608E-02  0.1130116E+00
         25   -1    0    0    0    0  0.00000000000E+00  0.00000000000E+00  0.99999998245E-14  0.12500000000E+03  0.12500000000E+03 0.  0.
        -11    1    3    3    0    0 -0.10746639275E+02 -0.60290343321E+02 -0.23031853004E+01  0.61283932774E+02  0.51100000000E-03 0. -1.
         23    2    1    0    0    0 -0.50169079966E+01 -0.27194207699E+02  0.76358002488E+01  0.96312027892E+02  0.91940235876E+02 0.  0.
         11    1    3    3    0    0  0.57297312787E+01  0.33096135621E+02  0.99389855492E+01  0.35028095118E+02  0.51100000000E-03 0.  1.
         22    1    1    0    0    0  0.50169079966E+01  0.27194207699E+02 -0.76358002488E+01  0.28687972108E+02  0.00000000000E+00 0. -1.
</event>
<event>
 5    1  0.3186486E-003  0.9118800E+02  0.7818608E-02  0.1130116E+00
         25   -1    0    0    0    0  0.00000000000E+00  0.00000000000E+00  0.99999998245E-14  0.12500000000E+03  0.12500000000E+03 0.  0.
        -11    1    3    3    0    0 -0.41728608068E+02  0.18809322074E+02 -0.14027947443E+02  0.47873276867E+02  0.51100000000E-03 0.  1.
         23    2    1    0    0    0 -0.19785186922E+02 -0.20417632138E+02  0.39755017720E+01  0.96292197263E+02  0.91913270618E+02 0.  0.
         11    1    3    3    0    0  0.21943421147E+02 -0.39226954213E+02  0.18003449215E+02  0.48418920396E+02  0.51100000000E-03 0. -1.
         22    1    1    0    0    0  0.19785186922E+02  0.20417632138E+02 -0.39755017720E+01  0.28707802737E+02  0.00000000000E+00 0.  1.
</event>
<event>
 5    1  0.3186486E-003  0.9118800E+02  0.7818608E-02  0.1130116E+00
         25   -1    0    0    0    0  0.00000000000E+00  0.00000000000E+00  0.99999998245E-14  0.12500000000E+03  0.12500000000E+03 0.  0.
        -11    1    3    3    0    0 -0.22113407884E+02 -0.21041687453E+02 -0.14045923217E+02  0.33601240727E+02  0.51100000000E-03 0.  1.
         23    2    1    0    0    0  0.24586280757E+02  0.11137481210E+02  0.11323279958E+02  0.95729787186E+02  0.91145196233E+02 0.  0.
         11    1    3    3    0    0  0.46699688641E+02  0.32179168663E+02  0.25369203175E+02  0.62128546459E+02  0.51100000000E-03 0. -1.
         22    1    1    0    0    0 -0.24586280757E+02 -0.11137481210E+02 -0.11323279958E+02  0.29270212814E+02  0.00000000000E+00 0. -1.
</event>
<event>
 5    1  0.3186486E-003  0.9118800E+02  0.7818608E-02  0.1130116E+00
         25   -1    0    0    0    0  0.00000000000E+00  0.00000000000E+00  0.99999998245E-14  0.12500000000E+03  0.12500000000E+03 0.  0.
        -11    1    3    3    0    0  0.18168574528E+02  0.17254710126E+02  0.23369490221E+02  0.34263029571E+02  0.51100000000E-03 0.  1.
         23    2    1    0    0    0 -0.22706737003E+02 -0.96532483956E+01 -0.14713738040E+02  0.96272396602E+02  0.91886338214E+02 0.  0.
         11    1    3    3    0    0 -0.40875311531E+02 -0.26907958521E+02 -0.38083228261E+02  0.62009367031E+02  0.51100000000E-03 0. -1.
         22    1    1    0    0    0  0.22706737003E+02  0.96532483956E+01  0.14713738040E+02  0.28727603398E+02  0.00000000000E+00 0. -1.
</event>
<event>
 5    1  0.3186486E-003  0.9118800E+02  0.7818608E-02  0.1130116E+00
         25   -1    0    0    0    0  0.00000000000E+00  0.00000000000E+00  0.99999998245E-14  0.12500000000E+03  0.12500000000E+03 0.  0.
        -11    1    3    3    0    0  0.42092330786E+02 -0.30100281584E+02 -0.18199037817E+02  0.54854318337E+02  0.51100000000E-03 0. -1.
         23    2    1    0    0    0  0.28482983063E+02  0.60431015581E+01 -0.82862099118E+01  0.94726898485E+02  0.89759259251E+02 0.  0.
         11    1    3    3    0    0 -0.13609347723E+02  0.36143383142E+02  0.99128279052E+01  0.39872580149E+02  0.51100000000E-03 0.  1.
         22    1    1    0    0    0 -0.28482983063E+02 -0.60431015581E+01  0.82862099118E+01  0.30273101515E+02  0.00000000000E+00 0.  1.
</event>
<event>
 5    1  0.3186486E-003  0.9118800E+02  0.7818608E-02  0.1130116E+00
         25   -1    0    0    0    0  0.00000000000E+00  0.00000000000E+00  0.99999998245E-14  0.12500000000E+03  0.12500000000E+03 0.  0.
        -11    1    3    3    0    0 -0.10619662516E+02  0.23480515052E+02  0.36867030134E+02  0.44980992988E+02  0.51100000000E-03 0.  1.
         23    2    1    0    0    0 -0.16791490541E+02 -0.12676324148E+02 -0.76056014624E+01  0.10262839921E+03  0.10016037041E+03 0.  0.
         11    1    3    3    0    0 -0.61718280251E+01 -0.36156839201E+02 -0.44472631596E+02  0.57647406217E+02  0.51100000000E-03 0. -1.
         22    1    1    0    0    0  0.16791490541E+02  0.12676324148E+02  0.76056014624E+01  0.22371600795E+02  0.00000000000E+00 0. -1.
</event>
<event>
 5    1  0.3186486E-003  0.9118800E+02  0.7818608E-02  0.1130116E+00
         25   -1    0    0    0    0  0.00000000000E+00  0.00000000000E+00  0.99999998245E-14  0.12500000000E+03  0.12500000000E+03 0.  0.
        -11    1    3    3    0    0  0.26710737509E+01 -0.55064080514E+02 -0.28786400363E+02  0.62191996624E+02  0.51100000000E-03 0. -1.
         23    2    1    0    0    0  0.56102749694E+01 -0.26287742647E+02 -0.14640989995E+02  0.94391517732E+02  0.89290981812E+02 0.  0.
         11    1    3    3    0    0  0.29392012185E+01  0.28776337868E+02  0.14145410368E+02  0.32199521108E+02  0.51100000000E-03 0.  1.
         22    1    1    0    0    0 -0.56102749694E+01  0.26287742647E+02  0.14640989995E+02  0.30608482268E+02  0.00000000000E+00 0. -1.
</event>
<event>
 5    1  0.3186486E-003  0.9118800E+02  0.7818608E-02  0.1130116E+00
         25   -1    0    0    0    0  0.00000000000E+00  0.00000000000E+00  0.99999998245E-14  0.12500000000E+03  0.12500000000E+03 0.  0.
        -11    1    3    3    0    0  0.53686409518E+02 -0.73227715759E+01  0.24849124736E+02  0.59609836025E+02  0.51100000000E-03 0.  1.
         23    2    1    0    0    0  0.37119722383E+02  0.70629741106E+01  0.10658741154E+02  0.85739738207E+02  0.76222926680E+02 0.  0.
         11    1    3    3    0    0 -0.16566687135E+02  0.14385745686E+02 -0.14190383582E+02  0.26129902182E+02  0.51100000000E-03 0. -1.
         22    1    1    0    0    0 -0.37119722383E+02 -0.70629741106E+01 -0.10658741154E+02  0.39260261793E+02  0.00000000000E+00 0.  1.
</event>
<event>
 5    1  0.3186486E-003  0.9118800E+02  0.7818608E-02  0.1130116E+00
         25   -1    0    0    0    0  0.00000000000E+00  0.00000000000E+00  0.99999998245E-14  0.12500000000E+03  0.12500000000E+03 0.  0.
        -11    1    3    3    0    0 -0.37294774537E+02 -0.41056476083E+02  0.13220136924E+02  0.57020228487E+02  0.51100000000E-03 0. -1.
         23    2    1    0    0    0 -0.26720357468E+02 -0.13448469504E+02 -0.87259909880E+01  0.93839419871E+02  0.88514716109E+02 0.  0.
         11    1    3    3    0    0  0.10574417068E+02  0.27608006579E+02 -0.21946127912E+02  0.36819191385E+02  0.51100000000E-03 0.  1.
         22    1    1    0    0    0  0.26720357468E+02  0.13448469504E+02  0.87259909880E+01  0.31160580129E+02  0.00000000000E+00 0. -1.
</event>
<event>
 5    1  0.3186486E-003  0.9118800E+02  0.7818608E-02  0.1130116E+00
         25   -1    0    0    0    0  0.00000000000E+00  0.00000000000E+00  0.99999998245E-14  0.12500000000E+03  0.12500000000E+03 0.  0.
        -11    1    3    3    0    0 -0.10181965271E+01 -0.53126341422E+02 -0.28217648985E+02  0.60163781393E+02  0.51100000000E-03 0. -1.
         23    2    1    0    0    0 -0.10018633978E+02 -0.20245453351E+02 -0.19011967717E+02  0.95475326849E+02  0.90795548968E+02 0.  0.
         11    1    3    3    0    0 -0.90004374514E+01  0.32880888071E+02  0.92056812684E+01  0.35311545456E+02  0.51100000000E-03 0.  1.
         22    1    1    0    0    0  0.10018633978E+02  0.20245453351E+02  0.19011967717E+02  0.29524673151E+02  0.00000000000E+00 0. -1.
</event>
<event>
 5    1  0.3186486E-003  0.9118800E+02  0.7818608E-02  0.1130116E+00
         25   -1    0    0    0    0  0.00000000000E+00  0.00000000000E+00  0.99999998245E-14  0.12500000000E+03  0.12500000000E+03 0.  0.
        -11    1    3    3    0    0  0.37852669277E+00  0.27797105011E+02  0.30789670740E+02  0.41482841682E+02  0.51100000000E-03 0.  1.
         23    2    1    0    0    0  0.19819100213E+02 -0.17652260483E+02  0.27418375032E+01  0.98318232699E+02  0.94628527278E+02 0.  0.
         11    1    3    3    0    0  0.19440573520E+02 -0.45449365494E+02 -0.28047833237E+02  0.56835391018E+02  0.51100000000E-03 0. -1.
         22    1    1    0    0    0 -0.19819100213E+02  0.17652260483E+02 -0.27418375032E+01  0.26681767301E+02  0.00000000000E+00 0. -1.
</event>
<event>
 5    1  0.3186486E-003  0.9118800E+02  0.7818608E-02  0.1130116E+00
         25   -1    0    0    0    0  0.00000000000E+00  0.00000000000E+00  0.99999998245E-14  0.12500000000E+03  0.12500000000E+03 0.  0.
        -11    1    3    3    0    0 -0.27770849956E+02  0.39995182052E+02 -0.34756721781E+02  0.59823610756E+02  0.51100000000E-03 0.  1.
         23    2    1    0    0    0 -0.21895590884E+02  0.17304079820E+02 -0.68579190464E+01  0.96261887114E+02  0.91872040243E+02 0.  0.
         11    1    3    3    0    0  0.58752590718E+01 -0.22691102232E+02  0.27898802735E+02  0.36438276358E+02  0.51100000000E-03 0. -1.
         22    1    1    0    0    0  0.21895590884E+02 -0.17304079820E+02  0.68579190464E+01  0.28738112886E+02  0.00000000000E+00 0.  1.
</event>
<event>
 5    1  0.3186486E-003  0.9118800E+02  0.7818608E-02  0.1130116E+00
         25   -1    0    0    0    0  0.00000000000E+00  0.00000000000E+00  0.99999998245E-14  0.12500000000E+03  0.12500000000E+03 0.  0.
        -11    1    3    3    0    0  0.19261964467E+02 -0.58960864969E+02 -0.37546435901E+01  0.62141002742E+02  0.51100000000E-03 0.  1.
         23    2    1    0    0    0  0.57028422520E+01 -0.28356659736E+02 -0.50433305478E+01  0.95639180118E+02  0.91020849422E+02 0.  0.
         11    1    3    3    0    0 -0.13559122215E+02  0.30604205233E+02 -0.12886869577E+01  0.33498177376E+02  0.51100000000E-03 0. -1.
         22    1    1    0    0    0 -0.57028422520E+01  0.28356659736E+02  0.50433305478E+01  0.29360819882E+02  0.00000000000E+00 0.  1.
</event>
<event>
 5    1  0.3186486E-003  0.9118800E+02  0.7818608E-02  0.1130116E+00
         25   -1    0    0    0    0  0.00000000000E+00  0.00000000000E+00  0.99999998245E-14  0.12500000000E+03  0.12500000000E+03 0.  0.
        -11    1    3    3    0    0 -0.36771264326E+02  0.24429445387E+02  0.59156751960E+01  0.44541204467E+02  0.51100000000E-03 0.  1.
         23    2    1    0    0    0  0.30289835139E+01 -0.83811450874E+00  0.28157218937E+02  0.96667930620E+02  0.92422847041E+02 0.  0.
         11    1    3    3    0    0  0.39800247840E+02 -0.25267559896E+02  0.22241543741E+02  0.52126726153E+02  0.51100000000E-03 0. -1.
         22    1    1    0    0    0 -0.30289835139E+01  0.83811450874E+00 -0.28157218937E+02  0.28332069380E+02  0.00000000000E+00 0. -1.
</event>
<event>
 5    1  0.3186486E-003  0.9118800E+02  0.7818608E-02  0.1130116E+00
         25   -1    0    0    0    0  0.00000000000E+00  0.00000000000E+00  0.99999998245E-14  0.12500000000E+03  0.12500000000E+03 0.  0.
        -11    1    3    3    0    0  0.20808829159E+02  0.31220504541E+00  0.35895230772E+02  0.41491835768E+02  0.51100000000E-03 0.  1.
         23    2    1    0    0    0  0.60935457199E+00  0.28954854281E+02 -0.52769933133E+01  0.95561902951E+02  0.90914661841E+02 0.  0.
         11    1    3    3    0    0 -0.20199474587E+02  0.28642649236E+02 -0.41172224085E+02  0.54070067183E+02  0.51100000000E-03 0. -1.
         22    1    1    0    0    0 -0.60935457199E+00 -0.28954854281E+02  0.52769933133E+01  0.29438097049E+02  0.00000000000E+00 0. -1.
</event>
<event>
 5    1  0.3186486E-003  0.9118800E+02  0.7818608E-02  0.1130116E+00
         25   -1    0    0    0    0  0.00000000000E+00  0.00000000000E+00  0.99999998245E-14  0.12500000000E+03  0.12500000000E+03 0.  0.
        -11    1    3    3    0    0 -0.28787264219E+01 -0.43804682347E+02 -0.44130151598E+02  0.62246345609E+02  0.51100000000E-03 0. -1.
         23    2    1    0    0    0  0.18834022803E+01 -0.16456679860E+02 -0.20033559023E+02  0.99005519753E+02  0.95532088527E+02 0.  0.
         11    1    3    3    0    0  0.47621287022E+01  0.27348002487E+02  0.24096592575E+02  0.36759174145E+02  0.51100000000E-03 0.  1.
         22    1    1    0    0    0 -0.18834022803E+01  0.16456679860E+02  0.20033559023E+02  0.25994480247E+02  0.00000000000E+00 0. -1.
</event>
<event>
 5    1  0.3186486E-003  0.9118800E+02  0.7818608E-02  0.1130116E+00
         25   -1    0    0    0    0  0.00000000000E+00  0.00000000000E+00  0.99999998245E-14  0.12500000000E+03  0.12500000000E+03 0.  0.
        -11    1    3    3    0    0 -0.90429734395E+01 -0.17301765339E+02 -0.12662731675E+02  0.23269534293E+02  0.51100000000E-03 0.  1.
         23    2    1    0    0    0  0.35380866043E+02  0.14201090343E+02 -0.25386905758E+02  0.79196379697E+02  0.64607235851E+02 0.  0.
         11    1    3    3    0    0  0.44423839482E+02  0.31502855683E+02 -0.12724174083E+02  0.55926845404E+02  0.51100000000E-03 0. -1.
         22    1    1    0    0    0 -0.35380866043E+02 -0.14201090343E+02  0.25386905758E+02  0.45803620303E+02  0.00000000000E+00 0. -1.
</event>
<event>
 5    1  0.3186486E-003  0.9118800E+02  0.7818608E-02  0.1130116E+00
         25   -1    0    0    0    0  0.00000000000E+00  0.00000000000E+00  0.99999998245E-14  0.12500000000E+03  0.12500000000E+03 0.  0.
        -11    1    3    3    0    0 -0.50627457801E+02  0.31699613958E+02 -0.16695742711E+02  0.62022196297E+02  0.51100000000E-03 0.  1.
         23    2    1    0    0    0 -0.25196584275E+02  0.13243895492E+02 -0.13151594038E+02  0.93643452794E+02  0.88237538489E+02 0.  0.
         11    1    3    3    0    0  0.25430873526E+02 -0.18455718466E+02  0.35441486733E+01  0.31621256498E+02  0.51100000000E-03 0. -1.
         22    1    1    0    0    0  0.25196584275E+02 -0.13243895492E+02  0.13151594038E+02  0.31356547206E+02  0.00000000000E+00 0.  1.
</event>
<event>
 5    1  0.3186486E-003  0.9118800E+02  0.7818608E-02  0.1130116E+00
         25   -1    0    0    0    0  0.00000000000E+00  0.00000000000E+00  0.99999998245E-14  0.12500000000E+03  0.12500000000E+03 0.  0.
        -11    1    3    3    0    0  0.16263728638E+02 -0.29404238429E+01 -0.37533519026E+02  0.41011218128E+02  0.51100000000E-03 0. -1.
         23    2    1    0    0    0 -0.27875742915E+02  0.74376945647E+00 -0.34463840296E+01  0.96902174480E+02  0.92739115911E+02 0.  0.
         11    1    3    3    0    0 -0.44139471554E+02  0.36841932994E+01  0.34087134997E+02  0.55890956351E+02  0.51100000000E-03 0.  1.
         22    1    1    0    0    0  0.27875742915E+02 -0.74376945647E+00  0.34463840296E+01  0.28097825520E+02  0.00000000000E+00 0.  1.
</event>
<event>
 5    1  0.3186486E-003  0.9118800E+02  0.7818608E-02  0.1130116E+00
         25   -1    0    0    0    0  0.00000000000E+00  0.00000000000E+00  0.99999998245E-14  0.12500000000E+03  0.12500000000E+03 0.  0.
        -11    1    3    3    0    0  0.12920177853E+01 -0.45003050095E+02 -0.36304108907E+02  0.57835388402E+02  0.51100000000E-03 0.  1.
         23    2    1    0    0    0 -0.12166698622E+02 -0.12550823716E+02 -0.24511452471E+02  0.94894136226E+02  0.89991855501E+02 0.  0.
         11    1    3    3    0    0 -0.13458716407E+02  0.32452226379E+02  0.11792656435E+02  0.37058747825E+02  0.51100000000E-03 0. -1.
         22    1    1    0    0    0  0.12166698622E+02  0.12550823716E+02  0.24511452471E+02  0.30105863774E+02  0.00000000000E+00 0.  1.
</event>
<event>
 5    1  0.3186486E-003  0.9118800E+02  0.7818608E-02  0.1130116E+00
         25   -1    0    0    0    0  0.00000000000E+00  0.00000000000E+00  0.99999998245E-14  0.12500000000E+03  0.12500000000E+03 0.  0.
        -11    1    3    3    0    0 -0.13901370110E+02 -0.60158631759E+02 -0.69067314297E+01  0.62128994885E+02  0.51100000000E-03 0.  1.
         23    2    1    0    0    0 -0.19067617638E+01 -0.29607952799E+02 -0.33674576207E+01  0.95140221364E+02  0.90333024642E+02 0.  0.
         11    1    3    3    0    0  0.11994608346E+02  0.30550678960E+02  0.35392738090E+01  0.33011226480E+02  0.51100000000E-03 0. -1.
         22    1    1    0    0    0  0.19067617638E+01  0.29607952799E+02  0.33674576207E+01  0.29859778636E+02  0.00000000000E+00 0.  1.
</event>
<event>
 5    1  0.3186486E-003  0.9118800E+02  0.7818608E-02  0.1130116E+00
         25   -1    0    0    0    0  0.00000000000E+00  0.00000000000E+00  0.99999998245E-14  0.12500000000E+03  0.12500000000E+03 0.  0.
        -11    1    3    3    0    0  0.49153952649E+02 -0.30680423371E+02  0.25406735482E+01  0.57998745345E+02  0.51100000000E-03 0.  1.
         23    2    1    0    0    0  0.17377031381E+02 -0.25772577139E+02 -0.97526796593E+01  0.92422374050E+02  0.86490424398E+02 0.  0.
         11    1    3    3    0    0 -0.31776921267E+02  0.49078462324E+01 -0.12293353207E+02  0.34423628705E+02  0.51100000000E-03 0. -1.
         22    1    1    0    0    0 -0.17377031381E+02  0.25772577139E+02  0.97526796593E+01  0.32577625950E+02  0.00000000000E+00 0.  1.
</event>
<event>
 5    1  0.3186486E-003  0.9118800E+02  0.7818608E-02  0.1130116E+00
         25   -1    0    0    0    0  0.00000000000E+00  0.00000000000E+00  0.99999998245E-14  0.12500000000E+03  0.12500000000E+03 0.  0.
        -11    1    3    3    0    0 -0.24414109423E+02  0.39896147450E+01 -0.44449595677E+02  0.50869758411E+02  0.51100000000E-03 0. -1.
         23    2    1    0    0    0 -0.17612718249E+02  0.22888576164E+02 -0.42495184435E+01  0.95808337321E+02  0.91252859300E+02 0.  0.
         11    1    3    3    0    0  0.68013911736E+01  0.18898961419E+02  0.40200077233E+02  0.44938578910E+02  0.51100000000E-03 0.  1.
         22    1    1    0    0    0  0.17612718249E+02 -0.22888576164E+02  0.42495184435E+01  0.29191662679E+02  0.00000000000E+00 0.  1.
</event>
<event>
 5    1  0.3186486E-003  0.9118800E+02  0.7818608E-02  0.1130116E+00
         25   -1    0    0    0    0  0.00000000000E+00  0.00000000000E+00  0.99999998245E-14  0.12500000000E+03  0.12500000000E+03 0.  0.
        -11    1    3    3    0    0  0.71379949631E+01 -0.53050289266E+02  0.10190700718E+02  0.54489765504E+02  0.51100000000E-03 0.  1.
         23    2    1    0    0    0  0.21196514295E+01 -0.15999396764E+02  0.25442739818E+02  0.94870170455E+02  0.89958560536E+02 0.  0.
         11    1    3    3    0    0 -0.50183435337E+01  0.37050892502E+02  0.15252039100E+02  0.40380404951E+02  0.51100000000E-03 0. -1.
         22    1    1    0    0    0 -0.21196514295E+01  0.15999396764E+02 -0.25442739818E+02  0.30129829545E+02  0.00000000000E+00 0.  1.
</event>
<event>
 5    1  0.3186486E-003  0.9118800E+02  0.7818608E-02  0.1130116E+00
         25   -1    0    0    0    0  0.00000000000E+00  0.00000000000E+00  0.99999998245E-14  0.12500000000E+03  0.12500000000E+03 0.  0.
        -11    1    3    3    0    0  0.28628976275E+01  0.17721689374E+01 -0.25465652803E+02  0.25687277756E+02  0.51100000000E-03 0. -1.
         23    2    1    0    0    0  0.74559640016E+01 -0.10270138280E+02  0.35134897796E+02  0.87643231101E+02  0.79283086312E+02 0.  0.
         11    1    3    3    0    0  0.45930663741E+01 -0.12042307218E+02  0.60600550598E+02  0.61955953345E+02  0.51100000000E-03 0.  1.
         22    1    1    0    0    0 -0.74559640016E+01  0.10270138280E+02 -0.35134897796E+02  0.37356768899E+02  0.00000000000E+00 0.  1.
</event>
<event>
 5    1  0.3186486E-003  0.9118800E+02  0.7818608E-02  0.1130116E+00
         25   -1    0    0    0    0  0.00000000000E+00  0.00000000000E+00  0.99999998245E-14  0.12500000000E+03  0.12500000000E+03 0.  0.
        -11    1    3    3    0    0 -0.12944005333E+02 -0.43812803047E+02  0.57458072833E+01  0.46044796520E+02  0.51100000000E-03 0.  1.
         23    2    1    0    0    0  0.11621657692E+02 -0.78246604068E+01  0.27042330352E+02  0.94543869765E+02  0.89504007962E+02 0.  0.
         11    1    3    3    0    0  0.24565663026E+02  0.35988142641E+02  0.21296523069E+02  0.48499073246E+02  0.51100000000E-03 0. -1.
         22    1    1    0    0    0 -0.11621657692E+02  0.78246604068E+01 -0.27042330352E+02  0.30456130235E+02  0.00000000000E+00 0.  1.
</event>
<event>
 5    1  0.3186486E-003  0.9118800E+02  0.7818608E-02  0.1130116E+00
         25   -1    0    0    0    0  0.00000000000E+00  0.00000000000E+00  0.99999998245E-14  0.12500000000E+03  0.12500000000E+03 0.  0.
        -11    1    3    3    0    0 -0.22277943166E+02 -0.28163680882E+02  0.15041226924E+02  0.38932482328E+02  0.51100000000E-03 0.  1.
         23    2    1    0    0    0  0.25234527178E+02  0.61922586061E+01  0.24509094821E+01  0.98901486904E+02  0.95395868495E+02 0.  0.
         11    1    3    3    0    0  0.47512470344E+02  0.34355939488E+02 -0.12590317442E+02  0.59969004576E+02  0.51100000000E-03 0. -1.
         22    1    1    0    0    0 -0.25234527178E+02 -0.61922586061E+01 -0.24509094821E+01  0.26098513096E+02  0.00000000000E+00 0. -1.
</event>
<event>
 5    1  0.3186486E-003  0.9118800E+02  0.7818608E-02  0.1130116E+00
         25   -1    0    0    0    0  0.00000000000E+00  0.00000000000E+00  0.99999998245E-14  0.12500000000E+03  0.12500000000E+03 0.  0.
        -11    1    3    3    0    0  0.13236892222E+02 -0.44904699256E+02  0.19352115792E+02  0.50657198075E+02  0.51100000000E-03 0. -1.
         23    2    1    0    0    0 -0.12248480964E+02 -0.24595703934E+02 -0.11201157562E+02  0.95327792993E+02  0.90592208540E+02 0.  0.
         11    1    3    3    0    0 -0.25485373185E+02  0.20308995322E+02 -0.30553273354E+02  0.44670594918E+02  0.51100000000E-03 0.  1.
         22    1    1    0    0    0  0.12248480964E+02  0.24595703934E+02  0.11201157562E+02  0.29672207007E+02  0.00000000000E+00 0.  1.
</event>
<event>
 5    1  0.3186486E-003  0.9118800E+02  0.7818608E-02  0.1130116E+00
         25   -1    0    0    0    0  0.00000000000E+00  0.00000000000E+00  0.99999998245E-14  0.12500000000E+03  0.12500000000E+03 0.  0.
        -11    1    3    3    0    0 -0.33005674921E+02  0.49328777717E+02  0.80325308466E+01  0.59893442380E+02  0.51100000000E-03 0. -1.
         23    2    1    0    0    0 -0.94269488039E+01  0.22717369935E+02  0.15093646881E+02  0.96142341802E+02  0.91709244084E+02 0.  0.
         11    1    3    3    0    0  0.23578726117E+02 -0.26611407782E+02  0.70611160340E+01  0.36248899422E+02  0.51100000000E-03 0.  1.
         22    1    1    0    0    0  0.94269488039E+01 -0.22717369935E+02 -0.15093646881E+02  0.28857658198E+02  0.00000000000E+00 0. -1.
</event>
<event>
 5    1  0.3186486E-003  0.9118800E+02  0.7818608E-02  0.1130116E+00
         25   -1    0    0    0    0  0.00000000000E+00  0.00000000000E+00  0.99999998245E-14  0.12500000000E+03  0.12500000000E+03 0.  0.
        -11    1    3    3    0    0 -0.33927154427E+02  0.35544350975E+02 -0.47579715961E+01  0.49366901744E+02  0.51100000000E-03 0.  1.
         23    2    1    0    0    0 -0.28283387033E+02 -0.96028711037E+01 -0.39334340544E+01  0.94872985230E+02  0.89962471662E+02 0.  0.
         11    1    3    3    0    0  0.56437673942E+01 -0.45147222079E+02  0.82453754167E+00  0.45506083486E+02  0.51100000000E-03 0. -1.
         22    1    1    0    0    0  0.28283387033E+02  0.96028711037E+01  0.39334340544E+01  0.30127014770E+02  0.00000000000E+00 0.  1.
</event>
<event>
 5    1  0.3186486E-003  0.9118800E+02  0.7818608E-02  0.1130116E+00
         25   -1    0    0    0    0  0.00000000000E+00  0.00000000000E+00  0.99999998245E-14  0.12500000000E+03  0.12500000000E+03 0.  0.
        -11    1    3    3    0    0 -0.20073501479E+02  0.15349575500E+02 -0.36517566882E+02  0.44408193173E+02  0.51100000000E-03 0. -1.
         23    2    1    0    0    0 -0.24308025816E+02 -0.17623014943E+02  0.15350104235E+01  0.94936616429E+02  0.90050841790E+02 0.  0.
         11    1    3    3    0    0 -0.42345243367E+01 -0.32972590443E+02  0.38052577305E+02  0.50528423256E+02  0.51100000000E-03 0.  1.
         22    1    1    0    0    0  0.24308025816E+02  0.17623014943E+02 -0.15350104235E+01  0.30063383571E+02  0.00000000000E+00 0. -1.
</event>
<event>
 5    1  0.3186486E-003  0.9118800E+02  0.7818608E-02  0.1130116E+00
         25   -1    0    0    0    0  0.00000000000E+00  0.00000000000E+00  0.99999998245E-14  0.12500000000E+03  0.12500000000E+03 0.  0.
        -11    1    3    3    0    0 -0.58484545912E+01  0.23521090529E+02  0.29169016913E+02  0.37924631425E+02  0.51100000000E-03 0.  1.
         23    2    1    0    0    0 -0.14438912923E+02  0.56329283773E+01 -0.24984067346E+02  0.95599052572E+02  0.90965725100E+02 0.  0.
         11    1    3    3    0    0 -0.85904583314E+01 -0.17888162152E+02 -0.54153084260E+02  0.57674421147E+02  0.51100000000E-03 0. -1.
         22    1    1    0    0    0  0.14438912923E+02 -0.56329283773E+01  0.24984067346E+02  0.29400947428E+02  0.00000000000E+00 0. -1.
</event>
<event>
 5    1  0.3186486E-003  0.9118800E+02  0.7818608E-02  0.1130116E+00
         25   -1    0    0    0    0  0.00000000000E+00  0.00000000000E+00  0.99999998245E-14  0.12500000000E+03  0.12500000000E+03 0.  0.
        -11    1    3    3    0    0 -0.38078453808E+02 -0.15899153309E+02  0.23619496222E+02  0.47546107332E+02  0.51100000000E-03 0.  1.
         23    2    1    0    0    0 -0.13575064533E+02  0.23157529028E+02  0.14300323312E+02  0.94585319752E+02  0.89561877704E+02 0.  0.
         11    1    3    3    0    0  0.24503389275E+02  0.39056682337E+02 -0.93191729093E+01  0.47039212420E+02  0.51100000000E-03 0. -1.
         22    1    1    0    0    0  0.13575064533E+02 -0.23157529028E+02 -0.14300323312E+02  0.30414680248E+02  0.00000000000E+00 0. -1.
</event>
<event>
 5    1  0.3186486E-003  0.9118800E+02  0.7818608E-02  0.1130116E+00
         25   -1    0    0    0    0  0.00000000000E+00  0.00000000000E+00  0.99999998245E-14  0.12500000000E+03  0.12500000000E+03 0.  0.
        -11    1    3    3    0    0  0.50386072951E+02 -0.52912018263E+00  0.26351502069E+02  0.56863327172E+02  0.51100000000E-03 0.  1.
         23    2    1    0    0    0  0.23107670776E+02  0.16717565249E+02  0.38180388661E+01  0.96224683193E+02  0.91821407080E+02 0.  0.
         11    1    3    3    0    0 -0.27278402175E+02  0.17246685432E+02 -0.22533463203E+02  0.39361356021E+02  0.51100000000E-03 0. -1.
         22    1    1    0    0    0 -0.23107670776E+02 -0.16717565249E+02 -0.38180388661E+01  0.28775316807E+02  0.00000000000E+00 0.  1.
</event>
<event>
 5    1  0.3186486E-003  0.9118800E+02  0.7818608E-02  0.1130116E+00
         25   -1    0    0    0    0  0.00000000000E+00  0.00000000000E+00  0.99999998245E-14  0.12500000000E+03  0.12500000000E+03 0.  0.
        -11    1    3    3    0    0 -0.14489099331E+02 -0.35529746500E+02 -0.10327588952E+02  0.39736079067E+02  0.51100000000E-03 0. -1.
         23    2    1    0    0    0 -0.14692063870E+02  0.22287474997E+02 -0.54148266223E+01  0.97762000260E+02  0.93890894473E+02 0.  0.
         11    1    3    3    0    0 -0.20296453875E+00  0.57817221498E+02  0.49127623295E+01  0.58025921193E+02  0.51100000000E-03 0.  1.
         22    1    1    0    0    0  0.14692063870E+02 -0.22287474997E+02  0.54148266223E+01  0.27237999740E+02  0.00000000000E+00 0.  1.
</event>
<event>
 5    1  0.3186486E-003  0.9118800E+02  0.7818608E-02  0.1130116E+00
         25   -1    0    0    0    0  0.00000000000E+00  0.00000000000E+00  0.99999998245E-14  0.12500000000E+03  0.12500000000E+03 0.  0.
        -11    1    3    3    0    0 -0.31008509430E+01  0.12427935041E+02  0.29577919387E+02  0.32232315484E+02  0.51100000000E-03 0. -1.
         23    2    1    0    0    0 -0.25349133743E+01  0.26298585490E+01 -0.31093639133E+02  0.93692551424E+02  0.88307065720E+02 0.  0.
         11    1    3    3    0    0  0.56593756875E+00 -0.97980764917E+01 -0.60671558520E+02  0.61460235940E+02  0.51100000000E-03 0.  1.
         22    1    1    0    0    0  0.25349133743E+01 -0.26298585490E+01  0.31093639133E+02  0.31307448576E+02  0.00000000000E+00 0.  1.
</event>
<event>
 5    1  0.3186486E-003  0.9118800E+02  0.7818608E-02  0.1130116E+00
         25   -1    0    0    0    0  0.00000000000E+00  0.00000000000E+00  0.99999998245E-14  0.12500000000E+03  0.12500000000E+03 0.  0.
        -11    1    3    3    0    0 -0.16160146109E+02 -0.29336563749E+02 -0.31376820240E+02  0.45894325831E+02  0.51100000000E-03 0. -1.
         23    2    1    0    0    0  0.17490535405E+02 -0.22797547680E+02  0.49508120971E+01  0.95842538701E+02  0.91299697016E+02 0.  0.
         11    1    3    3    0    0  0.33650681514E+02  0.65390160687E+01  0.36327632337E+02  0.49948212870E+02  0.51100000000E-03 0.  1.
         22    1    1    0    0    0 -0.17490535405E+02  0.22797547680E+02 -0.49508120971E+01  0.29157461299E+02  0.00000000000E+00 0.  1.
</event>
<event>
 5    1  0.3186486E-003  0.9118800E+02  0.7818608E-02  0.1130116E+00
         25   -1    0    0    0    0  0.00000000000E+00  0.00000000000E+00  0.99999998245E-14  0.12500000000E+03  0.12500000000E+03 0.  0.
        -11    1    3    3    0    0 -0.24165566138E+02 -0.30985867390E+02 -0.17855535450E+02  0.43161542039E+02  0.51100000000E-03 0. -1.
         23    2    1    0    0    0 -0.25009478666E+02  0.97515336348E+01  0.13854015474E+02  0.94792382151E+02  0.89850406442E+02 0.  0.
         11    1    3    3    0    0 -0.84391252762E+00  0.40737401025E+02  0.31709550924E+02  0.51630840112E+02  0.51100000000E-03 0.  1.
         22    1    1    0    0    0  0.25009478666E+02 -0.97515336348E+01 -0.13854015474E+02  0.30207617849E+02  0.00000000000E+00 0.  1.
</event>
<event>
 5    1  0.3186486E-003  0.9118800E+02  0.7818608E-02  0.1130116E+00
         25   -1    0    0    0    0  0.00000000000E+00  0.00000000000E+00  0.99999998245E-14  0.12500000000E+03  0.12500000000E+03 0.  0.
        -11    1    3    3    0    0 -0.19604347483E+02 -0.23147110848E+02 -0.34898395124E+02  0.46238697682E+02  0.51100000000E-03 0.  1.
         23    2    1    0    0    0 -0.23164124134E+02  0.16194659885E+02 -0.38654044616E+01  0.96473082758E+02  0.92158942536E+02 0.  0.
         11    1    3    3    0    0 -0.35597766514E+01  0.39341770733E+02  0.31032990662E+02  0.50234385076E+02  0.51100000000E-03 0. -1.
         22    1    1    0    0    0  0.23164124134E+02 -0.16194659885E+02  0.38654044616E+01  0.28526917242E+02  0.00000000000E+00 0. -1.
</event>
<event>
 5    1  0.3186486E-003  0.9118800E+02  0.7818608E-02  0.1130116E+00
         25   -1    0    0    0    0  0.00000000000E+00  0.00000000000E+00  0.99999998245E-14  0.12500000000E+03  0.12500000000E+03 0.  0.
        -11    1    3    3    0    0  0.35663987089E+02 -0.36672922544E+02  0.24247019176E+02  0.56610433334E+02  0.51100000000E-03 0. -1.
         23    2    1    0    0    0  0.23776465582E+01 -0.27852813211E+02  0.34617208777E+01  0.96832360440E+02  0.92644968078E+02 0.  0.
         11    1    3    3    0    0 -0.33286340531E+02  0.88201093334E+01 -0.20785298298E+02  0.40221927107E+02  0.51100000000E-03 0.  1.
         22    1    1    0    0    0 -0.23776465582E+01  0.27852813211E+02 -0.34617208777E+01  0.28167639560E+02  0.00000000000E+00 0. -1.
</event>
<event>
 5    1  0.3186486E-003  0.9118800E+02  0.7818608E-02  0.1130116E+00
         25   -1    0    0    0    0  0.00000000000E+00  0.00000000000E+00  0.99999998245E-14  0.12500000000E+03  0.12500000000E+03 0.  0.
        -11    1    3    3    0    0  0.21854963027E+02  0.48783526512E+02 -0.70728965729E+01  0.53921217847E+02  0.51100000000E-03 0.  1.
         23    2    1    0    0    0  0.63394045083E+01  0.14664787413E+02 -0.24891781008E+02  0.95422224541E+02  0.90722412530E+02 0.  0.
         11    1    3    3    0    0 -0.15515558519E+02 -0.34118739099E+02 -0.17818884435E+02  0.41501006694E+02  0.51100000000E-03 0. -1.
         22    1    1    0    0    0 -0.63394045083E+01 -0.14664787413E+02  0.24891781008E+02  0.29577775459E+02  0.00000000000E+00 0.  1.
</event>
<event>
 5    1  0.3186486E-003  0.9118800E+02  0.7818608E-02  0.1130116E+00
         25   -1    0    0    0    0  0.00000000000E+00  0.00000000000E+00  0.99999998245E-14  0.12500000000E+03  0.12500000000E+03 0.  0.
        -11    1    3    3    0    0 -0.25728015631E+02  0.12635781136E+02  0.17962877311E+02  0.33826893366E+02  0.51100000000E-03 0.  1.
         23    2    1    0    0    0  0.20129250649E+02  0.19223576195E+02 -0.17457718768E+02  0.92144185324E+02  0.86087434223E+02 0.  0.
         11    1    3    3    0    0  0.45857266280E+02  0.65877950586E+01 -0.35420596080E+02  0.58317291958E+02  0.51100000000E-03 0. -1.
         22    1    1    0    0    0 -0.20129250649E+02 -0.19223576195E+02  0.17457718768E+02  0.32855814676E+02  0.00000000000E+00 0. -1.
</event>
<event>
 5    1  0.3186486E-003  0.9118800E+02  0.7818608E-02  0.1130116E+00
         25   -1    0    0    0    0  0.00000000000E+00  0.00000000000E+00  0.99999998245E-14  0.12500000000E+03  0.12500000000E+03 0.  0.
        -11    1    3    3    0    0 -0.27800695815E+02 -0.31983577642E+02 -0.10477811692E+02  0.43653321348E+02  0.51100000000E-03 0.  1.
         23    2    1    0    0    0 -0.16736443125E+01 -0.12327257267E+02  0.28127937013E+02  0.94243810418E+02  0.89083963789E+02 0.  0.
         11    1    3    3    0    0  0.26127051503E+02  0.19656320375E+02  0.38605748705E+02  0.50590489069E+02  0.51100000000E-03 0. -1.
         22    1    1    0    0    0  0.16736443125E+01  0.12327257267E+02 -0.28127937013E+02  0.30756189582E+02  0.00000000000E+00 0. -1.
</event>
<event>
 5    1  0.3186486E-003  0.9118800E+02  0.7818608E-02  0.1130116E+00
         25   -1    0    0    0    0  0.00000000000E+00  0.00000000000E+00  0.99999998245E-14  0.12500000000E+03  0.12500000000E+03 0.  0.
        -11    1    3    3    0    0  0.38933213845E+02 -0.33596725995E+02  0.16004190985E+02  0.53857861703E+02  0.51100000000E-03 0. -1.
         23    2    1    0    0    0  0.22870238218E+02 -0.12965110775E+02 -0.15250245469E+02  0.94607371281E+02  0.89592649365E+02 0.  0.
         11    1    3    3    0    0 -0.16062975627E+02  0.20631615220E+02 -0.31254436454E+02  0.40749509578E+02  0.51100000000E-03 0.  1.
         22    1    1    0    0    0 -0.22870238218E+02  0.12965110775E+02  0.15250245469E+02  0.30392628719E+02  0.00000000000E+00 0. -1.
</event>
<event>
 5    1  0.3186486E-003  0.9118800E+02  0.7818608E-02  0.1130116E+00
         25   -1    0    0    0    0  0.00000000000E+00  0.00000000000E+00  0.99999998245E-14  0.12500000000E+03  0.12500000000E+03 0.  0.
        -11    1    3    3    0    0  0.48068837415E+02 -0.30159458700E+02  0.60009184772E+01  0.57063272797E+02  0.51100000000E-03 0.  1.
         23    2    1    0    0    0  0.28657365994E+02  0.25041855433E+01 -0.28982301037E+01  0.96087800003E+02  0.91634873279E+02 0.  0.
         11    1    3    3    0    0 -0.19411471421E+02  0.32663644243E+02 -0.88991485809E+01  0.39024527206E+02  0.51100000000E-03 0. -1.
         22    1    1    0    0    0 -0.28657365994E+02 -0.25041855433E+01  0.28982301037E+01  0.28912199997E+02  0.00000000000E+00 0.  1.
</event>
<event>
 5    1  0.3186486E-003  0.9118800E+02  0.7818608E-02  0.1130116E+00
         25   -1    0    0    0    0  0.00000000000E+00  0.00000000000E+00  0.99999998245E-14  0.12500000000E+03  0.12500000000E+03 0.  0.
        -11    1    3    3    0    0 -0.28482212954E+01  0.26281668124E+02 -0.42521966730E+02  0.50069512668E+02  0.51100000000E-03 0.  1.
         23    2    1    0    0    0 -0.21749585567E+02  0.19219682922E+02 -0.13220354621E+01  0.95945078529E+02  0.91439978304E+02 0.  0.
         11    1    3    3    0    0 -0.18901364272E+02 -0.70619852024E+01  0.41199931268E+02  0.45875565861E+02  0.51100000000E-03 0. -1.
         22    1    1    0    0    0  0.21749585567E+02 -0.19219682922E+02  0.13220354621E+01  0.29054921471E+02  0.00000000000E+00 0. -1.
</event>
<event>
 4    1  0.3186486E-003  0.9118800E+02  0.7818608E-02  0.1130116E+00
         25   -1    0    0    0    0  0.00000000000E+00  0.00000000000E+00  0.99999998245E-14  0.12500000000E+03  0.12500000000E+03 0.  0.
        -11    1    1    0    0    0  0.14212747687E+01  0.43054747273E+02 -0.35050917828E+02  0.55536457625E+02  0.51100000000E-03 0.  1.
         11    1    1    0    0    0 -0.11249113200E+02 -0.83387771358E+01 -0.56260648573E+01  0.15090737489E+02  0.51100000000E-03 0. -1.
         22    1    1    0    0    0  0.98278384316E+01 -0.34715970137E+02  0.40676982685E+02  0.54372804886E+02  0.00000000000E+00 0.  1.
</event>
<event>
 5    1  0.3186486E-003  0.9118800E+02  0.7818608E-02  0.1130116E+00
         25   -1    0    0    0    0  0.00000000000E+00  0.00000000000E+00  0.99999998245E-14  0.12500000000E+03  0.12500000000E+03 0.  0.
        -11    1    3    3    0    0  0.35187819520E+02  0.13900159159E+02  0.21361329471E+02  0.43447709539E+02  0.51100000000E-03 0. -1.
         23    2    1    0    0    0 -0.46407705667E+01  0.25932565611E+02 -0.11291862249E+02  0.96337465854E+02  0.91974814289E+02 0.  0.
         11    1    3    3    0    0 -0.39828590087E+02  0.12032406452E+02 -0.32653191719E+02  0.52889756315E+02  0.51100000000E-03 0.  1.
         22    1    1    0    0    0  0.46407705667E+01 -0.25932565611E+02  0.11291862249E+02  0.28662534146E+02  0.00000000000E+00 0.  1.
</event>
<event>
 5    1  0.3186486E-003  0.9118800E+02  0.7818608E-02  0.1130116E+00
         25   -1    0    0    0    0  0.00000000000E+00  0.00000000000E+00  0.99999998245E-14  0.12500000000E+03  0.12500000000E+03 0.  0.
        -11    1    3    3    0    0 -0.58538791275E+02 -0.16121175197E+01  0.11912784396E+02  0.59760383525E+02  0.51100000000E-03 0.  1.
         23    2    1    0    0    0 -0.31009866099E+02 -0.29740141177E+01 -0.68506337363E+01  0.93103483920E+02  0.87469257343E+02 0.  0.
         11    1    3    3    0    0  0.27528925176E+02 -0.13618965981E+01 -0.18763418132E+02  0.33343100395E+02  0.51100000000E-03 0. -1.
         22    1    1    0    0    0  0.31009866099E+02  0.29740141177E+01  0.68506337363E+01  0.31896516080E+02  0.00000000000E+00 0.  1.
</event>
<event>
 5    1  0.3186486E-003  0.9118800E+02  0.7818608E-02  0.1130116E+00
         25   -1    0    0    0    0  0.00000000000E+00  0.00000000000E+00  0.99999998245E-14  0.12500000000E+03  0.12500000000E+03 0.  0.
        -11    1    3    3    0    0 -0.31924638553E+02 -0.14921400031E+02 -0.33834705520E+02  0.48853024712E+02  0.51100000000E-03 0. -1.
         23    2    1    0    0    0 -0.26112458434E+02  0.11371885904E+02  0.49727304543E+01  0.96087920818E+02  0.91635038083E+02 0.  0.
         11    1    3    3    0    0  0.58121801184E+01  0.26293285935E+02  0.38807435974E+02  0.47234896106E+02  0.51100000000E-03 0.  1.
         22    1    1    0    0    0  0.26112458434E+02 -0.11371885904E+02 -0.49727304543E+01  0.28912079182E+02  0.00000000000E+00 0. -1.
</event>
<event>
 5    1  0.3186486E-003  0.9118800E+02  0.7818608E-02  0.1130116E+00
         25   -1    0    0    0    0  0.00000000000E+00  0.00000000000E+00  0.99999998245E-14  0.12500000000E+03  0.12500000000E+03 0.  0.
        -11    1    3    3    0    0 -0.17682400745E+02  0.53299698450E+02  0.14997268517E+02  0.58124377108E+02  0.51100000000E-03 0.  1.
         23    2    1    0    0    0 -0.48310557922E+01  0.24773801338E+02 -0.96746539778E+01  0.97968920437E+02  0.94165971078E+02 0.  0.
         11    1    3    3    0    0  0.12851344953E+02 -0.28525897113E+02 -0.24671922495E+02  0.39844543328E+02  0.51100000000E-03 0. -1.
         22    1    1    0    0    0  0.48310557922E+01 -0.24773801338E+02  0.96746539778E+01  0.27031079563E+02  0.00000000000E+00 0.  1.
</event>
<event>
 5    1  0.3186486E-003  0.9118800E+02  0.7818608E-02  0.1130116E+00
         25   -1    0    0    0    0  0.00000000000E+00  0.00000000000E+00  0.99999998245E-14  0.12500000000E+03  0.12500000000E+03 0.  0.
        -11    1    3    3    0    0  0.40879091342E+02  0.18291906066E+02  0.18692027301E+01  0.44823965192E+02  0.51100000000E-03 0. -1.
         23    2    1    0    0    0 -0.31457431939E+01  0.32211094667E+02  0.86688649075E+01  0.91494783411E+02  0.85139273269E+02 0.  0.
         11    1    3    3    0    0 -0.44024834536E+02  0.13919188601E+02  0.67996621774E+01  0.46670818218E+02  0.51100000000E-03 0.  1.
         22    1    1    0    0    0  0.31457431939E+01 -0.32211094667E+02 -0.86688649075E+01  0.33505216589E+02  0.00000000000E+00 0.  1.
</event>
<event>
 5    1  0.3186486E-003  0.9118800E+02  0.7818608E-02  0.1130116E+00
         25   -1    0    0    0    0  0.00000000000E+00  0.00000000000E+00  0.99999998245E-14  0.12500000000E+03  0.12500000000E+03 0.  0.
        -11    1    3    3    0    0  0.15212957653E+02  0.29683524896E+02  0.54099113775E+01  0.33790721687E+02  0.51100000000E-03 0. -1.
         23    2    1    0    0    0 -0.13686513405E+02 -0.16587763395E+02 -0.21473413573E+02  0.94609507504E+02  0.89595629782E+02 0.  0.
         11    1    3    3    0    0 -0.28899471058E+02 -0.46271288291E+02 -0.26883324951E+02  0.60818785817E+02  0.51100000000E-03 0.  1.
         22    1    1    0    0    0  0.13686513405E+02  0.16587763395E+02  0.21473413573E+02  0.30390492496E+02  0.00000000000E+00 0.  1.
</event>
<event>
 5    1  0.3186486E-003  0.9118800E+02  0.7818608E-02  0.1130116E+00
         25   -1    0    0    0    0  0.00000000000E+00  0.00000000000E+00  0.99999998245E-14  0.12500000000E+03  0.12500000000E+03 0.  0.
        -11    1    3    3    0    0 -0.41981725656E+02  0.14810846154E+02 -0.36937149149E+02  0.57846170490E+02  0.51100000000E-03 0.  1.
         23    2    1    0    0    0 -0.56741490497E+01  0.11651864671E+02 -0.26085908959E+02  0.95872065574E+02  0.91340113824E+02 0.  0.
         11    1    3    3    0    0  0.36307576606E+02 -0.31589814833E+01  0.10851240190E+02  0.38025895084E+02  0.51100000000E-03 0. -1.
         22    1    1    0    0    0  0.56741490497E+01 -0.11651864671E+02  0.26085908959E+02  0.29127934426E+02  0.00000000000E+00 0.  1.
</event>
<event>
 5    1  0.3186486E-003  0.9118800E+02  0.7818608E-02  0.1130116E+00
         25   -1    0    0    0    0  0.00000000000E+00  0.00000000000E+00  0.99999998245E-14  0.12500000000E+03  0.12500000000E+03 0.  0.
        -11    1    3    3    0    0  0.24884767679E+00  0.52001788070E+02  0.30043003182E+02  0.60056889097E+02  0.51100000000E-03 0.  1.
         23    2    1    0    0    0  0.77908779003E+01  0.27435303519E+02  0.48005930224E+01  0.96078738773E+02  0.91622511934E+02 0.  0.
         11    1    3    3    0    0  0.75420302236E+01 -0.24566484551E+02 -0.25242410160E+02  0.36021849675E+02  0.51100000000E-03 0. -1.
         22    1    1    0    0    0 -0.77908779003E+01 -0.27435303519E+02 -0.48005930224E+01  0.28921261227E+02  0.00000000000E+00 0.  1.
</event>
<event>
 5    1  0.3186486E-003  0.9118800E+02  0.7818608E-02  0.1130116E+00
         25   -1    0    0    0    0  0.00000000000E+00  0.00000000000E+00  0.99999998245E-14  0.12500000000E+03  0.12500000000E+03 0.  0.
        -11    1    3    3    0    0  0.43246673112E+02 -0.24612584782E+02  0.23747196701E+02  0.55136044620E+02  0.51100000000E-03 0.  1.
         23    2    1    0    0    0  0.21370945587E+02 -0.10225829215E+02 -0.11192849913E+02  0.98797618666E+02  0.95259669674E+02 0.  0.
         11    1    3    3    0    0 -0.21875727525E+02  0.14386755566E+02 -0.34940046615E+02  0.43661574046E+02  0.51100000000E-03 0. -1.
         22    1    1    0    0    0 -0.21370945587E+02  0.10225829215E+02  0.11192849913E+02  0.26202381334E+02  0.00000000000E+00 0.  1.
</event>
<event>
 5    1  0.3186486E-003  0.9118800E+02  0.7818608E-02  0.1130116E+00
         25   -1    0    0    0    0  0.00000000000E+00  0.00000000000E+00  0.99999998245E-14  0.12500000000E+03  0.12500000000E+03 0.  0.
        -11    1    3    3    0    0 -0.22415809411E+02  0.78534891687E+01  0.34383134144E+02  0.41789301471E+02  0.51100000000E-03 0.  1.
         23    2    1    0    0    0 -0.89892488667E+01  0.22335068244E+02 -0.16126321490E+02  0.96022075411E+02  0.91545173837E+02 0.  0.
         11    1    3    3    0    0  0.13426560544E+02  0.14481579076E+02 -0.50509455633E+02  0.54232773940E+02  0.51100000000E-03 0. -1.
         22    1    1    0    0    0  0.89892488667E+01 -0.22335068244E+02  0.16126321490E+02  0.28977924589E+02  0.00000000000E+00 0. -1.
</event>
<event>
 5    1  0.3186486E-003  0.9118800E+02  0.7818608E-02  0.1130116E+00
         25   -1    0    0    0    0  0.00000000000E+00  0.00000000000E+00  0.99999998245E-14  0.12500000000E+03  0.12500000000E+03 0.  0.
        -11    1    3    3    0    0  0.26367293459E+02 -0.20615712727E+02  0.21430689842E+02  0.39743128248E+02  0.51100000000E-03 0.  1.
         23    2    1    0    0    0  0.19323820108E+01 -0.79360400040E+01 -0.27732868554E+02  0.96089330180E+02  0.91636960584E+02 0.  0.
         11    1    3    3    0    0 -0.24434911448E+02  0.12679672723E+02 -0.49163558396E+02  0.56346201933E+02  0.51100000000E-03 0. -1.
         22    1    1    0    0    0 -0.19323820108E+01  0.79360400040E+01  0.27732868554E+02  0.28910669820E+02  0.00000000000E+00 0. -1.
</event>
<event>
 5    1  0.3186486E-003  0.9118800E+02  0.7818608E-02  0.1130116E+00
         25   -1    0    0    0    0  0.00000000000E+00  0.00000000000E+00  0.99999998245E-14  0.12500000000E+03  0.12500000000E+03 0.  0.
        -11    1    3    3    0    0  0.36564044977E+01 -0.52476478252E+02 -0.23320637593E+02  0.57541308654E+02  0.51100000000E-03 0. -1.
         23    2    1    0    0    0  0.68618357213E+01 -0.14696092847E+02 -0.24663717903E+02  0.95481210810E+02  0.90803649170E+02 0.  0.
         11    1    3    3    0    0  0.32054312236E+01  0.37780385405E+02 -0.13430803101E+01  0.37939902156E+02  0.51100000000E-03 0.  1.
         22    1    1    0    0    0 -0.68618357213E+01  0.14696092847E+02  0.24663717903E+02  0.29518789190E+02  0.00000000000E+00 0. -1.
</event>
<event>
 5    1  0.3186486E-003  0.9118800E+02  0.7818608E-02  0.1130116E+00
         25   -1    0    0    0    0  0.00000000000E+00  0.00000000000E+00  0.99999998245E-14  0.12500000000E+03  0.12500000000E+03 0.  0.
        -11    1    3    3    0    0 -0.23868114841E+02  0.97964415324E+01 -0.32420516492E+02  0.41433646504E+02  0.51100000000E-03 0. -1.
         23    2    1    0    0    0 -0.20336961309E+02 -0.10328291480E+02  0.18069134056E+02  0.95900872767E+02  0.91379528297E+02 0.  0.
         11    1    3    3    0    0  0.35311535316E+01 -0.20124733013E+02  0.50489650548E+02  0.54467226263E+02  0.51100000000E-03 0.  1.
         22    1    1    0    0    0  0.20336961309E+02  0.10328291480E+02 -0.18069134056E+02  0.29099127233E+02  0.00000000000E+00 0.  1.
</event>
<event>
 5    1  0.3186486E-003  0.9118800E+02  0.7818608E-02  0.1130116E+00
         25   -1    0    0    0    0  0.00000000000E+00  0.00000000000E+00  0.99999998245E-14  0.12500000000E+03  0.12500000000E+03 0.  0.
        -11    1    3    3    0    0 -0.24860420985E+02 -0.52005036300E+02  0.46098388524E+01  0.57825729106E+02  0.51100000000E-03 0. -1.
         23    2    1    0    0    0 -0.62032645330E+01 -0.23852110196E+02  0.18335369461E+02  0.94282099275E+02  0.89137673398E+02 0.  0.
         11    1    3    3    0    0  0.18657156452E+02  0.28152926104E+02  0.13725530609E+02  0.36456370169E+02  0.51100000000E-03 0.  1.
         22    1    1    0    0    0  0.62032645330E+01  0.23852110196E+02 -0.18335369461E+02  0.30717900725E+02  0.00000000000E+00 0. -1.
</event>
<event>
 5    1  0.3186486E-003  0.9118800E+02  0.7818608E-02  0.1130116E+00
         25   -1    0    0    0    0  0.00000000000E+00  0.00000000000E+00  0.99999998245E-14  0.12500000000E+03  0.12500000000E+03 0.  0.
        -11    1    3    3    0    0  0.41108852160E+01  0.33134668453E+02  0.53481746359E+01  0.33814325410E+02  0.51100000000E-03 0.  1.
         23    2    1    0    0    0 -0.16087577176E+02 -0.22993967985E+02 -0.96516194801E+01  0.95323637998E+02  0.90586475257E+02 0.  0.
         11    1    3    3    0    0 -0.20198462392E+02 -0.56128636437E+02 -0.14999794116E+02  0.61509312588E+02  0.51100000000E-03 0. -1.
         22    1    1    0    0    0  0.16087577176E+02  0.22993967985E+02  0.96516194801E+01  0.29676362002E+02  0.00000000000E+00 0. -1.
</event>
<event>
 5    1  0.3186486E-003  0.9118800E+02  0.7818608E-02  0.1130116E+00
         25   -1    0    0    0    0  0.00000000000E+00  0.00000000000E+00  0.99999998245E-14  0.12500000000E+03  0.12500000000E+03 0.  0.
        -11    1    3    3    0    0 -0.41169805111E+02  0.10376695525E+02 -0.10976368964E+02  0.43853270560E+02  0.51100000000E-03 0. -1.
         23    2    1    0    0    0 -0.12255523566E+02  0.27316342329E+02  0.19598354080E+02  0.89216262090E+02  0.81725549999E+02 0.  0.
         11    1    3    3    0    0  0.28914281545E+02  0.16939646804E+02  0.30574723044E+02  0.45362991531E+02  0.51100000000E-03 0.  1.
         22    1    1    0    0    0  0.12255523566E+02 -0.27316342329E+02 -0.19598354080E+02  0.35783737910E+02  0.00000000000E+00 0.  1.
</event>
<event>
 5    1  0.3186486E-003  0.9118800E+02  0.7818608E-02  0.1130116E+00
         25   -1    0    0    0    0  0.00000000000E+00  0.00000000000E+00  0.99999998245E-14  0.12500000000E+03  0.12500000000E+03 0.  0.
        -11    1    3    3    0    0  0.17557405969E+02 -0.46957739700E+01  0.43335029886E+02  0.46991888800E+02  0.51100000000E-03 0.  1.
         23    2    1    0    0    0 -0.23101585983E+02  0.31775759383E+01  0.18011011661E+02  0.95535159854E+02  0.90877884898E+02 0.  0.
         11    1    3    3    0    0 -0.40658991952E+02  0.78733499083E+01 -0.25324018224E+02  0.48543271054E+02  0.51100000000E-03 0. -1.
         22    1    1    0    0    0  0.23101585983E+02 -0.31775759383E+01 -0.18011011661E+02  0.29464840146E+02  0.00000000000E+00 0.  1.
</event>
<event>
 5    1  0.3186486E-003  0.9118800E+02  0.7818608E-02  0.1130116E+00
         25   -1    0    0    0    0  0.00000000000E+00  0.00000000000E+00  0.99999998245E-14  0.12500000000E+03  0.12500000000E+03 0.  0.
        -11    1    3    3    0    0  0.14805971482E+02  0.46747503738E+02 -0.29482858170E+02  0.57216997679E+02  0.51100000000E-03 0.  1.
         23    2    1    0    0    0  0.22913215400E+01  0.27051683244E+02  0.35070621195E+01  0.97625866124E+02  0.93709479409E+02 0.  0.
         11    1    3    3    0    0 -0.12514649942E+02 -0.19695820494E+02  0.32989920290E+02  0.40408868446E+02  0.51100000000E-03 0. -1.
         22    1    1    0    0    0 -0.22913215400E+01 -0.27051683244E+02 -0.35070621195E+01  0.27374133876E+02  0.00000000000E+00 0.  1.
</event>
<event>
 5    1  0.3186486E-003  0.9118800E+02  0.7818608E-02  0.1130116E+00
         25   -1    0    0    0    0  0.00000000000E+00  0.00000000000E+00  0.99999998245E-14  0.12500000000E+03  0.12500000000E+03 0.  0.
        -11    1    3    3    0    0  0.53048233617E+02  0.16621108643E+02 -0.23189532074E+02  0.60233966667E+02  0.51100000000E-03 0. -1.
         23    2    1    0    0    0  0.28914620160E+02 -0.27319187407E+01 -0.71069754490E+01  0.95099703362E+02  0.90276939695E+02 0.  0.
         11    1    3    3    0    0 -0.24133613457E+02 -0.19353027383E+02  0.16082556625E+02  0.34865736695E+02  0.51100000000E-03 0.  1.
         22    1    1    0    0    0 -0.28914620160E+02  0.27319187407E+01  0.71069754490E+01  0.29900296638E+02  0.00000000000E+00 0. -1.
</event>
<event>
 5    1  0.3186486E-003  0.9118800E+02  0.7818608E-02  0.1130116E+00
         25   -1    0    0    0    0  0.00000000000E+00  0.00000000000E+00  0.99999998245E-14  0.12500000000E+03  0.12500000000E+03 0.  0.
        -11    1    3    3    0    0  0.47149363879E+02 -0.26252096088E+02 -0.22952492421E+02  0.58643430764E+02  0.51100000000E-03 0. -1.
         23    2    1    0    0    0  0.29455162337E+02 -0.28449295522E+01 -0.22218560962E+02  0.87995072440E+02  0.79835882347E+02 0.  0.
         11    1    3    3    0    0 -0.17694201542E+02  0.23407166536E+02  0.73393145881E+00  0.29351641676E+02  0.51100000000E-03 0.  1.
         22    1    1    0    0    0 -0.29455162337E+02  0.28449295522E+01  0.22218560962E+02  0.37004927560E+02  0.00000000000E+00 0. -1.
</event>
<event>
 5    1  0.3186486E-003  0.9118800E+02  0.7818608E-02  0.1130116E+00
         25   -1    0    0    0    0  0.00000000000E+00  0.00000000000E+00  0.99999998245E-14  0.12500000000E+03  0.12500000000E+03 0.  0.
        -11    1    3    3    0    0 -0.17977961087E+02 -0.33268630703E+02 -0.18568860357E+02  0.42128511117E+02  0.51100000000E-03 0.  1.
         23    2    1    0    0    0 -0.12769639918E+02 -0.43659746893E+01  0.26117720375E+02  0.95601687868E+02  0.90969346304E+02 0.  0.
         11    1    3    3    0    0  0.52083211689E+01  0.28902656014E+02  0.44686580733E+02  0.53473176751E+02  0.51100000000E-03 0. -1.
         22    1    1    0    0    0  0.12769639918E+02  0.43659746893E+01 -0.26117720375E+02  0.29398312132E+02  0.00000000000E+00 0. -1.
</event>
<event>
 5    1  0.3186486E-003  0.9118800E+02  0.7818608E-02  0.1130116E+00
         25   -1    0    0    0    0  0.00000000000E+00  0.00000000000E+00  0.99999998245E-14  0.12500000000E+03  0.12500000000E+03 0.  0.
        -11    1    3    3    0    0  0.31594375340E+01  0.39711281936E+02 -0.27837013060E+02  0.48599045823E+02  0.51100000000E-03 0.  1.
         23    2    1    0    0    0  0.26039686817E+02  0.10733680511E+02  0.29612160621E+01  0.96679583559E+02  0.92438606056E+02 0.  0.
         11    1    3    3    0    0  0.22880249283E+02 -0.28977601425E+02  0.30798229122E+02  0.48080537735E+02  0.51100000000E-03 0. -1.
         22    1    1    0    0    0 -0.26039686817E+02 -0.10733680511E+02 -0.29612160621E+01  0.28320416441E+02  0.00000000000E+00 0. -1.
</event>
<event>
 5    1  0.3186486E-003  0.9118800E+02  0.7818608E-02  0.1130116E+00
         25   -1    0    0    0    0  0.00000000000E+00  0.00000000000E+00  0.99999998245E-14  0.12500000000E+03  0.12500000000E+03 0.  0.
        -11    1    3    3    0    0 -0.11581744258E+02  0.86740709211E+01  0.34861560293E+02  0.37745260533E+02  0.51100000000E-03 0. -1.
         23    2    1    0    0    0  0.17342294024E+02 -0.24553736053E+02 -0.15514170757E+01  0.94899368592E+02  0.89999123040E+02 0.  0.
         11    1    3    3    0    0  0.28924038282E+02 -0.33227806975E+02 -0.36412977369E+02  0.57154108059E+02  0.51100000000E-03 0.  1.
         22    1    1    0    0    0 -0.17342294024E+02  0.24553736053E+02  0.15514170757E+01  0.30100631408E+02  0.00000000000E+00 0.  1.
</event>
<event>
 5    1  0.3186486E-003  0.9118800E+02  0.7818608E-02  0.1130116E+00
         25   -1    0    0    0    0  0.00000000000E+00  0.00000000000E+00  0.99999998245E-14  0.12500000000E+03  0.12500000000E+03 0.  0.
        -11    1    3    3    0    0 -0.21440952177E+02 -0.36772751391E+02  0.76647955360E+01  0.43251575301E+02  0.51100000000E-03 0.  1.
         23    2    1    0    0    0  0.44757418138E+01 -0.50112580017E+02 -0.37342185595E+01  0.74549555711E+02  0.54885234150E+02 0.  0.
         11    1    3    3    0    0  0.25916693990E+02 -0.13339828626E+02 -0.11399014096E+02  0.31297980410E+02  0.51100000000E-03 0. -1.
         22    1    1    0    0    0 -0.44757418138E+01  0.50112580017E+02  0.37342185595E+01  0.50450444289E+02  0.00000000000E+00 0. -1.
</event>
<event>
 5    1  0.3186486E-003  0.9118800E+02  0.7818608E-02  0.1130116E+00
         25   -1    0    0    0    0  0.00000000000E+00  0.00000000000E+00  0.99999998245E-14  0.12500000000E+03  0.12500000000E+03 0.  0.
        -11    1    3    3    0    0  0.17218419683E+02  0.26358827729E+02  0.50631571014E+02  0.59622292469E+02  0.51100000000E-03 0.  1.
         23    2    1    0    0    0 -0.20549221492E+01  0.12739895073E+02  0.34384430215E+02  0.88273760433E+02  0.80271041529E+02 0.  0.
         11    1    3    3    0    0 -0.19273341832E+02 -0.13618932657E+02 -0.16247140799E+02  0.28651467964E+02  0.51100000000E-03 0. -1.
         22    1    1    0    0    0  0.20549221492E+01 -0.12739895073E+02 -0.34384430215E+02  0.36726239567E+02  0.00000000000E+00 0.  1.
</event>
<event>
 5    1  0.3186486E-003  0.9118800E+02  0.7818608E-02  0.1130116E+00
         25   -1    0    0    0    0  0.00000000000E+00  0.00000000000E+00  0.99999998245E-14  0.12500000000E+03  0.12500000000E+03 0.  0.
        -11    1    3    3    0    0 -0.26789327697E+02 -0.46563495739E+02 -0.29675434115E+02  0.61371480380E+02  0.51100000000E-03 0.  1.
         23    2    1    0    0    0 -0.11569726589E+02 -0.26016736475E+02 -0.66953699296E+01  0.95750091818E+02  0.91173038528E+02 0.  0.
         11    1    3    3    0    0  0.15219601108E+02  0.20546759263E+02  0.22980064186E+02  0.34378611437E+02  0.51100000000E-03 0. -1.
         22    1    1    0    0    0  0.11569726589E+02  0.26016736475E+02  0.66953699296E+01  0.29249908182E+02  0.00000000000E+00 0.  1.
</event>
<event>
 5    1  0.3186486E-003  0.9118800E+02  0.7818608E-02  0.1130116E+00
         25   -1    0    0    0    0  0.00000000000E+00  0.00000000000E+00  0.99999998245E-14  0.12500000000E+03  0.12500000000E+03 0.  0.
        -11    1    3    3    0    0  0.31751505727E+02 -0.10391903372E+02  0.26334548709E+01  0.33512458227E+02  0.51100000000E-03 0. -1.
         23    2    1    0    0    0  0.33474560875E+01  0.32014044526E+02  0.19618293478E+02  0.87304085790E+02  0.78746564670E+02 0.  0.
         11    1    3    3    0    0 -0.28404049639E+02  0.42405947898E+02  0.16984838607E+02  0.53791627562E+02  0.51100000000E-03 0.  1.
         22    1    1    0    0    0 -0.33474560875E+01 -0.32014044526E+02 -0.19618293478E+02  0.37695914210E+02  0.00000000000E+00 0. -1.
</event>
<event>
 5    1  0.3186486E-003  0.9118800E+02  0.7818608E-02  0.1130116E+00
         25   -1    0    0    0    0  0.00000000000E+00  0.00000000000E+00  0.99999998245E-14  0.12500000000E+03  0.12500000000E+03 0.  0.
        -11    1    3    3    0    0  0.38064429455E+02 -0.33209876077E+01  0.30593211042E+02  0.48947669103E+02  0.51100000000E-03 0. -1.
         23    2    1    0    0    0 -0.53767139239E+01 -0.19898189891E+02  0.19225419625E+02  0.96813766245E+02  0.92619876707E+02 0.  0.
         11    1    3    3    0    0 -0.43441143379E+02 -0.16577202284E+02 -0.11367791418E+02  0.47866097142E+02  0.51100000000E-03 0.  1.
         22    1    1    0    0    0  0.53767139239E+01  0.19898189891E+02 -0.19225419625E+02  0.28186233755E+02  0.00000000000E+00 0. -1.
</event>
<event>
 5    1  0.3186486E-003  0.9118800E+02  0.7818608E-02  0.1130116E+00
         25   -1    0    0    0    0  0.00000000000E+00  0.00000000000E+00  0.99999998245E-14  0.12500000000E+03  0.12500000000E+03 0.  0.
        -11    1    3    3    0    0  0.11960777878E+02 -0.41885059666E+00 -0.59877405332E+02  0.61061766375E+02  0.51100000000E-03 0.  1.
         23    2    1    0    0    0  0.11693307792E+02  0.66497754401E+01 -0.25395017000E+02  0.96262222617E+02  0.91872496723E+02 0.  0.
         11    1    3    3    0    0 -0.26747008523E+00  0.70686260368E+01  0.34482388332E+02  0.35200456242E+02  0.51100000000E-03 0. -1.
         22    1    1    0    0    0 -0.11693307792E+02 -0.66497754401E+01  0.25395017000E+02  0.28737777383E+02  0.00000000000E+00 0.  1.
</event>
<event>
 5    1  0.3186486E-003  0.9118800E+02  0.7818608E-02  0.1130116E+00
         25   -1    0    0    0    0  0.00000000000E+00  0.00000000000E+00  0.99999998245E-14  0.12500000000E+03  0.12500000000E+03 0.  0.
        -11    1    3    3    0    0  0.11616182084E+02  0.33654316810E+02 -0.39907941111E+02  0.53480767479E+02  0.51100000000E-03 0. -1.
         23    2    1    0    0    0  0.16333592216E+02 -0.51843122761E+01 -0.23521951880E+02  0.95897671078E+02  0.91375148534E+02 0.  0.
         11    1    3    3    0    0  0.47174101314E+01 -0.38838629086E+02  0.16385989231E+02  0.42416903599E+02  0.51100000000E-03 0.  1.
         22    1    1    0    0    0 -0.16333592216E+02  0.51843122761E+01  0.23521951880E+02  0.29102328922E+02  0.00000000000E+00 0.  1.
</event>
<event>
 5    1  0.3186486E-003  0.9118800E+02  0.7818608E-02  0.1130116E+00
         25   -1    0    0    0    0  0.00000000000E+00  0.00000000000E+00  0.99999998245E-14  0.12500000000E+03  0.12500000000E+03 0.  0.
        -11    1    3    3    0    0 -0.13451121924E+02 -0.29849378480E+02 -0.10149379930E+02  0.34277222611E+02  0.51100000000E-03 0.  1.
         23    2    1    0    0    0  0.16152777556E+02  0.21026024525E+02  0.10249865144E+02  0.96573504163E+02  0.92295048842E+02 0.  0.
         11    1    3    3    0    0  0.29603899480E+02  0.50875403005E+02  0.20399245075E+02  0.62296281552E+02  0.51100000000E-03 0. -1.
         22    1    1    0    0    0 -0.16152777556E+02 -0.21026024525E+02 -0.10249865144E+02  0.28426495837E+02  0.00000000000E+00 0. -1.
</event>
<event>
 5    1  0.3186486E-003  0.9118800E+02  0.7818608E-02  0.1130116E+00
         25   -1    0    0    0    0  0.00000000000E+00  0.00000000000E+00  0.99999998245E-14  0.12500000000E+03  0.12500000000E+03 0.  0.
        -11    1    3    3    0    0 -0.20817339225E+02  0.16114531884E+02  0.25318120428E+02  0.36524607767E+02  0.51100000000E-03 0.  1.
         23    2    1    0    0    0 -0.23499459374E+02 -0.27171677526E+02 -0.39705754476E+01  0.88857364238E+02  0.81174756295E+02 0.  0.
         11    1    3    3    0    0 -0.26821201492E+01 -0.43286209410E+02 -0.29288695875E+02  0.52332756471E+02  0.51100000000E-03 0. -1.
         22    1    1    0    0    0  0.23499459374E+02  0.27171677526E+02  0.39705754476E+01  0.36142635762E+02  0.00000000000E+00 0. -1.
</event>
<event>
 5    1  0.3186486E-003  0.9118800E+02  0.7818608E-02  0.1130116E+00
         25   -1    0    0    0    0  0.00000000000E+00  0.00000000000E+00  0.99999998245E-14  0.12500000000E+03  0.12500000000E+03 0.  0.
        -11    1    3    3    0    0 -0.33660075913E+02  0.16307946109E+02 -0.33105141114E+02  0.49948975818E+02  0.51100000000E-03 0.  1.
         23    2    1    0    0    0 -0.26975930365E+02 -0.89557420234E+01  0.49855361414E+01  0.96142389134E+02  0.91709308598E+02 0.  0.
         11    1    3    3    0    0  0.66841455477E+01 -0.25263688133E+02  0.38090677256E+02  0.46193413317E+02  0.51100000000E-03 0. -1.
         22    1    1    0    0    0  0.26975930365E+02  0.89557420234E+01 -0.49855361414E+01  0.28857610866E+02  0.00000000000E+00 0.  1.
</event>
<event>
 5    1  0.3186486E-003  0.9118800E+02  0.7818608E-02  0.1130116E+00
         25   -1    0    0    0    0  0.00000000000E+00  0.00000000000E+00  0.99999998245E-14  0.12500000000E+03  0.12500000000E+03 0.  0.
        -11    1    3    3    0    0  0.10393315477E+02 -0.83293993424E+01  0.48079679791E+02  0.49890435046E+02  0.51100000000E-03 0. -1.
         23    2    1    0    0    0  0.21685626680E+02  0.14205618549E+02  0.68979454790E+01  0.98173750640E+02  0.94437480166E+02 0.  0.
         11    1    3    3    0    0  0.11292311204E+02  0.22535017891E+02 -0.41181734312E+02  0.48283315595E+02  0.51100000000E-03 0.  1.
         22    1    1    0    0    0 -0.21685626680E+02 -0.14205618549E+02 -0.68979454790E+01  0.26826249360E+02  0.00000000000E+00 0. -1.
</event>
<event>
 5    1  0.3186486E-003  0.9118800E+02  0.7818608E-02  0.1130116E+00
         25   -1    0    0    0    0  0.00000000000E+00  0.00000000000E+00  0.99999998245E-14  0.12500000000E+03  0.12500000000E+03 0.  0.
        -11    1    3    3    0    0 -0.30177775834E+02 -0.28517611101E+02  0.34790494395E+02  0.54169463702E+02  0.51100000000E-03 0. -1.
         23    2    1    0    0    0 -0.28669252339E+02  0.22266584487E+01  0.75587849964E+01  0.95267538478E+02  0.90509030597E+02 0.  0.
         11    1    3    3    0    0  0.15085234956E+01  0.30744269550E+02 -0.27231709399E+02  0.41098074777E+02  0.51100000000E-03 0.  1.
         22    1    1    0    0    0  0.28669252339E+02 -0.22266584487E+01 -0.75587849964E+01  0.29732461522E+02  0.00000000000E+00 0. -1.
</event>
<event>
 5    1  0.3186486E-003  0.9118800E+02  0.7818608E-02  0.1130116E+00
         25   -1    0    0    0    0  0.00000000000E+00  0.00000000000E+00  0.99999998245E-14  0.12500000000E+03  0.12500000000E+03 0.  0.
        -11    1    3    3    0    0 -0.17657877764E+02  0.23805388707E+02  0.51270767640E+02  0.59221523058E+02  0.51100000000E-03 0. -1.
         23    2    1    0    0    0 -0.18168709020E+02  0.16394577331E+02  0.14887783909E+02  0.96355100576E+02  0.91998777948E+02 0.  0.
         11    1    3    3    0    0 -0.51083125662E+00 -0.74108113759E+01 -0.36382983731E+02  0.37133577518E+02  0.51100000000E-03 0.  1.
         22    1    1    0    0    0  0.18168709020E+02 -0.16394577331E+02 -0.14887783909E+02  0.28644899424E+02  0.00000000000E+00 0. -1.
</event>
<event>
 5    1  0.3186486E-003  0.9118800E+02  0.7818608E-02  0.1130116E+00
         25   -1    0    0    0    0  0.00000000000E+00  0.00000000000E+00  0.99999998245E-14  0.12500000000E+03  0.12500000000E+03 0.  0.
        -11    1    3    3    0    0 -0.96489453429E+01  0.32199945438E+02 -0.50489001602E+01  0.33991616989E+02  0.51100000000E-03 0.  1.
         23    2    1    0    0    0  0.11461139466E+02 -0.19948535980E+02  0.18987104581E+02  0.95170284179E+02  0.90374615046E+02 0.  0.
         11    1    3    3    0    0  0.21110084809E+02 -0.52148481419E+02  0.24036004741E+02  0.61178667189E+02  0.51100000000E-03 0. -1.
         22    1    1    0    0    0 -0.11461139466E+02  0.19948535980E+02 -0.18987104581E+02  0.29829715821E+02  0.00000000000E+00 0. -1.
</event>
<event>
 5    1  0.3186486E-003  0.9118800E+02  0.7818608E-02  0.1130116E+00
         25   -1    0    0    0    0  0.00000000000E+00  0.00000000000E+00  0.99999998245E-14  0.12500000000E+03  0.12500000000E+03 0.  0.
        -11    1    3    3    0    0 -0.18022700152E+02  0.29124194943E+02 -0.10757154461E+02  0.35899203671E+02  0.51100000000E-03 0. -1.
         23    2    1    0    0    0  0.20773908382E+02 -0.15564399495E+02 -0.14625920345E+02  0.95205313443E+02  0.90423052153E+02 0.  0.
         11    1    3    3    0    0  0.38796608534E+02 -0.44688594438E+02 -0.38687658841E+01  0.59306109772E+02  0.51100000000E-03 0.  1.
         22    1    1    0    0    0 -0.20773908382E+02  0.15564399495E+02  0.14625920345E+02  0.29794686557E+02  0.00000000000E+00 0.  1.
</event>
<event>
 5    1  0.3186486E-003  0.9118800E+02  0.7818608E-02  0.1130116E+00
         25   -1    0    0    0    0  0.00000000000E+00  0.00000000000E+00  0.99999998245E-14  0.12500000000E+03  0.12500000000E+03 0.  0.
        -11    1    3    3    0    0 -0.17284209830E+02 -0.45363668658E+02 -0.33020606764E+02  0.58710874758E+02  0.51100000000E-03 0. -1.
         23    2    1    0    0    0 -0.17900534982E+02 -0.10452438761E+02 -0.20613767704E+02  0.95766285770E+02  0.91195238048E+02 0.  0.
         11    1    3    3    0    0 -0.61632515211E+00  0.34911229897E+02  0.12406839060E+02  0.37055411012E+02  0.51100000000E-03 0.  1.
         22    1    1    0    0    0  0.17900534982E+02  0.10452438761E+02  0.20613767704E+02  0.29233714230E+02  0.00000000000E+00 0. -1.
</event>
<event>
 5    1  0.3186486E-003  0.9118800E+02  0.7818608E-02  0.1130116E+00
         25   -1    0    0    0    0  0.00000000000E+00  0.00000000000E+00  0.99999998245E-14  0.12500000000E+03  0.12500000000E+03 0.  0.
        -11    1    3    3    0    0 -0.44395804862E+02  0.40018920563E+02 -0.14325588290E+02  0.61463192014E+02  0.51100000000E-03 0. -1.
         23    2    1    0    0    0 -0.25236348598E+02  0.16315681631E+02 -0.46497476965E+00  0.94945200730E+02  0.90062756912E+02 0.  0.
         11    1    3    3    0    0  0.19159456265E+02 -0.23703238933E+02  0.13860613520E+02  0.33482008716E+02  0.51100000000E-03 0.  1.
         22    1    1    0    0    0  0.25236348598E+02 -0.16315681631E+02  0.46497476965E+00  0.30054799270E+02  0.00000000000E+00 0. -1.
</event>
<event>
 5    1  0.3186486E-003  0.9118800E+02  0.7818608E-02  0.1130116E+00
         25   -1    0    0    0    0  0.00000000000E+00  0.00000000000E+00  0.99999998245E-14  0.12500000000E+03  0.12500000000E+03 0.  0.
        -11    1    3    3    0    0 -0.14801241543E+02  0.44445408743E+01  0.39979925005E+02  0.42862863862E+02  0.51100000000E-03 0.  1.
         23    2    1    0    0    0 -0.15981214748E+01  0.28192382078E+02 -0.58695314166E+01  0.96158782992E+02  0.91731650742E+02 0.  0.
         11    1    3    3    0    0  0.13203120069E+02  0.23747841204E+02 -0.45849456422E+02  0.53295919129E+02  0.51100000000E-03 0. -1.
         22    1    1    0    0    0  0.15981214748E+01 -0.28192382078E+02  0.58695314166E+01  0.28841217008E+02  0.00000000000E+00 0.  1.
</event>
<event>
 5    1  0.3186486E-003  0.9118800E+02  0.7818608E-02  0.1130116E+00
         25   -1    0    0    0    0  0.00000000000E+00  0.00000000000E+00  0.99999998245E-14  0.12500000000E+03  0.12500000000E+03 0.  0.
        -11    1    3    3    0    0  0.62095112812E+02  0.42616922803E+01  0.41513988437E+01  0.62379477145E+02  0.51100000000E-03 0.  1.
         23    2    1    0    0    0  0.27273209683E+02 -0.98296228976E-02 -0.16002743085E+00  0.97726319064E+02  0.93843378913E+02 0.  0.
         11    1    3    3    0    0 -0.34821903129E+02 -0.42715219032E+01 -0.43114262746E+01  0.35346841919E+02  0.51100000000E-03 0. -1.
         22    1    1    0    0    0 -0.27273209683E+02  0.98296228976E-02  0.16002743085E+00  0.27273680936E+02  0.00000000000E+00 0.  1.
</event>
<event>
 5    1  0.3186486E-003  0.9118800E+02  0.7818608E-02  0.1130116E+00
         25   -1    0    0    0    0  0.00000000000E+00  0.00000000000E+00  0.99999998245E-14  0.12500000000E+03  0.12500000000E+03 0.  0.
        -11    1    3    3    0    0 -0.19299136789E+02  0.11966186401E+02 -0.44126198163E+02  0.49626279957E+02  0.51100000000E-03 0. -1.
         23    2    1    0    0    0 -0.25979832760E+02  0.12704958217E+02  0.17831583946E+01  0.96025056904E+02  0.91549244814E+02 0.  0.
         11    1    3    3    0    0 -0.66806959716E+01  0.73877181577E+00  0.45909356557E+02  0.46398776948E+02  0.51100000000E-03 0.  1.
         22    1    1    0    0    0  0.25979832760E+02 -0.12704958217E+02 -0.17831583946E+01  0.28974943096E+02  0.00000000000E+00 0.  1.
</event>
<event>
 5    1  0.3186486E-003  0.9118800E+02  0.7818608E-02  0.1130116E+00
         25   -1    0    0    0    0  0.00000000000E+00  0.00000000000E+00  0.99999998245E-14  0.12500000000E+03  0.12500000000E+03 0.  0.
        -11    1    3    3    0    0  0.17777951622E+02 -0.29677946417E+02  0.13427272451E+01  0.34621366006E+02  0.51100000000E-03 0. -1.
         23    2    1    0    0    0 -0.12744553130E+01  0.28478884312E+02  0.55246608338E+01  0.95962214869E+02  0.91463400971E+02 0.  0.
         11    1    3    3    0    0 -0.19052406935E+02  0.58156830729E+02  0.41819335887E+01  0.61340848863E+02  0.51100000000E-03 0.  1.
         22    1    1    0    0    0  0.12744553130E+01 -0.28478884312E+02 -0.55246608338E+01  0.29037785131E+02  0.00000000000E+00 0.  1.
</event>
<event>
 5    1  0.3186486E-003  0.9118800E+02  0.7818608E-02  0.1130116E+00
         25   -1    0    0    0    0  0.00000000000E+00  0.00000000000E+00  0.99999998245E-14  0.12500000000E+03  0.12500000000E+03 0.  0.
        -11    1    3    3    0    0  0.87730479742E+01 -0.39673582599E+02 -0.36046423847E+02  0.54316702767E+02  0.51100000000E-03 0.  1.
         23    2    1    0    0    0 -0.71686501442E+01 -0.32177917233E+01 -0.29288825351E+02  0.94675438686E+02  0.89687566983E+02 0.  0.
         11    1    3    3    0    0 -0.15941698118E+02  0.36455790876E+02  0.67575984960E+01  0.40358735919E+02  0.51100000000E-03 0. -1.
         22    1    1    0    0    0  0.71686501442E+01  0.32177917233E+01  0.29288825351E+02  0.30324561314E+02  0.00000000000E+00 0.  1.
</event>
<event>
 5    1  0.3186486E-003  0.9118800E+02  0.7818608E-02  0.1130116E+00
         25   -1    0    0    0    0  0.00000000000E+00  0.00000000000E+00  0.99999998245E-14  0.12500000000E+03  0.12500000000E+03 0.  0.
        -11    1    3    3    0    0  0.38863443489E+02  0.10626205857E+02  0.22574915651E+02  0.46183441920E+02  0.51100000000E-03 0.  1.
         23    2    1    0    0    0 -0.60595418268E+01 -0.10183134679E+02  0.26624718754E+02  0.95857420708E+02  0.91320069958E+02 0.  0.
         11    1    3    3    0    0 -0.44922985316E+02 -0.20809340536E+02  0.40498031030E+01  0.49673978788E+02  0.51100000000E-03 0. -1.
         22    1    1    0    0    0  0.60595418268E+01  0.10183134679E+02 -0.26624718754E+02  0.29142579292E+02  0.00000000000E+00 0. -1.
</event>
<event>
 5    1  0.3186486E-003  0.9118800E+02  0.7818608E-02  0.1130116E+00
         25   -1    0    0    0    0  0.00000000000E+00  0.00000000000E+00  0.99999998245E-14  0.12500000000E+03  0.12500000000E+03 0.  0.
        -11    1    3    3    0    0 -0.34284540120E+01 -0.36863587787E+02 -0.14616857683E+01  0.37051517202E+02  0.51100000000E-03 0. -1.
         23    2    1    0    0    0 -0.18521954071E+02  0.18909052712E+02  0.11294627286E+02  0.96221819679E+02  0.91817508786E+02 0.  0.
         11    1    3    3    0    0 -0.15093500059E+02  0.55772640498E+02  0.12756313055E+02  0.59170302477E+02  0.51100000000E-03 0.  1.
         22    1    1    0    0    0  0.18521954071E+02 -0.18909052712E+02 -0.11294627286E+02  0.28778180321E+02  0.00000000000E+00 0.  1.
</event>
<event>
 5    1  0.3186486E-003  0.9118800E+02  0.7818608E-02  0.1130116E+00
         25   -1    0    0    0    0  0.00000000000E+00  0.00000000000E+00  0.99999998245E-14  0.12500000000E+03  0.12500000000E+03 0.  0.
        -11    1    3    3    0    0 -0.26900798817E+01  0.33838188662E+02 -0.15035817014E+01  0.33978232736E+02  0.51100000000E-03 0. -1.
         23    2    1    0    0    0 -0.44095338963E+01 -0.28121538217E+02 -0.51657883920E+01  0.96069907180E+02  0.91610462257E+02 0.  0.
         11    1    3    3    0    0 -0.17194540147E+01 -0.61959726879E+02 -0.36622066906E+01  0.62091674443E+02  0.51100000000E-03 0.  1.
         22    1    1    0    0    0  0.44095338963E+01  0.28121538217E+02  0.51657883920E+01  0.28930092820E+02  0.00000000000E+00 0.  1.
</event>
<event>
 5    1  0.3186486E-003  0.9118800E+02  0.7818608E-02  0.1130116E+00
         25   -1    0    0    0    0  0.00000000000E+00  0.00000000000E+00  0.99999998245E-14  0.12500000000E+03  0.12500000000E+03 0.  0.
        -11    1    3    3    0    0 -0.10662528604E+02  0.26565745866E+01  0.31720355734E+02  0.33569746393E+02  0.51100000000E-03 0. -1.
         23    2    1    0    0    0 -0.16307318566E+01  0.15410740241E+02 -0.26746027017E+02  0.94088834342E+02  0.88866239852E+02 0.  0.
         11    1    3    3    0    0  0.90317967477E+01  0.12754165654E+02 -0.58466382750E+02  0.60519087949E+02  0.51100000000E-03 0.  1.
         22    1    1    0    0    0  0.16307318566E+01 -0.15410740241E+02  0.26746027017E+02  0.30911165658E+02  0.00000000000E+00 0.  1.
</event>
<event>
 5    1  0.3186486E-003  0.9118800E+02  0.7818608E-02  0.1130116E+00
         25   -1    0    0    0    0  0.00000000000E+00  0.00000000000E+00  0.99999998245E-14  0.12500000000E+03  0.12500000000E+03 0.  0.
        -11    1    3    3    0    0  0.21612907932E+02 -0.82718489987E+01  0.50905336759E+02  0.55918642562E+02  0.51100000000E-03 0.  1.
         23    2    1    0    0    0  0.26732161163E+02  0.40062450555E+00  0.12750762404E+02  0.95379890576E+02  0.90664064788E+02 0.  0.
         11    1    3    3    0    0  0.51192532304E+01  0.86724735043E+01 -0.38154574355E+02  0.39461248014E+02  0.51100000000E-03 0. -1.
         22    1    1    0    0    0 -0.26732161163E+02 -0.40062450555E+00 -0.12750762404E+02  0.29620109424E+02  0.00000000000E+00 0.  1.
</event>
<event>
 5    1  0.3186486E-003  0.9118800E+02  0.7818608E-02  0.1130116E+00
         25   -1    0    0    0    0  0.00000000000E+00  0.00000000000E+00  0.99999998245E-14  0.12500000000E+03  0.12500000000E+03 0.  0.
        -11    1    3    3    0    0  0.10330208867E+02 -0.47422614655E+02 -0.36326301073E+02  0.60623574176E+02  0.51100000000E-03 0.  1.
         23    2    1    0    0    0  0.15054211372E+02 -0.19318816672E+02 -0.19273625436E+02  0.93834015416E+02  0.88507083638E+02 0.  0.
         11    1    3    3    0    0  0.47240025052E+01  0.28103797983E+02  0.17052675637E+02  0.33210441241E+02  0.51100000000E-03 0. -1.
         22    1    1    0    0    0 -0.15054211372E+02  0.19318816672E+02  0.19273625436E+02  0.31165984584E+02  0.00000000000E+00 0.  1.
</event>
<event>
 5    1  0.3186486E-003  0.9118800E+02  0.7818608E-02  0.1130116E+00
         25   -1    0    0    0    0  0.00000000000E+00  0.00000000000E+00  0.99999998245E-14  0.12500000000E+03  0.12500000000E+03 0.  0.
        -11    1    3    3    0    0  0.24714707275E+02  0.35202799106E+02 -0.15010530293E+02  0.45556227242E+02  0.51100000000E-03 0.  1.
         23    2    1    0    0    0 -0.16605348221E+02 -0.36687915391E+01 -0.15056398333E+02  0.10228672741E+03  0.99733052961E+02 0.  0.
         11    1    3    3    0    0 -0.41320055495E+02 -0.38871590645E+02 -0.45868040919E-01  0.56730500170E+02  0.51100000000E-03 0. -1.
         22    1    1    0    0    0  0.16605348221E+02  0.36687915391E+01  0.15056398333E+02  0.22713272588E+02  0.00000000000E+00 0. -1.
</event>
<event>
 5    1  0.3186486E-003  0.9118800E+02  0.7818608E-02  0.1130116E+00
         25   -1    0    0    0    0  0.00000000000E+00  0.00000000000E+00  0.99999998245E-14  0.12500000000E+03  0.12500000000E+03 0.  0.
        -11    1    3    3    0    0  0.19385852349E+02 -0.21672533185E+02  0.17241661024E+02  0.33805100814E+02  0.51100000000E-03 0. -1.
         23    2    1    0    0    0 -0.66890232158E+01  0.22928014892E+02 -0.16909894975E+02  0.95736004262E+02  0.91153722170E+02 0.  0.
         11    1    3    3    0    0 -0.26074875565E+02  0.44600548077E+02 -0.34151555999E+02  0.61930903448E+02  0.51100000000E-03 0.  1.
         22    1    1    0    0    0  0.66890232158E+01 -0.22928014892E+02  0.16909894975E+02  0.29263995738E+02  0.00000000000E+00 0.  1.
</event>
<event>
 5    1  0.3186486E-003  0.9118800E+02  0.7818608E-02  0.1130116E+00
         25   -1    0    0    0    0  0.00000000000E+00  0.00000000000E+00  0.99999998245E-14  0.12500000000E+03  0.12500000000E+03 0.  0.
        -11    1    3    3    0    0  0.17219130225E+02 -0.38370986891E+02 -0.13287709297E+02  0.44106624211E+02  0.51100000000E-03 0.  1.
         23    2    1    0    0    0  0.19667624847E+02  0.29543975850E+00  0.21274236837E+02  0.96025944282E+02  0.91550456419E+02 0.  0.
         11    1    3    3    0    0  0.24484946224E+01  0.38666426649E+02  0.34561946134E+02  0.51919320070E+02  0.51100000000E-03 0. -1.
         22    1    1    0    0    0 -0.19667624847E+02 -0.29543975850E+00 -0.21274236837E+02  0.28974055718E+02  0.00000000000E+00 0. -1.
</event>
<event>
 5    1  0.3186486E-003  0.9118800E+02  0.7818608E-02  0.1130116E+00
         25   -1    0    0    0    0  0.00000000000E+00  0.00000000000E+00  0.99999998245E-14  0.12500000000E+03  0.12500000000E+03 0.  0.
        -11    1    3    3    0    0  0.21567970663E+02 -0.10140138811E+02 -0.30988643865E+02  0.39093424287E+02  0.51100000000E-03 0.  1.
         23    2    1    0    0    0 -0.12411538688E+02  0.25076495480E+02  0.61446872257E-02  0.97020061546E+02  0.92897876114E+02 0.  0.
         11    1    3    3    0    0 -0.33979509351E+02  0.35216634290E+02  0.30994788552E+02  0.57926637259E+02  0.51100000000E-03 0. -1.
         22    1    1    0    0    0  0.12411538688E+02 -0.25076495480E+02 -0.61446872257E-02  0.27979938454E+02  0.00000000000E+00 0. -1.
</event>
<event>
 5    1  0.3186486E-003  0.9118800E+02  0.7818608E-02  0.1130116E+00
         25   -1    0    0    0    0  0.00000000000E+00  0.00000000000E+00  0.99999998245E-14  0.12500000000E+03  0.12500000000E+03 0.  0.
        -11    1    3    3    0    0  0.35577745981E+02 -0.76729184042E+01 -0.10285577672E+02  0.37821195040E+02  0.51100000000E-03 0. -1.
         23    2    1    0    0    0 -0.11037207144E+02  0.26534923736E+02 -0.27535687658E+01  0.96129526153E+02  0.91691774648E+02 0.  0.
         11    1    3    3    0    0 -0.46614953125E+02  0.34207842141E+02  0.75320089062E+01  0.58308331113E+02  0.51100000000E-03 0.  1.
         22    1    1    0    0    0  0.11037207144E+02 -0.26534923736E+02  0.27535687658E+01  0.28870473847E+02  0.00000000000E+00 0.  1.
</event>
<event>
 5    1  0.3186486E-003  0.9118800E+02  0.7818608E-02  0.1130116E+00
         25   -1    0    0    0    0  0.00000000000E+00  0.00000000000E+00  0.99999998245E-14  0.12500000000E+03  0.12500000000E+03 0.  0.
        -11    1    3    3    0    0 -0.15758862312E+02  0.39549328149E+02 -0.41299820808E+02  0.59314132359E+02  0.51100000000E-03 0.  1.
         23    2    1    0    0    0 -0.19356646648E+02  0.17746272889E+02 -0.11704394912E+02  0.96249298597E+02  0.91854910861E+02 0.  0.
         11    1    3    3    0    0 -0.35977843357E+01 -0.21803055260E+02  0.29595425897E+02  0.36935166238E+02  0.51100000000E-03 0. -1.
         22    1    1    0    0    0  0.19356646648E+02 -0.17746272889E+02  0.11704394912E+02  0.28750701403E+02  0.00000000000E+00 0.  1.
</event>
<event>
 5    1  0.3186486E-003  0.9118800E+02  0.7818608E-02  0.1130116E+00
         25   -1    0    0    0    0  0.00000000000E+00  0.00000000000E+00  0.99999998245E-14  0.12500000000E+03  0.12500000000E+03 0.  0.
        -11    1    3    3    0    0  0.68293081678E+01  0.54848245731E+02  0.22943952104E+01  0.55319379601E+02  0.51100000000E-03 0.  1.
         23    2    1    0    0    0  0.17086360474E+02  0.16569783177E+02 -0.13098190903E+02  0.97832666054E+02  0.93984927055E+02 0.  0.
         11    1    3    3    0    0  0.10257052306E+02 -0.38278462554E+02 -0.15392586114E+02  0.42513286453E+02  0.51100000000E-03 0. -1.
         22    1    1    0    0    0 -0.17086360474E+02 -0.16569783177E+02  0.13098190903E+02  0.27167333946E+02  0.00000000000E+00 0.  1.
</event>
<event>
 5    1  0.3186486E-003  0.9118800E+02  0.7818608E-02  0.1130116E+00
         25   -1    0    0    0    0  0.00000000000E+00  0.00000000000E+00  0.99999998245E-14  0.12500000000E+03  0.12500000000E+03 0.  0.
        -11    1    3    3    0    0  0.54448762753E+02 -0.20761640805E+02 -0.90031852401E+00  0.58279705455E+02  0.51100000000E-03 0.  1.
         23    2    1    0    0    0  0.26182291462E+02 -0.17830282716E+01 -0.14588159201E+02  0.94974911076E+02  0.90103983092E+02 0.  0.
         11    1    3    3    0    0 -0.28266471291E+02  0.18978612534E+02 -0.13687840677E+02  0.36695205621E+02  0.51100000000E-03 0. -1.
         22    1    1    0    0    0 -0.26182291462E+02  0.17830282716E+01  0.14588159201E+02  0.30025088924E+02  0.00000000000E+00 0.  1.
</event>
<event>
 5    1  0.3186486E-003  0.9118800E+02  0.7818608E-02  0.1130116E+00
         25   -1    0    0    0    0  0.00000000000E+00  0.00000000000E+00  0.99999998245E-14  0.12500000000E+03  0.12500000000E+03 0.  0.
        -11    1    3    3    0    0  0.28894291793E+02  0.31457309363E+01  0.16930800719E+02  0.33636702196E+02  0.51100000000E-03 0.  1.
         23    2    1    0    0    0 -0.19446611066E+02 -0.53575854082E+01 -0.21160033824E+02  0.95766091011E+02  0.91194971093E+02 0.  0.
         11    1    3    3    0    0 -0.48340902860E+02 -0.85033163445E+01 -0.38090834542E+02  0.62129388815E+02  0.51100000000E-03 0. -1.
         22    1    1    0    0    0  0.19446611066E+02  0.53575854082E+01  0.21160033824E+02  0.29233908989E+02  0.00000000000E+00 0. -1.
</event>
<event>
 4    1  0.3186486E-003  0.9118800E+02  0.7818608E-02  0.1130116E+00
         25   -1    0    0    0    0  0.00000000000E+00  0.00000000000E+00  0.99999998245E-14  0.12500000000E+03  0.12500000000E+03 0.  0.
        -11    1    1    0    0    0  0.38476824688E+01  0.57666602837E+02 -0.11137108665E+02  0.58858108472E+02  0.51100000000E-03 0.  1.
         11    1    1    0    0    0 -0.10024088416E+02 -0.37646315346E+01  0.39509795856E+01  0.11413371067E+02  0.51100000000E-03 0. -1.
         22    1    1    0    0    0  0.61764059473E+01 -0.53901971303E+02  0.71861290789E+01  0.54728520461E+02  0.00000000000E+00 0.  1.
</event>
<event>
 5    1  0.3186486E-003  0.9118800E+02  0.7818608E-02  0.1130116E+00
         25   -1    0    0    0    0  0.00000000000E+00  0.00000000000E+00  0.99999998245E-14  0.12500000000E+03  0.12500000000E+03 0.  0.
        -11    1    3    3    0    0 -0.39142589483E+02 -0.22604416235E+02  0.33926070725E+02  0.56516194314E+02  0.51100000000E-03 0.  1.
         23    2    1    0    0    0 -0.20871948190E+02 -0.17449085788E+02 -0.25898413123E+01  0.97672063852E+02  0.93771082766E+02 0.  0.
         11    1    3    3    0    0  0.18270641293E+02  0.51553304468E+01 -0.36515912037E+02  0.41155869538E+02  0.51100000000E-03 0. -1.
         22    1    1    0    0    0  0.20871948190E+02  0.17449085788E+02  0.25898413123E+01  0.27327936148E+02  0.00000000000E+00 0.  1.
</event>
<event>
 5    1  0.3186486E-003  0.9118800E+02  0.7818608E-02  0.1130116E+00
         25   -1    0    0    0    0  0.00000000000E+00  0.00000000000E+00  0.99999998245E-14  0.12500000000E+03  0.12500000000E+03 0.  0.
        -11    1    3    3    0    0 -0.32796442424E+02  0.41709188944E+02  0.19998285526E+02  0.56702685142E+02  0.51100000000E-03 0.  1.
         23    2    1    0    0    0 -0.11456074233E+02  0.27283738487E+02 -0.75941057967E+01  0.94449804165E+02  0.89372540757E+02 0.  0.
         11    1    3    3    0    0  0.21340368191E+02 -0.14425450457E+02 -0.27592391322E+02  0.37747119023E+02  0.51100000000E-03 0. -1.
         22    1    1    0    0    0  0.11456074233E+02 -0.27283738487E+02  0.75941057967E+01  0.30550195835E+02  0.00000000000E+00 0.  1.
</event>
<event>
 5    1  0.3186486E-003  0.9118800E+02  0.7818608E-02  0.1130116E+00
         25   -1    0    0    0    0  0.00000000000E+00  0.00000000000E+00  0.99999998245E-14  0.12500000000E+03  0.12500000000E+03 0.  0.
        -11    1    3    3    0    0 -0.47597123489E+02 -0.10476021304E+01 -0.57470573381E+01  0.47954273042E+02  0.51100000000E-03 0. -1.
         23    2    1    0    0    0 -0.77516911249E+01 -0.26764646451E+02 -0.95843662024E+01  0.95533152689E+02  0.90875124056E+02 0.  0.
         11    1    3    3    0    0  0.39845432364E+02 -0.25717044321E+02 -0.38373088643E+01  0.47578879647E+02  0.51100000000E-03 0.  1.
         22    1    1    0    0    0  0.77516911249E+01  0.26764646451E+02  0.95843662024E+01  0.29466847311E+02  0.00000000000E+00 0. -1.
</event>
<event>
 5    1  0.3186486E-003  0.9118800E+02  0.7818608E-02  0.1130116E+00
         25   -1    0    0    0    0  0.00000000000E+00  0.00000000000E+00  0.99999998245E-14  0.12500000000E+03  0.12500000000E+03 0.  0.
        -11    1    3    3    0    0  0.50385918935E+02  0.30358695839E+02 -0.89302362865E+01  0.59499078651E+02  0.51100000000E-03 0.  1.
         23    2    1    0    0    0  0.15881334723E+02  0.24680062106E+02  0.24185847047E+00  0.95650711190E+02  0.91036683801E+02 0.  0.
         11    1    3    3    0    0 -0.34504584211E+02 -0.56786337332E+01  0.91720947570E+01  0.36151632538E+02  0.51100000000E-03 0. -1.
         22    1    1    0    0    0 -0.15881334723E+02 -0.24680062106E+02 -0.24185847047E+00  0.29349288810E+02  0.00000000000E+00 0.  1.
</event>
<event>
 5    1  0.3186486E-003  0.9118800E+02  0.7818608E-02  0.1130116E+00
         25   -1    0    0    0    0  0.00000000000E+00  0.00000000000E+00  0.99999998245E-14  0.12500000000E+03  0.12500000000E+03 0.  0.
        -11    1    3    3    0    0 -0.28221897772E+02 -0.30940867928E+02  0.18037453523E+02  0.45597834947E+02  0.51100000000E-03 0.  1.
         23    2    1    0    0    0  0.19170681013E+02 -0.21821408803E+02  0.76067661441E+01  0.94974148075E+02  0.90102924585E+02 0.  0.
         11    1    3    3    0    0  0.47392578785E+02  0.91194591257E+01 -0.10430687379E+02  0.49376313128E+02  0.51100000000E-03 0. -1.
         22    1    1    0    0    0 -0.19170681013E+02  0.21821408803E+02 -0.76067661441E+01  0.30025851925E+02  0.00000000000E+00 0. -1.
</event>
<event>
 5    1  0.3186486E-003  0.9118800E+02  0.7818608E-02  0.1130116E+00
         25   -1    0    0    0    0  0.00000000000E+00  0.00000000000E+00  0.99999998245E-14  0.12500000000E+03  0.12500000000E+03 0.  0.
        -11    1    3    3    0    0  0.49947070325E+00  0.24081402650E+02  0.26558181822E+02  0.35853876311E+02  0.51100000000E-03 0. -1.
         23    2    1    0    0    0  0.43788916935E+01 -0.27292540767E+02 -0.58860205267E+01  0.96738671093E+02  0.92518472605E+02 0.  0.
         11    1    3    3    0    0  0.38794209902E+01 -0.51373943416E+02 -0.32444202349E+02  0.60884794782E+02  0.51100000000E-03 0.  1.
         22    1    1    0    0    0 -0.43788916935E+01  0.27292540767E+02  0.58860205267E+01  0.28261328907E+02  0.00000000000E+00 0.  1.
</event>
<event>
 5    1  0.3186486E-003  0.9118800E+02  0.7818608E-02  0.1130116E+00
         25   -1    0    0    0    0  0.00000000000E+00  0.00000000000E+00  0.99999998245E-14  0.12500000000E+03  0.12500000000E+03 0.  0.
        -11    1    3    3    0    0  0.39138698747E+01  0.23214056348E+02  0.29379989605E+02  0.37648301143E+02  0.51100000000E-03 0.  1.
         23    2    1    0    0    0 -0.15693208877E+02 -0.24500525576E+02  0.25539904177E+01  0.95792545037E+02  0.91231224147E+02 0.  0.
         11    1    3    3    0    0 -0.19607078751E+02 -0.47714581924E+02 -0.26825999187E+02  0.58144243894E+02  0.51100000000E-03 0. -1.
         22    1    1    0    0    0  0.15693208877E+02  0.24500525576E+02 -0.25539904177E+01  0.29207454963E+02  0.00000000000E+00 0. -1.
</event>
<event>
 4    1  0.3186486E-003  0.9118800E+02  0.7818608E-02  0.1130116E+00
         25   -1    0    0    0    0  0.00000000000E+00  0.00000000000E+00  0.99999998245E-14  0.12500000000E+03  0.12500000000E+03 0.  0.
        -11    1    1    0    0    0 -0.71860533563E+00  0.47220360432E+01 -0.23541775437E+02  0.24021432284E+02  0.51100000000E-03 0.  1.
         11    1    1    0    0    0 -0.23985123329E+02  0.40000064230E+02  0.63397789033E+01  0.47068928990E+02  0.51100000000E-03 0. -1.
         22    1    1    0    0    0  0.24703728665E+02 -0.44722100273E+02  0.17201996533E+02  0.53909638725E+02  0.00000000000E+00 0. -1.
</event>
<event>
 5    1  0.3186486E-003  0.9118800E+02  0.7818608E-02  0.1130116E+00
         25   -1    0    0    0    0  0.00000000000E+00  0.00000000000E+00  0.99999998245E-14  0.12500000000E+03  0.12500000000E+03 0.  0.
        -11    1    3    3    0    0 -0.14832326545E+02 -0.12856811505E+02  0.30546940266E+02  0.36309930772E+02  0.51100000000E-03 0.  1.
         23    2    1    0    0    0  0.21197732797E+02  0.18499302296E+02 -0.57293300060E+01  0.96287750288E+02  0.91907222633E+02 0.  0.
         11    1    3    3    0    0  0.36030059342E+02  0.31356113801E+02 -0.36276270272E+02  0.59977819517E+02  0.51100000000E-03 0. -1.
         22    1    1    0    0    0 -0.21197732797E+02 -0.18499302296E+02  0.57293300060E+01  0.28712249712E+02  0.00000000000E+00 0. -1.
</event>
<event>
 5    1  0.3186486E-003  0.9118800E+02  0.7818608E-02  0.1130116E+00
         25   -1    0    0    0    0  0.00000000000E+00  0.00000000000E+00  0.99999998245E-14  0.12500000000E+03  0.12500000000E+03 0.  0.
        -11    1    3    3    0    0  0.34704258120E+02  0.38504953186E+02 -0.34547753664E+02  0.62294174969E+02  0.51100000000E-03 0.  1.
         23    2    1    0    0    0  0.14511636729E+02  0.20729609303E+02 -0.14588011165E+02  0.95791878319E+02  0.91230310641E+02 0.  0.
         11    1    3    3    0    0 -0.20192621391E+02 -0.17775343883E+02  0.19959742499E+02  0.33497703350E+02  0.51100000000E-03 0. -1.
         22    1    1    0    0    0 -0.14511636729E+02 -0.20729609303E+02  0.14588011165E+02  0.29208121681E+02  0.00000000000E+00 0.  1.
</event>
<event>
 5    1  0.3186486E-003  0.9118800E+02  0.7818608E-02  0.1130116E+00
         25   -1    0    0    0    0  0.00000000000E+00  0.00000000000E+00  0.99999998245E-14  0.12500000000E+03  0.12500000000E+03 0.  0.
        -11    1    3    3    0    0 -0.63549595123E+01 -0.37925313843E+02 -0.48003773906E+02  0.61506725242E+02  0.51100000000E-03 0.  1.
         23    2    1    0    0    0 -0.69663405478E+01 -0.14335693026E+02 -0.29406627165E+02  0.91551656000E+02  0.85222731709E+02 0.  0.
         11    1    3    3    0    0 -0.61138103554E+00  0.23589620817E+02  0.18597146742E+02  0.30044930758E+02  0.51100000000E-03 0. -1.
         22    1    1    0    0    0  0.69663405478E+01  0.14335693026E+02  0.29406627165E+02  0.33448344000E+02  0.00000000000E+00 0.  1.
</event>
<event>
 5    1  0.3186486E-003  0.9118800E+02  0.7818608E-02  0.1130116E+00
         25   -1    0    0    0    0  0.00000000000E+00  0.00000000000E+00  0.99999998245E-14  0.12500000000E+03  0.12500000000E+03 0.  0.
        -11    1    3    3    0    0 -0.17582899672E+02 -0.32629432155E+02  0.16613878963E+02  0.40618458588E+02  0.51100000000E-03 0.  1.
         23    2    1    0    0    0  0.12338794183E+01  0.20653431122E+02  0.18624321564E+02  0.97162039780E+02  0.93088720826E+02 0.  0.
         11    1    3    3    0    0  0.18816779090E+02  0.53282863276E+02  0.20104426003E+01  0.56543581192E+02  0.51100000000E-03 0. -1.
         22    1    1    0    0    0 -0.12338794183E+01 -0.20653431122E+02 -0.18624321564E+02  0.27837960220E+02  0.00000000000E+00 0.  1.
</event>
<event>
 5    1  0.3186486E-003  0.9118800E+02  0.7818608E-02  0.1130116E+00
         25   -1    0    0    0    0  0.00000000000E+00  0.00000000000E+00  0.99999998245E-14  0.12500000000E+03  0.12500000000E+03 0.  0.
        -11    1    3    3    0    0 -0.33125737887E+02 -0.95941330248E+01 -0.14495080189E+02  0.37409480737E+02  0.51100000000E-03 0. -1.
         23    2    1    0    0    0  0.22494469750E+02 -0.19085530341E+02 -0.71903380654E+00  0.95491092068E+02  0.90817250657E+02 0.  0.
         11    1    3    3    0    0  0.55620207637E+02 -0.94913973166E+01  0.13776046383E+02  0.58081611331E+02  0.51100000000E-03 0.  1.
         22    1    1    0    0    0 -0.22494469750E+02  0.19085530341E+02  0.71903380654E+00  0.29508907932E+02  0.00000000000E+00 0.  1.
</event>
<event>
 5    1  0.3186486E-003  0.9118800E+02  0.7818608E-02  0.1130116E+00
         25   -1    0    0    0    0  0.00000000000E+00  0.00000000000E+00  0.99999998245E-14  0.12500000000E+03  0.12500000000E+03 0.  0.
        -11    1    3    3    0    0 -0.33834189208E+02  0.45699395533E+01  0.16104450636E+02  0.37749040218E+02  0.51100000000E-03 0. -1.
         23    2    1    0    0    0  0.17655330726E+02  0.23842691491E+02 -0.96567597618E+00  0.95316382116E+02  0.90576462334E+02 0.  0.
         11    1    3    3    0    0  0.51489519934E+02  0.19272751938E+02 -0.17070126612E+02  0.57567341897E+02  0.51100000000E-03 0.  1.
         22    1    1    0    0    0 -0.17655330726E+02 -0.23842691491E+02  0.96567597618E+00  0.29683617884E+02  0.00000000000E+00 0.  1.
</event>
<event>
 5    1  0.3186486E-003  0.9118800E+02  0.7818608E-02  0.1130116E+00
         25   -1    0    0    0    0  0.00000000000E+00  0.00000000000E+00  0.99999998245E-14  0.12500000000E+03  0.12500000000E+03 0.  0.
        -11    1    3    3    0    0 -0.26599885680E+02  0.18823221408E+02 -0.52215152926E+02  0.61549084296E+02  0.51100000000E-03 0.  1.
         23    2    1    0    0    0 -0.22772232377E+02  0.16846208989E+02 -0.31801428402E+02  0.82412441099E+02  0.70555724607E+02 0.  0.
         11    1    3    3    0    0  0.38276533034E+01 -0.19770124182E+01  0.20413724524E+02  0.20863356803E+02  0.51100000000E-03 0. -1.
         22    1    1    0    0    0  0.22772232377E+02 -0.16846208989E+02  0.31801428402E+02  0.42587558901E+02  0.00000000000E+00 0.  1.
</event>
<event>
 5    1  0.3186486E-003  0.9118800E+02  0.7818608E-02  0.1130116E+00
         25   -1    0    0    0    0  0.00000000000E+00  0.00000000000E+00  0.99999998245E-14  0.12500000000E+03  0.12500000000E+03 0.  0.
        -11    1    3    3    0    0  0.46869439988E+02 -0.22991149043E+02  0.30535124900E+01  0.52293988927E+02  0.51100000000E-03 0. -1.
         23    2    1    0    0    0  0.97885720836E+01 -0.32359341049E+02  0.60434230752E+01  0.90656644616E+02  0.83899708903E+02 0.  0.
         11    1    3    3    0    0 -0.37080867904E+02 -0.93681920056E+01  0.29899105853E+01  0.38362655689E+02  0.51100000000E-03 0.  1.
         22    1    1    0    0    0 -0.97885720836E+01  0.32359341049E+02 -0.60434230752E+01  0.34343355384E+02  0.00000000000E+00 0. -1.
</event>
<event>
 5    1  0.3186486E-003  0.9118800E+02  0.7818608E-02  0.1130116E+00
         25   -1    0    0    0    0  0.00000000000E+00  0.00000000000E+00  0.99999998245E-14  0.12500000000E+03  0.12500000000E+03 0.  0.
        -11    1    3    3    0    0 -0.34861094368E+02  0.11028636490E+02 -0.46092737966E+02  0.58834235074E+02  0.51100000000E-03 0. -1.
         23    2    1    0    0    0 -0.26108878231E+02 -0.39473964533E+01 -0.14501230205E+02  0.94874576539E+02  0.89964682709E+02 0.  0.
         11    1    3    3    0    0  0.87522161369E+01 -0.14976032943E+02  0.31591507761E+02  0.36040341465E+02  0.51100000000E-03 0.  1.
         22    1    1    0    0    0  0.26108878231E+02  0.39473964533E+01  0.14501230205E+02  0.30125423461E+02  0.00000000000E+00 0. -1.
</event>
<event>
 5    1  0.3186486E-003  0.9118800E+02  0.7818608E-02  0.1130116E+00
         25   -1    0    0    0    0  0.00000000000E+00  0.00000000000E+00  0.99999998245E-14  0.12500000000E+03  0.12500000000E+03 0.  0.
        -11    1    3    3    0    0 -0.17577381206E+02  0.18296442059E+02  0.18531482661E+02  0.31418783744E+02  0.51100000000E-03 0. -1.
         23    2    1    0    0    0  0.16969775356E+02 -0.21385770421E+02 -0.15040135409E+02  0.93830621995E+02  0.88502290924E+02 0.  0.
         11    1    3    3    0    0  0.34547156562E+02 -0.39682212480E+02 -0.33571618069E+02  0.62411838251E+02  0.51100000000E-03 0.  1.
         22    1    1    0    0    0 -0.16969775356E+02  0.21385770421E+02  0.15040135409E+02  0.31169378005E+02  0.00000000000E+00 0.  1.
</event>
<event>
 5    1  0.3186486E-003  0.9118800E+02  0.7818608E-02  0.1130116E+00
         25   -1    0    0    0    0  0.00000000000E+00  0.00000000000E+00  0.99999998245E-14  0.12500000000E+03  0.12500000000E+03 0.  0.
        -11    1    3    3    0    0 -0.54112605885E+01 -0.15061897155E+02  0.42944805827E+02  0.45830108388E+02  0.51100000000E-03 0.  1.
         23    2    1    0    0    0 -0.23736950700E+02  0.12595401281E+02  0.26918969258E+01  0.97993829020E+02  0.94199030010E+02 0.  0.
         11    1    3    3    0    0 -0.18325690111E+02  0.27657298436E+02 -0.40252908902E+02  0.52163720632E+02  0.51100000000E-03 0. -1.
         22    1    1    0    0    0  0.23736950700E+02 -0.12595401281E+02 -0.26918969258E+01  0.27006170980E+02  0.00000000000E+00 0. -1.
</event>
<event>
 5    1  0.3186486E-003  0.9118800E+02  0.7818608E-02  0.1130116E+00
         25   -1    0    0    0    0  0.00000000000E+00  0.00000000000E+00  0.99999998245E-14  0.12500000000E+03  0.12500000000E+03 0.  0.
        -11    1    3    3    0    0 -0.55068629445E+02  0.22171389607E+02  0.80701405056E+01  0.59910363328E+02  0.51100000000E-03 0.  1.
         23    2    1    0    0    0 -0.28971766045E+02 -0.19654729739E+01  0.38427924144E+01  0.95708476221E+02  0.91115964875E+02 0.  0.
         11    1    3    3    0    0  0.26096863400E+02 -0.24136862581E+02 -0.42273480912E+01  0.35798112893E+02  0.51100000000E-03 0. -1.
         22    1    1    0    0    0  0.28971766045E+02  0.19654729739E+01 -0.38427924144E+01  0.29291523779E+02  0.00000000000E+00 0.  1.
</event>
<event>
 5    1  0.3186486E-003  0.9118800E+02  0.7818608E-02  0.1130116E+00
         25   -1    0    0    0    0  0.00000000000E+00  0.00000000000E+00  0.99999998245E-14  0.12500000000E+03  0.12500000000E+03 0.  0.
        -11    1    3    3    0    0  0.65554724287E+01  0.27019977411E+02  0.21348395723E+02  0.35054349206E+02  0.51100000000E-03 0.  1.
         23    2    1    0    0    0 -0.22032221810E+02 -0.19325980366E+02 -0.45305456790E+01  0.95344677389E+02  0.90615502798E+02 0.  0.
         11    1    3    3    0    0 -0.28587694239E+02 -0.46345957777E+02 -0.25878941402E+02  0.60290328183E+02  0.51100000000E-03 0. -1.
         22    1    1    0    0    0  0.22032221810E+02  0.19325980366E+02  0.45305456790E+01  0.29655322611E+02  0.00000000000E+00 0. -1.
</event>
<event>
 5    1  0.3186486E-003  0.9118800E+02  0.7818608E-02  0.1130116E+00
         25   -1    0    0    0    0  0.00000000000E+00  0.00000000000E+00  0.99999998245E-14  0.12500000000E+03  0.12500000000E+03 0.  0.
        -11    1    3    3    0    0 -0.21722349320E+02 -0.30882732015E+02 -0.50328555296E+01  0.38091117492E+02  0.51100000000E-03 0. -1.
         23    2    1    0    0    0 -0.14902765200E+01  0.19858127535E+02 -0.22033134811E+02  0.95301091217E+02  0.90555357678E+02 0.  0.
         11    1    3    3    0    0  0.20232072800E+02  0.50740859550E+02 -0.17000279282E+02  0.57209973725E+02  0.51100000000E-03 0.  1.
         22    1    1    0    0    0  0.14902765200E+01 -0.19858127535E+02  0.22033134811E+02  0.29698908783E+02  0.00000000000E+00 0.  1.
</event>
<event>
 5    1  0.3186486E-003  0.9118800E+02  0.7818608E-02  0.1130116E+00
         25   -1    0    0    0    0  0.00000000000E+00  0.00000000000E+00  0.99999998245E-14  0.12500000000E+03  0.12500000000E+03 0.  0.
        -11    1    3    3    0    0  0.57745796636E+01 -0.26922833050E+02  0.27396272070E+02  0.38842508072E+02  0.51100000000E-03 0. -1.
         23    2    1    0    0    0  0.10000711813E+02 -0.70824969157E+01 -0.26160053475E+02  0.96111864076E+02  0.91667693431E+02 0.  0.
         11    1    3    3    0    0  0.42261321494E+01  0.19840336135E+02 -0.53556325546E+02  0.57269356004E+02  0.51100000000E-03 0.  1.
         22    1    1    0    0    0 -0.10000711813E+02  0.70824969157E+01  0.26160053475E+02  0.28888135924E+02  0.00000000000E+00 0.  1.
</event>
<event>
 5    1  0.3186486E-003  0.9118800E+02  0.7818608E-02  0.1130116E+00
         25   -1    0    0    0    0  0.00000000000E+00  0.00000000000E+00  0.99999998245E-14  0.12500000000E+03  0.12500000000E+03 0.  0.
        -11    1    3    3    0    0 -0.16641146499E+02  0.18660505529E+02 -0.33734778767E+02  0.41990207455E+02  0.51100000000E-03 0. -1.
         23    2    1    0    0    0 -0.67646395756E+00  0.20497512798E+02  0.18953303425E+02  0.97074503673E+02  0.92971102598E+02 0.  0.
         11    1    3    3    0    0  0.15964682542E+02  0.18370072685E+01  0.52688082193E+02  0.55084296217E+02  0.51100000000E-03 0.  1.
         22    1    1    0    0    0  0.67646395756E+00 -0.20497512798E+02 -0.18953303425E+02  0.27925496327E+02  0.00000000000E+00 0.  1.
</event>
<event>
 5    1  0.3186486E-003  0.9118800E+02  0.7818608E-02  0.1130116E+00
         25   -1    0    0    0    0  0.00000000000E+00  0.00000000000E+00  0.99999998245E-14  0.12500000000E+03  0.12500000000E+03 0.  0.
        -11    1    3    3    0    0  0.17641107328E+02  0.42539179517E+01 -0.47237993412E+01  0.18751500371E+02  0.51100000000E-03 0. -1.
         23    2    1    0    0    0 -0.12950262671E+02 -0.28885221418E+02  0.34252347317E+02  0.78360010545E+02  0.62968266899E+02 0.  0.
         11    1    3    3    0    0 -0.30591369999E+02 -0.33139139369E+02  0.38976146658E+02  0.59608510174E+02  0.51100000000E-03 0.  1.
         22    1    1    0    0    0  0.12950262671E+02  0.28885221418E+02 -0.34252347317E+02  0.46639989455E+02  0.00000000000E+00 0.  1.
</event>
<event>
 5    1  0.3186486E-003  0.9118800E+02  0.7818608E-02  0.1130116E+00
         25   -1    0    0    0    0  0.00000000000E+00  0.00000000000E+00  0.99999998245E-14  0.12500000000E+03  0.12500000000E+03 0.  0.
        -11    1    3    3    0    0 -0.42037426564E+02 -0.21287164104E+02  0.36380205327E+01  0.47260171195E+02  0.51100000000E-03 0.  1.
         23    2    1    0    0    0 -0.42397194169E-01 -0.23964365964E+02 -0.18422865811E+02  0.94772618071E+02  0.89822906420E+02 0.  0.
         11    1    3    3    0    0  0.41995029370E+02 -0.26772018602E+01 -0.22060886344E+02  0.47512446876E+02  0.51100000000E-03 0. -1.
         22    1    1    0    0    0  0.42397194169E-01  0.23964365964E+02  0.18422865811E+02  0.30227381929E+02  0.00000000000E+00 0. -1.
</event>
<event>
 5    1  0.3186486E-003  0.9118800E+02  0.7818608E-02  0.1130116E+00
         25   -1    0    0    0    0  0.00000000000E+00  0.00000000000E+00  0.99999998245E-14  0.12500000000E+03  0.12500000000E+03 0.  0.
        -11    1    3    3    0    0 -0.27640003456E+02  0.40890583019E+02  0.14962666781E+02  0.51574130804E+02  0.51100000000E-03 0.  1.
         23    2    1    0    0    0 -0.27845422405E+02  0.21344053076E+01 -0.71187436847E+01  0.96179872544E+02  0.91760384349E+02 0.  0.
         11    1    3    3    0    0 -0.20541894910E+00 -0.38756177712E+02 -0.22081410466E+02  0.44605741740E+02  0.51100000000E-03 0. -1.
         22    1    1    0    0    0  0.27845422405E+02 -0.21344053076E+01  0.71187436847E+01  0.28820127456E+02  0.00000000000E+00 0.  1.
</event>
<event>
 5    1  0.3186486E-003  0.9118800E+02  0.7818608E-02  0.1130116E+00
         25   -1    0    0    0    0  0.00000000000E+00  0.00000000000E+00  0.99999998245E-14  0.12500000000E+03  0.12500000000E+03 0.  0.
        -11    1    3    3    0    0  0.41457951159E+02 -0.10672863334E+02 -0.24262506798E+02  0.49207123087E+02  0.51100000000E-03 0. -1.
         23    2    1    0    0    0  0.13632789098E+02  0.23839779939E+02 -0.86778223448E+01  0.96199086008E+02  0.91786554037E+02 0.  0.
         11    1    3    3    0    0 -0.27825162062E+02  0.34512643273E+02  0.15584684453E+02  0.46991962922E+02  0.51100000000E-03 0.  1.
         22    1    1    0    0    0 -0.13632789098E+02 -0.23839779939E+02  0.86778223448E+01  0.28800913992E+02  0.00000000000E+00 0. -1.
</event>
<event>
 5    1  0.3186486E-003  0.9118800E+02  0.7818608E-02  0.1130116E+00
         25   -1    0    0    0    0  0.00000000000E+00  0.00000000000E+00  0.99999998245E-14  0.12500000000E+03  0.12500000000E+03 0.  0.
        -11    1    3    3    0    0  0.21970238105E+02 -0.30273659025E+02 -0.48476452566E+02  0.61230321303E+02  0.51100000000E-03 0.  1.
         23    2    1    0    0    0  0.16750873325E+02 -0.16524507017E+02 -0.17004280278E+02  0.95969040025E+02  0.91472728210E+02 0.  0.
         11    1    3    3    0    0 -0.52193647809E+01  0.13749152008E+02  0.31472172288E+02  0.34738718722E+02  0.51100000000E-03 0. -1.
         22    1    1    0    0    0 -0.16750873325E+02  0.16524507017E+02  0.17004280278E+02  0.29030959975E+02  0.00000000000E+00 0.  1.
</event>
<event>
 5    1  0.3186486E-003  0.9118800E+02  0.7818608E-02  0.1130116E+00
         25   -1    0    0    0    0  0.00000000000E+00  0.00000000000E+00  0.99999998245E-14  0.12500000000E+03  0.12500000000E+03 0.  0.
        -11    1    3    3    0    0  0.45049985114E+02  0.12787476726E+02  0.22324188505E+02  0.51878609392E+02  0.51100000000E-03 0.  1.
         23    2    1    0    0    0  0.19563715009E+02 -0.19698682552E+02  0.44043969924E+01  0.96889935039E+02  0.92722617305E+02 0.  0.
         11    1    3    3    0    0 -0.25486270105E+02 -0.32486159277E+02 -0.17919791512E+02  0.45011325648E+02  0.51100000000E-03 0. -1.
         22    1    1    0    0    0 -0.19563715009E+02  0.19698682552E+02 -0.44043969924E+01  0.28110064961E+02  0.00000000000E+00 0. -1.
</event>
<event>
 5    1  0.3186486E-003  0.9118800E+02  0.7818608E-02  0.1130116E+00
         25   -1    0    0    0    0  0.00000000000E+00  0.00000000000E+00  0.99999998245E-14  0.12500000000E+03  0.12500000000E+03 0.  0.
        -11    1    3    3    0    0  0.20222516399E+02  0.70285982029E+01 -0.28114160297E+02  0.35337761272E+02  0.51100000000E-03 0. -1.
         23    2    1    0    0    0 -0.30527953627E+02  0.67953694721E+01  0.73680160403E+00  0.93716204266E+02  0.88340540334E+02 0.  0.
         11    1    3    3    0    0 -0.50750470027E+02 -0.23322873084E+00  0.28850961901E+02  0.58378442994E+02  0.51100000000E-03 0.  1.
         22    1    1    0    0    0  0.30527953627E+02 -0.67953694721E+01 -0.73680160403E+00  0.31283795734E+02  0.00000000000E+00 0.  1.
</event>
<event>
 5    1  0.3186486E-003  0.9118800E+02  0.7818608E-02  0.1130116E+00
         25   -1    0    0    0    0  0.00000000000E+00  0.00000000000E+00  0.99999998245E-14  0.12500000000E+03  0.12500000000E+03 0.  0.
        -11    1    3    3    0    0 -0.77026671715E+01  0.82426422518E+01  0.32494652269E+02  0.34397305987E+02  0.51100000000E-03 0.  1.
         23    2    1    0    0    0  0.19220518869E+02 -0.15472646638E+02 -0.16641307247E+02  0.95238208278E+02  0.90468514244E+02 0.  0.
         11    1    3    3    0    0  0.26923186041E+02 -0.23715288890E+02 -0.49135959516E+02  0.60840902291E+02  0.51100000000E-03 0. -1.
         22    1    1    0    0    0 -0.19220518869E+02  0.15472646638E+02  0.16641307247E+02  0.29761791722E+02  0.00000000000E+00 0. -1.
</event>
<event>
 5    1  0.3186486E-003  0.9118800E+02  0.7818608E-02  0.1130116E+00
         25   -1    0    0    0    0  0.00000000000E+00  0.00000000000E+00  0.99999998245E-14  0.12500000000E+03  0.12500000000E+03 0.  0.
        -11    1    3    3    0    0 -0.28868602460E+02 -0.17518176917E+02  0.34642792137E+02  0.48377740520E+02  0.51100000000E-03 0.  1.
         23    2    1    0    0    0 -0.77482805303E+01 -0.27611517857E+02 -0.63906796247E+01  0.95618499773E+02  0.90992444429E+02 0.  0.
         11    1    3    3    0    0  0.21120321930E+02 -0.10093340940E+02 -0.41033471761E+02  0.47240759253E+02  0.51100000000E-03 0. -1.
         22    1    1    0    0    0  0.77482805303E+01  0.27611517857E+02  0.63906796247E+01  0.29381500227E+02  0.00000000000E+00 0.  1.
</event>
<event>
 5    1  0.3186486E-003  0.9118800E+02  0.7818608E-02  0.1130116E+00
         25   -1    0    0    0    0  0.00000000000E+00  0.00000000000E+00  0.99999998245E-14  0.12500000000E+03  0.12500000000E+03 0.  0.
        -11    1    3    3    0    0  0.23903617118E+02 -0.41615226161E+02 -0.29627552497E+02  0.56400370805E+02  0.51100000000E-03 0. -1.
         23    2    1    0    0    0 -0.64151708379E+01 -0.23760193940E+02 -0.21045873345E+02  0.92617442692E+02  0.86771888726E+02 0.  0.
         11    1    3    3    0    0 -0.30318787956E+02  0.17855032221E+02  0.85816791525E+01  0.36217071887E+02  0.51100000000E-03 0.  1.
         22    1    1    0    0    0  0.64151708379E+01  0.23760193940E+02  0.21045873345E+02  0.32382557308E+02  0.00000000000E+00 0. -1.
</event>
<event>
 5    1  0.3186486E-003  0.9118800E+02  0.7818608E-02  0.1130116E+00
         25   -1    0    0    0    0  0.00000000000E+00  0.00000000000E+00  0.99999998245E-14  0.12500000000E+03  0.12500000000E+03 0.  0.
        -11    1    3    3    0    0 -0.43511689647E+02  0.13154044006E+02  0.17549788398E+02  0.48726697843E+02  0.51100000000E-03 0.  1.
         23    2    1    0    0    0 -0.10864057334E+02  0.21316085589E+02 -0.15977883550E+02  0.96230293548E+02  0.91829044354E+02 0.  0.
         11    1    3    3    0    0  0.32647632313E+02  0.81620415837E+01 -0.33527671948E+02  0.47503595705E+02  0.51100000000E-03 0. -1.
         22    1    1    0    0    0  0.10864057334E+02 -0.21316085589E+02  0.15977883550E+02  0.28769706452E+02  0.00000000000E+00 0.  1.
</event>
<event>
 5    1  0.3186486E-003  0.9118800E+02  0.7818608E-02  0.1130116E+00
         25   -1    0    0    0    0  0.00000000000E+00  0.00000000000E+00  0.99999998245E-14  0.12500000000E+03  0.12500000000E+03 0.  0.
        -11    1    3    3    0    0 -0.44973053477E+02 -0.38615965727E+02 -0.72369835754E+01  0.59717185797E+02  0.51100000000E-03 0.  1.
         23    2    1    0    0    0 -0.12004673555E+02 -0.26069001376E+02  0.21479349526E+01  0.96219474562E+02  0.91814316098E+02 0.  0.
         11    1    3    3    0    0  0.32968379921E+02  0.12546964351E+02  0.93849185281E+01  0.36502288765E+02  0.51100000000E-03 0. -1.
         22    1    1    0    0    0  0.12004673555E+02  0.26069001376E+02 -0.21479349526E+01  0.28780525438E+02  0.00000000000E+00 0.  1.
</event>
<event>
 5    1  0.3186486E-003  0.9118800E+02  0.7818608E-02  0.1130116E+00
         25   -1    0    0    0    0  0.00000000000E+00  0.00000000000E+00  0.99999998245E-14  0.12500000000E+03  0.12500000000E+03 0.  0.
        -11    1    3    3    0    0  0.11761584421E+02 -0.12122454438E+02 -0.54505954364E+02  0.57063016316E+02  0.51100000000E-03 0. -1.
         23    2    1    0    0    0 -0.12902579150E+02 -0.73550382069E+01 -0.25990738854E+02  0.95065210174E+02  0.90229166811E+02 0.  0.
         11    1    3    3    0    0 -0.24664163571E+02  0.47674162312E+01  0.28515215510E+02  0.38002193858E+02  0.51100000000E-03 0.  1.
         22    1    1    0    0    0  0.12902579150E+02  0.73550382069E+01  0.25990738854E+02  0.29934789826E+02  0.00000000000E+00 0. -1.
</event>
<event>
 5    1  0.3186486E-003  0.9118800E+02  0.7818608E-02  0.1130116E+00
         25   -1    0    0    0    0  0.00000000000E+00  0.00000000000E+00  0.99999998245E-14  0.12500000000E+03  0.12500000000E+03 0.  0.
        -11    1    3    3    0    0  0.12748797419E+00  0.30831852424E+02 -0.53953007090E+02  0.62141341725E+02  0.51100000000E-03 0. -1.
         23    2    1    0    0    0 -0.44678085505E+01  0.15651726541E+02 -0.24659499403E+02  0.95452939778E+02  0.90764723018E+02 0.  0.
         11    1    3    3    0    0 -0.45952965247E+01 -0.15180125883E+02  0.29293507687E+02  0.33311598053E+02  0.51100000000E-03 0.  1.
         22    1    1    0    0    0  0.44678085505E+01 -0.15651726541E+02  0.24659499403E+02  0.29547060222E+02  0.00000000000E+00 0. -1.
</event>
<event>
 5    1  0.3186486E-003  0.9118800E+02  0.7818608E-02  0.1130116E+00
         25   -1    0    0    0    0  0.00000000000E+00  0.00000000000E+00  0.99999998245E-14  0.12500000000E+03  0.12500000000E+03 0.  0.
        -11    1    3    3    0    0 -0.35808437119E+02  0.34750225309E+02  0.22597098493E+02  0.54776374364E+02  0.51100000000E-03 0.  1.
         23    2    1    0    0    0 -0.10477946379E+02  0.27192723065E+02 -0.75749718780E+01  0.94890005862E+02  0.89986118182E+02 0.  0.
         11    1    3    3    0    0  0.25330490740E+02 -0.75575022433E+01 -0.30172070371E+02  0.40113631498E+02  0.51100000000E-03 0. -1.
         22    1    1    0    0    0  0.10477946379E+02 -0.27192723065E+02  0.75749718780E+01  0.30109994138E+02  0.00000000000E+00 0.  1.
</event>
<event>
 5    1  0.3186486E-003  0.9118800E+02  0.7818608E-02  0.1130116E+00
         25   -1    0    0    0    0  0.00000000000E+00  0.00000000000E+00  0.99999998245E-14  0.12500000000E+03  0.12500000000E+03 0.  0.
        -11    1    3    3    0    0  0.91843927892E+00 -0.35753677148E+01  0.48455141160E+02  0.48595550106E+02  0.51100000000E-03 0.  1.
         23    2    1    0    0    0  0.25660742970E+02  0.92283330352E+01  0.10275648229E+02  0.95858538010E+02  0.91321599321E+02 0.  0.
         11    1    3    3    0    0  0.24742303691E+02  0.12803700750E+02 -0.38179492932E+02  0.47262987904E+02  0.51100000000E-03 0. -1.
         22    1    1    0    0    0 -0.25660742970E+02 -0.92283330352E+01 -0.10275648229E+02  0.29141461990E+02  0.00000000000E+00 0.  1.
</event>
<event>
 5    1  0.3186486E-003  0.9118800E+02  0.7818608E-02  0.1130116E+00
         25   -1    0    0    0    0  0.00000000000E+00  0.00000000000E+00  0.99999998245E-14  0.12500000000E+03  0.12500000000E+03 0.  0.
        -11    1    3    3    0    0 -0.66664157093E+01 -0.17456622551E+02  0.28833810617E+02  0.34359327762E+02  0.51100000000E-03 0.  1.
         23    2    1    0    0    0  0.50567790727E+01  0.28750923408E+02 -0.81461497384E+01  0.94692470128E+02  0.89711301027E+02 0.  0.
         11    1    3    3    0    0  0.11723194782E+02  0.46207545959E+02 -0.36979960356E+02  0.60333142365E+02  0.51100000000E-03 0. -1.
         22    1    1    0    0    0 -0.50567790727E+01 -0.28750923408E+02  0.81461497384E+01  0.30307529872E+02  0.00000000000E+00 0. -1.
</event>
<event>
 5    1  0.3186486E-003  0.9118800E+02  0.7818608E-02  0.1130116E+00
         25   -1    0    0    0    0  0.00000000000E+00  0.00000000000E+00  0.99999998245E-14  0.12500000000E+03  0.12500000000E+03 0.  0.
        -11    1    3    3    0    0  0.25269989614E+02 -0.26145843124E+02 -0.13946605433E+02  0.38944643934E+02  0.51100000000E-03 0. -1.
         23    2    1    0    0    0  0.54285462701E+01  0.25386106485E+02 -0.16528521193E+02  0.94224757842E+02  0.89057225762E+02 0.  0.
         11    1    3    3    0    0 -0.19841443343E+02  0.51531949609E+02 -0.25819157603E+01  0.55280113909E+02  0.51100000000E-03 0.  1.
         22    1    1    0    0    0 -0.54285462701E+01 -0.25386106485E+02  0.16528521193E+02  0.30775242158E+02  0.00000000000E+00 0.  1.
</event>
<event>
 5    1  0.3186486E-003  0.9118800E+02  0.7818608E-02  0.1130116E+00
         25   -1    0    0    0    0  0.00000000000E+00  0.00000000000E+00  0.99999998245E-14  0.12500000000E+03  0.12500000000E+03 0.  0.
        -11    1    3    3    0    0 -0.30113444733E+01  0.32058207255E+02 -0.42781230530E+02  0.53544659247E+02  0.51100000000E-03 0. -1.
         23    2    1    0    0    0  0.73991261276E+01  0.28516744409E+02 -0.23490841033E+01  0.95445474539E+02  0.90754441405E+02 0.  0.
         11    1    3    3    0    0  0.10410470601E+02 -0.35414628461E+01  0.40432146427E+02  0.41900815292E+02  0.51100000000E-03 0.  1.
         22    1    1    0    0    0 -0.73991261276E+01 -0.28516744409E+02  0.23490841033E+01  0.29554525461E+02  0.00000000000E+00 0.  1.
</event>
<event>
 5    1  0.3186486E-003  0.9118800E+02  0.7818608E-02  0.1130116E+00
         25   -1    0    0    0    0  0.00000000000E+00  0.00000000000E+00  0.99999998245E-14  0.12500000000E+03  0.12500000000E+03 0.  0.
        -11    1    3    3    0    0  0.25652928695E+02 -0.20719994965E+02  0.23192770667E+02  0.40314954464E+02  0.51100000000E-03 0. -1.
         23    2    1    0    0    0  0.12640467480E+02 -0.79083465401E+01 -0.27236816635E+02  0.93948952618E+02  0.88669262738E+02 0.  0.
         11    1    3    3    0    0 -0.13012461215E+02  0.12811648425E+02 -0.50429587302E+02  0.53633998154E+02  0.51100000000E-03 0.  1.
         22    1    1    0    0    0 -0.12640467480E+02  0.79083465401E+01  0.27236816635E+02  0.31051047382E+02  0.00000000000E+00 0.  1.
</event>
<event>
 5    1  0.3186486E-003  0.9118800E+02  0.7818608E-02  0.1130116E+00
         25   -1    0    0    0    0  0.00000000000E+00  0.00000000000E+00  0.99999998245E-14  0.12500000000E+03  0.12500000000E+03 0.  0.
        -11    1    3    3    0    0 -0.29257484443E+02  0.17877731585E+02 -0.40352117797E+02  0.52951931914E+02  0.51100000000E-03 0.  1.
         23    2    1    0    0    0 -0.26666415281E+02 -0.10552359884E+02 -0.99798409286E+01  0.94634769422E+02  0.89630867203E+02 0.  0.
         11    1    3    3    0    0  0.25910691614E+01 -0.28430091469E+02  0.30372276868E+02  0.41682837508E+02  0.51100000000E-03 0. -1.
         22    1    1    0    0    0  0.26666415281E+02  0.10552359884E+02  0.99798409286E+01  0.30365230578E+02  0.00000000000E+00 0.  1.
</event>
<event>
 5    1  0.3186486E-003  0.9118800E+02  0.7818608E-02  0.1130116E+00
         25   -1    0    0    0    0  0.00000000000E+00  0.00000000000E+00  0.99999998245E-14  0.12500000000E+03  0.12500000000E+03 0.  0.
        -11    1    3    3    0    0  0.29597627600E+02 -0.13707604668E+01  0.36111711299E+02  0.46711393011E+02  0.51100000000E-03 0. -1.
         23    2    1    0    0    0 -0.92291707042E+01  0.21772746236E+02  0.17437352046E+02  0.95618180503E+02  0.90992005835E+02 0.  0.
         11    1    3    3    0    0 -0.38826798304E+02  0.23143506703E+02 -0.18674359252E+02  0.48906787493E+02  0.51100000000E-03 0.  1.
         22    1    1    0    0    0  0.92291707042E+01 -0.21772746236E+02 -0.17437352046E+02  0.29381819497E+02  0.00000000000E+00 0. -1.
</event>
<event>
 5    1  0.3186486E-003  0.9118800E+02  0.7818608E-02  0.1130116E+00
         25   -1    0    0    0    0  0.00000000000E+00  0.00000000000E+00  0.99999998245E-14  0.12500000000E+03  0.12500000000E+03 0.  0.
        -11    1    3    3    0    0  0.27261829008E+02 -0.68842434434E+01  0.29558489304E+02  0.40795887279E+02  0.51100000000E-03 0.  1.
         23    2    1    0    0    0 -0.19817151642E+02  0.16908560905E+02  0.84302144750E+01  0.97619579127E+02  0.93701092746E+02 0.  0.
         11    1    3    3    0    0 -0.47078980650E+02  0.23792804348E+02 -0.21128274829E+02  0.56823691849E+02  0.51100000000E-03 0. -1.
         22    1    1    0    0    0  0.19817151642E+02 -0.16908560905E+02 -0.84302144750E+01  0.27380420873E+02  0.00000000000E+00 0. -1.
</event>
<event>
 5    1  0.3186486E-003  0.9118800E+02  0.7818608E-02  0.1130116E+00
         25   -1    0    0    0    0  0.00000000000E+00  0.00000000000E+00  0.99999998245E-14  0.12500000000E+03  0.12500000000E+03 0.  0.
        -11    1    3    3    0    0 -0.21059404840E+02 -0.11401273943E+02 -0.24209106952E+02  0.34052436615E+02  0.51100000000E-03 0.  1.
         23    2    1    0    0    0  0.13758820848E+02  0.27318730563E+02  0.53770954960E+01  0.93943095024E+02  0.88661004709E+02 0.  0.
         11    1    3    3    0    0  0.34818225688E+02  0.38720004507E+02  0.29586202448E+02  0.59890658409E+02  0.51100000000E-03 0. -1.
         22    1    1    0    0    0 -0.13758820848E+02 -0.27318730563E+02 -0.53770954960E+01  0.31056904976E+02  0.00000000000E+00 0. -1.
</event>
<event>
 5    1  0.3186486E-003  0.9118800E+02  0.7818608E-02  0.1130116E+00
         25   -1    0    0    0    0  0.00000000000E+00  0.00000000000E+00  0.99999998245E-14  0.12500000000E+03  0.12500000000E+03 0.  0.
        -11    1    3    3    0    0 -0.13910867167E+02  0.11910554875E+02 -0.26250322996E+02  0.32007077349E+02  0.51100000000E-03 0. -1.
         23    2    1    0    0    0  0.86498568631E+01 -0.16465270442E+02  0.24416091018E+02  0.94306830482E+02  0.89172347846E+02 0.  0.
         11    1    3    3    0    0  0.22560724030E+02 -0.28375825316E+02  0.50666414014E+02  0.62299753133E+02  0.51100000000E-03 0.  1.
         22    1    1    0    0    0 -0.86498568631E+01  0.16465270442E+02 -0.24416091018E+02  0.30693169518E+02  0.00000000000E+00 0.  1.
</event>
<event>
 5    1  0.3186486E-003  0.9118800E+02  0.7818608E-02  0.1130116E+00
         25   -1    0    0    0    0  0.00000000000E+00  0.00000000000E+00  0.99999998245E-14  0.12500000000E+03  0.12500000000E+03 0.  0.
        -11    1    3    3    0    0  0.29018794489E+02  0.27156819139E+02  0.31338877203E+02  0.50613323187E+02  0.51100000000E-03 0.  1.
         23    2    1    0    0    0 -0.75698096943E+01  0.77192359545E+01  0.31131004709E+02  0.92045059904E+02  0.85943382386E+02 0.  0.
         11    1    3    3    0    0 -0.36588604184E+02 -0.19437583185E+02 -0.20787249392E+00  0.41431736717E+02  0.51100000000E-03 0. -1.
         22    1    1    0    0    0  0.75698096943E+01 -0.77192359545E+01 -0.31131004709E+02  0.32954940096E+02  0.00000000000E+00 0.  1.
</event>
<event>
 5    1  0.3186486E-003  0.9118800E+02  0.7818608E-02  0.1130116E+00
         25   -1    0    0    0    0  0.00000000000E+00  0.00000000000E+00  0.99999998245E-14  0.12500000000E+03  0.12500000000E+03 0.  0.
        -11    1    3    3    0    0 -0.33140558106E+01  0.70451866122E+01 -0.38073260594E+02  0.38861173333E+02  0.51100000000E-03 0.  1.
         23    2    1    0    0    0 -0.39063994561E+01 -0.21058461820E+02  0.14954025979E+02  0.98878329611E+02  0.95365519989E+02 0.  0.
         11    1    3    3    0    0 -0.59234364549E+00 -0.28103648432E+02  0.53027286573E+02  0.60017156278E+02  0.51100000000E-03 0. -1.
         22    1    1    0    0    0  0.39063994561E+01  0.21058461820E+02 -0.14954025979E+02  0.26121670389E+02  0.00000000000E+00 0. -1.
</event>
<event>
 5    1  0.3186486E-003  0.9118800E+02  0.7818608E-02  0.1130116E+00
         25   -1    0    0    0    0  0.00000000000E+00  0.00000000000E+00  0.99999998245E-14  0.12500000000E+03  0.12500000000E+03 0.  0.
        -11    1    3    3    0    0  0.10624801033E+02  0.10507884950E+02  0.35204042485E+02  0.38244302198E+02  0.51100000000E-03 0. -1.
         23    2    1    0    0    0 -0.11813982810E+02 -0.27275852992E+02 -0.11149683228E+01  0.95254655816E+02  0.90491236890E+02 0.  0.
         11    1    3    3    0    0 -0.22438783844E+02 -0.37783737942E+02 -0.36319010807E+02  0.57010353617E+02  0.51100000000E-03 0.  1.
         22    1    1    0    0    0  0.11813982810E+02  0.27275852992E+02  0.11149683228E+01  0.29745344184E+02  0.00000000000E+00 0.  1.
</event>
<event>
 5    1  0.3186486E-003  0.9118800E+02  0.7818608E-02  0.1130116E+00
         25   -1    0    0    0    0  0.00000000000E+00  0.00000000000E+00  0.99999998245E-14  0.12500000000E+03  0.12500000000E+03 0.  0.
        -11    1    3    3    0    0  0.92069731032E+01 -0.20383634606E+02 -0.51094960409E+02  0.55775943676E+02  0.51100000000E-03 0. -1.
         23    2    1    0    0    0  0.14287502514E+02 -0.21239990349E+02 -0.94891271799E+01  0.97699570466E+02  0.93807742838E+02 0.  0.
         11    1    3    3    0    0  0.50805294107E+01 -0.85635574383E+00  0.41605833229E+02  0.41923626790E+02  0.51100000000E-03 0.  1.
         22    1    1    0    0    0 -0.14287502514E+02  0.21239990349E+02  0.94891271799E+01  0.27300429534E+02  0.00000000000E+00 0. -1.
</event>
<event>
 5    1  0.3186486E-003  0.9118800E+02  0.7818608E-02  0.1130116E+00
         25   -1    0    0    0    0  0.00000000000E+00  0.00000000000E+00  0.99999998245E-14  0.12500000000E+03  0.12500000000E+03 0.  0.
        -11    1    3    3    0    0 -0.46838138906E+02  0.85461148369E+01  0.39353414213E+02  0.61770045697E+02  0.51100000000E-03 0.  1.
         23    2    1    0    0    0 -0.18609988847E+02  0.14237521603E+00  0.22846273610E+02  0.95532998567E+02  0.90874912059E+02 0.  0.
         11    1    3    3    0    0  0.28228150058E+02 -0.84037396209E+01 -0.16507140603E+02  0.33762952870E+02  0.51100000000E-03 0. -1.
         22    1    1    0    0    0  0.18609988847E+02 -0.14237521603E+00 -0.22846273610E+02  0.29467001433E+02  0.00000000000E+00 0.  1.
</event>
<event>
 5    1  0.3186486E-003  0.9118800E+02  0.7818608E-02  0.1130116E+00
         25   -1    0    0    0    0  0.00000000000E+00  0.00000000000E+00  0.99999998245E-14  0.12500000000E+03  0.12500000000E+03 0.  0.
        -11    1    3    3    0    0  0.11206051370E+02 -0.92131096326E+01  0.39008235139E+02  0.41618498115E+02  0.51100000000E-03 0. -1.
         23    2    1    0    0    0  0.25021257658E+02 -0.56171345353E+01 -0.13490817687E+02  0.96023842611E+02  0.91547586821E+02 0.  0.
         11    1    3    3    0    0  0.13815206288E+02  0.35959750973E+01 -0.52499052827E+02  0.54405344495E+02  0.51100000000E-03 0.  1.
         22    1    1    0    0    0 -0.25021257658E+02  0.56171345353E+01  0.13490817687E+02  0.28976157389E+02  0.00000000000E+00 0.  1.
</event>
<event>
 5    1  0.3186486E-003  0.9118800E+02  0.7818608E-02  0.1130116E+00
         25   -1    0    0    0    0  0.00000000000E+00  0.00000000000E+00  0.99999998245E-14  0.12500000000E+03  0.12500000000E+03 0.  0.
        -11    1    3    3    0    0 -0.29669298050E+02 -0.41737789191E+02  0.32551408583E+02  0.60678698852E+02  0.51100000000E-03 0.  1.
         23    2    1    0    0    0 -0.15716010861E+02 -0.10774936726E+02  0.21218435718E+02  0.96481334654E+02  0.92170134335E+02 0.  0.
         11    1    3    3    0    0  0.13953287189E+02  0.30962852465E+02 -0.11332972865E+02  0.35802635802E+02  0.51100000000E-03 0. -1.
         22    1    1    0    0    0  0.15716010861E+02  0.10774936726E+02 -0.21218435718E+02  0.28518665346E+02  0.00000000000E+00 0.  1.
</event>
<event>
 5    1  0.3186486E-003  0.9118800E+02  0.7818608E-02  0.1130116E+00
         25   -1    0    0    0    0  0.00000000000E+00  0.00000000000E+00  0.99999998245E-14  0.12500000000E+03  0.12500000000E+03 0.  0.
        -11    1    3    3    0    0 -0.13964283276E+02 -0.48624315863E+01 -0.57926893355E+02  0.59784357673E+02  0.51100000000E-03 0. -1.
         23    2    1    0    0    0  0.57283543609E+01  0.17117468289E+01 -0.28998856444E+02  0.95391254739E+02  0.90679731389E+02 0.  0.
         11    1    3    3    0    0  0.19692637636E+02  0.65741784152E+01  0.28928036911E+02  0.35606897066E+02  0.51100000000E-03 0.  1.
         22    1    1    0    0    0 -0.57283543609E+01 -0.17117468289E+01  0.28998856444E+02  0.29608745261E+02  0.00000000000E+00 0. -1.
</event>
<event>
 5    1  0.3186486E-003  0.9118800E+02  0.7818608E-02  0.1130116E+00
         25   -1    0    0    0    0  0.00000000000E+00  0.00000000000E+00  0.99999998245E-14  0.12500000000E+03  0.12500000000E+03 0.  0.
        -11    1    3    3    0    0  0.24549634797E+02  0.21480350682E+01  0.39326711817E+02  0.46410008467E+02  0.51100000000E-03 0. -1.
         23    2    1    0    0    0  0.90698426918E+01  0.25632802188E+02 -0.34355540434E+01  0.97593693681E+02  0.93666554438E+02 0.  0.
         11    1    3    3    0    0 -0.15479792105E+02  0.23484767120E+02 -0.42762265860E+02  0.51183685214E+02  0.51100000000E-03 0.  1.
         22    1    1    0    0    0 -0.90698426918E+01 -0.25632802188E+02  0.34355540434E+01  0.27406306319E+02  0.00000000000E+00 0.  1.
</event>
<event>
 5    1  0.3186486E-003  0.9118800E+02  0.7818608E-02  0.1130116E+00
         25   -1    0    0    0    0  0.00000000000E+00  0.00000000000E+00  0.99999998245E-14  0.12500000000E+03  0.12500000000E+03 0.  0.
        -11    1    3    3    0    0 -0.39477576455E+01 -0.53856953014E+02 -0.29775585901E+02  0.61666374098E+02  0.51100000000E-03 0.  1.
         23    2    1    0    0    0 -0.23005225934E+00 -0.28298772645E+02 -0.76254233552E+01  0.95690947838E+02  0.91091914897E+02 0.  0.
         11    1    3    3    0    0  0.37177053862E+01  0.25558180369E+02  0.22150162546E+02  0.34024573740E+02  0.51100000000E-03 0. -1.
         22    1    1    0    0    0  0.23005225934E+00  0.28298772645E+02  0.76254233552E+01  0.29309052162E+02  0.00000000000E+00 0.  1.
</event>
<event>
 5    1  0.3186486E-003  0.9118800E+02  0.7818608E-02  0.1130116E+00
         25   -1    0    0    0    0  0.00000000000E+00  0.00000000000E+00  0.99999998245E-14  0.12500000000E+03  0.12500000000E+03 0.  0.
        -11    1    3    3    0    0  0.10318286833E+02 -0.42752302201E+02  0.28660132490E+02  0.52494090917E+02  0.51100000000E-03 0. -1.
         23    2    1    0    0    0  0.13127377895E+02 -0.33831172220E+00  0.26933149628E+02  0.95036070784E+02  0.90188789192E+02 0.  0.
         11    1    3    3    0    0  0.28090910621E+01  0.42413990479E+02 -0.17269828618E+01  0.42541979867E+02  0.51100000000E-03 0.  1.
         22    1    1    0    0    0 -0.13127377895E+02  0.33831172220E+00 -0.26933149628E+02  0.29963929216E+02  0.00000000000E+00 0. -1.
</event>
<event>
 5    1  0.3186486E-003  0.9118800E+02  0.7818608E-02  0.1130116E+00
         25   -1    0    0    0    0  0.00000000000E+00  0.00000000000E+00  0.99999998245E-14  0.12500000000E+03  0.12500000000E+03 0.  0.
        -11    1    3    3    0    0  0.58796007428E+02 -0.53098959912E+01 -0.82253833618E+01  0.59605556927E+02  0.51100000000E-03 0.  1.
         23    2    1    0    0    0  0.29465878497E+02  0.82354750982E+01  0.39923924116E+01  0.94145498823E+02  0.88945908876E+02 0.  0.
         11    1    3    3    0    0 -0.29330128931E+02  0.13545371089E+02  0.12217775773E+02  0.34539941896E+02  0.51100000000E-03 0. -1.
         22    1    1    0    0    0 -0.29465878497E+02 -0.82354750982E+01 -0.39923924116E+01  0.30854501177E+02  0.00000000000E+00 0.  1.
</event>
<event>
 5    1  0.3186486E-003  0.9118800E+02  0.7818608E-02  0.1130116E+00
         25   -1    0    0    0    0  0.00000000000E+00  0.00000000000E+00  0.99999998245E-14  0.12500000000E+03  0.12500000000E+03 0.  0.
        -11    1    3    3    0    0  0.58705304783E+01 -0.35158738434E+02  0.26797757825E+02  0.44595065210E+02  0.51100000000E-03 0. -1.
         23    2    1    0    0    0  0.23166530214E+02  0.11602156338E+02  0.10427809101E+02  0.97070851132E+02  0.92966191613E+02 0.  0.
         11    1    3    3    0    0  0.17295999736E+02  0.46760894771E+02 -0.16369948724E+02  0.52475785922E+02  0.51100000000E-03 0.  1.
         22    1    1    0    0    0 -0.23166530214E+02 -0.11602156338E+02 -0.10427809101E+02  0.27929148868E+02  0.00000000000E+00 0. -1.
</event>
<event>
 5    1  0.3186486E-003  0.9118800E+02  0.7818608E-02  0.1130116E+00
         25   -1    0    0    0    0  0.00000000000E+00  0.00000000000E+00  0.99999998245E-14  0.12500000000E+03  0.12500000000E+03 0.  0.
        -11    1    3    3    0    0 -0.38878577910E+02 -0.83318298514E+01  0.24220987592E+02  0.46557700214E+02  0.51100000000E-03 0.  1.
         23    2    1    0    0    0 -0.12057166506E+02  0.26883507225E+02  0.38512896698E+01  0.95285850895E+02  0.90534317934E+02 0.  0.
         11    1    3    3    0    0  0.26821411404E+02  0.35215337077E+02 -0.20369697922E+02  0.48728150681E+02  0.51100000000E-03 0. -1.
         22    1    1    0    0    0  0.12057166506E+02 -0.26883507225E+02 -0.38512896698E+01  0.29714149105E+02  0.00000000000E+00 0. -1.
</event>
<event>
 5    1  0.3186486E-003  0.9118800E+02  0.7818608E-02  0.1130116E+00
         25   -1    0    0    0    0  0.00000000000E+00  0.00000000000E+00  0.99999998245E-14  0.12500000000E+03  0.12500000000E+03 0.  0.
        -11    1    3    3    0    0 -0.31072532234E+02  0.14740741942E+02  0.19144351600E+02  0.39361122074E+02  0.51100000000E-03 0.  1.
         23    2    1    0    0    0 -0.64103549263E+01  0.78791184356E+01 -0.29210432835E+02  0.94073918062E+02  0.88845256010E+02 0.  0.
         11    1    3    3    0    0  0.24662177308E+02 -0.68616235069E+01 -0.48354784436E+02  0.54712795988E+02  0.51100000000E-03 0. -1.
         22    1    1    0    0    0  0.64103549263E+01 -0.78791184356E+01  0.29210432835E+02  0.30926081938E+02  0.00000000000E+00 0. -1.
</event>
<event>
 5    1  0.3186486E-003  0.9118800E+02  0.7818608E-02  0.1130116E+00
         25   -1    0    0    0    0  0.00000000000E+00  0.00000000000E+00  0.99999998245E-14  0.12500000000E+03  0.12500000000E+03 0.  0.
        -11    1    3    3    0    0 -0.27641771937E+02 -0.31606933257E+02  0.11250191251E+02  0.43469904407E+02  0.51100000000E-03 0.  1.
         23    2    1    0    0    0 -0.85797114070E+01 -0.14504430293E+01 -0.27508381230E+02  0.96148201604E+02  0.91717230665E+02 0.  0.
         11    1    3    3    0    0  0.19062060530E+02  0.30156490228E+02 -0.38758572481E+02  0.52678297197E+02  0.51100000000E-03 0. -1.
         22    1    1    0    0    0  0.85797114070E+01  0.14504430293E+01  0.27508381230E+02  0.28851798396E+02  0.00000000000E+00 0. -1.
</event>
<event>
 5    1  0.3186486E-003  0.9118800E+02  0.7818608E-02  0.1130116E+00
         25   -1    0    0    0    0  0.00000000000E+00  0.00000000000E+00  0.99999998245E-14  0.12500000000E+03  0.12500000000E+03 0.  0.
        -11    1    3    3    0    0 -0.23869839508E+02 -0.21880751014E+02  0.14140251172E+02  0.35333881849E+02  0.51100000000E-03 0. -1.
         23    2    1    0    0    0 -0.13220251373E+01  0.24347835123E+02 -0.16829558225E+02  0.95372329560E+02  0.90653639695E+02 0.  0.
         11    1    3    3    0    0  0.22547814370E+02  0.46228586137E+02 -0.30969809397E+02  0.60038447711E+02  0.51100000000E-03 0.  1.
         22    1    1    0    0    0  0.13220251373E+01 -0.24347835123E+02  0.16829558225E+02  0.29627670440E+02  0.00000000000E+00 0.  1.
</event>
<event>
 5    1  0.3186486E-003  0.9118800E+02  0.7818608E-02  0.1130116E+00
         25   -1    0    0    0    0  0.00000000000E+00  0.00000000000E+00  0.99999998245E-14  0.12500000000E+03  0.12500000000E+03 0.  0.
        -11    1    3    3    0    0  0.22444010497E+02  0.15079744736E+01  0.22883765210E+02  0.32088538525E+02  0.51100000000E-03 0. -1.
         23    2    1    0    0    0  0.64281173934E+01  0.45795837478E+01 -0.33396333270E+02  0.90683701301E+02  0.83940010276E+02 0.  0.
         11    1    3    3    0    0 -0.16015893104E+02  0.30716092742E+01 -0.56280098481E+02  0.58595162776E+02  0.51100000000E-03 0.  1.
         22    1    1    0    0    0 -0.64281173934E+01 -0.45795837478E+01  0.33396333270E+02  0.34316298699E+02  0.00000000000E+00 0.  1.
</event>
<event>
 5    1  0.3186486E-003  0.9118800E+02  0.7818608E-02  0.1130116E+00
         25   -1    0    0    0    0  0.00000000000E+00  0.00000000000E+00  0.99999998245E-14  0.12500000000E+03  0.12500000000E+03 0.  0.
        -11    1    3    3    0    0  0.21742438533E+02  0.42870303491E+02 -0.36251283694E+02  0.60205914365E+02  0.51100000000E-03 0.  1.
         23    2    1    0    0    0  0.10823911785E+01  0.27767072409E+02 -0.15312485912E+02  0.93272187191E+02  0.87710015379E+02 0.  0.
         11    1    3    3    0    0 -0.20660047354E+02 -0.15103231083E+02  0.20938797781E+02  0.33066272826E+02  0.51100000000E-03 0. -1.
         22    1    1    0    0    0 -0.10823911785E+01 -0.27767072409E+02  0.15312485912E+02  0.31727812809E+02  0.00000000000E+00 0.  1.
</event>
<event>
 5    1  0.3186486E-003  0.9118800E+02  0.7818608E-02  0.1130116E+00
         25   -1    0    0    0    0  0.00000000000E+00  0.00000000000E+00  0.99999998245E-14  0.12500000000E+03  0.12500000000E+03 0.  0.
        -11    1    3    3    0    0  0.27368115976E+02 -0.26741977645E+01  0.42663485329E+02  0.50757640671E+02  0.51100000000E-03 0. -1.
         23    2    1    0    0    0 -0.84423760649E+01  0.16125546926E+02  0.22824043518E+02  0.95806782641E+02  0.91250729642E+02 0.  0.
         11    1    3    3    0    0 -0.35810492040E+02  0.18799744690E+02 -0.19839441811E+02  0.45049141970E+02  0.51100000000E-03 0.  1.
         22    1    1    0    0    0  0.84423760649E+01 -0.16125546926E+02 -0.22824043518E+02  0.29193217359E+02  0.00000000000E+00 0. -1.
</event>
<event>
 5    1  0.3186486E-003  0.9118800E+02  0.7818608E-02  0.1130116E+00
         25   -1    0    0    0    0  0.00000000000E+00  0.00000000000E+00  0.99999998245E-14  0.12500000000E+03  0.12500000000E+03 0.  0.
        -11    1    3    3    0    0 -0.18724757339E+02 -0.34935362095E+02  0.13961443590E+02  0.42024016580E+02  0.51100000000E-03 0. -1.
         23    2    1    0    0    0 -0.14678916884E+02  0.17556687041E+02  0.19462562528E+02  0.94958375528E+02  0.90081040636E+02 0.  0.
         11    1    3    3    0    0  0.40458404547E+01  0.52492049136E+02  0.55011189381E+01  0.52934358949E+02  0.51100000000E-03 0.  1.
         22    1    1    0    0    0  0.14678916884E+02 -0.17556687041E+02 -0.19462562528E+02  0.30041624472E+02  0.00000000000E+00 0.  1.
</event>
<event>
 5    1  0.3186486E-003  0.9118800E+02  0.7818608E-02  0.1130116E+00
         25   -1    0    0    0    0  0.00000000000E+00  0.00000000000E+00  0.99999998245E-14  0.12500000000E+03  0.12500000000E+03 0.  0.
        -11    1    3    3    0    0 -0.14264408690E+02  0.24213349080E+02 -0.30630527940E+02  0.41569085521E+02  0.51100000000E-03 0. -1.
         23    2    1    0    0    0 -0.23004912319E+02 -0.15585258664E+02  0.62392982250E+01  0.96520970509E+02  0.92223872328E+02 0.  0.
         11    1    3    3    0    0 -0.87405036288E+01 -0.39798607743E+02  0.36869826165E+02  0.54951884988E+02  0.51100000000E-03 0.  1.
         22    1    1    0    0    0  0.23004912319E+02  0.15585258664E+02 -0.62392982250E+01  0.28479029491E+02  0.00000000000E+00 0.  1.
</event>
<event>
 5    1  0.3186486E-003  0.9118800E+02  0.7818608E-02  0.1130116E+00
         25   -1    0    0    0    0  0.00000000000E+00  0.00000000000E+00  0.99999998245E-14  0.12500000000E+03  0.12500000000E+03 0.  0.
        -11    1    3    3    0    0  0.12578576758E+02 -0.75120950493E+01 -0.35310404780E+02  0.38229266946E+02  0.51100000000E-03 0. -1.
         23    2    1    0    0    0 -0.13409802276E+02  0.27482950430E+02  0.14817657859E+00  0.94419657985E+02  0.89330367157E+02 0.  0.
         11    1    3    3    0    0 -0.25988379034E+02  0.34995045480E+02  0.35458581358E+02  0.56190391039E+02  0.51100000000E-03 0.  1.
         22    1    1    0    0    0  0.13409802276E+02 -0.27482950430E+02 -0.14817657859E+00  0.30580342015E+02  0.00000000000E+00 0. -1.
</event>
<event>
 5    1  0.3186486E-003  0.9118800E+02  0.7818608E-02  0.1130116E+00
         25   -1    0    0    0    0  0.00000000000E+00  0.00000000000E+00  0.99999998245E-14  0.12500000000E+03  0.12500000000E+03 0.  0.
        -11    1    3    3    0    0 -0.29268722038E+02 -0.56492056087E+01  0.15918552063E+02  0.33793074939E+02  0.51100000000E-03 0.  1.
         23    2    1    0    0    0  0.10439563303E+02  0.27601262994E+02 -0.12595347434E+02  0.92914848016E+02  0.87199266075E+02 0.  0.
         11    1    3    3    0    0  0.39708285341E+02  0.33250468603E+02 -0.28513899497E+02  0.59121773078E+02  0.51100000000E-03 0. -1.
         22    1    1    0    0    0 -0.10439563303E+02 -0.27601262994E+02  0.12595347434E+02  0.32085151984E+02  0.00000000000E+00 0. -1.
</event>
<event>
 5    1  0.3186486E-003  0.9118800E+02  0.7818608E-02  0.1130116E+00
         25   -1    0    0    0    0  0.00000000000E+00  0.00000000000E+00  0.99999998245E-14  0.12500000000E+03  0.12500000000E+03 0.  0.
        -11    1    3    3    0    0 -0.23701102586E+02  0.51533848105E+02  0.17814883848E+02  0.59454603279E+02  0.51100000000E-03 0. -1.
         23    2    1    0    0    0 -0.24754091270E+02  0.20973090607E+02  0.78064322729E+01  0.91629714580E+02  0.85337146923E+02 0.  0.
         11    1    3    3    0    0 -0.10529886835E+01 -0.30560757498E+02 -0.10008451575E+02  0.32175111300E+02  0.51100000000E-03 0.  1.
         22    1    1    0    0    0  0.24754091270E+02 -0.20973090607E+02 -0.78064322729E+01  0.33370285420E+02  0.00000000000E+00 0. -1.
</event>
<event>
 5    1  0.3186486E-003  0.9118800E+02  0.7818608E-02  0.1130116E+00
         25   -1    0    0    0    0  0.00000000000E+00  0.00000000000E+00  0.99999998245E-14  0.12500000000E+03  0.12500000000E+03 0.  0.
        -11    1    3    3    0    0 -0.25503615036E+02  0.73678038429E+01 -0.22173431634E+02  0.34588726256E+02  0.51100000000E-03 0.  1.
         23    2    1    0    0    0  0.12995185864E+02 -0.22336482683E+02  0.14384597946E+02  0.95424503853E+02  0.90725552978E+02 0.  0.
         11    1    3    3    0    0  0.38498800900E+02 -0.29704286526E+02  0.36558029580E+02  0.60835777596E+02  0.51100000000E-03 0. -1.
         22    1    1    0    0    0 -0.12995185864E+02  0.22336482683E+02 -0.14384597946E+02  0.29575496147E+02  0.00000000000E+00 0. -1.
</event>
<event>
 5    1  0.3186486E-003  0.9118800E+02  0.7818608E-02  0.1130116E+00
         25   -1    0    0    0    0  0.00000000000E+00  0.00000000000E+00  0.99999998245E-14  0.12500000000E+03  0.12500000000E+03 0.  0.
        -11    1    3    3    0    0  0.33528669583E+01 -0.80384085966E+01  0.31651383968E+02  0.32827851543E+02  0.51100000000E-03 0.  1.
         23    2    1    0    0    0  0.12472011638E+02  0.18763920715E+02 -0.22011963206E+02  0.93501391792E+02  0.88036060498E+02 0.  0.
         11    1    3    3    0    0  0.91191446795E+01  0.26802329312E+02 -0.53663347173E+02  0.60673540249E+02  0.51100000000E-03 0. -1.
         22    1    1    0    0    0 -0.12472011638E+02 -0.18763920715E+02  0.22011963206E+02  0.31498608208E+02  0.00000000000E+00 0. -1.
</event>
<event>
 5    1  0.3186486E-003  0.9118800E+02  0.7818608E-02  0.1130116E+00
         25   -1    0    0    0    0  0.00000000000E+00  0.00000000000E+00  0.99999998245E-14  0.12500000000E+03  0.12500000000E+03 0.  0.
        -11    1    3    3    0    0 -0.16566041777E+01 -0.15690286007E+01  0.56411499652E+02  0.56457625538E+02  0.51100000000E-03 0.  1.
         23    2    1    0    0    0 -0.11733582049E+02  0.14881196569E+02  0.21534020767E+02  0.96314794590E+02  0.91943997343E+02 0.  0.
         11    1    3    3    0    0 -0.10076977871E+02  0.16450225170E+02 -0.34877478885E+02  0.39857169051E+02  0.51100000000E-03 0. -1.
         22    1    1    0    0    0  0.11733582049E+02 -0.14881196569E+02 -0.21534020767E+02  0.28685205410E+02  0.00000000000E+00 0.  1.
</event>
<event>
 5    1  0.3186486E-003  0.9118800E+02  0.7818608E-02  0.1130116E+00
         25   -1    0    0    0    0  0.00000000000E+00  0.00000000000E+00  0.99999998245E-14  0.12500000000E+03  0.12500000000E+03 0.  0.
        -11    1    3    3    0    0  0.28432682668E+02 -0.38537462318E+02  0.74348158681E+01  0.48464728750E+02  0.51100000000E-03 0.  1.
         23    2    1    0    0    0  0.24439210486E+02  0.42366435896E+01 -0.14045385515E+02  0.96495666779E+02  0.92189569338E+02 0.  0.
         11    1    3    3    0    0 -0.39934721815E+01  0.42774105907E+02 -0.21480201383E+02  0.48030938029E+02  0.51100000000E-03 0. -1.
         22    1    1    0    0    0 -0.24439210486E+02 -0.42366435896E+01  0.14045385515E+02  0.28504333221E+02  0.00000000000E+00 0.  1.
</event>
<event>
 5    1  0.3186486E-003  0.9118800E+02  0.7818608E-02  0.1130116E+00
         25   -1    0    0    0    0  0.00000000000E+00  0.00000000000E+00  0.99999998245E-14  0.12500000000E+03  0.12500000000E+03 0.  0.
        -11    1    3    3    0    0 -0.29908328304E+01 -0.33966329420E+02  0.35389797631E+02  0.49143609879E+02  0.51100000000E-03 0. -1.
         23    2    1    0    0    0 -0.28025888082E+02 -0.76754354657E+01  0.73178105129E+01  0.95034802469E+02  0.90187031314E+02 0.  0.
         11    1    3    3    0    0 -0.25035055251E+02  0.26290893955E+02 -0.28071987118E+02  0.45891192590E+02  0.51100000000E-03 0.  1.
         22    1    1    0    0    0  0.28025888082E+02  0.76754354657E+01 -0.73178105129E+01  0.29965197531E+02  0.00000000000E+00 0. -1.
</event>
<event>
 5    1  0.3186486E-003  0.9118800E+02  0.7818608E-02  0.1130116E+00
         25   -1    0    0    0    0  0.00000000000E+00  0.00000000000E+00  0.99999998245E-14  0.12500000000E+03  0.12500000000E+03 0.  0.
        -11    1    3    3    0    0  0.25719043140E+02  0.37516923785E+02 -0.23153700980E+02  0.51040009989E+02  0.51100000000E-03 0. -1.
         23    2    1    0    0    0  0.25969399385E+02 -0.42294135883E+01 -0.18651766389E+00  0.98687789288E+02  0.95115442080E+02 0.  0.
         11    1    3    3    0    0  0.25035624486E+00 -0.41746337374E+02  0.22967183316E+02  0.47647779299E+02  0.51100000000E-03 0.  1.
         22    1    1    0    0    0 -0.25969399385E+02  0.42294135883E+01  0.18651766389E+00  0.26312210712E+02  0.00000000000E+00 0.  1.
</event>
<event>
 5    1  0.3186486E-003  0.9118800E+02  0.7818608E-02  0.1130116E+00
         25   -1    0    0    0    0  0.00000000000E+00  0.00000000000E+00  0.99999998245E-14  0.12500000000E+03  0.12500000000E+03 0.  0.
        -11    1    3    3    0    0  0.20307471174E+02 -0.18232908023E+02 -0.36633889972E+02  0.45682318408E+02  0.51100000000E-03 0.  1.
         23    2    1    0    0    0  0.14077807672E+02 -0.13985384271E+02  0.16404204259E+02  0.99253669010E+02  0.95856232205E+02 0.  0.
         11    1    3    3    0    0 -0.62296635021E+01  0.42475237520E+01  0.53038094231E+02  0.53571350602E+02  0.51100000000E-03 0. -1.
         22    1    1    0    0    0 -0.14077807672E+02  0.13985384271E+02 -0.16404204259E+02  0.25746330990E+02  0.00000000000E+00 0. -1.
</event>
<event>
 5    1  0.3186486E-003  0.9118800E+02  0.7818608E-02  0.1130116E+00
         25   -1    0    0    0    0  0.00000000000E+00  0.00000000000E+00  0.99999998245E-14  0.12500000000E+03  0.12500000000E+03 0.  0.
        -11    1    3    3    0    0  0.34715598585E+02 -0.26609184284E+02 -0.30440936551E+02  0.53290450286E+02  0.51100000000E-03 0. -1.
         23    2    1    0    0    0  0.17731424394E+02  0.10878052995E+02 -0.20847670048E+02  0.95549010298E+02  0.90896933801E+02 0.  0.
         11    1    3    3    0    0 -0.16984174190E+02  0.37487237279E+02  0.95932665033E+01  0.42258560011E+02  0.51100000000E-03 0.  1.
         22    1    1    0    0    0 -0.17731424394E+02 -0.10878052995E+02  0.20847670048E+02  0.29450989702E+02  0.00000000000E+00 0. -1.
</event>
<event>
 5    1  0.3186486E-003  0.9118800E+02  0.7818608E-02  0.1130116E+00
         25   -1    0    0    0    0  0.00000000000E+00  0.00000000000E+00  0.99999998245E-14  0.12500000000E+03  0.12500000000E+03 0.  0.
        -11    1    3    3    0    0 -0.20598864209E+02 -0.10515425737E-01  0.32802520868E+02  0.38733947551E+02  0.51100000000E-03 0.  1.
         23    2    1    0    0    0  0.22037326646E+02  0.20064273046E+02  0.18009367678E+01  0.95142635887E+02  0.90336365721E+02 0.  0.
         11    1    3    3    0    0  0.42636190855E+02  0.20074788471E+02 -0.31001584100E+02  0.56408688336E+02  0.51100000000E-03 0. -1.
         22    1    1    0    0    0 -0.22037326646E+02 -0.20064273046E+02 -0.18009367678E+01  0.29857364113E+02  0.00000000000E+00 0.  1.
</event>
<event>
 5    1  0.3186486E-003  0.9118800E+02  0.7818608E-02  0.1130116E+00
         25   -1    0    0    0    0  0.00000000000E+00  0.00000000000E+00  0.99999998245E-14  0.12500000000E+03  0.12500000000E+03 0.  0.
        -11    1    3    3    0    0  0.89087844590E+01  0.11166135521E+02  0.41455295757E+02  0.43847355332E+02  0.51100000000E-03 0. -1.
         23    2    1    0    0    0  0.11427930239E+02 -0.25895340995E+02  0.43299244964E+01  0.96365850441E+02  0.92013382778E+02 0.  0.
         11    1    3    3    0    0  0.25191457804E+01 -0.37061476517E+02 -0.37125371261E+02  0.52518495109E+02  0.51100000000E-03 0.  1.
         22    1    1    0    0    0 -0.11427930239E+02  0.25895340995E+02 -0.43299244964E+01  0.28634149559E+02  0.00000000000E+00 0.  1.
</event>
<event>
 5    1  0.3186486E-003  0.9118800E+02  0.7818608E-02  0.1130116E+00
         25   -1    0    0    0    0  0.00000000000E+00  0.00000000000E+00  0.99999998245E-14  0.12500000000E+03  0.12500000000E+03 0.  0.
        -11    1    3    3    0    0  0.25389620673E+02 -0.27872329157E+02 -0.15733499431E+02  0.40853917501E+02  0.51100000000E-03 0.  1.
         23    2    1    0    0    0 -0.26164246777E+02 -0.74878305062E+01 -0.57917022948E+01  0.97175923545E+02  0.93107362149E+02 0.  0.
         11    1    3    3    0    0 -0.51553867450E+02  0.20384498650E+02  0.99417971365E+01  0.56322006044E+02  0.51100000000E-03 0. -1.
         22    1    1    0    0    0  0.26164246777E+02  0.74878305062E+01  0.57917022948E+01  0.27824076455E+02  0.00000000000E+00 0. -1.
</event>
<event>
 5    1  0.3186486E-003  0.9118800E+02  0.7818608E-02  0.1130116E+00
         25   -1    0    0    0    0  0.00000000000E+00  0.00000000000E+00  0.99999998245E-14  0.12500000000E+03  0.12500000000E+03 0.  0.
        -11    1    3    3    0    0 -0.43439594615E+02 -0.31342433835E+02  0.26456710080E+02  0.59743652780E+02  0.51100000000E-03 0.  1.
         23    2    1    0    0    0 -0.18689758525E+02 -0.21708665179E+02  0.13008228345E+01  0.96324830295E+02  0.91957640105E+02 0.  0.
         11    1    3    3    0    0  0.24749836090E+02  0.96337686557E+01 -0.25155887245E+02  0.36581177515E+02  0.51100000000E-03 0. -1.
         22    1    1    0    0    0  0.18689758525E+02  0.21708665179E+02 -0.13008228345E+01  0.28675169705E+02  0.00000000000E+00 0.  1.
</event>
<event>
 5    1  0.3186486E-003  0.9118800E+02  0.7818608E-02  0.1130116E+00
         25   -1    0    0    0    0  0.00000000000E+00  0.00000000000E+00  0.99999998245E-14  0.12500000000E+03  0.12500000000E+03 0.  0.
        -11    1    3    3    0    0  0.15732418672E+02  0.18730539839E+02  0.31041630337E+02  0.39521196011E+02  0.51100000000E-03 0.  1.
         23    2    1    0    0    0 -0.21014477537E+02 -0.17992633880E+02  0.97258007359E+01  0.95675362917E+02  0.91070526128E+02 0.  0.
         11    1    3    3    0    0 -0.36746896209E+02 -0.36723173719E+02 -0.21315829601E+02  0.56154166905E+02  0.51100000000E-03 0. -1.
         22    1    1    0    0    0  0.21014477537E+02  0.17992633880E+02 -0.97258007359E+01  0.29324637083E+02  0.00000000000E+00 0. -1.
</event>
<event>
 5    1  0.3186486E-003  0.9118800E+02  0.7818608E-02  0.1130116E+00
         25   -1    0    0    0    0  0.00000000000E+00  0.00000000000E+00  0.99999998245E-14  0.12500000000E+03  0.12500000000E+03 0.  0.
        -11    1    3    3    0    0 -0.22468506708E+02  0.41250309747E+02  0.22015282694E+01  0.47024127583E+02  0.51100000000E-03 0.  1.
         23    2    1    0    0    0 -0.24654039145E+02 -0.66407725275E+01 -0.11662988719E+02  0.96929609697E+02  0.92776087567E+02 0.  0.
         11    1    3    3    0    0 -0.21855324367E+01 -0.47891082275E+02 -0.13864516988E+02  0.49905482114E+02  0.51100000000E-03 0. -1.
         22    1    1    0    0    0  0.24654039145E+02  0.66407725275E+01  0.11662988719E+02  0.28070390303E+02  0.00000000000E+00 0. -1.
</event>
<event>
 5    1  0.3186486E-003  0.9118800E+02  0.7818608E-02  0.1130116E+00
         25   -1    0    0    0    0  0.00000000000E+00  0.00000000000E+00  0.99999998245E-14  0.12500000000E+03  0.12500000000E+03 0.  0.
        -11    1    3    3    0    0  0.27171959064E+02 -0.21468267838E+02 -0.48517411803E+02  0.59608230402E+02  0.51100000000E-03 0. -1.
         23    2    1    0    0    0  0.49136766928E+01 -0.20848401835E+02 -0.21038667125E+02  0.94976249533E+02  0.90105839895E+02 0.  0.
         11    1    3    3    0    0 -0.22258282371E+02  0.61986600380E+00  0.27478744677E+02  0.35368019131E+02  0.51100000000E-03 0.  1.
         22    1    1    0    0    0 -0.49136766928E+01  0.20848401835E+02  0.21038667125E+02  0.30023750467E+02  0.00000000000E+00 0. -1.
</event>
<event>
 5    1  0.3186486E-003  0.9118800E+02  0.7818608E-02  0.1130116E+00
         25   -1    0    0    0    0  0.00000000000E+00  0.00000000000E+00  0.99999998245E-14  0.12500000000E+03  0.12500000000E+03 0.  0.
        -11    1    3    3    0    0 -0.19320655246E+02  0.52930838408E+02 -0.25289961630E+02  0.61761991008E+02  0.51100000000E-03 0.  1.
         23    2    1    0    0    0 -0.73945067597E+01  0.16421192196E+02 -0.15097631310E+02  0.10149951587E+03  0.98741475412E+02 0.  0.
         11    1    3    3    0    0  0.11926148486E+02 -0.36509646212E+02  0.10192330321E+02  0.39737524858E+02  0.51100000000E-03 0. -1.
         22    1    1    0    0    0  0.73945067597E+01 -0.16421192196E+02  0.15097631310E+02  0.23500484134E+02  0.00000000000E+00 0.  1.
</event>
<event>
 5    1  0.3186486E-003  0.9118800E+02  0.7818608E-02  0.1130116E+00
         25   -1    0    0    0    0  0.00000000000E+00  0.00000000000E+00  0.99999998245E-14  0.12500000000E+03  0.12500000000E+03 0.  0.
        -11    1    3    3    0    0  0.50888448160E+02  0.26506764368E+02  0.61797091293E+01  0.57709890994E+02  0.51100000000E-03 0.  1.
         23    2    1    0    0    0  0.28831935568E+02 -0.33322529330E+01  0.81046403908E+01  0.94865806563E+02  0.89952496579E+02 0.  0.
         11    1    3    3    0    0 -0.22056512591E+02 -0.29839017301E+02  0.19249312616E+01  0.37155915569E+02  0.51100000000E-03 0. -1.
         22    1    1    0    0    0 -0.28831935568E+02  0.33322529330E+01 -0.81046403908E+01  0.30134193437E+02  0.00000000000E+00 0. -1.
</event>
<event>
 5    1  0.3186486E-003  0.9118800E+02  0.7818608E-02  0.1130116E+00
         25   -1    0    0    0    0  0.00000000000E+00  0.00000000000E+00  0.99999998245E-14  0.12500000000E+03  0.12500000000E+03 0.  0.
        -11    1    3    3    0    0 -0.60240837649E+00  0.27903944451E+02  0.38001510157E+02  0.47149843968E+02  0.51100000000E-03 0.  1.
         23    2    1    0    0    0 -0.15274304550E+02  0.23844275958E+02 -0.79752529903E+01  0.95581323353E+02  0.90941359338E+02 0.  0.
         11    1    3    3    0    0 -0.14671896173E+02 -0.40596684931E+01 -0.45976763147E+02  0.48431479384E+02  0.51100000000E-03 0. -1.
         22    1    1    0    0    0  0.15274304550E+02 -0.23844275958E+02  0.79752529903E+01  0.29418676647E+02  0.00000000000E+00 0. -1.
</event>
<event>
 5    1  0.3186486E-003  0.9118800E+02  0.7818608E-02  0.1130116E+00
         25   -1    0    0    0    0  0.00000000000E+00  0.00000000000E+00  0.99999998245E-14  0.12500000000E+03  0.12500000000E+03 0.  0.
        -11    1    3    3    0    0  0.36455385375E+02  0.20903197864E+02 -0.19369654848E+02  0.46272263106E+02  0.51100000000E-03 0. -1.
         23    2    1    0    0    0  0.17760781643E+02  0.26991672945E+01  0.22867706683E+02  0.95919716686E+02  0.91405301660E+02 0.  0.
         11    1    3    3    0    0 -0.18694603732E+02 -0.18204030569E+02  0.42237361531E+02  0.49647453580E+02  0.51100000000E-03 0.  1.
         22    1    1    0    0    0 -0.17760781643E+02 -0.26991672945E+01 -0.22867706683E+02  0.29080283314E+02  0.00000000000E+00 0. -1.
</event>
<event>
 5    1  0.3186486E-003  0.9118800E+02  0.7818608E-02  0.1130116E+00
         25   -1    0    0    0    0  0.00000000000E+00  0.00000000000E+00  0.99999998245E-14  0.12500000000E+03  0.12500000000E+03 0.  0.
        -11    1    3    3    0    0 -0.53026686324E+02  0.23182661225E+02 -0.57881831961E+01  0.58161570723E+02  0.51100000000E-03 0. -1.
         23    2    1    0    0    0 -0.24932117314E+02  0.26062336130E+02  0.53842458881E+01  0.88532947171E+02  0.80673643730E+02 0.  0.
         11    1    3    3    0    0  0.28094569010E+02  0.28796749045E+01  0.11172429084E+02  0.30371376448E+02  0.51100000000E-03 0.  1.
         22    1    1    0    0    0  0.24932117314E+02 -0.26062336130E+02 -0.53842458881E+01  0.36467052829E+02  0.00000000000E+00 0. -1.
</event>
<event>
 5    1  0.3186486E-003  0.9118800E+02  0.7818608E-02  0.1130116E+00
         25   -1    0    0    0    0  0.00000000000E+00  0.00000000000E+00  0.99999998245E-14  0.12500000000E+03  0.12500000000E+03 0.  0.
        -11    1    3    3    0    0 -0.19922555507E+02 -0.41849098883E+02  0.11872134877E+02  0.47845615076E+02  0.51100000000E-03 0. -1.
         23    2    1    0    0    0  0.69821951002E+01  0.33994976189E+00  0.24557987104E+02  0.99466466268E+02  0.96133327036E+02 0.  0.
         11    1    3    3    0    0  0.26904750608E+02  0.42189048644E+02  0.12685852227E+02  0.51620851192E+02  0.51100000000E-03 0.  1.
         22    1    1    0    0    0 -0.69821951002E+01 -0.33994976189E+00 -0.24557987104E+02  0.25533533732E+02  0.00000000000E+00 0.  1.
</event>
<event>
 5    1  0.3186486E-003  0.9118800E+02  0.7818608E-02  0.1130116E+00
         25   -1    0    0    0    0  0.00000000000E+00  0.00000000000E+00  0.99999998245E-14  0.12500000000E+03  0.12500000000E+03 0.  0.
        -11    1    3    3    0    0 -0.48398803134E+02 -0.23510989403E+02 -0.60583414069E+01  0.54147153835E+02  0.51100000000E-03 0. -1.
         23    2    1    0    0    0 -0.25631954812E+02  0.11650776578E+02  0.18804000928E+01  0.96781679589E+02  0.92576562353E+02 0.  0.
         11    1    3    3    0    0  0.22766848323E+02  0.35161765980E+02  0.79387414997E+01  0.42634525754E+02  0.51100000000E-03 0.  1.
         22    1    1    0    0    0  0.25631954812E+02 -0.11650776578E+02 -0.18804000928E+01  0.28218320411E+02  0.00000000000E+00 0. -1.
</event>
<event>
 5    1  0.3186486E-003  0.9118800E+02  0.7818608E-02  0.1130116E+00
         25   -1    0    0    0    0  0.00000000000E+00  0.00000000000E+00  0.99999998245E-14  0.12500000000E+03  0.12500000000E+03 0.  0.
        -11    1    3    3    0    0  0.26922558199E+02 -0.10044700851E+02  0.51971594214E+02  0.59386587379E+02  0.51100000000E-03 0. -1.
         23    2    1    0    0    0  0.71735863171E+01 -0.17423638098E+02  0.21942819271E+02  0.96077157423E+02  0.91620354484E+02 0.  0.
         11    1    3    3    0    0 -0.19748971882E+02 -0.73789372463E+01 -0.30028774943E+02  0.36690570044E+02  0.51100000000E-03 0.  1.
         22    1    1    0    0    0 -0.71735863171E+01  0.17423638098E+02 -0.21942819271E+02  0.28922842577E+02  0.00000000000E+00 0. -1.
</event>
<event>
 5    1  0.3186486E-003  0.9118800E+02  0.7818608E-02  0.1130116E+00
         25   -1    0    0    0    0  0.00000000000E+00  0.00000000000E+00  0.99999998245E-14  0.12500000000E+03  0.12500000000E+03 0.  0.
        -11    1    3    3    0    0  0.31032385073E+02  0.17540499265E+02  0.28507127216E+02  0.45643557488E+02  0.51100000000E-03 0.  1.
         23    2    1    0    0    0  0.20117838261E+02 -0.21048297454E+02 -0.16758307935E+01  0.95835524163E+02  0.91290092786E+02 0.  0.
         11    1    3    3    0    0 -0.10914546812E+02 -0.38588796719E+02 -0.30182958009E+02  0.50191966676E+02  0.51100000000E-03 0. -1.
         22    1    1    0    0    0 -0.20117838261E+02  0.21048297454E+02  0.16758307935E+01  0.29164475837E+02  0.00000000000E+00 0. -1.
</event>
<event>
 5    1  0.3186486E-003  0.9118800E+02  0.7818608E-02  0.1130116E+00
         25   -1    0    0    0    0  0.00000000000E+00  0.00000000000E+00  0.99999998245E-14  0.12500000000E+03  0.12500000000E+03 0.  0.
        -11    1    3    3    0    0  0.23884762153E+02  0.47543394612E+02  0.25193842241E+02  0.58869227288E+02  0.51100000000E-03 0.  1.
         23    2    1    0    0    0  0.11939186669E+02  0.13357556194E+02  0.23933315063E+02  0.95103979267E+02  0.90282860038E+02 0.  0.
         11    1    3    3    0    0 -0.11945575484E+02 -0.34185838418E+02 -0.12605271786E+01  0.36234751979E+02  0.51100000000E-03 0. -1.
         22    1    1    0    0    0 -0.11939186669E+02 -0.13357556194E+02 -0.23933315063E+02  0.29896020733E+02  0.00000000000E+00 0.  1.
</event>
<event>
 5    1  0.3186486E-003  0.9118800E+02  0.7818608E-02  0.1130116E+00
         25   -1    0    0    0    0  0.00000000000E+00  0.00000000000E+00  0.99999998245E-14  0.12500000000E+03  0.12500000000E+03 0.  0.
        -11    1    3    3    0    0  0.35018887599E+02 -0.15514946705E+02 -0.12435834262E+01  0.38322089712E+02  0.51100000000E-03 0. -1.
         23    2    1    0    0    0 -0.19297287152E+02 -0.93372531384E+01 -0.19564610030E+02  0.95976844533E+02  0.91483392664E+02 0.  0.
         11    1    3    3    0    0 -0.54316174751E+02  0.61776935666E+01 -0.18321026604E+02  0.57654754821E+02  0.51100000000E-03 0.  1.
         22    1    1    0    0    0  0.19297287152E+02  0.93372531384E+01  0.19564610030E+02  0.29023155467E+02  0.00000000000E+00 0.  1.
</event>
<event>
 5    1  0.3186486E-003  0.9118800E+02  0.7818608E-02  0.1130116E+00
         25   -1    0    0    0    0  0.00000000000E+00  0.00000000000E+00  0.99999998245E-14  0.12500000000E+03  0.12500000000E+03 0.  0.
        -11    1    3    3    0    0 -0.16755525708E+02  0.49361875044E+02  0.32880288163E+02  0.61631612826E+02  0.51100000000E-03 0. -1.
         23    2    1    0    0    0 -0.14806061889E+01  0.26146474154E+02  0.13290250042E+02  0.95632312799E+02  0.91011417963E+02 0.  0.
         11    1    3    3    0    0  0.15274919519E+02 -0.23215400890E+02 -0.19590038121E+02  0.34000699973E+02  0.51100000000E-03 0.  1.
         22    1    1    0    0    0  0.14806061889E+01 -0.26146474154E+02 -0.13290250042E+02  0.29367687201E+02  0.00000000000E+00 0. -1.
</event>
<event>
 5    1  0.3186486E-003  0.9118800E+02  0.7818608E-02  0.1130116E+00
         25   -1    0    0    0    0  0.00000000000E+00  0.00000000000E+00  0.99999998245E-14  0.12500000000E+03  0.12500000000E+03 0.  0.
        -11    1    3    3    0    0  0.17949014505E+02  0.16856942482E+02 -0.76291463624E+01  0.25778431024E+02  0.51100000000E-03 0. -1.
         23    2    1    0    0    0  0.23251360832E+02 -0.35554583932E+02  0.10050185892E+02  0.81344983615E+02  0.68638516182E+02 0.  0.
         11    1    3    3    0    0  0.53023463264E+01 -0.52411526415E+02  0.17679332254E+02  0.55566552591E+02  0.51100000000E-03 0.  1.
         22    1    1    0    0    0 -0.23251360832E+02  0.35554583932E+02 -0.10050185892E+02  0.43655016385E+02  0.00000000000E+00 0.  1.
</event>
<event>
 5    1  0.3186486E-003  0.9118800E+02  0.7818608E-02  0.1130116E+00
         25   -1    0    0    0    0  0.00000000000E+00  0.00000000000E+00  0.99999998245E-14  0.12500000000E+03  0.12500000000E+03 0.  0.
        -11    1    3    3    0    0  0.34537774098E+01 -0.19352177160E+02  0.58957557577E+02  0.62148442740E+02  0.51100000000E-03 0. -1.
         23    2    1    0    0    0  0.82127203302E+00 -0.13699984868E+02  0.26962343981E+02  0.94745544690E+02  0.89785222462E+02 0.  0.
         11    1    3    3    0    0 -0.26325053767E+01  0.56521922925E+01 -0.31995213596E+02  0.32597101951E+02  0.51100000000E-03 0.  1.
         22    1    1    0    0    0 -0.82127203302E+00  0.13699984868E+02 -0.26962343981E+02  0.30254455310E+02  0.00000000000E+00 0. -1.
</event>
<event>
 5    1  0.3186486E-003  0.9118800E+02  0.7818608E-02  0.1130116E+00
         25   -1    0    0    0    0  0.00000000000E+00  0.00000000000E+00  0.99999998245E-14  0.12500000000E+03  0.12500000000E+03 0.  0.
        -11    1    3    3    0    0 -0.46950544376E+01 -0.55617818006E+01 -0.59890011913E+02  0.60330676113E+02  0.51100000000E-03 0.  1.
         23    2    1    0    0    0  0.91664135593E+01 -0.50705998630E+01 -0.27904214543E+02  0.95194307426E+02  0.90407836257E+02 0.  0.
         11    1    3    3    0    0  0.13861467997E+02  0.49118193759E+00  0.31985797370E+02  0.34863631314E+02  0.51100000000E-03 0. -1.
         22    1    1    0    0    0 -0.91664135593E+01  0.50705998630E+01  0.27904214543E+02  0.29805692574E+02  0.00000000000E+00 0.  1.
</event>
<event>
 5    1  0.3186486E-003  0.9118800E+02  0.7818608E-02  0.1130116E+00
         25   -1    0    0    0    0  0.00000000000E+00  0.00000000000E+00  0.99999998245E-14  0.12500000000E+03  0.12500000000E+03 0.  0.
        -11    1    3    3    0    0 -0.29191465811E+02 -0.93210278513E+01  0.19302562897E+02  0.36216186589E+02  0.51100000000E-03 0.  1.
         23    2    1    0    0    0  0.27732705448E+02  0.14084886771E+01  0.12523816665E+02  0.94538010970E+02  0.89495825280E+02 0.  0.
         11    1    3    3    0    0  0.56924171259E+02  0.10729516528E+02 -0.67787462319E+01  0.58321824381E+02  0.51100000000E-03 0. -1.
         22    1    1    0    0    0 -0.27732705448E+02 -0.14084886771E+01 -0.12523816665E+02  0.30461989030E+02  0.00000000000E+00 0. -1.
</event>
<event>
 5    1  0.3186486E-003  0.9118800E+02  0.7818608E-02  0.1130116E+00
         25   -1    0    0    0    0  0.00000000000E+00  0.00000000000E+00  0.99999998245E-14  0.12500000000E+03  0.12500000000E+03 0.  0.
        -11    1    3    3    0    0 -0.30562801197E+02 -0.11355202647E+02 -0.19419350620E+02  0.37949132044E+02  0.51100000000E-03 0. -1.
         23    2    1    0    0    0  0.26384292094E+02 -0.16673299301E+01 -0.11168842138E+02  0.96300629047E+02  0.91924736942E+02 0.  0.
         11    1    3    3    0    0  0.56947093291E+02  0.96878727171E+01  0.82505084818E+01  0.58351497003E+02  0.51100000000E-03 0.  1.
         22    1    1    0    0    0 -0.26384292094E+02  0.16673299301E+01  0.11168842138E+02  0.28699370953E+02  0.00000000000E+00 0.  1.
</event>
<event>
 5    1  0.3186486E-003  0.9118800E+02  0.7818608E-02  0.1130116E+00
         25   -1    0    0    0    0  0.00000000000E+00  0.00000000000E+00  0.99999998245E-14  0.12500000000E+03  0.12500000000E+03 0.  0.
        -11    1    3    3    0    0 -0.44494286915E+01  0.18202313521E+02  0.32463867714E+02  0.37483654309E+02  0.51100000000E-03 0. -1.
         23    2    1    0    0    0  0.20807156227E+02  0.41685150917E+02  0.15639588859E+02  0.75855455064E+02  0.57782902022E+02 0.  0.
         11    1    3    3    0    0  0.25256584919E+02  0.23482837396E+02 -0.16824278855E+02  0.38371800755E+02  0.51100000000E-03 0.  1.
         22    1    1    0    0    0 -0.20807156227E+02 -0.41685150917E+02 -0.15639588859E+02  0.49144544936E+02  0.00000000000E+00 0.  1.
</event>
<event>
 5    1  0.3186486E-003  0.9118800E+02  0.7818608E-02  0.1130116E+00
         25   -1    0    0    0    0  0.00000000000E+00  0.00000000000E+00  0.99999998245E-14  0.12500000000E+03  0.12500000000E+03 0.  0.
        -11    1    3    3    0    0 -0.28368115482E+02 -0.21905261459E+02 -0.70396599661E+01  0.36525980730E+02  0.51100000000E-03 0.  1.
         23    2    1    0    0    0 -0.39106760172E+00  0.28670403901E+02 -0.10592043438E+02  0.94433083605E+02  0.89349151653E+02 0.  0.
         11    1    3    3    0    0  0.27977047880E+02  0.50575665360E+02 -0.35523834715E+01  0.57907102875E+02  0.51100000000E-03 0. -1.
         22    1    1    0    0    0  0.39106760172E+00 -0.28670403901E+02  0.10592043438E+02  0.30566916395E+02  0.00000000000E+00 0. -1.
</event>
<event>
 5    1  0.3186486E-003  0.9118800E+02  0.7818608E-02  0.1130116E+00
         25   -1    0    0    0    0  0.00000000000E+00  0.00000000000E+00  0.99999998245E-14  0.12500000000E+03  0.12500000000E+03 0.  0.
        -11    1    3    3    0    0 -0.10947822687E+02  0.33943403894E+02  0.12366392879E+02  0.37748339866E+02  0.51100000000E-03 0.  1.
         23    2    1    0    0    0 -0.61904357867E+01 -0.23836360344E+02  0.15657460497E+02  0.95816963165E+02  0.91264674389E+02 0.  0.
         11    1    3    3    0    0  0.47573869000E+01 -0.57779764238E+02  0.32910676185E+01  0.58068623299E+02  0.51100000000E-03 0. -1.
         22    1    1    0    0    0  0.61904357867E+01  0.23836360344E+02 -0.15657460497E+02  0.29183036835E+02  0.00000000000E+00 0. -1.
</event>
<event>
 5    1  0.3186486E-003  0.9118800E+02  0.7818608E-02  0.1130116E+00
         25   -1    0    0    0    0  0.00000000000E+00  0.00000000000E+00  0.99999998245E-14  0.12500000000E+03  0.12500000000E+03 0.  0.
        -11    1    3    3    0    0 -0.20879637289E+02  0.12198671225E+02  0.30076845848E+02  0.38592531523E+02  0.51100000000E-03 0. -1.
         23    2    1    0    0    0  0.14519451344E+01  0.15978812880E+02 -0.23376868366E+02  0.96646718349E+02  0.92394153426E+02 0.  0.
         11    1    3    3    0    0  0.22331582423E+02  0.37801416551E+01 -0.53453714214E+02  0.58054186826E+02  0.51100000000E-03 0.  1.
         22    1    1    0    0    0 -0.14519451344E+01 -0.15978812880E+02  0.23376868366E+02  0.28353281651E+02  0.00000000000E+00 0.  1.
</event>
<event>
 5    1  0.3186486E-003  0.9118800E+02  0.7818608E-02  0.1130116E+00
         25   -1    0    0    0    0  0.00000000000E+00  0.00000000000E+00  0.99999998245E-14  0.12500000000E+03  0.12500000000E+03 0.  0.
        -11    1    3    3    0    0 -0.56558295420E+02  0.45862517057E+01 -0.17536452048E+02  0.59391932416E+02  0.51100000000E-03 0.  1.
         23    2    1    0    0    0 -0.20251261209E+02  0.32388842430E+01 -0.20699190132E+02  0.95861358580E+02  0.91325460005E+02 0.  0.
         11    1    3    3    0    0  0.36307034211E+02 -0.13473674627E+01 -0.31627380838E+01  0.36469426164E+02  0.51100000000E-03 0. -1.
         22    1    1    0    0    0  0.20251261209E+02 -0.32388842430E+01  0.20699190132E+02  0.29138641420E+02  0.00000000000E+00 0.  1.
</event>
<event>
 5    1  0.3186486E-003  0.9118800E+02  0.7818608E-02  0.1130116E+00
         25   -1    0    0    0    0  0.00000000000E+00  0.00000000000E+00  0.99999998245E-14  0.12500000000E+03  0.12500000000E+03 0.  0.
        -11    1    3    3    0    0 -0.32367086648E+02 -0.38466911875E+02  0.19198734745E+02  0.53813780980E+02  0.51100000000E-03 0.  1.
         23    2    1    0    0    0  0.72230042430E+01 -0.25946638429E+02  0.93651539927E+01  0.96484987368E+02  0.92175087969E+02 0.  0.
         11    1    3    3    0    0  0.39590090891E+02  0.12520273446E+02 -0.98335807522E+01  0.42671206388E+02  0.51100000000E-03 0. -1.
         22    1    1    0    0    0 -0.72230042430E+01  0.25946638429E+02 -0.93651539927E+01  0.28515012632E+02  0.00000000000E+00 0. -1.
</event>
<event>
 5    1  0.3186486E-003  0.9118800E+02  0.7818608E-02  0.1130116E+00
         25   -1    0    0    0    0  0.00000000000E+00  0.00000000000E+00  0.99999998245E-14  0.12500000000E+03  0.12500000000E+03 0.  0.
        -11    1    3    3    0    0  0.81136589595E+01 -0.18478068805E+02  0.46174065042E+02  0.50391614097E+02  0.51100000000E-03 0. -1.
         23    2    1    0    0    0  0.16388971528E+02 -0.21058596182E+02 -0.94242899327E+00  0.98298857079E+02  0.94602929498E+02 0.  0.
         11    1    3    3    0    0  0.82753125682E+01 -0.25805273772E+01 -0.47116494036E+02  0.47907242982E+02  0.51100000000E-03 0.  1.
         22    1    1    0    0    0 -0.16388971528E+02  0.21058596182E+02  0.94242899327E+00  0.26701142921E+02  0.00000000000E+00 0.  1.
</event>
<event>
 5    1  0.3186486E-003  0.9118800E+02  0.7818608E-02  0.1130116E+00
         25   -1    0    0    0    0  0.00000000000E+00  0.00000000000E+00  0.99999998245E-14  0.12500000000E+03  0.12500000000E+03 0.  0.
        -11    1    3    3    0    0  0.82875761404E+00  0.37707305559E+02 -0.93242161232E+01  0.38851882043E+02  0.51100000000E-03 0. -1.
         23    2    1    0    0    0  0.65120872632E+00 -0.35414272009E+01  0.29370523178E+02  0.95409572305E+02  0.90704978233E+02 0.  0.
         11    1    3    3    0    0 -0.17754888772E+00 -0.41248732760E+02  0.38694739301E+02  0.56557690262E+02  0.51100000000E-03 0.  1.
         22    1    1    0    0    0 -0.65120872632E+00  0.35414272009E+01 -0.29370523178E+02  0.29590427695E+02  0.00000000000E+00 0.  1.
</event>
<event>
 5    1  0.3186486E-003  0.9118800E+02  0.7818608E-02  0.1130116E+00
         25   -1    0    0    0    0  0.00000000000E+00  0.00000000000E+00  0.99999998245E-14  0.12500000000E+03  0.12500000000E+03 0.  0.
        -11    1    3    3    0    0 -0.46251471147E+02  0.37277570301E+02 -0.17517307765E+02  0.61932801506E+02  0.51100000000E-03 0. -1.
         23    2    1    0    0    0 -0.19226864775E+02  0.20834310147E+02 -0.38635600721E+01  0.96387626718E+02  0.92042961053E+02 0.  0.
         11    1    3    3    0    0  0.27024606372E+02 -0.16443260154E+02  0.13653747692E+02  0.34454825211E+02  0.51100000000E-03 0.  1.
         22    1    1    0    0    0  0.19226864775E+02 -0.20834310147E+02  0.38635600721E+01  0.28612373282E+02  0.00000000000E+00 0. -1.
</event>
<event>
 5    1  0.3186486E-003  0.9118800E+02  0.7818608E-02  0.1130116E+00
         25   -1    0    0    0    0  0.00000000000E+00  0.00000000000E+00  0.99999998245E-14  0.12500000000E+03  0.12500000000E+03 0.  0.
        -11    1    3    3    0    0  0.18888069428E+01  0.23620156346E+02 -0.48477508373E+02  0.53958763846E+02  0.51100000000E-03 0. -1.
         23    2    1    0    0    0  0.14116050985E+02 -0.82021407426E+01 -0.24189899869E+02  0.95816284269E+02  0.91263744539E+02 0.  0.
         11    1    3    3    0    0  0.12227244042E+02 -0.31822297089E+02  0.24287608504E+02  0.41857520423E+02  0.51100000000E-03 0.  1.
         22    1    1    0    0    0 -0.14116050985E+02  0.82021407426E+01  0.24189899869E+02  0.29183715731E+02  0.00000000000E+00 0. -1.
</event>
<event>
 5    1  0.3186486E-003  0.9118800E+02  0.7818608E-02  0.1130116E+00
         25   -1    0    0    0    0  0.00000000000E+00  0.00000000000E+00  0.99999998245E-14  0.12500000000E+03  0.12500000000E+03 0.  0.
        -11    1    3    3    0    0  0.15345391620E+02 -0.33680934312E+02 -0.23942378726E+02  0.44080878841E+02  0.51100000000E-03 0. -1.
         23    2    1    0    0    0 -0.22213016145E+02 -0.18581872797E+02  0.72047203966E+01  0.95156875517E+02  0.90356067197E+02 0.  0.
         11    1    3    3    0    0 -0.37558407764E+02  0.15099061515E+02  0.31147099123E+02  0.51075996676E+02  0.51100000000E-03 0.  1.
         22    1    1    0    0    0  0.22213016145E+02  0.18581872797E+02 -0.72047203966E+01  0.29843124483E+02  0.00000000000E+00 0. -1.
</event>
<event>
 5    1  0.3186486E-003  0.9118800E+02  0.7818608E-02  0.1130116E+00
         25   -1    0    0    0    0  0.00000000000E+00  0.00000000000E+00  0.99999998245E-14  0.12500000000E+03  0.12500000000E+03 0.  0.
        -11    1    3    3    0    0  0.44993566103E+02 -0.88046781780E+01 -0.31513261397E+01  0.45955132523E+02  0.51100000000E-03 0. -1.
         23    2    1    0    0    0  0.24974217474E+02  0.20184798009E+02 -0.22158355637E+02  0.85985511234E+02  0.76624916369E+02 0.  0.
         11    1    3    3    0    0 -0.20019348629E+02  0.28989476188E+02 -0.19007029498E+02  0.40030378711E+02  0.51100000000E-03 0.  1.
         22    1    1    0    0    0 -0.24974217474E+02 -0.20184798009E+02  0.22158355637E+02  0.39014488766E+02  0.00000000000E+00 0.  1.
</event>
<event>
 5    1  0.3186486E-003  0.9118800E+02  0.7818608E-02  0.1130116E+00
         25   -1    0    0    0    0  0.00000000000E+00  0.00000000000E+00  0.99999998245E-14  0.12500000000E+03  0.12500000000E+03 0.  0.
        -11    1    3    3    0    0  0.36465270632E+01 -0.25640744542E+02  0.55705667837E+02  0.61431802592E+02  0.51100000000E-03 0. -1.
         23    2    1    0    0    0  0.69972266238E+01 -0.17476888631E+02  0.23153334581E+02  0.95159093196E+02  0.90359135117E+02 0.  0.
         11    1    3    3    0    0  0.33506995606E+01  0.81638559107E+01 -0.32552333256E+02  0.33727290605E+02  0.51100000000E-03 0.  1.
         22    1    1    0    0    0 -0.69972266238E+01  0.17476888631E+02 -0.23153334581E+02  0.29840906804E+02  0.00000000000E+00 0. -1.
</event>
<event>
 5    1  0.3186486E-003  0.9118800E+02  0.7818608E-02  0.1130116E+00
         25   -1    0    0    0    0  0.00000000000E+00  0.00000000000E+00  0.99999998245E-14  0.12500000000E+03  0.12500000000E+03 0.  0.
        -11    1    3    3    0    0  0.45908093596E+02  0.35639258312E+02  0.73254673930E+01  0.58577916175E+02  0.51100000000E-03 0.  1.
         23    2    1    0    0    0  0.28525340603E+02  0.18298038343E+02  0.19411275421E+02  0.85944771449E+02  0.76558427768E+02 0.  0.
         11    1    3    3    0    0 -0.17382752993E+02 -0.17341219969E+02  0.12085808028E+02  0.27366855274E+02  0.51100000000E-03 0. -1.
         22    1    1    0    0    0 -0.28525340603E+02 -0.18298038343E+02 -0.19411275421E+02  0.39055228551E+02  0.00000000000E+00 0.  1.
</event>
<event>
 5    1  0.3186486E-003  0.9118800E+02  0.7818608E-02  0.1130116E+00
         25   -1    0    0    0    0  0.00000000000E+00  0.00000000000E+00  0.99999998245E-14  0.12500000000E+03  0.12500000000E+03 0.  0.
        -11    1    3    3    0    0  0.33261483619E+02  0.10318393392E+02  0.97707578651E+01  0.36169921817E+02  0.51100000000E-03 0.  1.
         23    2    1    0    0    0 -0.21606357191E+02 -0.22953623465E+01 -0.15930205547E+02  0.98057936082E+02  0.94284060267E+02 0.  0.
         11    1    3    3    0    0 -0.54867840810E+02 -0.12613755739E+02 -0.25700963412E+02  0.61888014265E+02  0.51100000000E-03 0. -1.
         22    1    1    0    0    0  0.21606357191E+02  0.22953623465E+01  0.15930205547E+02  0.26942063918E+02  0.00000000000E+00 0. -1.
</event>
<event>
 5    1  0.3186486E-003  0.9118800E+02  0.7818608E-02  0.1130116E+00
         25   -1    0    0    0    0  0.00000000000E+00  0.00000000000E+00  0.99999998245E-14  0.12500000000E+03  0.12500000000E+03 0.  0.
        -11    1    3    3    0    0  0.23958058519E+01  0.31855523516E+02 -0.21669871038E+02  0.38601782021E+02  0.51100000000E-03 0. -1.
         23    2    1    0    0    0 -0.24730667662E+02 -0.10076106488E+01  0.16041539828E+02  0.95505047851E+02  0.90836457234E+02 0.  0.
         11    1    3    3    0    0 -0.27126473513E+02 -0.32863134164E+02  0.37711410866E+02  0.56903265830E+02  0.51100000000E-03 0.  1.
         22    1    1    0    0    0  0.24730667662E+02  0.10076106488E+01 -0.16041539828E+02  0.29494952149E+02  0.00000000000E+00 0.  1.
</event>
<event>
 5    1  0.3186486E-003  0.9118800E+02  0.7818608E-02  0.1130116E+00
         25   -1    0    0    0    0  0.00000000000E+00  0.00000000000E+00  0.99999998245E-14  0.12500000000E+03  0.12500000000E+03 0.  0.
        -11    1    3    3    0    0 -0.15814089883E+01  0.30332080007E+02 -0.38293758590E+02  0.48876864457E+02  0.51100000000E-03 0. -1.
         23    2    1    0    0    0  0.21875453673E+02 -0.47908525982E+01 -0.20260073066E+02  0.94801352635E+02  0.89862885324E+02 0.  0.
         11    1    3    3    0    0  0.23456862661E+02 -0.35122932605E+02  0.18033685523E+02  0.45924488179E+02  0.51100000000E-03 0.  1.
         22    1    1    0    0    0 -0.21875453673E+02  0.47908525982E+01  0.20260073066E+02  0.30198647365E+02  0.00000000000E+00 0.  1.
</event>
<event>
 5    1  0.3186486E-003  0.9118800E+02  0.7818608E-02  0.1130116E+00
         25   -1    0    0    0    0  0.00000000000E+00  0.00000000000E+00  0.99999998245E-14  0.12500000000E+03  0.12500000000E+03 0.  0.
        -11    1    3    3    0    0  0.88443718973E+01 -0.33586224065E+02  0.28618732231E+02  0.45003213174E+02  0.51100000000E-03 0.  1.
         23    2    1    0    0    0  0.14397841034E+01 -0.22504624218E+02 -0.19656835295E+02  0.95084748651E+02  0.90256230603E+02 0.  0.
         11    1    3    3    0    0 -0.74045877939E+01  0.11081599847E+02 -0.48275567526E+02  0.50081535477E+02  0.51100000000E-03 0. -1.
         22    1    1    0    0    0 -0.14397841034E+01  0.22504624218E+02  0.19656835295E+02  0.29915251349E+02  0.00000000000E+00 0. -1.
</event>
<event>
 5    1  0.3186486E-003  0.9118800E+02  0.7818608E-02  0.1130116E+00
         25   -1    0    0    0    0  0.00000000000E+00  0.00000000000E+00  0.99999998245E-14  0.12500000000E+03  0.12500000000E+03 0.  0.
        -11    1    3    3    0    0 -0.45511028581E+02 -0.34026608760E+02  0.52027670649E+01  0.57062532468E+02  0.51100000000E-03 0.  1.
         23    2    1    0    0    0 -0.26180130796E+02 -0.38609562304E+00  0.11559429322E+02  0.96378876252E+02  0.92031076616E+02 0.  0.
         11    1    3    3    0    0  0.19330897785E+02  0.33640513137E+02  0.63566622571E+01  0.39316343785E+02  0.51100000000E-03 0. -1.
         22    1    1    0    0    0  0.26180130796E+02  0.38609562304E+00 -0.11559429322E+02  0.28621123748E+02  0.00000000000E+00 0.  1.
</event>
<event>
 5    1  0.3186486E-003  0.9118800E+02  0.7818608E-02  0.1130116E+00
         25   -1    0    0    0    0  0.00000000000E+00  0.00000000000E+00  0.99999998245E-14  0.12500000000E+03  0.12500000000E+03 0.  0.
        -11    1    3    3    0    0  0.18461975786E+01 -0.13465575578E+02  0.32545961600E+02  0.35269955881E+02  0.51100000000E-03 0. -1.
         23    2    1    0    0    0 -0.14947098569E+02  0.79446306347E+01 -0.22599915926E+02  0.96763691611E+02  0.92552271192E+02 0.  0.
         11    1    3    3    0    0 -0.16793296148E+02  0.21410206213E+02 -0.55145877526E+02  0.61493735730E+02  0.51100000000E-03 0.  1.
         22    1    1    0    0    0  0.14947098569E+02 -0.79446306347E+01  0.22599915926E+02  0.28236308389E+02  0.00000000000E+00 0.  1.
</event>
<event>
 5    1  0.3186486E-003  0.9118800E+02  0.7818608E-02  0.1130116E+00
         25   -1    0    0    0    0  0.00000000000E+00  0.00000000000E+00  0.99999998245E-14  0.12500000000E+03  0.12500000000E+03 0.  0.
        -11    1    3    3    0    0 -0.10227535397E+02 -0.20441785868E+02 -0.46774117366E+02  0.52060418221E+02  0.51100000000E-03 0. -1.
         23    2    1    0    0    0 -0.47106648065E+01  0.16114459044E+02 -0.24748029032E+02  0.95094631015E+02  0.90269916105E+02 0.  0.
         11    1    3    3    0    0  0.55168705906E+01  0.36556244912E+02  0.22026088334E+02  0.43034212793E+02  0.51100000000E-03 0.  1.
         22    1    1    0    0    0  0.47106648065E+01 -0.16114459044E+02  0.24748029032E+02  0.29905368985E+02  0.00000000000E+00 0. -1.
</event>
<event>
 5    1  0.3186486E-003  0.9118800E+02  0.7818608E-02  0.1130116E+00
         25   -1    0    0    0    0  0.00000000000E+00  0.00000000000E+00  0.99999998245E-14  0.12500000000E+03  0.12500000000E+03 0.  0.
        -11    1    3    3    0    0  0.43441706448E+02 -0.20444003103E+02  0.25644831908E+01  0.48080304661E+02  0.51100000000E-03 0.  1.
         23    2    1    0    0    0  0.76252367053E+01 -0.17729682859E+01  0.28075740688E+02  0.95853218590E+02  0.91314317867E+02 0.  0.
         11    1    3    3    0    0 -0.35816469742E+02  0.18671034817E+02  0.25511257498E+02  0.47772913929E+02  0.51100000000E-03 0. -1.
         22    1    1    0    0    0 -0.76252367053E+01  0.17729682859E+01 -0.28075740688E+02  0.29146781410E+02  0.00000000000E+00 0. -1.
</event>
<event>
 5    1  0.3186486E-003  0.9118800E+02  0.7818608E-02  0.1130116E+00
         25   -1    0    0    0    0  0.00000000000E+00  0.00000000000E+00  0.99999998245E-14  0.12500000000E+03  0.12500000000E+03 0.  0.
        -11    1    3    3    0    0 -0.10117341154E+02 -0.27083022973E+02  0.17552235601E+02  0.33822059373E+02  0.51100000000E-03 0. -1.
         23    2    1    0    0    0 -0.19132705176E+00  0.26636148251E+02 -0.11833776191E+02  0.95852800158E+02  0.91313745074E+02 0.  0.
         11    1    3    3    0    0  0.99260141025E+01  0.53719171224E+02 -0.29386011792E+02  0.62030740785E+02  0.51100000000E-03 0.  1.
         22    1    1    0    0    0  0.19132705176E+00 -0.26636148251E+02  0.11833776191E+02  0.29147199842E+02  0.00000000000E+00 0.  1.
</event>
<event>
 5    1  0.3186486E-003  0.9118800E+02  0.7818608E-02  0.1130116E+00
         25   -1    0    0    0    0  0.00000000000E+00  0.00000000000E+00  0.99999998245E-14  0.12500000000E+03  0.12500000000E+03 0.  0.
        -11    1    3    3    0    0 -0.73673026895E+00  0.68307186938E+01 -0.59008624954E+02  0.59407232797E+02  0.51100000000E-03 0.  1.
         23    2    1    0    0    0  0.10362710981E+02 -0.57602807510E+01 -0.24767837003E+02  0.97540714448E+02  0.93595825826E+02 0.  0.
         11    1    3    3    0    0  0.11099441250E+02 -0.12590999445E+02  0.34240787951E+02  0.38133481651E+02  0.51100000000E-03 0. -1.
         22    1    1    0    0    0 -0.10362710981E+02  0.57602807510E+01  0.24767837003E+02  0.27459285552E+02  0.00000000000E+00 0.  1.
</event>
<event>
 5    1  0.3186486E-003  0.9118800E+02  0.7818608E-02  0.1130116E+00
         25   -1    0    0    0    0  0.00000000000E+00  0.00000000000E+00  0.99999998245E-14  0.12500000000E+03  0.12500000000E+03 0.  0.
        -11    1    3    3    0    0  0.33142237444E+02 -0.46485288245E+02  0.51747137383E+00  0.57092536315E+02  0.51100000000E-03 0.  1.
         23    2    1    0    0    0  0.24736492716E+02 -0.11591199023E+02 -0.12079105957E+02  0.95131040068E+02  0.90320318960E+02 0.  0.
         11    1    3    3    0    0 -0.84057447280E+01  0.34894089222E+02 -0.12596577330E+02  0.38038503753E+02  0.51100000000E-03 0. -1.
         22    1    1    0    0    0 -0.24736492716E+02  0.11591199023E+02  0.12079105957E+02  0.29868959932E+02  0.00000000000E+00 0.  1.
</event>
<event>
 5    1  0.3186486E-003  0.9118800E+02  0.7818608E-02  0.1130116E+00
         25   -1    0    0    0    0  0.00000000000E+00  0.00000000000E+00  0.99999998245E-14  0.12500000000E+03  0.12500000000E+03 0.  0.
        -11    1    3    3    0    0  0.15915289540E+02  0.40708519627E+02 -0.39444080912E+02  0.58875423826E+02  0.51100000000E-03 0. -1.
         23    2    1    0    0    0  0.15601157555E+02  0.24515345471E+02 -0.70412856866E+01  0.95100535377E+02  0.90278091718E+02 0.  0.
         11    1    3    3    0    0 -0.31413198519E+00 -0.16193174156E+02  0.32402795226E+02  0.36225111551E+02  0.51100000000E-03 0.  1.
         22    1    1    0    0    0 -0.15601157555E+02 -0.24515345471E+02  0.70412856866E+01  0.29899464623E+02  0.00000000000E+00 0. -1.
</event>
<event>
 5    1  0.3186486E-003  0.9118800E+02  0.7818608E-02  0.1130116E+00
         25   -1    0    0    0    0  0.00000000000E+00  0.00000000000E+00  0.99999998245E-14  0.12500000000E+03  0.12500000000E+03 0.  0.
        -11    1    3    3    0    0 -0.26039264355E+02 -0.35109409213E+02  0.13893551533E+02  0.45866596537E+02  0.51100000000E-03 0. -1.
         23    2    1    0    0    0 -0.12631289661E+02 -0.65620813901E+01 -0.25176617060E+02  0.96078166772E+02  0.91621731554E+02 0.  0.
         11    1    3    3    0    0  0.13407974694E+02  0.28547327823E+02 -0.39070168593E+02  0.50211570234E+02  0.51100000000E-03 0.  1.
         22    1    1    0    0    0  0.12631289661E+02  0.65620813901E+01  0.25176617060E+02  0.28921833228E+02  0.00000000000E+00 0.  1.
</event>
<event>
 5    1  0.3186486E-003  0.9118800E+02  0.7818608E-02  0.1130116E+00
         25   -1    0    0    0    0  0.00000000000E+00  0.00000000000E+00  0.99999998245E-14  0.12500000000E+03  0.12500000000E+03 0.  0.
        -11    1    3    3    0    0 -0.43527978695E+02 -0.35789759303E+02 -0.18612257412E+02  0.59346507282E+02  0.51100000000E-03 0. -1.
         23    2    1    0    0    0 -0.22148649698E+02 -0.64052820095E+01 -0.18097943630E+02  0.95689150734E+02  0.91089448805E+02 0.  0.
         11    1    3    3    0    0  0.21379328998E+02  0.29384477294E+02  0.51431378255E+00  0.36342643453E+02  0.51100000000E-03 0.  1.
         22    1    1    0    0    0  0.22148649698E+02  0.64052820095E+01  0.18097943630E+02  0.29310849266E+02  0.00000000000E+00 0. -1.
</event>
<event>
 5    1  0.3186486E-003  0.9118800E+02  0.7818608E-02  0.1130116E+00
         25   -1    0    0    0    0  0.00000000000E+00  0.00000000000E+00  0.99999998245E-14  0.12500000000E+03  0.12500000000E+03 0.  0.
        -11    1    3    3    0    0  0.15859330897E+02 -0.36402663656E+02 -0.44755349915E+02  0.59830708203E+02  0.51100000000E-03 0.  1.
         23    2    1    0    0    0 -0.43425497945E+01 -0.21667202486E+02 -0.17559205036E+02  0.96774991873E+02  0.92567531934E+02 0.  0.
         11    1    3    3    0    0 -0.20201880691E+02  0.14735461171E+02  0.27196144879E+02  0.36944283670E+02  0.51100000000E-03 0. -1.
         22    1    1    0    0    0  0.43425497945E+01  0.21667202486E+02  0.17559205036E+02  0.28225008127E+02  0.00000000000E+00 0.  1.
</event>
<event>
 5    1  0.3186486E-003  0.9118800E+02  0.7818608E-02  0.1130116E+00
         25   -1    0    0    0    0  0.00000000000E+00  0.00000000000E+00  0.99999998245E-14  0.12500000000E+03  0.12500000000E+03 0.  0.
        -11    1    3    3    0    0 -0.23477414642E+02  0.40388985499E+02  0.40529096904E+02  0.61847124784E+02  0.51100000000E-03 0. -1.
         23    2    1    0    0    0 -0.70345927976E+01  0.16303415891E+02  0.23251255416E+02  0.95744098989E+02  0.91164821873E+02 0.  0.
         11    1    3    3    0    0  0.16442821845E+02 -0.24085569607E+02 -0.17277841488E+02  0.33896974205E+02  0.51100000000E-03 0.  1.
         22    1    1    0    0    0  0.70345927976E+01 -0.16303415891E+02 -0.23251255416E+02  0.29255901011E+02  0.00000000000E+00 0. -1.
</event>
<event>
 5    1  0.3186486E-003  0.9118800E+02  0.7818608E-02  0.1130116E+00
         25   -1    0    0    0    0  0.00000000000E+00  0.00000000000E+00  0.99999998245E-14  0.12500000000E+03  0.12500000000E+03 0.  0.
        -11    1    3    3    0    0  0.83643008952E+01  0.32075231379E+02  0.38912291902E+02  0.51117007530E+02  0.51100000000E-03 0.  1.
         23    2    1    0    0    0  0.27381714974E+02  0.61824847261E+01  0.77387399018E+01  0.95881800750E+02  0.91353435553E+02 0.  0.
         11    1    3    3    0    0  0.19017414079E+02 -0.25892746653E+02 -0.31173552000E+02  0.44764793220E+02  0.51100000000E-03 0. -1.
         22    1    1    0    0    0 -0.27381714974E+02 -0.61824847261E+01 -0.77387399018E+01  0.29118199250E+02  0.00000000000E+00 0. -1.
</event>
<event>
 5    1  0.3186486E-003  0.9118800E+02  0.7818608E-02  0.1130116E+00
         25   -1    0    0    0    0  0.00000000000E+00  0.00000000000E+00  0.99999998245E-14  0.12500000000E+03  0.12500000000E+03 0.  0.
        -11    1    3    3    0    0  0.10030005489E+02  0.48205431297E+02  0.28655985804E+02  0.56969554495E+02  0.51100000000E-03 0. -1.
         23    2    1    0    0    0  0.14905829419E+02  0.12159201162E+02  0.24896571206E+02  0.93537813467E+02  0.88087759461E+02 0.  0.
         11    1    3    3    0    0  0.48758239302E+01 -0.36046230135E+02 -0.37594145976E+01  0.36568258973E+02  0.51100000000E-03 0.  1.
         22    1    1    0    0    0 -0.14905829419E+02 -0.12159201162E+02 -0.24896571206E+02  0.31462186533E+02  0.00000000000E+00 0. -1.
</event>
<event>
 5    1  0.3186486E-003  0.9118800E+02  0.7818608E-02  0.1130116E+00
         25   -1    0    0    0    0  0.00000000000E+00  0.00000000000E+00  0.99999998245E-14  0.12500000000E+03  0.12500000000E+03 0.  0.
        -11    1    3    3    0    0 -0.27963090468E+02 -0.55394018452E+02 -0.33990746191E+01  0.62144874425E+02  0.51100000000E-03 0.  1.
         23    2    1    0    0    0 -0.14590925768E+02 -0.23243895749E+02  0.24261375412E+01  0.97448957411E+02  0.93473201255E+02 0.  0.
         11    1    3    3    0    0  0.13372164699E+02  0.32150122703E+02  0.58252121603E+01  0.35304082987E+02  0.51100000000E-03 0. -1.
         22    1    1    0    0    0  0.14590925768E+02  0.23243895749E+02 -0.24261375412E+01  0.27551042589E+02  0.00000000000E+00 0.  1.
</event>
<event>
 5    1  0.3186486E-003  0.9118800E+02  0.7818608E-02  0.1130116E+00
         25   -1    0    0    0    0  0.00000000000E+00  0.00000000000E+00  0.99999998245E-14  0.12500000000E+03  0.12500000000E+03 0.  0.
        -11    1    3    3    0    0 -0.43286001749E+01  0.54122146620E+02 -0.19947041769E+02  0.57843132780E+02  0.51100000000E-03 0.  1.
         23    2    1    0    0    0  0.61502991019E+01  0.27698655849E+02  0.56204978971E+01  0.96075413374E+02  0.91617975002E+02 0.  0.
         11    1    3    3    0    0  0.10478899277E+02 -0.26423490771E+02  0.25567539666E+02  0.38232280594E+02  0.51100000000E-03 0. -1.
         22    1    1    0    0    0 -0.61502991019E+01 -0.27698655849E+02 -0.56204978971E+01  0.28924586626E+02  0.00000000000E+00 0.  1.
</event>
<event>
 5    1  0.3186486E-003  0.9118800E+02  0.7818608E-02  0.1130116E+00
         25   -1    0    0    0    0  0.00000000000E+00  0.00000000000E+00  0.99999998245E-14  0.12500000000E+03  0.12500000000E+03 0.  0.
        -11    1    3    3    0    0 -0.10402268727E+02  0.54920669408E+02 -0.93649736643E+01  0.56676184195E+02  0.51100000000E-03 0.  1.
         23    2    1    0    0    0  0.92005920215E+01  0.24965866773E+02 -0.17193339682E+02  0.93321042841E+02  0.87779614435E+02 0.  0.
         11    1    3    3    0    0  0.19602860748E+02 -0.29954802635E+02 -0.78283660173E+01  0.36644858646E+02  0.51100000000E-03 0. -1.
         22    1    1    0    0    0 -0.92005920215E+01 -0.24965866773E+02  0.17193339682E+02  0.31678957159E+02  0.00000000000E+00 0.  1.
</event>
<event>
 5    1  0.3186486E-003  0.9118800E+02  0.7818608E-02  0.1130116E+00
         25   -1    0    0    0    0  0.00000000000E+00  0.00000000000E+00  0.99999998245E-14  0.12500000000E+03  0.12500000000E+03 0.  0.
        -11    1    3    3    0    0  0.94683098354E+01  0.30588202587E+02  0.12992343426E+02  0.34555578661E+02  0.51100000000E-03 0.  1.
         23    2    1    0    0    0 -0.55470028326E+01 -0.27762959757E+02  0.10317121820E+02  0.94867058266E+02  0.89954235957E+02 0.  0.
         11    1    3    3    0    0 -0.15015312668E+02 -0.58351162343E+02 -0.26752216063E+01  0.60311479606E+02  0.51100000000E-03 0. -1.
         22    1    1    0    0    0  0.55470028326E+01  0.27762959757E+02 -0.10317121820E+02  0.30132941734E+02  0.00000000000E+00 0. -1.
</event>
<event>
 5    1  0.3186486E-003  0.9118800E+02  0.7818608E-02  0.1130116E+00
         25   -1    0    0    0    0  0.00000000000E+00  0.00000000000E+00  0.99999998245E-14  0.12500000000E+03  0.12500000000E+03 0.  0.
        -11    1    3    3    0    0  0.85348345225E+01 -0.36024170181E+02  0.45855086260E+02  0.58934482043E+02  0.51100000000E-03 0.  1.
         23    2    1    0    0    0  0.81209294314E+01 -0.41633083577E+01  0.28195265374E+02  0.95364622141E+02  0.90643011508E+02 0.  0.
         11    1    3    3    0    0 -0.41390509111E+00  0.31860861824E+02 -0.17659820885E+02  0.36430140098E+02  0.51100000000E-03 0. -1.
         22    1    1    0    0    0 -0.81209294314E+01  0.41633083577E+01 -0.28195265374E+02  0.29635377859E+02  0.00000000000E+00 0.  1.
</event>
<event>
 5    1  0.3186486E-003  0.9118800E+02  0.7818608E-02  0.1130116E+00
         25   -1    0    0    0    0  0.00000000000E+00  0.00000000000E+00  0.99999998245E-14  0.12500000000E+03  0.12500000000E+03 0.  0.
        -11    1    3    3    0    0  0.38703979677E+02 -0.34527532882E+02 -0.13906052179E+02  0.53698480958E+02  0.51100000000E-03 0.  1.
         23    2    1    0    0    0  0.27704997825E+02  0.37675705685E+01 -0.14410212740E+02  0.93545020685E+02  0.88097986193E+02 0.  0.
         11    1    3    3    0    0 -0.10998981852E+02  0.38295103450E+02 -0.50416056155E+00  0.39846539727E+02  0.51100000000E-03 0. -1.
         22    1    1    0    0    0 -0.27704997825E+02 -0.37675705685E+01  0.14410212740E+02  0.31454979315E+02  0.00000000000E+00 0.  1.
</event>
<event>
 5    1  0.3186486E-003  0.9118800E+02  0.7818608E-02  0.1130116E+00
         25   -1    0    0    0    0  0.00000000000E+00  0.00000000000E+00  0.99999998245E-14  0.12500000000E+03  0.12500000000E+03 0.  0.
        -11    1    3    3    0    0 -0.23669960454E+02 -0.49285280590E+02  0.10861386619E+02  0.55742942426E+02  0.51100000000E-03 0.  1.
         23    2    1    0    0    0  0.84825763213E+00 -0.32081079286E+02 -0.89851579391E+01  0.91673610271E+02  0.85401420174E+02 0.  0.
         11    1    3    3    0    0  0.24518218086E+02  0.17204201303E+02 -0.19846544558E+02  0.35930667845E+02  0.51100000000E-03 0. -1.
         22    1    1    0    0    0 -0.84825763213E+00  0.32081079286E+02  0.89851579391E+01  0.33326389729E+02  0.00000000000E+00 0.  1.
</event>
<event>
 5    1  0.3186486E-003  0.9118800E+02  0.7818608E-02  0.1130116E+00
         25   -1    0    0    0    0  0.00000000000E+00  0.00000000000E+00  0.99999998245E-14  0.12500000000E+03  0.12500000000E+03 0.  0.
        -11    1    3    3    0    0 -0.22575722493E+02 -0.27849338709E+02  0.34415656035E+02  0.49695938397E+02  0.51100000000E-03 0. -1.
         23    2    1    0    0    0 -0.47518901191E+01  0.13838828135E+02  0.25046843908E+02  0.95992449025E+02  0.91504711661E+02 0.  0.
         11    1    3    3    0    0  0.17823832374E+02  0.41688166844E+02 -0.93688121276E+01  0.46296510627E+02  0.51100000000E-03 0.  1.
         22    1    1    0    0    0  0.47518901191E+01 -0.13838828135E+02 -0.25046843908E+02  0.29007550975E+02  0.00000000000E+00 0.  1.
</event>
<event>
 5    1  0.3186486E-003  0.9118800E+02  0.7818608E-02  0.1130116E+00
         25   -1    0    0    0    0  0.00000000000E+00  0.00000000000E+00  0.99999998245E-14  0.12500000000E+03  0.12500000000E+03 0.  0.
        -11    1    3    3    0    0 -0.26400639353E+02 -0.16026817529E+02 -0.30723967984E+02  0.43563916804E+02  0.51100000000E-03 0.  1.
         23    2    1    0    0    0  0.10966689525E+02 -0.27292945489E+02  0.33786241716E+01  0.95392766866E+02  0.90681815798E+02 0.  0.
         11    1    3    3    0    0  0.37367328878E+02 -0.11266127960E+02  0.34102592156E+02  0.51828850062E+02  0.51100000000E-03 0. -1.
         22    1    1    0    0    0 -0.10966689525E+02  0.27292945489E+02 -0.33786241716E+01  0.29607233134E+02  0.00000000000E+00 0. -1.
</event>
<event>
 5    1  0.3186486E-003  0.9118800E+02  0.7818608E-02  0.1130116E+00
         25   -1    0    0    0    0  0.00000000000E+00  0.00000000000E+00  0.99999998245E-14  0.12500000000E+03  0.12500000000E+03 0.  0.
        -11    1    3    3    0    0  0.16293601500E+02 -0.35035082898E+00 -0.50505348904E+02  0.53069713243E+02  0.51100000000E-03 0. -1.
         23    2    1    0    0    0  0.23784639005E+02  0.13378583075E+02 -0.10965692922E+02  0.95590104405E+02  0.90953428199E+02 0.  0.
         11    1    3    3    0    0  0.74910375047E+01  0.13728933904E+02  0.39539655983E+02  0.42520391161E+02  0.51100000000E-03 0.  1.
         22    1    1    0    0    0 -0.23784639005E+02 -0.13378583075E+02  0.10965692922E+02  0.29409895595E+02  0.00000000000E+00 0.  1.
</event>
<event>
 5    1  0.3186486E-003  0.9118800E+02  0.7818608E-02  0.1130116E+00
         25   -1    0    0    0    0  0.00000000000E+00  0.00000000000E+00  0.99999998245E-14  0.12500000000E+03  0.12500000000E+03 0.  0.
        -11    1    3    3    0    0 -0.91728709257E+01  0.44311165351E+02  0.37015515731E+02  0.58461691225E+02  0.51100000000E-03 0. -1.
         23    2    1    0    0    0  0.10143615902E+02  0.16582106758E+02  0.22568506560E+02  0.95214152749E+02  0.90435270704E+02 0.  0.
         11    1    3    3    0    0  0.19316486827E+02 -0.27729058593E+02 -0.14447009171E+02  0.36752461524E+02  0.51100000000E-03 0.  1.
         22    1    1    0    0    0 -0.10143615902E+02 -0.16582106758E+02 -0.22568506560E+02  0.29785847251E+02  0.00000000000E+00 0. -1.
</event>
<event>
 5    1  0.3186486E-003  0.9118800E+02  0.7818608E-02  0.1130116E+00
         25   -1    0    0    0    0  0.00000000000E+00  0.00000000000E+00  0.99999998245E-14  0.12500000000E+03  0.12500000000E+03 0.  0.
        -11    1    3    3    0    0  0.47791961008E+02 -0.14593051297E+02 -0.10952648415E+02  0.51156516600E+02  0.51100000000E-03 0. -1.
         23    2    1    0    0    0  0.17881505934E+02 -0.17983280597E+02  0.18761776814E+02  0.93453987499E+02  0.87968726685E+02 0.  0.
         11    1    3    3    0    0 -0.29910455074E+02 -0.33902293007E+01  0.29714425229E+02  0.42297470898E+02  0.51100000000E-03 0.  1.
         22    1    1    0    0    0 -0.17881505934E+02  0.17983280597E+02 -0.18761776814E+02  0.31546012501E+02  0.00000000000E+00 0. -1.
</event>
<event>
 5    1  0.3186486E-003  0.9118800E+02  0.7818608E-02  0.1130116E+00
         25   -1    0    0    0    0  0.00000000000E+00  0.00000000000E+00  0.99999998245E-14  0.12500000000E+03  0.12500000000E+03 0.  0.
        -11    1    3    3    0    0 -0.32107671755E+02  0.98853380553E+00  0.21446098516E+02  0.38624020071E+02  0.51100000000E-03 0.  1.
         23    2    1    0    0    0 -0.39045663085E+01 -0.29733995506E+01 -0.28478998065E+02  0.96101209822E+02  0.91653163914E+02 0.  0.
         11    1    3    3    0    0  0.28203105446E+02 -0.39619333561E+01 -0.49925096582E+02  0.57477189751E+02  0.51100000000E-03 0. -1.
         22    1    1    0    0    0  0.39045663085E+01  0.29733995506E+01  0.28478998065E+02  0.28898790178E+02  0.00000000000E+00 0. -1.
</event>
<event>
 5    1  0.3186486E-003  0.9118800E+02  0.7818608E-02  0.1130116E+00
         25   -1    0    0    0    0  0.00000000000E+00  0.00000000000E+00  0.99999998245E-14  0.12500000000E+03  0.12500000000E+03 0.  0.
        -11    1    3    3    0    0  0.66610006227E+01 -0.34913852189E+02  0.30279174400E+01  0.35672318235E+02  0.51100000000E-03 0. -1.
         23    2    1    0    0    0  0.21138534483E+02  0.12199002374E+02  0.25378414672E+02  0.89790381565E+02  0.82599003574E+02 0.  0.
         11    1    3    3    0    0  0.14477533860E+02  0.47112854563E+02  0.22350497233E+02  0.54118063330E+02  0.51100000000E-03 0.  1.
         22    1    1    0    0    0 -0.21138534483E+02 -0.12199002374E+02 -0.25378414672E+02  0.35209618435E+02  0.00000000000E+00 0.  1.
</event>
<event>
 5    1  0.3186486E-003  0.9118800E+02  0.7818608E-02  0.1130116E+00
         25   -1    0    0    0    0  0.00000000000E+00  0.00000000000E+00  0.99999998245E-14  0.12500000000E+03  0.12500000000E+03 0.  0.
        -11    1    3    3    0    0 -0.70444598468E+01 -0.50768644586E+02  0.30871902536E+02  0.59834388558E+02  0.51100000000E-03 0. -1.
         23    2    1    0    0    0 -0.38065251009E+01 -0.28140122577E+02  0.21785128346E+01  0.96520146591E+02  0.92222755586E+02 0.  0.
         11    1    3    3    0    0  0.32379347459E+01  0.22628522008E+02 -0.28693389701E+02  0.36685758034E+02  0.51100000000E-03 0.  1.
         22    1    1    0    0    0  0.38065251009E+01  0.28140122577E+02 -0.21785128346E+01  0.28479853409E+02  0.00000000000E+00 0. -1.
</event>
<event>
 5    1  0.3186486E-003  0.9118800E+02  0.7818608E-02  0.1130116E+00
         25   -1    0    0    0    0  0.00000000000E+00  0.00000000000E+00  0.99999998245E-14  0.12500000000E+03  0.12500000000E+03 0.  0.
        -11    1    3    3    0    0  0.19834833891E+02  0.38397604565E+02 -0.39104264821E+02  0.58283275468E+02  0.51100000000E-03 0.  1.
         23    2    1    0    0    0  0.46930384197E+01  0.54490832370E+01 -0.27828598073E+02  0.96257209801E+02  0.91865676127E+02 0.  0.
         11    1    3    3    0    0 -0.15141795472E+02 -0.32948521328E+02  0.11275666748E+02  0.37973934333E+02  0.51100000000E-03 0. -1.
         22    1    1    0    0    0 -0.46930384197E+01 -0.54490832370E+01  0.27828598073E+02  0.28742790199E+02  0.00000000000E+00 0.  1.
</event>
<event>
 5    1  0.3186486E-003  0.9118800E+02  0.7818608E-02  0.1130116E+00
         25   -1    0    0    0    0  0.00000000000E+00  0.00000000000E+00  0.99999998245E-14  0.12500000000E+03  0.12500000000E+03 0.  0.
        -11    1    3    3    0    0 -0.37456545156E+02 -0.20968486534E+02 -0.20479998427E+02  0.47561544743E+02  0.51100000000E-03 0.  1.
         23    2    1    0    0    0 -0.95000618399E+01  0.17164678560E+02 -0.22824557574E+02  0.94902860709E+02  0.90003973120E+02 0.  0.
         11    1    3    3    0    0  0.27956483316E+02  0.38133165094E+02 -0.23445591469E+01  0.47341315966E+02  0.51100000000E-03 0. -1.
         22    1    1    0    0    0  0.95000618399E+01 -0.17164678560E+02  0.22824557574E+02  0.30097139291E+02  0.00000000000E+00 0.  1.
</event>
<event>
 5    1  0.3186486E-003  0.9118800E+02  0.7818608E-02  0.1130116E+00
         25   -1    0    0    0    0  0.00000000000E+00  0.00000000000E+00  0.99999998245E-14  0.12500000000E+03  0.12500000000E+03 0.  0.
        -11    1    3    3    0    0 -0.22850100756E+02 -0.16320961132E+02 -0.42366114581E+02  0.50827045377E+02  0.51100000000E-03 0.  1.
         23    2    1    0    0    0  0.11778021411E+02  0.72173495615E+01 -0.25562845373E+02  0.95943658409E+02  0.91438036955E+02 0.  0.
         11    1    3    3    0    0  0.34628122168E+02  0.23538310693E+02  0.16803269207E+02  0.45116613032E+02  0.51100000000E-03 0. -1.
         22    1    1    0    0    0 -0.11778021411E+02 -0.72173495615E+01  0.25562845373E+02  0.29056341591E+02  0.00000000000E+00 0.  1.
</event>
<event>
 5    1  0.3186486E-003  0.9118800E+02  0.7818608E-02  0.1130116E+00
         25   -1    0    0    0    0  0.00000000000E+00  0.00000000000E+00  0.99999998245E-14  0.12500000000E+03  0.12500000000E+03 0.  0.
        -11    1    3    3    0    0  0.96800594431E+01 -0.55843305301E+02 -0.19418849994E+02  0.59910516883E+02  0.51100000000E-03 0.  1.
         23    2    1    0    0    0 -0.12052216658E+01 -0.24393163610E+02  0.35115712269E+01  0.10032592205E+03  0.97244436924E+02 0.  0.
         11    1    3    3    0    0 -0.10885281109E+02  0.31450141691E+02  0.22930421221E+02  0.40415405168E+02  0.51100000000E-03 0. -1.
         22    1    1    0    0    0  0.12052216658E+01  0.24393163610E+02 -0.35115712269E+01  0.24674077950E+02  0.00000000000E+00 0.  1.
</event>
<event>
 5    1  0.3186486E-003  0.9118800E+02  0.7818608E-02  0.1130116E+00
         25   -1    0    0    0    0  0.00000000000E+00  0.00000000000E+00  0.99999998245E-14  0.12500000000E+03  0.12500000000E+03 0.  0.
        -11    1    3    3    0    0  0.34602161984E+02 -0.64173384677E+00  0.42312553799E+02  0.54663275108E+02  0.51100000000E-03 0. -1.
         23    2    1    0    0    0  0.21705946710E+02 -0.15853696752E+02  0.40414470317E+01  0.97818735913E+02  0.93966398134E+02 0.  0.
         11    1    3    3    0    0 -0.12896215274E+02 -0.15211962905E+02 -0.38271106768E+02  0.43155460805E+02  0.51100000000E-03 0.  1.
         22    1    1    0    0    0 -0.21705946710E+02  0.15853696752E+02 -0.40414470317E+01  0.27181264087E+02  0.00000000000E+00 0. -1.
</event>
<event>
 5    1  0.3186486E-003  0.9118800E+02  0.7818608E-02  0.1130116E+00
         25   -1    0    0    0    0  0.00000000000E+00  0.00000000000E+00  0.99999998245E-14  0.12500000000E+03  0.12500000000E+03 0.  0.
        -11    1    3    3    0    0  0.35035139896E+02 -0.45113397077E+02  0.12058028236E+02  0.58378726164E+02  0.51100000000E-03 0.  1.
         23    2    1    0    0    0  0.18583802356E+02 -0.20217535384E+02 -0.10305272642E+02  0.95669042102E+02  0.91061850000E+02 0.  0.
         11    1    3    3    0    0 -0.16451337540E+02  0.24895861693E+02 -0.22363300879E+02  0.37290315938E+02  0.51100000000E-03 0. -1.
         22    1    1    0    0    0 -0.18583802356E+02  0.20217535384E+02  0.10305272642E+02  0.29330957898E+02  0.00000000000E+00 0. -1.
</event>
<event>
 5    1  0.3186486E-003  0.9118800E+02  0.7818608E-02  0.1130116E+00
         25   -1    0    0    0    0  0.00000000000E+00  0.00000000000E+00  0.99999998245E-14  0.12500000000E+03  0.12500000000E+03 0.  0.
        -11    1    3    3    0    0 -0.22694860761E+02 -0.25325350279E+02 -0.11720999351E+01  0.34026517457E+02  0.51100000000E-03 0.  1.
         23    2    1    0    0    0  0.15634523617E+02  0.23542610230E+02 -0.52037541838E+01  0.96263753155E+02  0.91874579121E+02 0.  0.
         11    1    3    3    0    0  0.38329384378E+02  0.48867960509E+02 -0.40316542487E+01  0.62237235698E+02  0.51100000000E-03 0. -1.
         22    1    1    0    0    0 -0.15634523617E+02 -0.23542610230E+02  0.52037541838E+01  0.28736246845E+02  0.00000000000E+00 0. -1.
</event>
<event>
 5    1  0.3186486E-003  0.9118800E+02  0.7818608E-02  0.1130116E+00
         25   -1    0    0    0    0  0.00000000000E+00  0.00000000000E+00  0.99999998245E-14  0.12500000000E+03  0.12500000000E+03 0.  0.
        -11    1    3    3    0    0 -0.39202454829E+02 -0.77609727269E+01 -0.41770411044E+02  0.57808584149E+02  0.51100000000E-03 0.  1.
         23    2    1    0    0    0 -0.46803948158E+01 -0.12425115497E+02 -0.25486532895E+02  0.96262342654E+02  0.91872660044E+02 0.  0.
         11    1    3    3    0    0  0.34522060013E+02 -0.46641427704E+01  0.16283878149E+02  0.38453758505E+02  0.51100000000E-03 0. -1.
         22    1    1    0    0    0  0.46803948158E+01  0.12425115497E+02  0.25486532895E+02  0.28737657346E+02  0.00000000000E+00 0.  1.
</event>
<event>
 5    1  0.3186486E-003  0.9118800E+02  0.7818608E-02  0.1130116E+00
         25   -1    0    0    0    0  0.00000000000E+00  0.00000000000E+00  0.99999998245E-14  0.12500000000E+03  0.12500000000E+03 0.  0.
        -11    1    3    3    0    0  0.18508834075E+02 -0.20234815159E+02 -0.34183882910E+02  0.43824223146E+02  0.51100000000E-03 0.  1.
         23    2    1    0    0    0  0.29438179750E+02 -0.48463162410E+01  0.11322192635E+02  0.93089417834E+02  0.87449153560E+02 0.  0.
         11    1    3    3    0    0  0.10929345675E+02  0.15388498918E+02  0.45506075545E+02  0.49265194687E+02  0.51100000000E-03 0. -1.
         22    1    1    0    0    0 -0.29438179750E+02  0.48463162410E+01 -0.11322192635E+02  0.31910582166E+02  0.00000000000E+00 0. -1.
</event>
<event>
 5    1  0.3186486E-003  0.9118800E+02  0.7818608E-02  0.1130116E+00
         25   -1    0    0    0    0  0.00000000000E+00  0.00000000000E+00  0.99999998245E-14  0.12500000000E+03  0.12500000000E+03 0.  0.
        -11    1    3    3    0    0  0.18233279961E+02 -0.11839752169E+02  0.34223608670E+02  0.40544884020E+02  0.51100000000E-03 0. -1.
         23    2    1    0    0    0 -0.36129471039E+01 -0.10616408399E+02 -0.21687351598E+02  0.10058478480E+03  0.97576617072E+02 0.  0.
         11    1    3    3    0    0 -0.21846227064E+02  0.12233437697E+01 -0.55910960268E+02  0.60039900777E+02  0.51100000000E-03 0.  1.
         22    1    1    0    0    0  0.36129471039E+01  0.10616408399E+02  0.21687351598E+02  0.24415215203E+02  0.00000000000E+00 0.  1.
</event>
<event>
 5    1  0.3186486E-003  0.9118800E+02  0.7818608E-02  0.1130116E+00
         25   -1    0    0    0    0  0.00000000000E+00  0.00000000000E+00  0.99999998245E-14  0.12500000000E+03  0.12500000000E+03 0.  0.
        -11    1    3    3    0    0  0.16655572502E+02  0.31046218242E+02  0.13540170138E+01  0.35257752691E+02  0.51100000000E-03 0.  1.
         23    2    1    0    0    0 -0.10446717008E+02 -0.18609622698E+02 -0.20026377495E+02  0.95733846362E+02  0.91150762972E+02 0.  0.
         11    1    3    3    0    0 -0.27102289510E+02 -0.49655840940E+02 -0.21380394509E+02  0.60476093671E+02  0.51100000000E-03 0. -1.
         22    1    1    0    0    0  0.10446717008E+02  0.18609622698E+02  0.20026377495E+02  0.29266153638E+02  0.00000000000E+00 0. -1.
</event>
<event>
 5    1  0.3186486E-003  0.9118800E+02  0.7818608E-02  0.1130116E+00
         25   -1    0    0    0    0  0.00000000000E+00  0.00000000000E+00  0.99999998245E-14  0.12500000000E+03  0.12500000000E+03 0.  0.
        -11    1    3    3    0    0  0.13495495365E+02 -0.82553257889E+01  0.10424796383E+02  0.18946112502E+02  0.51100000000E-03 0.  1.
         23    2    1    0    0    0 -0.21974570399E+02  0.19296097859E+02 -0.32643958416E+02  0.81172506826E+02  0.68323690668E+02 0.  0.
         11    1    3    3    0    0 -0.35470065764E+02  0.27551423648E+02 -0.43068754800E+02  0.62226394324E+02  0.51100000000E-03 0. -1.
         22    1    1    0    0    0  0.21974570399E+02 -0.19296097859E+02  0.32643958416E+02  0.43827493174E+02  0.00000000000E+00 0. -1.
</event>
<event>
 5    1  0.3186486E-003  0.9118800E+02  0.7818608E-02  0.1130116E+00
         25   -1    0    0    0    0  0.00000000000E+00  0.00000000000E+00  0.99999998245E-14  0.12500000000E+03  0.12500000000E+03 0.  0.
        -11    1    3    3    0    0 -0.26630749735E+02  0.12491674700E+02 -0.49977823561E+02  0.57991565045E+02  0.51100000000E-03 0. -1.
         23    2    1    0    0    0  0.27794096959E+00  0.15663653138E+02 -0.28146682144E+02  0.92787223086E+02  0.87016123629E+02 0.  0.
         11    1    3    3    0    0  0.26908690705E+02  0.31719784388E+01  0.21831141417E+02  0.34795658041E+02  0.51100000000E-03 0.  1.
         22    1    1    0    0    0 -0.27794096959E+00 -0.15663653138E+02  0.28146682144E+02  0.32212776914E+02  0.00000000000E+00 0. -1.
</event>
<event>
 5    1  0.3186486E-003  0.9118800E+02  0.7818608E-02  0.1130116E+00
         25   -1    0    0    0    0  0.00000000000E+00  0.00000000000E+00  0.99999998245E-14  0.12500000000E+03  0.12500000000E+03 0.  0.
        -11    1    3    3    0    0  0.29165648632E+02  0.25946160705E+02  0.27787800652E+01  0.39135149602E+02  0.51100000000E-03 0.  1.
         23    2    1    0    0    0 -0.16293030636E+02  0.50278308402E+01 -0.23742174046E+02  0.95769318197E+02  0.91199394456E+02 0.  0.
         11    1    3    3    0    0 -0.45458679268E+02 -0.20918329865E+02 -0.26520954111E+02  0.56634168594E+02  0.51100000000E-03 0. -1.
         22    1    1    0    0    0  0.16293030636E+02 -0.50278308402E+01  0.23742174046E+02  0.29230681803E+02  0.00000000000E+00 0. -1.
</event>
<event>
 4    1  0.3186486E-003  0.9118800E+02  0.7818608E-02  0.1130116E+00
         25   -1    0    0    0    0  0.00000000000E+00  0.00000000000E+00  0.99999998245E-14  0.12500000000E+03  0.12500000000E+03 0.  0.
        -11    1    1    0    0    0 -0.26117346240E+02  0.47042860239E+02  0.11882841951E+02  0.55103070760E+02  0.51100000000E-03 0.  1.
         11    1    1    0    0    0  0.11387697396E+02  0.66398831854E+01 -0.14599513196E+01  0.13262698022E+02  0.51100000000E-03 0. -1.
         22    1    1    0    0    0  0.14729648844E+02 -0.53682743424E+02 -0.10422890631E+02  0.56634231219E+02  0.00000000000E+00 0.  1.
</event>
<event>
 5    1  0.3186486E-003  0.9118800E+02  0.7818608E-02  0.1130116E+00
         25   -1    0    0    0    0  0.00000000000E+00  0.00000000000E+00  0.99999998245E-14  0.12500000000E+03  0.12500000000E+03 0.  0.
        -11    1    3    3    0    0 -0.29648454108E+01  0.23478407167E+02  0.26930661878E+02  0.35850892051E+02  0.51100000000E-03 0.  1.
         23    2    1    0    0    0  0.78668488496E+01 -0.65808034631E+01 -0.25648455917E+02  0.97376865204E+02  0.93376743898E+02 0.  0.
         11    1    3    3    0    0  0.10831694260E+02 -0.30059210630E+02 -0.52579117794E+02  0.61525973154E+02  0.51100000000E-03 0. -1.
         22    1    1    0    0    0 -0.78668488496E+01  0.65808034631E+01  0.25648455917E+02  0.27623134796E+02  0.00000000000E+00 0. -1.
</event>
<event>
 5    1  0.3186486E-003  0.9118800E+02  0.7818608E-02  0.1130116E+00
         25   -1    0    0    0    0  0.00000000000E+00  0.00000000000E+00  0.99999998245E-14  0.12500000000E+03  0.12500000000E+03 0.  0.
        -11    1    3    3    0    0 -0.38811384819E+02 -0.17257250375E+02  0.38629408692E+02  0.57414000890E+02  0.51100000000E-03 0.  1.
         23    2    1    0    0    0 -0.24030314682E+02  0.83966737052E+01  0.13859720682E+02  0.96016349257E+02  0.91537354748E+02 0.  0.
         11    1    3    3    0    0  0.14781070138E+02  0.25653924080E+02 -0.24769688010E+02  0.38602348367E+02  0.51100000000E-03 0. -1.
         22    1    1    0    0    0  0.24030314682E+02 -0.83966737052E+01 -0.13859720682E+02  0.28983650743E+02  0.00000000000E+00 0.  1.
</event>
<event>
 5    1  0.3186486E-003  0.9118800E+02  0.7818608E-02  0.1130116E+00
         25   -1    0    0    0    0  0.00000000000E+00  0.00000000000E+00  0.99999998245E-14  0.12500000000E+03  0.12500000000E+03 0.  0.
        -11    1    3    3    0    0  0.48220505943E+02 -0.34773513919E+02  0.10713829733E+02  0.60408613720E+02  0.51100000000E-03 0.  1.
         23    2    1    0    0    0  0.17116918545E+02 -0.25292996714E+02  0.62889561150E+00  0.94452985531E+02  0.89376990231E+02 0.  0.
         11    1    3    3    0    0 -0.31103587398E+02  0.94805172050E+01 -0.10084934121E+02  0.34044371811E+02  0.51100000000E-03 0. -1.
         22    1    1    0    0    0 -0.17116918545E+02  0.25292996714E+02 -0.62889561150E+00  0.30547014469E+02  0.00000000000E+00 0.  1.
</event>
<event>
 5    1  0.3186486E-003  0.9118800E+02  0.7818608E-02  0.1130116E+00
         25   -1    0    0    0    0  0.00000000000E+00  0.00000000000E+00  0.99999998245E-14  0.12500000000E+03  0.12500000000E+03 0.  0.
        -11    1    3    3    0    0 -0.22742321213E+02  0.18855924811E+00  0.25504765535E+02  0.34172237182E+02  0.51100000000E-03 0. -1.
         23    2    1    0    0    0  0.27618291411E+02 -0.14797359929E+00 -0.98198252955E+01  0.95687530205E+02  0.91087224962E+02 0.  0.
         11    1    3    3    0    0  0.50360612624E+02 -0.33653284740E+00 -0.35324590830E+02  0.61515293024E+02  0.51100000000E-03 0.  1.
         22    1    1    0    0    0 -0.27618291411E+02  0.14797359929E+00  0.98198252955E+01  0.29312469795E+02  0.00000000000E+00 0.  1.
</event>
<event>
 5    1  0.3186486E-003  0.9118800E+02  0.7818608E-02  0.1130116E+00
         25   -1    0    0    0    0  0.00000000000E+00  0.00000000000E+00  0.99999998245E-14  0.12500000000E+03  0.12500000000E+03 0.  0.
        -11    1    3    3    0    0  0.36264188051E+02  0.18353655739E+02  0.44679549991E+02  0.60400415575E+02  0.51100000000E-03 0.  1.
         23    2    1    0    0    0  0.16456970089E+02  0.18794079533E+02  0.15733929786E+02  0.95477028664E+02  0.90797891859E+02 0.  0.
         11    1    3    3    0    0 -0.19807217962E+02  0.44042379403E+00 -0.28945620205E+02  0.35076613089E+02  0.51100000000E-03 0. -1.
         22    1    1    0    0    0 -0.16456970089E+02 -0.18794079533E+02 -0.15733929786E+02  0.29522971336E+02  0.00000000000E+00 0.  1.
</event>
<event>
 5    1  0.3186486E-003  0.9118800E+02  0.7818608E-02  0.1130116E+00
         25   -1    0    0    0    0  0.00000000000E+00  0.00000000000E+00  0.99999998245E-14  0.12500000000E+03  0.12500000000E+03 0.  0.
        -11    1    3    3    0    0  0.50879236060E+02 -0.98404350477E+01  0.64910150648E+01  0.52227043769E+02  0.51100000000E-03 0. -1.
         23    2    1    0    0    0  0.16205335774E+02 -0.15806986458E+02 -0.18813287802E+02  0.95565096801E+02  0.90919053010E+02 0.  0.
         11    1    3    3    0    0 -0.34673900286E+02 -0.59665514102E+01 -0.25304302866E+02  0.43338053032E+02  0.51100000000E-03 0.  1.
         22    1    1    0    0    0 -0.16205335774E+02  0.15806986458E+02  0.18813287802E+02  0.29434903199E+02  0.00000000000E+00 0. -1.
</event>
<event>
 5    1  0.3186486E-003  0.9118800E+02  0.7818608E-02  0.1130116E+00
         25   -1    0    0    0    0  0.00000000000E+00  0.00000000000E+00  0.99999998245E-14  0.12500000000E+03  0.12500000000E+03 0.  0.
        -11    1    3    3    0    0 -0.28581103239E+02  0.26007375855E+02  0.37909184493E+00  0.38644621516E+02  0.51100000000E-03 0. -1.
         23    2    1    0    0    0  0.95365319588E+01 -0.66421492881E+01 -0.26848922359E+02  0.95743749030E+02  0.91164342029E+02 0.  0.
         11    1    3    3    0    0  0.38117635198E+02 -0.32649525143E+02 -0.27228014204E+02  0.57099127514E+02  0.51100000000E-03 0.  1.
         22    1    1    0    0    0 -0.95365319588E+01  0.66421492881E+01  0.26848922359E+02  0.29256250970E+02  0.00000000000E+00 0.  1.
</event>
<event>
 5    1  0.3186486E-003  0.9118800E+02  0.7818608E-02  0.1130116E+00
         25   -1    0    0    0    0  0.00000000000E+00  0.00000000000E+00  0.99999998245E-14  0.12500000000E+03  0.12500000000E+03 0.  0.
        -11    1    3    3    0    0  0.15110800672E+02 -0.18455723779E+02 -0.47749422235E+02  0.53375625160E+02  0.51100000000E-03 0.  1.
         23    2    1    0    0    0 -0.14263393744E+02 -0.16768722726E+02 -0.11187670385E+02  0.10030590290E+03  0.97218700490E+02 0.  0.
         11    1    3    3    0    0 -0.29374194416E+02  0.16870010525E+01  0.36561751850E+02  0.46930277740E+02  0.51100000000E-03 0. -1.
         22    1    1    0    0    0  0.14263393744E+02  0.16768722726E+02  0.11187670385E+02  0.24694097100E+02  0.00000000000E+00 0.  1.
</event>
<event>
 5    1  0.3186486E-003  0.9118800E+02  0.7818608E-02  0.1130116E+00
         25   -1    0    0    0    0  0.00000000000E+00  0.00000000000E+00  0.99999998245E-14  0.12500000000E+03  0.12500000000E+03 0.  0.
        -11    1    3    3    0    0 -0.52043928475E+01 -0.10922325964E+02  0.36349657122E+02  0.38310318226E+02  0.51100000000E-03 0. -1.
         23    2    1    0    0    0 -0.18780830981E+02  0.21117942578E+02 -0.88795866445E+01  0.95376796763E+02  0.90659799198E+02 0.  0.
         11    1    3    3    0    0 -0.13576438133E+02  0.32040268542E+02 -0.45229243767E+02  0.57066478537E+02  0.51100000000E-03 0.  1.
         22    1    1    0    0    0  0.18780830981E+02 -0.21117942578E+02  0.88795866445E+01  0.29623203237E+02  0.00000000000E+00 0.  1.
</event>
<event>
 5    1  0.3186486E-003  0.9118800E+02  0.7818608E-02  0.1130116E+00
         25   -1    0    0    0    0  0.00000000000E+00  0.00000000000E+00  0.99999998245E-14  0.12500000000E+03  0.12500000000E+03 0.  0.
        -11    1    3    3    0    0  0.19229112146E+02 -0.48174824557E+02 -0.21053033515E+02  0.55980377772E+02  0.51100000000E-03 0. -1.
         23    2    1    0    0    0  0.29284646077E+02 -0.19107064334E+02 -0.10745419945E+02  0.88419479868E+02  0.80497639512E+02 0.  0.
         11    1    3    3    0    0  0.10055533931E+02  0.29067760223E+02  0.10307613570E+02  0.32439102096E+02  0.51100000000E-03 0.  1.
         22    1    1    0    0    0 -0.29284646077E+02  0.19107064334E+02  0.10745419945E+02  0.36580520132E+02  0.00000000000E+00 0. -1.
</event>
<event>
 5    1  0.3186486E-003  0.9118800E+02  0.7818608E-02  0.1130116E+00
         25   -1    0    0    0    0  0.00000000000E+00  0.00000000000E+00  0.99999998245E-14  0.12500000000E+03  0.12500000000E+03 0.  0.
        -11    1    3    3    0    0  0.42525842506E+01 -0.46751523687E+02  0.30960983113E+02  0.56234970574E+02  0.51100000000E-03 0.  1.
         23    2    1    0    0    0  0.17008258926E+02 -0.10066929307E+02  0.20642788653E+02  0.96421185106E+02  0.92088524130E+02 0.  0.
         11    1    3    3    0    0  0.12755674675E+02  0.36684594380E+02 -0.10318194460E+02  0.40186214532E+02  0.51100000000E-03 0. -1.
         22    1    1    0    0    0 -0.17008258926E+02  0.10066929307E+02 -0.20642788653E+02  0.28578814894E+02  0.00000000000E+00 0.  1.
</event>
<event>
 5    1  0.3186486E-003  0.9118800E+02  0.7818608E-02  0.1130116E+00
         25   -1    0    0    0    0  0.00000000000E+00  0.00000000000E+00  0.99999998245E-14  0.12500000000E+03  0.12500000000E+03 0.  0.
        -11    1    3    3    0    0 -0.49313246423E+02  0.15661469032E+02  0.28513077073E+01  0.51818991122E+02  0.51100000000E-03 0.  1.
         23    2    1    0    0    0 -0.11690044183E+02  0.19738714777E+02 -0.18730591475E+02  0.95383973071E+02  0.90669693215E+02 0.  0.
         11    1    3    3    0    0  0.37623202239E+02  0.40772457456E+01 -0.21581899183E+02  0.43564981949E+02  0.51100000000E-03 0. -1.
         22    1    1    0    0    0  0.11690044183E+02 -0.19738714777E+02  0.18730591475E+02  0.29616026929E+02  0.00000000000E+00 0.  1.
</event>
<event>
 5    1  0.3186486E-003  0.9118800E+02  0.7818608E-02  0.1130116E+00
         25   -1    0    0    0    0  0.00000000000E+00  0.00000000000E+00  0.99999998245E-14  0.12500000000E+03  0.12500000000E+03 0.  0.
        -11    1    3    3    0    0  0.33001196964E+02  0.30756192096E+02  0.30381069332E+02  0.54387790241E+02  0.51100000000E-03 0.  1.
         23    2    1    0    0    0  0.71835811764E+01  0.28536794820E+02 -0.15762113406E+01  0.95530745865E+02  0.90871813376E+02 0.  0.
         11    1    3    3    0    0 -0.25817615787E+02 -0.22193972768E+01 -0.31957280672E+02  0.41142955624E+02  0.51100000000E-03 0. -1.
         22    1    1    0    0    0 -0.71835811764E+01 -0.28536794820E+02  0.15762113406E+01  0.29469254135E+02  0.00000000000E+00 0.  1.
</event>
<event>
 5    1  0.3186486E-003  0.9118800E+02  0.7818608E-02  0.1130116E+00
         25   -1    0    0    0    0  0.00000000000E+00  0.00000000000E+00  0.99999998245E-14  0.12500000000E+03  0.12500000000E+03 0.  0.
        -11    1    3    3    0    0  0.44578015548E+02 -0.15835910445E+02 -0.61735161740E+01  0.47708362287E+02  0.51100000000E-03 0. -1.
         23    2    1    0    0    0  0.19111359744E+02  0.22552230275E+02  0.47674694423E+01  0.95057122274E+02  0.90217961452E+02 0.  0.
         11    1    3    3    0    0 -0.25466655804E+02  0.38388140720E+02  0.10940985616E+02  0.47348759987E+02  0.51100000000E-03 0.  1.
         22    1    1    0    0    0 -0.19111359744E+02 -0.22552230275E+02 -0.47674694423E+01  0.29942877726E+02  0.00000000000E+00 0. -1.
</event>
<event>
 5    1  0.3186486E-003  0.9118800E+02  0.7818608E-02  0.1130116E+00
         25   -1    0    0    0    0  0.00000000000E+00  0.00000000000E+00  0.99999998245E-14  0.12500000000E+03  0.12500000000E+03 0.  0.
        -11    1    3    3    0    0  0.13274580548E+02  0.22968614875E+02 -0.34022050628E+02  0.43142458057E+02  0.51100000000E-03 0.  1.
         23    2    1    0    0    0  0.18748843850E+02  0.13380823242E+02  0.17650258926E+02  0.95981088640E+02  0.91489191493E+02 0.  0.
         11    1    3    3    0    0  0.54742633021E+01 -0.95877916329E+01  0.51672309553E+02  0.52838630583E+02  0.51100000000E-03 0. -1.
         22    1    1    0    0    0 -0.18748843850E+02 -0.13380823242E+02 -0.17650258926E+02  0.29018911360E+02  0.00000000000E+00 0. -1.
</event>
<event>
 5    1  0.3186486E-003  0.9118800E+02  0.7818608E-02  0.1130116E+00
         25   -1    0    0    0    0  0.00000000000E+00  0.00000000000E+00  0.99999998245E-14  0.12500000000E+03  0.12500000000E+03 0.  0.
        -11    1    3    3    0    0  0.39356438300E+02 -0.12357764056E+02  0.26083971196E+02  0.48805912774E+02  0.51100000000E-03 0. -1.
         23    2    1    0    0    0  0.20733268602E+02 -0.13646188175E+02 -0.16427215206E+02  0.95235251083E+02  0.90464428207E+02 0.  0.
         11    1    3    3    0    0 -0.18623169698E+02 -0.12884241194E+01 -0.42511186402E+02  0.46429338309E+02  0.51100000000E-03 0.  1.
         22    1    1    0    0    0 -0.20733268602E+02  0.13646188175E+02  0.16427215206E+02  0.29764748917E+02  0.00000000000E+00 0.  1.
</event>
<event>
 5    1  0.3186486E-003  0.9118800E+02  0.7818608E-02  0.1130116E+00
         25   -1    0    0    0    0  0.00000000000E+00  0.00000000000E+00  0.99999998245E-14  0.12500000000E+03  0.12500000000E+03 0.  0.
        -11    1    3    3    0    0  0.20096586947E+02 -0.10785519043E+02 -0.44419127936E+02  0.49932546047E+02  0.51100000000E-03 0.  1.
         23    2    1    0    0    0 -0.14963087766E+02  0.10981890229E+02 -0.19197899903E+02  0.98296905251E+02  0.94600350489E+02 0.  0.
         11    1    3    3    0    0 -0.35059674713E+02  0.21767409272E+02  0.25221228032E+02  0.48364359203E+02  0.51100000000E-03 0. -1.
         22    1    1    0    0    0  0.14963087766E+02 -0.10981890229E+02  0.19197899903E+02  0.26703094749E+02  0.00000000000E+00 0. -1.
</event>
<event>
 5    1  0.3186486E-003  0.9118800E+02  0.7818608E-02  0.1130116E+00
         25   -1    0    0    0    0  0.00000000000E+00  0.00000000000E+00  0.99999998245E-14  0.12500000000E+03  0.12500000000E+03 0.  0.
        -11    1    3    3    0    0  0.43813883873E+02 -0.38386734955E+02 -0.13229749876E+02  0.59734614107E+02  0.51100000000E-03 0. -1.
         23    2    1    0    0    0  0.24587195265E+02 -0.86173402322E+01 -0.14475922452E+02  0.95194949178E+02  0.90408723553E+02 0.  0.
         11    1    3    3    0    0 -0.19226688608E+02  0.29769394723E+02 -0.12461725767E+01  0.35460335071E+02  0.51100000000E-03 0.  1.
         22    1    1    0    0    0 -0.24587195265E+02  0.86173402322E+01  0.14475922452E+02  0.29805050822E+02  0.00000000000E+00 0. -1.
</event>
<event>
 5    1  0.3186486E-003  0.9118800E+02  0.7818608E-02  0.1130116E+00
         25   -1    0    0    0    0  0.00000000000E+00  0.00000000000E+00  0.99999998245E-14  0.12500000000E+03  0.12500000000E+03 0.  0.
        -11    1    3    3    0    0  0.24338674176E+02 -0.18135473573E+02  0.30779501667E+02  0.43227817266E+02  0.51100000000E-03 0. -1.
         23    2    1    0    0    0  0.79167306714E+01 -0.15376269117E+02 -0.21102076061E+02  0.97716270589E+02  0.93829993324E+02 0.  0.
         11    1    3    3    0    0 -0.16421943505E+02  0.27592044565E+01 -0.51881577729E+02  0.54488453323E+02  0.51100000000E-03 0.  1.
         22    1    1    0    0    0 -0.79167306714E+01  0.15376269117E+02  0.21102076061E+02  0.27283729411E+02  0.00000000000E+00 0.  1.
</event>
<event>
 5    1  0.3186486E-003  0.9118800E+02  0.7818608E-02  0.1130116E+00
         25   -1    0    0    0    0  0.00000000000E+00  0.00000000000E+00  0.99999998245E-14  0.12500000000E+03  0.12500000000E+03 0.  0.
        -11    1    3    3    0    0 -0.25218758222E+02  0.20804222994E+02 -0.45467408910E+02  0.56000774404E+02  0.51100000000E-03 0.  1.
         23    2    1    0    0    0 -0.16265581610E+02  0.20403611491E+02 -0.37879615006E+01  0.98632877303E+02  0.95043249764E+02 0.  0.
         11    1    3    3    0    0  0.89531766117E+01 -0.40061150274E+00  0.41679447409E+02  0.42632102899E+02  0.51100000000E-03 0. -1.
         22    1    1    0    0    0  0.16265581610E+02 -0.20403611491E+02  0.37879615006E+01  0.26367122697E+02  0.00000000000E+00 0.  1.
</event>
<event>
 5    1  0.3186486E-003  0.9118800E+02  0.7818608E-02  0.1130116E+00
         25   -1    0    0    0    0  0.00000000000E+00  0.00000000000E+00  0.99999998245E-14  0.12500000000E+03  0.12500000000E+03 0.  0.
        -11    1    3    3    0    0 -0.33185458300E+02  0.31995517470E+01  0.17914364631E+02  0.37847539344E+02  0.51100000000E-03 0. -1.
         23    2    1    0    0    0  0.12327019944E+02 -0.20839522304E+02 -0.12622014038E+02  0.97695122250E+02  0.93801815347E+02 0.  0.
         11    1    3    3    0    0  0.45512478245E+02 -0.24039074051E+02 -0.30536378669E+02  0.59847582906E+02  0.51100000000E-03 0.  1.
         22    1    1    0    0    0 -0.12327019944E+02  0.20839522304E+02  0.12622014038E+02  0.27304877750E+02  0.00000000000E+00 0.  1.
</event>
<event>
 5    1  0.3186486E-003  0.9118800E+02  0.7818608E-02  0.1130116E+00
         25   -1    0    0    0    0  0.00000000000E+00  0.00000000000E+00  0.99999998245E-14  0.12500000000E+03  0.12500000000E+03 0.  0.
        -11    1    3    3    0    0 -0.17773979188E+02  0.18531228361E+02  0.29660347341E+02  0.39230816527E+02  0.51100000000E-03 0. -1.
         23    2    1    0    0    0 -0.14709707535E+02  0.24457701848E+01 -0.24779366402E+02  0.96079863644E+02  0.91624046577E+02 0.  0.
         11    1    3    3    0    0  0.30642716525E+01 -0.16085458176E+02 -0.54439713743E+02  0.56849047117E+02  0.51100000000E-03 0.  1.
         22    1    1    0    0    0  0.14709707535E+02 -0.24457701848E+01  0.24779366402E+02  0.28920136356E+02  0.00000000000E+00 0.  1.
</event>
<event>
 5    1  0.3186486E-003  0.9118800E+02  0.7818608E-02  0.1130116E+00
         25   -1    0    0    0    0  0.00000000000E+00  0.00000000000E+00  0.99999998245E-14  0.12500000000E+03  0.12500000000E+03 0.  0.
        -11    1    3    3    0    0 -0.82207154249E+01  0.12783019342E+02  0.30590189107E+02  0.34157655298E+02  0.51100000000E-03 0.  1.
         23    2    1    0    0    0  0.34596310923E+01 -0.23671636975E+02 -0.17307298657E+02  0.95472757813E+02  0.90792012056E+02 0.  0.
         11    1    3    3    0    0  0.11680346517E+02 -0.36454656317E+02 -0.47897487764E+02  0.61315102514E+02  0.51100000000E-03 0. -1.
         22    1    1    0    0    0 -0.34596310923E+01  0.23671636975E+02  0.17307298657E+02  0.29527242187E+02  0.00000000000E+00 0. -1.
</event>
<event>
 5    1  0.3186486E-003  0.9118800E+02  0.7818608E-02  0.1130116E+00
         25   -1    0    0    0    0  0.00000000000E+00  0.00000000000E+00  0.99999998245E-14  0.12500000000E+03  0.12500000000E+03 0.  0.
        -11    1    3    3    0    0 -0.51134836956E+01  0.32245320491E+02  0.92208573783E+01  0.33925397863E+02  0.51100000000E-03 0.  1.
         23    2    1    0    0    0 -0.42378156812E+01 -0.29011176228E+02  0.39823822064E+01  0.95411711845E+02  0.90707926673E+02 0.  0.
         11    1    3    3    0    0  0.87566801434E+00 -0.61256496719E+02 -0.52384751718E+01  0.61486313983E+02  0.51100000000E-03 0. -1.
         22    1    1    0    0    0  0.42378156812E+01  0.29011176228E+02 -0.39823822064E+01  0.29588288155E+02  0.00000000000E+00 0. -1.
</event>
<event>
 5    1  0.3186486E-003  0.9118800E+02  0.7818608E-02  0.1130116E+00
         25   -1    0    0    0    0  0.00000000000E+00  0.00000000000E+00  0.99999998245E-14  0.12500000000E+03  0.12500000000E+03 0.  0.
        -11    1    3    3    0    0  0.33602466726E+02  0.19462054060E+02 -0.19477303386E+02  0.43442636496E+02  0.51100000000E-03 0. -1.
         23    2    1    0    0    0 -0.20595588135E+02  0.13282201908E+02 -0.37991496835E+01  0.10020022830E+03  0.97082733143E+02 0.  0.
         11    1    3    3    0    0 -0.54198054861E+02 -0.61798521526E+01  0.15678153702E+02  0.56757591802E+02  0.51100000000E-03 0.  1.
         22    1    1    0    0    0  0.20595588135E+02 -0.13282201908E+02  0.37991496835E+01  0.24799771702E+02  0.00000000000E+00 0.  1.
</event>
<event>
 5    1  0.3186486E-003  0.9118800E+02  0.7818608E-02  0.1130116E+00
         25   -1    0    0    0    0  0.00000000000E+00  0.00000000000E+00  0.99999998245E-14  0.12500000000E+03  0.12500000000E+03 0.  0.
        -11    1    3    3    0    0 -0.11779971163E+02  0.26554027631E+02  0.51882560321E+02  0.59461619299E+02  0.51100000000E-03 0.  1.
         23    2    1    0    0    0 -0.60924450397E+01  0.24442245870E+02  0.17615427982E+02  0.94261675831E+02  0.89109028486E+02 0.  0.
         11    1    3    3    0    0  0.56875261229E+01 -0.21117817604E+01 -0.34267132339E+02  0.34800056532E+02  0.51100000000E-03 0. -1.
         22    1    1    0    0    0  0.60924450397E+01 -0.24442245870E+02 -0.17615427982E+02  0.30738324169E+02  0.00000000000E+00 0.  1.
</event>
<event>
 5    1  0.3186486E-003  0.9118800E+02  0.7818608E-02  0.1130116E+00
         25   -1    0    0    0    0  0.00000000000E+00  0.00000000000E+00  0.99999998245E-14  0.12500000000E+03  0.12500000000E+03 0.  0.
        -11    1    3    3    0    0 -0.16223725746E+02 -0.87723864665E+01 -0.29592622793E+02  0.34869576502E+02  0.51100000000E-03 0.  1.
         23    2    1    0    0    0 -0.13944223143E+02  0.10996725880E+02  0.25771988857E+02  0.93702000882E+02  0.88320440559E+02 0.  0.
         11    1    3    3    0    0  0.22795026029E+01  0.19769112347E+02  0.55364611650E+02  0.58832424380E+02  0.51100000000E-03 0. -1.
         22    1    1    0    0    0  0.13944223143E+02 -0.10996725880E+02 -0.25771988857E+02  0.31297999118E+02  0.00000000000E+00 0. -1.
</event>
<event>
 5    1  0.3186486E-003  0.9118800E+02  0.7818608E-02  0.1130116E+00
         25   -1    0    0    0    0  0.00000000000E+00  0.00000000000E+00  0.99999998245E-14  0.12500000000E+03  0.12500000000E+03 0.  0.
        -11    1    3    3    0    0 -0.27441279017E+02 -0.13711713278E+02 -0.20605632796E+02  0.36954390514E+02  0.51100000000E-03 0.  1.
         23    2    1    0    0    0  0.18228360791E+02  0.21229987676E+02 -0.46113784617E+01  0.96640692442E+02  0.92386000619E+02 0.  0.
         11    1    3    3    0    0  0.45669639808E+02  0.34941700954E+02  0.15994254334E+02  0.59686301927E+02  0.51100000000E-03 0. -1.
         22    1    1    0    0    0 -0.18228360791E+02 -0.21229987676E+02  0.46113784617E+01  0.28359307558E+02  0.00000000000E+00 0. -1.
</event>
<event>
 5    1  0.3186486E-003  0.9118800E+02  0.7818608E-02  0.1130116E+00
         25   -1    0    0    0    0  0.00000000000E+00  0.00000000000E+00  0.99999998245E-14  0.12500000000E+03  0.12500000000E+03 0.  0.
        -11    1    3    3    0    0  0.47699605019E+02 -0.60999038332E+00  0.18198535546E+02  0.51056939818E+02  0.51100000000E-03 0.  1.
         23    2    1    0    0    0  0.22306077193E+02  0.43469338372E+01 -0.18318413526E+02  0.95810598025E+02  0.91255956005E+02 0.  0.
         11    1    3    3    0    0 -0.25393527826E+02  0.49569242205E+01 -0.36516949072E+02  0.44753658208E+02  0.51100000000E-03 0. -1.
         22    1    1    0    0    0 -0.22306077193E+02 -0.43469338372E+01  0.18318413526E+02  0.29189401975E+02  0.00000000000E+00 0.  1.
</event>
<event>
 5    1  0.3186486E-003  0.9118800E+02  0.7818608E-02  0.1130116E+00
         25   -1    0    0    0    0  0.00000000000E+00  0.00000000000E+00  0.99999998245E-14  0.12500000000E+03  0.12500000000E+03 0.  0.
        -11    1    3    3    0    0 -0.14933023033E+02 -0.16194224489E+02  0.23210992609E+02  0.31999972841E+02  0.51100000000E-03 0. -1.
         23    2    1    0    0    0  0.58155992709E+01  0.21510970518E+02 -0.21483828453E+02  0.94046842932E+02  0.88807154739E+02 0.  0.
         11    1    3    3    0    0  0.20748622303E+02  0.37705195007E+02 -0.44694821062E+02  0.62046870090E+02  0.51100000000E-03 0.  1.
         22    1    1    0    0    0 -0.58155992709E+01 -0.21510970518E+02  0.21483828453E+02  0.30953157068E+02  0.00000000000E+00 0.  1.
</event>
<event>
 5    1  0.3186486E-003  0.9118800E+02  0.7818608E-02  0.1130116E+00
         25   -1    0    0    0    0  0.00000000000E+00  0.00000000000E+00  0.99999998245E-14  0.12500000000E+03  0.12500000000E+03 0.  0.
        -11    1    3    3    0    0  0.27173868896E+02  0.15389906652E+02  0.16906607873E+02  0.35511994700E+02  0.51100000000E-03 0.  1.
         23    2    1    0    0    0 -0.12967583084E+02 -0.25894219595E+02  0.13086090491E+02  0.93220846710E+02  0.87636816907E+02 0.  0.
         11    1    3    3    0    0 -0.40141451980E+02 -0.41284126247E+02 -0.38205173825E+01  0.57708852010E+02  0.51100000000E-03 0. -1.
         22    1    1    0    0    0  0.12967583084E+02  0.25894219595E+02 -0.13086090491E+02  0.31779153290E+02  0.00000000000E+00 0. -1.
</event>
<event>
 5    1  0.3186486E-003  0.9118800E+02  0.7818608E-02  0.1130116E+00
         25   -1    0    0    0    0  0.00000000000E+00  0.00000000000E+00  0.99999998245E-14  0.12500000000E+03  0.12500000000E+03 0.  0.
        -11    1    3    3    0    0 -0.41803724518E+02  0.40876930942E+01 -0.55422647300E+01  0.42367172634E+02  0.51100000000E-03 0.  1.
         23    2    1    0    0    0 -0.70410242622E-01 -0.21045004862E+02  0.18758289228E+02  0.96808323888E+02  0.92612531399E+02 0.  0.
         11    1    3    3    0    0  0.41733314275E+02 -0.25132697956E+02  0.24300553958E+02  0.54441151254E+02  0.51100000000E-03 0. -1.
         22    1    1    0    0    0  0.70410242622E-01  0.21045004862E+02 -0.18758289228E+02  0.28191676112E+02  0.00000000000E+00 0. -1.
</event>
<event>
 5    1  0.3186486E-003  0.9118800E+02  0.7818608E-02  0.1130116E+00
         25   -1    0    0    0    0  0.00000000000E+00  0.00000000000E+00  0.99999998245E-14  0.12500000000E+03  0.12500000000E+03 0.  0.
        -11    1    3    3    0    0 -0.25651719336E+02  0.38423510196E+02  0.23850029732E+02  0.51992314424E+02  0.51100000000E-03 0. -1.
         23    2    1    0    0    0  0.51009038769E+01  0.96804277382E+01  0.28623894366E+02  0.94355959303E+02  0.89241189066E+02 0.  0.
         11    1    3    3    0    0  0.30752623213E+02 -0.28743082458E+02  0.47738646337E+01  0.42363644879E+02  0.51100000000E-03 0.  1.
         22    1    1    0    0    0 -0.51009038769E+01 -0.96804277382E+01 -0.28623894366E+02  0.30644040697E+02  0.00000000000E+00 0. -1.
</event>
<event>
 5    1  0.3186486E-003  0.9118800E+02  0.7818608E-02  0.1130116E+00
         25   -1    0    0    0    0  0.00000000000E+00  0.00000000000E+00  0.99999998245E-14  0.12500000000E+03  0.12500000000E+03 0.  0.
        -11    1    3    3    0    0 -0.14361837663E+02  0.48276083084E+02 -0.14337010845E+02  0.52367857119E+02  0.51100000000E-03 0. -1.
         23    2    1    0    0    0  0.15021119228E+02  0.25168004935E+02 -0.19047853570E+02  0.90044553774E+02  0.82982759917E+02 0.  0.
         11    1    3    3    0    0  0.29382956891E+02 -0.23108078149E+02 -0.47108427249E+01  0.37676696655E+02  0.51100000000E-03 0.  1.
         22    1    1    0    0    0 -0.15021119228E+02 -0.25168004935E+02  0.19047853570E+02  0.34955446226E+02  0.00000000000E+00 0. -1.
</event>
<event>
 5    1  0.3186486E-003  0.9118800E+02  0.7818608E-02  0.1130116E+00
         25   -1    0    0    0    0  0.00000000000E+00  0.00000000000E+00  0.99999998245E-14  0.12500000000E+03  0.12500000000E+03 0.  0.
        -11    1    3    3    0    0  0.28852138075E+02 -0.20292620601E+01  0.43431607783E+02  0.52181110863E+02  0.51100000000E-03 0.  1.
         23    2    1    0    0    0  0.21155066321E+02 -0.77977484940E+01 -0.52884853813E+01  0.10184163671E+03  0.99173631464E+02 0.  0.
         11    1    3    3    0    0 -0.76970717538E+01 -0.57684864340E+01 -0.48720093164E+02  0.49660525848E+02  0.51100000000E-03 0. -1.
         22    1    1    0    0    0 -0.21155066321E+02  0.77977484940E+01  0.52884853813E+01  0.23158363289E+02  0.00000000000E+00 0. -1.
</event>
<event>
 5    1  0.3186486E-003  0.9118800E+02  0.7818608E-02  0.1130116E+00
         25   -1    0    0    0    0  0.00000000000E+00  0.00000000000E+00  0.99999998245E-14  0.12500000000E+03  0.12500000000E+03 0.  0.
        -11    1    3    3    0    0  0.48895024552E+01  0.47465025949E+02 -0.44392390334E+00  0.47718266851E+02  0.51100000000E-03 0. -1.
         23    2    1    0    0    0  0.26156796125E+02  0.12746705594E+01 -0.30435629227E+01  0.98635894785E+02  0.95047218245E+02 0.  0.
         11    1    3    3    0    0  0.21267293669E+02 -0.46190355390E+02 -0.25996390194E+01  0.50917627933E+02  0.51100000000E-03 0.  1.
         22    1    1    0    0    0 -0.26156796125E+02 -0.12746705594E+01  0.30435629227E+01  0.26364105215E+02  0.00000000000E+00 0. -1.
</event>
<event>
 5    1  0.3186486E-003  0.9118800E+02  0.7818608E-02  0.1130116E+00
         25   -1    0    0    0    0  0.00000000000E+00  0.00000000000E+00  0.99999998245E-14  0.12500000000E+03  0.12500000000E+03 0.  0.
        -11    1    3    3    0    0  0.29479280505E+02  0.17804538744E+02 -0.25755000473E+01  0.34534950120E+02  0.51100000000E-03 0.  1.
         23    2    1    0    0    0 -0.27584391490E+02 -0.33154462332E+01  0.75291950020E+01  0.96214941116E+02  0.91808143860E+02 0.  0.
         11    1    3    3    0    0 -0.57063671995E+02 -0.21119984978E+02  0.10104695049E+02  0.61679990996E+02  0.51100000000E-03 0. -1.
         22    1    1    0    0    0  0.27584391490E+02  0.33154462332E+01 -0.75291950020E+01  0.28785058884E+02  0.00000000000E+00 0. -1.
</event>
<event>
 5    1  0.3186486E-003  0.9118800E+02  0.7818608E-02  0.1130116E+00
         25   -1    0    0    0    0  0.00000000000E+00  0.00000000000E+00  0.99999998245E-14  0.12500000000E+03  0.12500000000E+03 0.  0.
        -11    1    3    3    0    0  0.94588828887E+01 -0.23615786603E+02  0.22427426950E+02  0.33914087372E+02  0.51100000000E-03 0.  1.
         23    2    1    0    0    0 -0.34215178009E+02 -0.62915450224E+01 -0.72190447547E+01  0.89470061186E+02  0.82112820537E+02 0.  0.
         11    1    3    3    0    0 -0.43674060898E+02  0.17324241581E+02 -0.29646471705E+02  0.55555973814E+02  0.51100000000E-03 0. -1.
         22    1    1    0    0    0  0.34215178009E+02  0.62915450224E+01  0.72190447547E+01  0.35529938814E+02  0.00000000000E+00 0. -1.
</event>
<event>
 5    1  0.3186486E-003  0.9118800E+02  0.7818608E-02  0.1130116E+00
         25   -1    0    0    0    0  0.00000000000E+00  0.00000000000E+00  0.99999998245E-14  0.12500000000E+03  0.12500000000E+03 0.  0.
        -11    1    3    3    0    0 -0.14878905892E+02 -0.20112202939E+02  0.33975535175E+02  0.42192647918E+02  0.51100000000E-03 0.  1.
         23    2    1    0    0    0 -0.30240864192E+02  0.12288125545E+02 -0.10813254207E+01  0.92339976100E+02  0.86371256938E+02 0.  0.
         11    1    3    3    0    0 -0.15361958300E+02  0.32400328484E+02 -0.35056860596E+02  0.50147328182E+02  0.51100000000E-03 0. -1.
         22    1    1    0    0    0  0.30240864192E+02 -0.12288125545E+02  0.10813254207E+01  0.32660023900E+02  0.00000000000E+00 0.  1.
</event>
<event>
 5    1  0.3186486E-003  0.9118800E+02  0.7818608E-02  0.1130116E+00
         25   -1    0    0    0    0  0.00000000000E+00  0.00000000000E+00  0.99999998245E-14  0.12500000000E+03  0.12500000000E+03 0.  0.
        -11    1    3    3    0    0 -0.45790048775E+00 -0.14604482876E+02  0.52839332946E+02  0.54822401437E+02  0.51100000000E-03 0. -1.
         23    2    1    0    0    0 -0.21027062849E+02 -0.10483041707E+02  0.18360766801E+02  0.95181393510E+02  0.90389979409E+02 0.  0.
         11    1    3    3    0    0 -0.20569162361E+02  0.41214411687E+01 -0.34478566145E+02  0.40358992073E+02  0.51100000000E-03 0.  1.
         22    1    1    0    0    0  0.21027062849E+02  0.10483041707E+02 -0.18360766801E+02  0.29818606490E+02  0.00000000000E+00 0. -1.
</event>
<event>
 5    1  0.3186486E-003  0.9118800E+02  0.7818608E-02  0.1130116E+00
         25   -1    0    0    0    0  0.00000000000E+00  0.00000000000E+00  0.99999998245E-14  0.12500000000E+03  0.12500000000E+03 0.  0.
        -11    1    3    3    0    0 -0.18123666105E+02 -0.29202175194E+02  0.53645656708E+01  0.34785239316E+02  0.51100000000E-03 0. -1.
         23    2    1    0    0    0  0.18421596737E+02  0.13373380055E+02 -0.18409772653E+02  0.95723349755E+02  0.91136367268E+02 0.  0.
         11    1    3    3    0    0  0.36545262842E+02  0.42575555249E+02 -0.23774338324E+02  0.60938110439E+02  0.51100000000E-03 0.  1.
         22    1    1    0    0    0 -0.18421596737E+02 -0.13373380055E+02  0.18409772653E+02  0.29276650245E+02  0.00000000000E+00 0.  1.
</event>
<event>
 5    1  0.3186486E-003  0.9118800E+02  0.7818608E-02  0.1130116E+00
         25   -1    0    0    0    0  0.00000000000E+00  0.00000000000E+00  0.99999998245E-14  0.12500000000E+03  0.12500000000E+03 0.  0.
        -11    1    3    3    0    0 -0.45102300770E+02 -0.25673064204E+01 -0.20932225112E+02  0.49789222181E+02  0.51100000000E-03 0.  1.
         23    2    1    0    0    0 -0.19205327225E+02 -0.63372002071E+00  0.19358349097E+02  0.97723785551E+02  0.93840004198E+02 0.  0.
         11    1    3    3    0    0  0.25896973544E+02  0.19335863997E+01  0.40290574209E+02  0.47934563370E+02  0.51100000000E-03 0. -1.
         22    1    1    0    0    0  0.19205327225E+02  0.63372002071E+00 -0.19358349097E+02  0.27276214449E+02  0.00000000000E+00 0.  1.
</event>
<event>
 5    1  0.3186486E-003  0.9118800E+02  0.7818608E-02  0.1130116E+00
         25   -1    0    0    0    0  0.00000000000E+00  0.00000000000E+00  0.99999998245E-14  0.12500000000E+03  0.12500000000E+03 0.  0.
        -11    1    3    3    0    0  0.18250522845E+02  0.21240241379E+02  0.27187813288E+02  0.39030842030E+02  0.51100000000E-03 0. -1.
         23    2    1    0    0    0  0.95909500741E+01 -0.26904153604E+02 -0.26255305388E+01  0.96317022207E+02  0.91947025790E+02 0.  0.
         11    1    3    3    0    0 -0.86595727713E+01 -0.48144394983E+02 -0.29813343826E+02  0.57286180177E+02  0.51100000000E-03 0.  1.
         22    1    1    0    0    0 -0.95909500741E+01  0.26904153604E+02  0.26255305388E+01  0.28682977793E+02  0.00000000000E+00 0.  1.
</event>
<event>
 5    1  0.3186486E-003  0.9118800E+02  0.7818608E-02  0.1130116E+00
         25   -1    0    0    0    0  0.00000000000E+00  0.00000000000E+00  0.99999998245E-14  0.12500000000E+03  0.12500000000E+03 0.  0.
        -11    1    3    3    0    0  0.41805338000E+02  0.54855462916E+01 -0.20526915094E+01  0.42213635784E+02  0.51100000000E-03 0.  1.
         23    2    1    0    0    0 -0.71589930759E+01 -0.22425488688E+02 -0.10536091689E+02  0.99209246757E+02  0.95798286463E+02 0.  0.
         11    1    3    3    0    0 -0.48964331076E+02 -0.27911034979E+02 -0.84834001798E+01  0.56995610973E+02  0.51100000000E-03 0. -1.
         22    1    1    0    0    0  0.71589930759E+01  0.22425488688E+02  0.10536091689E+02  0.25790753243E+02  0.00000000000E+00 0. -1.
</event>
<event>
 5    1  0.3186486E-003  0.9118800E+02  0.7818608E-02  0.1130116E+00
         25   -1    0    0    0    0  0.00000000000E+00  0.00000000000E+00  0.99999998245E-14  0.12500000000E+03  0.12500000000E+03 0.  0.
        -11    1    3    3    0    0 -0.19263748380E+02 -0.52807207953E+02  0.19271368919E+02  0.59422881735E+02  0.51100000000E-03 0. -1.
         23    2    1    0    0    0  0.24418920823E+01 -0.22990085720E+02  0.16866574218E+02  0.96382030047E+02  0.92035360117E+02 0.  0.
         11    1    3    3    0    0  0.21705640462E+02  0.29817122233E+02 -0.24047947011E+01  0.36959148312E+02  0.51100000000E-03 0.  1.
         22    1    1    0    0    0 -0.24418920823E+01  0.22990085720E+02 -0.16866574218E+02  0.28617969953E+02  0.00000000000E+00 0. -1.
</event>
<event>
 5    1  0.3186486E-003  0.9118800E+02  0.7818608E-02  0.1130116E+00
         25   -1    0    0    0    0  0.00000000000E+00  0.00000000000E+00  0.99999998245E-14  0.12500000000E+03  0.12500000000E+03 0.  0.
        -11    1    3    3    0    0 -0.20313282166E+02  0.21268955782E+02  0.10242668916E+02  0.31143380985E+02  0.51100000000E-03 0.  1.
         23    2    1    0    0    0 -0.56536010609E+01 -0.44364051973E+01 -0.37229448009E+02  0.87083292665E+02  0.78395300665E+02 0.  0.
         11    1    3    3    0    0  0.14659681105E+02 -0.25705360979E+02 -0.47472116925E+02  0.55939911680E+02  0.51100000000E-03 0. -1.
         22    1    1    0    0    0  0.56536010609E+01  0.44364051973E+01  0.37229448009E+02  0.37916707335E+02  0.00000000000E+00 0. -1.
</event>
<event>
 5    1  0.3186486E-003  0.9118800E+02  0.7818608E-02  0.1130116E+00
         25   -1    0    0    0    0  0.00000000000E+00  0.00000000000E+00  0.99999998245E-14  0.12500000000E+03  0.12500000000E+03 0.  0.
        -11    1    3    3    0    0  0.28515568470E+02 -0.14381470862E+02 -0.13243441343E+02  0.34573878697E+02  0.51100000000E-03 0.  1.
         23    2    1    0    0    0 -0.19431838517E+02  0.19730925363E+02  0.63390586490E+01  0.96590680607E+02  0.92318308865E+02 0.  0.
         11    1    3    3    0    0 -0.47947406986E+02  0.34112396225E+02  0.19582499992E+02  0.62016801910E+02  0.51100000000E-03 0. -1.
         22    1    1    0    0    0  0.19431838517E+02 -0.19730925363E+02 -0.63390586490E+01  0.28409319393E+02  0.00000000000E+00 0. -1.
</event>
<event>
 5    1  0.3186486E-003  0.9118800E+02  0.7818608E-02  0.1130116E+00
         25   -1    0    0    0    0  0.00000000000E+00  0.00000000000E+00  0.99999998245E-14  0.12500000000E+03  0.12500000000E+03 0.  0.
        -11    1    3    3    0    0 -0.43674773274E+02 -0.23412999424E+02 -0.28408803617E+02  0.57120175821E+02  0.51100000000E-03 0.  1.
         23    2    1    0    0    0 -0.28536256052E+02 -0.83668737099E+01  0.30179769406E+01  0.95109689364E+02  0.90290765535E+02 0.  0.
         11    1    3    3    0    0  0.15138517223E+02  0.15046125714E+02  0.31426780558E+02  0.37989513543E+02  0.51100000000E-03 0. -1.
         22    1    1    0    0    0  0.28536256052E+02  0.83668737099E+01 -0.30179769406E+01  0.29890310636E+02  0.00000000000E+00 0.  1.
</event>
<event>
 5    1  0.3186486E-003  0.9118800E+02  0.7818608E-02  0.1130116E+00
         25   -1    0    0    0    0  0.00000000000E+00  0.00000000000E+00  0.99999998245E-14  0.12500000000E+03  0.12500000000E+03 0.  0.
        -11    1    3    3    0    0  0.41729219961E+02 -0.70922350537E+01  0.10186930964E+02  0.43536205156E+02  0.51100000000E-03 0.  1.
         23    2    1    0    0    0  0.19192227656E+00  0.27052999174E+02  0.35283856784E+01  0.97717201317E+02  0.93831233229E+02 0.  0.
         11    1    3    3    0    0 -0.41537297685E+02  0.34145234228E+02 -0.66585452852E+01  0.54180996161E+02  0.51100000000E-03 0. -1.
         22    1    1    0    0    0 -0.19192227656E+00 -0.27052999174E+02 -0.35283856784E+01  0.27282798683E+02  0.00000000000E+00 0. -1.
</event>
<event>
 5    1  0.3186486E-003  0.9118800E+02  0.7818608E-02  0.1130116E+00
         25   -1    0    0    0    0  0.00000000000E+00  0.00000000000E+00  0.99999998245E-14  0.12500000000E+03  0.12500000000E+03 0.  0.
        -11    1    3    3    0    0 -0.19157684242E+02 -0.35046834561E+02  0.13450015172E+02  0.42144992427E+02  0.51100000000E-03 0. -1.
         23    2    1    0    0    0  0.26220215965E+02 -0.12510222158E+02 -0.38741723492E+01  0.95691049232E+02  0.91092054034E+02 0.  0.
         11    1    3    3    0    0  0.45377900207E+02  0.22536612404E+02 -0.17324187521E+02  0.53546056805E+02  0.51100000000E-03 0.  1.
         22    1    1    0    0    0 -0.26220215965E+02  0.12510222158E+02  0.38741723492E+01  0.29308950768E+02  0.00000000000E+00 0.  1.
</event>
<event>
 5    1  0.3186486E-003  0.9118800E+02  0.7818608E-02  0.1130116E+00
         25   -1    0    0    0    0  0.00000000000E+00  0.00000000000E+00  0.99999998245E-14  0.12500000000E+03  0.12500000000E+03 0.  0.
        -11    1    3    3    0    0 -0.40132477983E+02  0.30592215269E+02 -0.18018396649E+02  0.53583225381E+02  0.51100000000E-03 0. -1.
         23    2    1    0    0    0  0.66695900229E+00  0.28182121184E+02 -0.86351822799E+01  0.95517069994E+02  0.90852999392E+02 0.  0.
         11    1    3    3    0    0  0.40799436986E+02 -0.24100940855E+01  0.93832143694E+01  0.41933844613E+02  0.51100000000E-03 0.  1.
         22    1    1    0    0    0 -0.66695900229E+00 -0.28182121184E+02  0.86351822799E+01  0.29482930006E+02  0.00000000000E+00 0. -1.
</event>
<event>
 5    1  0.3186486E-003  0.9118800E+02  0.7818608E-02  0.1130116E+00
         25   -1    0    0    0    0  0.00000000000E+00  0.00000000000E+00  0.99999998245E-14  0.12500000000E+03  0.12500000000E+03 0.  0.
        -11    1    3    3    0    0  0.22796991635E+02  0.22788171488E+02  0.50751049699E+02  0.60122147609E+02  0.51100000000E-03 0. -1.
         23    2    1    0    0    0  0.16951676057E+02  0.12764108068E+00  0.23101012994E+02  0.96346336801E+02  0.91986869716E+02 0.  0.
         11    1    3    3    0    0 -0.58453155775E+01 -0.22660530407E+02 -0.27650036705E+02  0.36224189191E+02  0.51100000000E-03 0.  1.
         22    1    1    0    0    0 -0.16951676057E+02 -0.12764108068E+00 -0.23101012994E+02  0.28653663199E+02  0.00000000000E+00 0. -1.
</event>
<event>
 5    1  0.3186486E-003  0.9118800E+02  0.7818608E-02  0.1130116E+00
         25   -1    0    0    0    0  0.00000000000E+00  0.00000000000E+00  0.99999998245E-14  0.12500000000E+03  0.12500000000E+03 0.  0.
        -11    1    3    3    0    0  0.41011171060E+01 -0.14278751149E+02 -0.12742242304E+02  0.19572088164E+02  0.51100000000E-03 0. -1.
         23    2    1    0    0    0 -0.49749865546E+02 -0.66172349719E+01 -0.80926270879E+01  0.74163718333E+02  0.53999347990E+02 0.  0.
         11    1    3    3    0    0 -0.53850982652E+02  0.76615161771E+01  0.46496152158E+01  0.54591630170E+02  0.51100000000E-03 0.  1.
         22    1    1    0    0    0  0.49749865546E+02  0.66172349719E+01  0.80926270879E+01  0.50836281667E+02  0.00000000000E+00 0.  1.
</event>
<event>
 5    1  0.3186486E-003  0.9118800E+02  0.7818608E-02  0.1130116E+00
         25   -1    0    0    0    0  0.00000000000E+00  0.00000000000E+00  0.99999998245E-14  0.12500000000E+03  0.12500000000E+03 0.  0.
        -11    1    3    3    0    0  0.15794750510E+02  0.15786570763E+02  0.38564362307E+02  0.44563437935E+02  0.51100000000E-03 0. -1.
         23    2    1    0    0    0  0.11886640183E+02  0.17700740589E+02 -0.15397175650E+02  0.98700162544E+02  0.95131701530E+02 0.  0.
         11    1    3    3    0    0 -0.39081103265E+01  0.19141698259E+01 -0.53961537957E+02  0.54136724609E+02  0.51100000000E-03 0.  1.
         22    1    1    0    0    0 -0.11886640183E+02 -0.17700740589E+02  0.15397175650E+02  0.26299837456E+02  0.00000000000E+00 0. -1.
</event>
<event>
 5    1  0.3186486E-003  0.9118800E+02  0.7818608E-02  0.1130116E+00
         25   -1    0    0    0    0  0.00000000000E+00  0.00000000000E+00  0.99999998245E-14  0.12500000000E+03  0.12500000000E+03 0.  0.
        -11    1    3    3    0    0 -0.16186763469E+02  0.34584244619E+02  0.20545722345E+02  0.43361365228E+02  0.51100000000E-03 0.  1.
         23    2    1    0    0    0  0.10766737650E+02 -0.12986932559E+02  0.21030065775E+02  0.98039904981E+02  0.94260151948E+02 0.  0.
         11    1    3    3    0    0  0.26953501119E+02 -0.47571177178E+02  0.48434343025E+00  0.54678539753E+02  0.51100000000E-03 0. -1.
         22    1    1    0    0    0 -0.10766737650E+02  0.12986932559E+02 -0.21030065775E+02  0.26960095019E+02  0.00000000000E+00 0. -1.
</event>
<event>
 5    1  0.3186486E-003  0.9118800E+02  0.7818608E-02  0.1130116E+00
         25   -1    0    0    0    0  0.00000000000E+00  0.00000000000E+00  0.99999998245E-14  0.12500000000E+03  0.12500000000E+03 0.  0.
        -11    1    3    3    0    0  0.22157180687E+02  0.24306399441E+02  0.10407481771E+02  0.34497208392E+02  0.51100000000E-03 0.  1.
         23    2    1    0    0    0 -0.21966419318E+01 -0.29769228638E+02 -0.19817268756E+01  0.95084127108E+02  0.90255369796E+02 0.  0.
         11    1    3    3    0    0 -0.24353822619E+02 -0.54075628079E+02 -0.12389208647E+02  0.60586918716E+02  0.51100000000E-03 0. -1.
         22    1    1    0    0    0  0.21966419318E+01  0.29769228638E+02  0.19817268756E+01  0.29915872892E+02  0.00000000000E+00 0. -1.
</event>
<event>
 5    1  0.3186486E-003  0.9118800E+02  0.7818608E-02  0.1130116E+00
         25   -1    0    0    0    0  0.00000000000E+00  0.00000000000E+00  0.99999998245E-14  0.12500000000E+03  0.12500000000E+03 0.  0.
        -11    1    3    3    0    0  0.13885384576E+02 -0.51001003816E+02  0.23342397841E+02  0.57782123813E+02  0.51100000000E-03 0. -1.
         23    2    1    0    0    0 -0.56671309555E+01 -0.17612672484E+02  0.21663796875E+02  0.96510656372E+02  0.92209891514E+02 0.  0.
         11    1    3    3    0    0 -0.19552515532E+02  0.33388331332E+02 -0.16786009660E+01  0.38728532560E+02  0.51100000000E-03 0.  1.
         22    1    1    0    0    0  0.56671309555E+01  0.17612672484E+02 -0.21663796875E+02  0.28489343628E+02  0.00000000000E+00 0. -1.
</event>
<event>
 5    1  0.3186486E-003  0.9118800E+02  0.7818608E-02  0.1130116E+00
         25   -1    0    0    0    0  0.00000000000E+00  0.00000000000E+00  0.99999998245E-14  0.12500000000E+03  0.12500000000E+03 0.  0.
        -11    1    3    3    0    0 -0.14603912771E+02 -0.26358750264E+02  0.38437539247E+02  0.48841605290E+02  0.51100000000E-03 0. -1.
         23    2    1    0    0    0 -0.17586834994E+02  0.15572932063E+02  0.16791637010E+02  0.96124888716E+02  0.91685452385E+02 0.  0.
         11    1    3    3    0    0 -0.29829222238E+01  0.41931682326E+02 -0.21645902237E+02  0.47283283427E+02  0.51100000000E-03 0.  1.
         22    1    1    0    0    0  0.17586834994E+02 -0.15572932063E+02 -0.16791637010E+02  0.28875111284E+02  0.00000000000E+00 0.  1.
</event>
<event>
 5    1  0.3186486E-003  0.9118800E+02  0.7818608E-02  0.1130116E+00
         25   -1    0    0    0    0  0.00000000000E+00  0.00000000000E+00  0.99999998245E-14  0.12500000000E+03  0.12500000000E+03 0.  0.
        -11    1    3    3    0    0  0.22584273573E+02  0.31210256359E+02  0.16433462347E+00  0.38524752055E+02  0.51100000000E-03 0. -1.
         23    2    1    0    0    0 -0.15733697809E+02 -0.86520558856E+01  0.20781304453E+02  0.97536024822E+02  0.93589562482E+02 0.  0.
         11    1    3    3    0    0 -0.38317971382E+02 -0.39862312244E+02  0.20616969830E+02  0.59011272767E+02  0.51100000000E-03 0.  1.
         22    1    1    0    0    0  0.15733697809E+02  0.86520558856E+01 -0.20781304453E+02  0.27463975178E+02  0.00000000000E+00 0.  1.
</event>
<event>
 5    1  0.3186486E-003  0.9118800E+02  0.7818608E-02  0.1130116E+00
         25   -1    0    0    0    0  0.00000000000E+00  0.00000000000E+00  0.99999998245E-14  0.12500000000E+03  0.12500000000E+03 0.  0.
        -11    1    3    3    0    0  0.30591934220E+02 -0.16912467884E+02 -0.32911101986E+01  0.35110246593E+02  0.51100000000E-03 0.  1.
         23    2    1    0    0    0 -0.26992594319E+02 -0.17390272643E+02 -0.35279304249E+01  0.92697244332E+02  0.86886771622E+02 0.  0.
         11    1    3    3    0    0 -0.57584528539E+02 -0.47780475883E+00 -0.23682022627E+00  0.57586997739E+02  0.51100000000E-03 0. -1.
         22    1    1    0    0    0  0.26992594319E+02  0.17390272643E+02  0.35279304249E+01  0.32302755668E+02  0.00000000000E+00 0. -1.
</event>
<event>
 5    1  0.3186486E-003  0.9118800E+02  0.7818608E-02  0.1130116E+00
         25   -1    0    0    0    0  0.00000000000E+00  0.00000000000E+00  0.99999998245E-14  0.12500000000E+03  0.12500000000E+03 0.  0.
        -11    1    3    3    0    0 -0.16282801628E+02  0.20455578504E+02  0.22817054514E+02  0.34701272278E+02  0.51100000000E-03 0.  1.
         23    2    1    0    0    0  0.19772583101E+02  0.93634859926E+01 -0.22468162613E+02  0.93640021626E+02  0.88232677657E+02 0.  0.
         11    1    3    3    0    0  0.36055384728E+02 -0.11092092511E+02 -0.45285217127E+02  0.58938749348E+02  0.51100000000E-03 0. -1.
         22    1    1    0    0    0 -0.19772583101E+02 -0.93634859926E+01  0.22468162613E+02  0.31359978374E+02  0.00000000000E+00 0. -1.
</event>
<event>
 5    1  0.3186486E-003  0.9118800E+02  0.7818608E-02  0.1130116E+00
         25   -1    0    0    0    0  0.00000000000E+00  0.00000000000E+00  0.99999998245E-14  0.12500000000E+03  0.12500000000E+03 0.  0.
        -11    1    3    3    0    0 -0.93629850662E+01  0.28470664207E+02 -0.31151077432E+02  0.43227697547E+02  0.51100000000E-03 0. -1.
         23    2    1    0    0    0 -0.26258444084E+02 -0.13273393846E+02 -0.54570026342E+01  0.95075632878E+02  0.90243604868E+02 0.  0.
         11    1    3    3    0    0 -0.16895459017E+02 -0.41744058053E+02  0.25694074798E+02  0.51847935332E+02  0.51100000000E-03 0.  1.
         22    1    1    0    0    0  0.26258444084E+02  0.13273393846E+02  0.54570026342E+01  0.29924367122E+02  0.00000000000E+00 0.  1.
</event>
<event>
 5    1  0.3186486E-003  0.9118800E+02  0.7818608E-02  0.1130116E+00
         25   -1    0    0    0    0  0.00000000000E+00  0.00000000000E+00  0.99999998245E-14  0.12500000000E+03  0.12500000000E+03 0.  0.
        -11    1    3    3    0    0  0.54591029570E+02 -0.18779070134E+02 -0.15955120830E+02  0.59894906841E+02  0.51100000000E-03 0.  1.
         23    2    1    0    0    0  0.23481260165E+02 -0.11456560153E+02 -0.19982256247E+02  0.92107555363E+02  0.86034230634E+02 0.  0.
         11    1    3    3    0    0 -0.31109769405E+02  0.73225099814E+01 -0.40271354173E+01  0.32212648522E+02  0.51100000000E-03 0. -1.
         22    1    1    0    0    0 -0.23481260165E+02  0.11456560153E+02  0.19982256247E+02  0.32892444637E+02  0.00000000000E+00 0.  1.
</event>
<event>
 5    1  0.3186486E-003  0.9118800E+02  0.7818608E-02  0.1130116E+00
         25   -1    0    0    0    0  0.00000000000E+00  0.00000000000E+00  0.99999998245E-14  0.12500000000E+03  0.12500000000E+03 0.  0.
        -11    1    3    3    0    0 -0.79760654139E+01  0.21671121972E+02  0.47278907474E+02  0.52617014731E+02  0.51100000000E-03 0.  1.
         23    2    1    0    0    0 -0.17112036154E+02 -0.10864974648E+02  0.23646292900E+02  0.93854910125E+02  0.88536588658E+02 0.  0.
         11    1    3    3    0    0 -0.91359707401E+01 -0.32536096620E+02 -0.23632614574E+02  0.41237895394E+02  0.51100000000E-03 0. -1.
         22    1    1    0    0    0  0.17112036154E+02  0.10864974648E+02 -0.23646292900E+02  0.31145089875E+02  0.00000000000E+00 0.  1.
</event>
<event>
 5    1  0.3186486E-003  0.9118800E+02  0.7818608E-02  0.1130116E+00
         25   -1    0    0    0    0  0.00000000000E+00  0.00000000000E+00  0.99999998245E-14  0.12500000000E+03  0.12500000000E+03 0.  0.
        -11    1    3    3    0    0  0.10869909296E+02  0.15482733606E+02  0.33741500452E+02  0.38682797482E+02  0.51100000000E-03 0. -1.
         23    2    1    0    0    0 -0.17645192130E+02  0.12509070197E+02 -0.17352154238E+02  0.97270468825E+02  0.93234206202E+02 0.  0.
         11    1    3    3    0    0 -0.28515101426E+02 -0.29736634089E+01 -0.51093654691E+02  0.58587671342E+02  0.51100000000E-03 0.  1.
         22    1    1    0    0    0  0.17645192130E+02 -0.12509070197E+02  0.17352154238E+02  0.27729531175E+02  0.00000000000E+00 0.  1.
</event>
<event>
 5    1  0.3186486E-003  0.9118800E+02  0.7818608E-02  0.1130116E+00
         25   -1    0    0    0    0  0.00000000000E+00  0.00000000000E+00  0.99999998245E-14  0.12500000000E+03  0.12500000000E+03 0.  0.
        -11    1    3    3    0    0 -0.16061413619E+02 -0.38145002592E+02  0.41128899077E+02  0.58348920896E+02  0.51100000000E-03 0.  1.
         23    2    1    0    0    0 -0.13707207680E+02 -0.32443620426E+01  0.23699050845E+02  0.97430842625E+02  0.93448973542E+02 0.  0.
         11    1    3    3    0    0  0.23542059392E+01  0.34900640550E+02 -0.17429848231E+02  0.39081921729E+02  0.51100000000E-03 0. -1.
         22    1    1    0    0    0  0.13707207680E+02  0.32443620426E+01 -0.23699050845E+02  0.27569157375E+02  0.00000000000E+00 0.  1.
</event>
<event>
 5    1  0.3186486E-003  0.9118800E+02  0.7818608E-02  0.1130116E+00
         25   -1    0    0    0    0  0.00000000000E+00  0.00000000000E+00  0.99999998245E-14  0.12500000000E+03  0.12500000000E+03 0.  0.
        -11    1    3    3    0    0  0.27046991539E+02 -0.25789647574E+02  0.12883688613E+02  0.39530179684E+02  0.51100000000E-03 0.  1.
         23    2    1    0    0    0  0.11141304296E+02  0.20124987076E+02 -0.16839685875E+02  0.96491776860E+02  0.92184294840E+02 0.  0.
         11    1    3    3    0    0 -0.15905687243E+02  0.45914634650E+02 -0.29723374488E+02  0.56961597177E+02  0.51100000000E-03 0. -1.
         22    1    1    0    0    0 -0.11141304296E+02 -0.20124987076E+02  0.16839685875E+02  0.28508223140E+02  0.00000000000E+00 0. -1.
</event>
<event>
 5    1  0.3186486E-003  0.9118800E+02  0.7818608E-02  0.1130116E+00
         25   -1    0    0    0    0  0.00000000000E+00  0.00000000000E+00  0.99999998245E-14  0.12500000000E+03  0.12500000000E+03 0.  0.
        -11    1    3    3    0    0 -0.29676421859E+02  0.38764508969E+02 -0.90199588788E+01  0.49646115944E+02  0.51100000000E-03 0.  1.
         23    2    1    0    0    0  0.12092283358E+01  0.94400124129E+01 -0.27371605410E+02  0.96021027447E+02  0.91543742887E+02 0.  0.
         11    1    3    3    0    0  0.30885650195E+02 -0.29324496556E+02 -0.18351646531E+02  0.46374911502E+02  0.51100000000E-03 0. -1.
         22    1    1    0    0    0 -0.12092283358E+01 -0.94400124129E+01  0.27371605410E+02  0.28978972553E+02  0.00000000000E+00 0.  1.
</event>
<event>
 5    1  0.3186486E-003  0.9118800E+02  0.7818608E-02  0.1130116E+00
         25   -1    0    0    0    0  0.00000000000E+00  0.00000000000E+00  0.99999998245E-14  0.12500000000E+03  0.12500000000E+03 0.  0.
        -11    1    3    3    0    0 -0.25793114307E+02  0.19050291452E+02  0.14774662943E+02  0.35305651324E+02  0.51100000000E-03 0.  1.
         23    2    1    0    0    0  0.91506897293E+01 -0.88433341721E+01 -0.26149508068E+02  0.95918451657E+02  0.91403571672E+02 0.  0.
         11    1    3    3    0    0  0.34943804037E+02 -0.27893625624E+02 -0.40924171011E+02  0.60612800333E+02  0.51100000000E-03 0. -1.
         22    1    1    0    0    0 -0.91506897293E+01  0.88433341721E+01  0.26149508068E+02  0.29081548343E+02  0.00000000000E+00 0. -1.
</event>
<event>
 5    1  0.3186486E-003  0.9118800E+02  0.7818608E-02  0.1130116E+00
         25   -1    0    0    0    0  0.00000000000E+00  0.00000000000E+00  0.99999998245E-14  0.12500000000E+03  0.12500000000E+03 0.  0.
        -11    1    3    3    0    0 -0.16058060482E+02 -0.15750162885E+02  0.26384829054E+02  0.34671142782E+02  0.51100000000E-03 0.  1.
         23    2    1    0    0    0 -0.15379106652E+02 -0.32457138783E+02 -0.19938947554E+02  0.83920267662E+02  0.73178322716E+02 0.  0.
         11    1    3    3    0    0  0.67895382965E+00 -0.16706975898E+02 -0.46323776608E+02  0.49249124880E+02  0.51100000000E-03 0. -1.
         22    1    1    0    0    0  0.15379106652E+02  0.32457138783E+02  0.19938947554E+02  0.41079732338E+02  0.00000000000E+00 0. -1.
</event>
<event>
 5    1  0.3186486E-003  0.9118800E+02  0.7818608E-02  0.1130116E+00
         25   -1    0    0    0    0  0.00000000000E+00  0.00000000000E+00  0.99999998245E-14  0.12500000000E+03  0.12500000000E+03 0.  0.
        -11    1    3    3    0    0  0.21097138033E+02 -0.47931413210E+02 -0.12111327653E+02  0.53751221970E+02  0.51100000000E-03 0.  1.
         23    2    1    0    0    0  0.25673358547E+01 -0.25073380355E+02  0.16565577813E+02  0.94839032110E+02  0.89915282502E+02 0.  0.
         11    1    3    3    0    0 -0.18529802178E+02  0.22858032855E+02  0.28676905465E+02  0.41087810140E+02  0.51100000000E-03 0. -1.
         22    1    1    0    0    0 -0.25673358547E+01  0.25073380355E+02 -0.16565577813E+02  0.30160967890E+02  0.00000000000E+00 0.  1.
</event>
<event>
 5    1  0.3186486E-003  0.9118800E+02  0.7818608E-02  0.1130116E+00
         25   -1    0    0    0    0  0.00000000000E+00  0.00000000000E+00  0.99999998245E-14  0.12500000000E+03  0.12500000000E+03 0.  0.
        -11    1    3    3    0    0 -0.31193210047E+02  0.51244389009E+01  0.16744142422E+02  0.35772091535E+02  0.51100000000E-03 0.  1.
         23    2    1    0    0    0  0.25011642553E+02 -0.13445915537E+02  0.39830989443E+01  0.96325272712E+02  0.91958241490E+02 0.  0.
         11    1    3    3    0    0  0.56204852600E+02 -0.18570354438E+02 -0.12761043478E+02  0.60553181177E+02  0.51100000000E-03 0. -1.
         22    1    1    0    0    0 -0.25011642553E+02  0.13445915537E+02 -0.39830989443E+01  0.28674727288E+02  0.00000000000E+00 0. -1.
</event>
<event>
 5    1  0.3186486E-003  0.9118800E+02  0.7818608E-02  0.1130116E+00
         25   -1    0    0    0    0  0.00000000000E+00  0.00000000000E+00  0.99999998245E-14  0.12500000000E+03  0.12500000000E+03 0.  0.
        -11    1    3    3    0    0 -0.94856304062E+01  0.33002859563E+02  0.11459147006E+02  0.36200524497E+02  0.51100000000E-03 0.  1.
         23    2    1    0    0    0 -0.21390999264E+02 -0.17838256635E+02 -0.13468205837E+02  0.94061822650E+02  0.88828236853E+02 0.  0.
         11    1    3    3    0    0 -0.11905368858E+02 -0.50841116198E+02 -0.24927352843E+02  0.57861298152E+02  0.51100000000E-03 0. -1.
         22    1    1    0    0    0  0.21390999264E+02  0.17838256635E+02  0.13468205837E+02  0.30938177350E+02  0.00000000000E+00 0. -1.
</event>
<event>
 5    1  0.3186486E-003  0.9118800E+02  0.7818608E-02  0.1130116E+00
         25   -1    0    0    0    0  0.00000000000E+00  0.00000000000E+00  0.99999998245E-14  0.12500000000E+03  0.12500000000E+03 0.  0.
        -11    1    3    3    0    0  0.20580078583E+02  0.41415779410E+02  0.29845472340E+02  0.55041426563E+02  0.51100000000E-03 0. -1.
         23    2    1    0    0    0  0.23603372004E+02  0.20009186625E+02 -0.25101917414E+01  0.93955068338E+02  0.88677883852E+02 0.  0.
         11    1    3    3    0    0  0.30232934203E+01 -0.21406592784E+02 -0.32355664082E+02  0.38913641775E+02  0.51100000000E-03 0.  1.
         22    1    1    0    0    0 -0.23603372004E+02 -0.20009186625E+02  0.25101917414E+01  0.31044931662E+02  0.00000000000E+00 0. -1.
</event>
<event>
 5    1  0.3186486E-003  0.9118800E+02  0.7818608E-02  0.1130116E+00
         25   -1    0    0    0    0  0.00000000000E+00  0.00000000000E+00  0.99999998245E-14  0.12500000000E+03  0.12500000000E+03 0.  0.
        -11    1    3    3    0    0 -0.37526370415E+02  0.11655338383E+02  0.63850429446E+01  0.39810101268E+02  0.51100000000E-03 0. -1.
         23    2    1    0    0    0  0.17520807155E+02  0.17989674007E+02  0.14793058244E+02  0.95854818126E+02  0.91316507443E+02 0.  0.
         11    1    3    3    0    0  0.55047177570E+02  0.63343356242E+01  0.84080152992E+01  0.56044716858E+02  0.51100000000E-03 0.  1.
         22    1    1    0    0    0 -0.17520807155E+02 -0.17989674007E+02 -0.14793058244E+02  0.29145181874E+02  0.00000000000E+00 0.  1.
</event>
<event>
 5    1  0.3186486E-003  0.9118800E+02  0.7818608E-02  0.1130116E+00
         25   -1    0    0    0    0  0.00000000000E+00  0.00000000000E+00  0.99999998245E-14  0.12500000000E+03  0.12500000000E+03 0.  0.
        -11    1    3    3    0    0 -0.81422591336E+00 -0.58043260187E+02 -0.42639502621E+01  0.58205363061E+02  0.51100000000E-03 0.  1.
         23    2    1    0    0    0  0.12981649843E+02 -0.25033649736E+02 -0.11217480894E+02  0.94651380107E+02  0.89654029619E+02 0.  0.
         11    1    3    3    0    0  0.13795875756E+02  0.33009610451E+02 -0.69535306324E+01  0.36446017046E+02  0.51100000000E-03 0. -1.
         22    1    1    0    0    0 -0.12981649843E+02  0.25033649736E+02  0.11217480894E+02  0.30348619893E+02  0.00000000000E+00 0.  1.
</event>
<event>
 5    1  0.3186486E-003  0.9118800E+02  0.7818608E-02  0.1130116E+00
         25   -1    0    0    0    0  0.00000000000E+00  0.00000000000E+00  0.99999998245E-14  0.12500000000E+03  0.12500000000E+03 0.  0.
        -11    1    3    3    0    0 -0.41956804238E+02 -0.29656474980E+02 -0.11636499621E+02  0.52681002779E+02  0.51100000000E-03 0.  1.
         23    2    1    0    0    0  0.18910017073E+01 -0.26190337031E+02 -0.10613934580E+02  0.96677478069E+02  0.92435758867E+02 0.  0.
         11    1    3    3    0    0  0.43847805945E+02  0.34661379488E+01  0.10225650413E+01  0.43996475291E+02  0.51100000000E-03 0. -1.
         22    1    1    0    0    0 -0.18910017073E+01  0.26190337031E+02  0.10613934580E+02  0.28322521931E+02  0.00000000000E+00 0.  1.
</event>
<event>
 5    1  0.3186486E-003  0.9118800E+02  0.7818608E-02  0.1130116E+00
         25   -1    0    0    0    0  0.00000000000E+00  0.00000000000E+00  0.99999998245E-14  0.12500000000E+03  0.12500000000E+03 0.  0.
        -11    1    3    3    0    0 -0.35778731557E+02  0.21276154035E+02 -0.28956278217E+02  0.50707577449E+02  0.51100000000E-03 0.  1.
         23    2    1    0    0    0 -0.24016738662E+02  0.17842430890E+02  0.11475790748E+02  0.92955502043E+02  0.87257524093E+02 0.  0.
         11    1    3    3    0    0  0.11761992895E+02 -0.34337231457E+01  0.40432068964E+02  0.42247924594E+02  0.51100000000E-03 0. -1.
         22    1    1    0    0    0  0.24016738662E+02 -0.17842430890E+02 -0.11475790748E+02  0.32044497957E+02  0.00000000000E+00 0.  1.
</event>
<event>
 5    1  0.3186486E-003  0.9118800E+02  0.7818608E-02  0.1130116E+00
         25   -1    0    0    0    0  0.00000000000E+00  0.00000000000E+00  0.99999998245E-14  0.12500000000E+03  0.12500000000E+03 0.  0.
        -11    1    3    3    0    0 -0.36265739772E+02 -0.28026589767E+02  0.18792538431E+02  0.49536381742E+02  0.51100000000E-03 0. -1.
         23    2    1    0    0    0  0.42066790698E+01 -0.48553590607E+01  0.27310614689E+02  0.96943978631E+02  0.92795445242E+02 0.  0.
         11    1    3    3    0    0  0.40472418842E+02  0.23171230707E+02  0.85180762577E+01  0.47407596888E+02  0.51100000000E-03 0.  1.
         22    1    1    0    0    0 -0.42066790698E+01  0.48553590607E+01 -0.27310614689E+02  0.28056021369E+02  0.00000000000E+00 0. -1.
</event>
<event>
 5    1  0.3186486E-003  0.9118800E+02  0.7818608E-02  0.1130116E+00
         25   -1    0    0    0    0  0.00000000000E+00  0.00000000000E+00  0.99999998245E-14  0.12500000000E+03  0.12500000000E+03 0.  0.
        -11    1    3    3    0    0  0.47201627898E+02 -0.11912930356E+02  0.37270401136E+02  0.61310638449E+02  0.51100000000E-03 0.  1.
         23    2    1    0    0    0  0.26851480892E+02 -0.54239436112E+01  0.10255857714E+02  0.95749293892E+02  0.91171944549E+02 0.  0.
         11    1    3    3    0    0 -0.20350147006E+02  0.64889867450E+01 -0.27014543422E+02  0.34438655443E+02  0.51100000000E-03 0. -1.
         22    1    1    0    0    0 -0.26851480892E+02  0.54239436112E+01 -0.10255857714E+02  0.29250706108E+02  0.00000000000E+00 0.  1.
</event>
<event>
 5    1  0.3186486E-003  0.9118800E+02  0.7818608E-02  0.1130116E+00
         25   -1    0    0    0    0  0.00000000000E+00  0.00000000000E+00  0.99999998245E-14  0.12500000000E+03  0.12500000000E+03 0.  0.
        -11    1    3    3    0    0  0.19393710556E+01 -0.39602781928E+02  0.40639047113E+02  0.56777404371E+02  0.51100000000E-03 0. -1.
         23    2    1    0    0    0  0.99914625405E+01 -0.43209281442E+01  0.27746715452E+02  0.95194296484E+02  0.90407821127E+02 0.  0.
         11    1    3    3    0    0  0.80520914850E+01  0.35281853784E+02 -0.12892331661E+02  0.38416892113E+02  0.51100000000E-03 0.  1.
         22    1    1    0    0    0 -0.99914625405E+01  0.43209281442E+01 -0.27746715452E+02  0.29805703516E+02  0.00000000000E+00 0. -1.
</event>
<event>
 5    1  0.3186486E-003  0.9118800E+02  0.7818608E-02  0.1130116E+00
         25   -1    0    0    0    0  0.00000000000E+00  0.00000000000E+00  0.99999998245E-14  0.12500000000E+03  0.12500000000E+03 0.  0.
        -11    1    3    3    0    0 -0.34167734883E+02 -0.25377768820E+02  0.32148260113E+02  0.53338315364E+02  0.51100000000E-03 0. -1.
         23    2    1    0    0    0 -0.31112616032E+02 -0.44859530380E+01 -0.20166542713E+01  0.93501023104E+02  0.88035537007E+02 0.  0.
         11    1    3    3    0    0  0.30551188514E+01  0.20891815782E+02 -0.34164914384E+02  0.40162707740E+02  0.51100000000E-03 0.  1.
         22    1    1    0    0    0  0.31112616032E+02  0.44859530380E+01  0.20166542713E+01  0.31498976896E+02  0.00000000000E+00 0. -1.
</event>
<event>
 5    1  0.3186486E-003  0.9118800E+02  0.7818608E-02  0.1130116E+00
         25   -1    0    0    0    0  0.00000000000E+00  0.00000000000E+00  0.99999998245E-14  0.12500000000E+03  0.12500000000E+03 0.  0.
        -11    1    3    3    0    0 -0.30834499503E+02 -0.40278460086E+02  0.20129260693E+02  0.54573875095E+02  0.51100000000E-03 0.  1.
         23    2    1    0    0    0  0.72285495309E+01 -0.25634895353E+02  0.95345865591E+01  0.96710282276E+02  0.92480109045E+02 0.  0.
         11    1    3    3    0    0  0.38063049034E+02  0.14643564733E+02 -0.10594674134E+02  0.42136407181E+02  0.51100000000E-03 0. -1.
         22    1    1    0    0    0 -0.72285495309E+01  0.25634895353E+02 -0.95345865591E+01  0.28289717724E+02  0.00000000000E+00 0.  1.
</event>
<event>
 5    1  0.3186486E-003  0.9118800E+02  0.7818608E-02  0.1130116E+00
         25   -1    0    0    0    0  0.00000000000E+00  0.00000000000E+00  0.99999998245E-14  0.12500000000E+03  0.12500000000E+03 0.  0.
        -11    1    3    3    0    0  0.62273046266E+01 -0.42054913435E+02  0.10980890110E+02  0.43908712288E+02  0.51100000000E-03 0.  1.
         23    2    1    0    0    0  0.67591028575E+01 -0.81970658420E+01 -0.27708917620E+02  0.95324058979E+02  0.90587056165E+02 0.  0.
         11    1    3    3    0    0  0.53179823091E+00  0.33857847593E+02 -0.38689807729E+02  0.51415346691E+02  0.51100000000E-03 0. -1.
         22    1    1    0    0    0 -0.67591028575E+01  0.81970658420E+01  0.27708917620E+02  0.29675941021E+02  0.00000000000E+00 0. -1.
</event>
<event>
 5    1  0.3186486E-003  0.9118800E+02  0.7818608E-02  0.1130116E+00
         25   -1    0    0    0    0  0.00000000000E+00  0.00000000000E+00  0.99999998245E-14  0.12500000000E+03  0.12500000000E+03 0.  0.
        -11    1    3    3    0    0 -0.45233293294E+02  0.14441733456E+02 -0.11439670622E+02  0.48841381550E+02  0.51100000000E-03 0.  1.
         23    2    1    0    0    0 -0.61140747714E+00  0.28487788958E+02 -0.51784898138E+01  0.96038910663E+02  0.91568158580E+02 0.  0.
         11    1    3    3    0    0  0.44621885817E+02  0.14046055502E+02  0.62611808085E+01  0.47197529113E+02  0.51100000000E-03 0. -1.
         22    1    1    0    0    0  0.61140747714E+00 -0.28487788958E+02  0.51784898138E+01  0.28961089337E+02  0.00000000000E+00 0.  1.
</event>
<event>
 5    1  0.3186486E-003  0.9118800E+02  0.7818608E-02  0.1130116E+00
         25   -1    0    0    0    0  0.00000000000E+00  0.00000000000E+00  0.99999998245E-14  0.12500000000E+03  0.12500000000E+03 0.  0.
        -11    1    3    3    0    0 -0.10864107606E+02  0.31890886147E+01  0.38619471825E+02  0.40245033539E+02  0.51100000000E-03 0.  1.
         23    2    1    0    0    0  0.18487383535E+02  0.20486465242E+02 -0.63706727894E+01  0.96679264136E+02  0.92438174116E+02 0.  0.
         11    1    3    3    0    0  0.29351491141E+02  0.17297376628E+02 -0.44990144614E+02  0.56434230597E+02  0.51100000000E-03 0. -1.
         22    1    1    0    0    0 -0.18487383535E+02 -0.20486465242E+02  0.63706727894E+01  0.28320735864E+02  0.00000000000E+00 0.  1.
</event>
<event>
 5    1  0.3186486E-003  0.9118800E+02  0.7818608E-02  0.1130116E+00
         25   -1    0    0    0    0  0.00000000000E+00  0.00000000000E+00  0.99999998245E-14  0.12500000000E+03  0.12500000000E+03 0.  0.
        -11    1    3    3    0    0 -0.19947913920E+02 -0.37516765904E+02  0.18256138258E+02  0.46246227716E+02  0.51100000000E-03 0. -1.
         23    2    1    0    0    0 -0.96596580420E+01 -0.11292268900E+02 -0.23845528109E+02  0.96903140012E+02  0.92740417310E+02 0.  0.
         11    1    3    3    0    0  0.10288255878E+02  0.26224497004E+02 -0.42101666367E+02  0.50656912295E+02  0.51100000000E-03 0.  1.
         22    1    1    0    0    0  0.96596580420E+01  0.11292268900E+02  0.23845528109E+02  0.28096859988E+02  0.00000000000E+00 0.  1.
</event>
<event>
 5    1  0.3186486E-003  0.9118800E+02  0.7818608E-02  0.1130116E+00
         25   -1    0    0    0    0  0.00000000000E+00  0.00000000000E+00  0.99999998245E-14  0.12500000000E+03  0.12500000000E+03 0.  0.
        -11    1    3    3    0    0 -0.51142781970E+02  0.25970726061E+02  0.86833842385E+01  0.58012618644E+02  0.51100000000E-03 0.  1.
         23    2    1    0    0    0 -0.23496233600E+02  0.28224250901E+02 -0.30895866130E+01  0.88145870275E+02  0.80071640228E+02 0.  0.
         11    1    3    3    0    0  0.27646548370E+02  0.22535248392E+01 -0.11772970852E+02  0.30133251632E+02  0.51100000000E-03 0. -1.
         22    1    1    0    0    0  0.23496233600E+02 -0.28224250901E+02  0.30895866130E+01  0.36854129725E+02  0.00000000000E+00 0.  1.
</event>
<event>
 5    1  0.3186486E-003  0.9118800E+02  0.7818608E-02  0.1130116E+00
         25   -1    0    0    0    0  0.00000000000E+00  0.00000000000E+00  0.99999998245E-14  0.12500000000E+03  0.12500000000E+03 0.  0.
        -11    1    3    3    0    0 -0.31524551525E+02  0.42255570842E+02 -0.17800349921E+01  0.52749399436E+02  0.51100000000E-03 0.  1.
         23    2    1    0    0    0 -0.13243255264E+02 -0.42234513734E-02 -0.18941419926E+02  0.10188807198E+03  0.99232141950E+02 0.  0.
         11    1    3    3    0    0  0.18281296261E+02 -0.42259794293E+02 -0.17161384934E+02  0.49138672548E+02  0.51100000000E-03 0. -1.
         22    1    1    0    0    0  0.13243255264E+02  0.42234513734E-02  0.18941419926E+02  0.23111928016E+02  0.00000000000E+00 0.  1.
</event>
<event>
 5    1  0.3186486E-003  0.9118800E+02  0.7818608E-02  0.1130116E+00
         25   -1    0    0    0    0  0.00000000000E+00  0.00000000000E+00  0.99999998245E-14  0.12500000000E+03  0.12500000000E+03 0.  0.
        -11    1    3    3    0    0 -0.13991642146E+02 -0.10017918244E+02 -0.28116171955E+02  0.32964281602E+02  0.51100000000E-03 0.  1.
         23    2    1    0    0    0  0.92895737839E+01  0.27442086153E+01  0.28177174045E+02  0.95204362750E+02  0.90421737914E+02 0.  0.
         11    1    3    3    0    0  0.23281215930E+02  0.12762126859E+02  0.56293346000E+02  0.62240081147E+02  0.51100000000E-03 0. -1.
         22    1    1    0    0    0 -0.92895737839E+01 -0.27442086153E+01 -0.28177174045E+02  0.29795637250E+02  0.00000000000E+00 0. -1.
</event>
<event>
 5    1  0.3186486E-003  0.9118800E+02  0.7818608E-02  0.1130116E+00
         25   -1    0    0    0    0  0.00000000000E+00  0.00000000000E+00  0.99999998245E-14  0.12500000000E+03  0.12500000000E+03 0.  0.
        -11    1    3    3    0    0  0.87922448443E+01  0.36976045586E+02  0.31501527841E+02  0.49364742207E+02  0.51100000000E-03 0.  1.
         23    2    1    0    0    0 -0.22760435330E+02  0.68536418268E+01  0.18486598609E+02  0.94887475183E+02  0.89982602739E+02 0.  0.
         11    1    3    3    0    0 -0.31552680175E+02 -0.30122403759E+02 -0.13014929232E+02  0.45522732976E+02  0.51100000000E-03 0. -1.
         22    1    1    0    0    0  0.22760435330E+02 -0.68536418268E+01 -0.18486598609E+02  0.30112524817E+02  0.00000000000E+00 0. -1.
</event>
<event>
 5    1  0.3186486E-003  0.9118800E+02  0.7818608E-02  0.1130116E+00
         25   -1    0    0    0    0  0.00000000000E+00  0.00000000000E+00  0.99999998245E-14  0.12500000000E+03  0.12500000000E+03 0.  0.
        -11    1    3    3    0    0  0.36662802203E+01  0.49065984643E+02  0.37433469374E+02  0.61823758292E+02  0.51100000000E-03 0.  1.
         23    2    1    0    0    0 -0.34174026977E+00  0.19294809419E+02  0.22459074190E+02  0.95388913050E+02  0.90676503365E+02 0.  0.
         11    1    3    3    0    0 -0.40080204901E+01 -0.29771175225E+02 -0.14974395185E+02  0.33565154758E+02  0.51100000000E-03 0. -1.
         22    1    1    0    0    0  0.34174026977E+00 -0.19294809419E+02 -0.22459074190E+02  0.29611086950E+02  0.00000000000E+00 0.  1.
</event>
<event>
 5    1  0.3186486E-003  0.9118800E+02  0.7818608E-02  0.1130116E+00
         25   -1    0    0    0    0  0.00000000000E+00  0.00000000000E+00  0.99999998245E-14  0.12500000000E+03  0.12500000000E+03 0.  0.
        -11    1    3    3    0    0 -0.76814794619E+01 -0.39163120551E+02  0.10411879896E+02  0.41245149791E+02  0.51100000000E-03 0. -1.
         23    2    1    0    0    0  0.21070169092E+02  0.74995996544E+01  0.17621917302E+02  0.96526714451E+02  0.92231657324E+02 0.  0.
         11    1    3    3    0    0  0.28751648554E+02  0.46662720206E+02  0.72100374064E+01  0.55281564660E+02  0.51100000000E-03 0.  1.
         22    1    1    0    0    0 -0.21070169092E+02 -0.74995996544E+01 -0.17621917302E+02  0.28473285549E+02  0.00000000000E+00 0.  1.
</event>
<event>
 5    1  0.3186486E-003  0.9118800E+02  0.7818608E-02  0.1130116E+00
         25   -1    0    0    0    0  0.00000000000E+00  0.00000000000E+00  0.99999998245E-14  0.12500000000E+03  0.12500000000E+03 0.  0.
        -11    1    3    3    0    0 -0.14218787104E+02 -0.30164012013E+02 -0.27229809310E+02  0.43052340734E+02  0.51100000000E-03 0.  1.
         23    2    1    0    0    0  0.22377096717E+02  0.23462288683E+01 -0.23989574145E+02  0.92110200441E+02  0.86038073608E+02 0.  0.
         11    1    3    3    0    0  0.36595883821E+02  0.32510240881E+02  0.32402351645E+01  0.49057859706E+02  0.51100000000E-03 0. -1.
         22    1    1    0    0    0 -0.22377096717E+02 -0.23462288683E+01  0.23989574145E+02  0.32889799559E+02  0.00000000000E+00 0. -1.
</event>
<event>
 5    1  0.3186486E-003  0.9118800E+02  0.7818608E-02  0.1130116E+00
         25   -1    0    0    0    0  0.00000000000E+00  0.00000000000E+00  0.99999998245E-14  0.12500000000E+03  0.12500000000E+03 0.  0.
        -11    1    3    3    0    0  0.36866082467E+02  0.38273711282E+02 -0.22352113124E+02  0.57650689269E+02  0.51100000000E-03 0.  1.
         23    2    1    0    0    0  0.24129736129E+02  0.16761417857E+02  0.55349653943E+01  0.95103091529E+02  0.90281630923E+02 0.  0.
         11    1    3    3    0    0 -0.12736346338E+02 -0.21512293426E+02  0.27887078518E+02  0.37452402260E+02  0.51100000000E-03 0. -1.
         22    1    1    0    0    0 -0.24129736129E+02 -0.16761417857E+02 -0.55349653943E+01  0.29896908471E+02  0.00000000000E+00 0.  1.
</event>
<event>
 5    1  0.3186486E-003  0.9118800E+02  0.7818608E-02  0.1130116E+00
         25   -1    0    0    0    0  0.00000000000E+00  0.00000000000E+00  0.99999998245E-14  0.12500000000E+03  0.12500000000E+03 0.  0.
        -11    1    3    3    0    0 -0.18694772391E+02  0.35103798651E+02  0.42173438330E+02  0.57968699272E+02  0.51100000000E-03 0. -1.
         23    2    1    0    0    0 -0.20056702337E+02  0.39280539616E+01  0.21108300627E+02  0.95618691793E+02  0.90992708215E+02 0.  0.
         11    1    3    3    0    0 -0.13619299467E+01 -0.31175744690E+02 -0.21065137702E+02  0.37649992521E+02  0.51100000000E-03 0.  1.
         22    1    1    0    0    0  0.20056702337E+02 -0.39280539616E+01 -0.21108300627E+02  0.29381308207E+02  0.00000000000E+00 0. -1.
</event>
<event>
 5    1  0.3186486E-003  0.9118800E+02  0.7818608E-02  0.1130116E+00
         25   -1    0    0    0    0  0.00000000000E+00  0.00000000000E+00  0.99999998245E-14  0.12500000000E+03  0.12500000000E+03 0.  0.
        -11    1    3    3    0    0 -0.11406676633E+02  0.24882108125E+02 -0.76874819784E+01  0.28431126534E+02  0.51100000000E-03 0.  1.
         23    2    1    0    0    0  0.10461383390E+02 -0.22898615665E+02  0.24350738442E+02  0.89975071671E+02  0.82878030368E+02 0.  0.
         11    1    3    3    0    0  0.21868060023E+02 -0.47780723790E+02  0.32038220420E+02  0.61543945137E+02  0.51100000000E-03 0. -1.
         22    1    1    0    0    0 -0.10461383390E+02  0.22898615665E+02 -0.24350738442E+02  0.35024928329E+02  0.00000000000E+00 0. -1.
</event>
<event>
 5    1  0.3186486E-003  0.9118800E+02  0.7818608E-02  0.1130116E+00
         25   -1    0    0    0    0  0.00000000000E+00  0.00000000000E+00  0.99999998245E-14  0.12500000000E+03  0.12500000000E+03 0.  0.
        -11    1    3    3    0    0 -0.29393980620E+02  0.31307581446E+02 -0.16412755302E+02  0.45973354126E+02  0.51100000000E-03 0.  1.
         23    2    1    0    0    0 -0.28054573510E+02 -0.12460164388E+02  0.35516819696E+01  0.94098070672E+02  0.88879230802E+02 0.  0.
         11    1    3    3    0    0  0.13394071105E+01 -0.43767745834E+02  0.19964437272E+02  0.48124716546E+02  0.51100000000E-03 0. -1.
         22    1    1    0    0    0  0.28054573510E+02  0.12460164388E+02 -0.35516819696E+01  0.30901929328E+02  0.00000000000E+00 0. -1.
</event>
<event>
 5    1  0.3186486E-003  0.9118800E+02  0.7818608E-02  0.1130116E+00
         25   -1    0    0    0    0  0.00000000000E+00  0.00000000000E+00  0.99999998245E-14  0.12500000000E+03  0.12500000000E+03 0.  0.
        -11    1    3    3    0    0  0.87838656493E+01 -0.11546197204E+02 -0.53411351190E+02  0.55346575339E+02  0.51100000000E-03 0. -1.
         23    2    1    0    0    0 -0.15064808217E+02 -0.13265881690E+02 -0.30671814571E+02  0.88343591655E+02  0.80379710835E+02 0.  0.
         11    1    3    3    0    0 -0.23848673866E+02 -0.17196844863E+01  0.22739536618E+02  0.32997016316E+02  0.51100000000E-03 0.  1.
         22    1    1    0    0    0  0.15064808217E+02  0.13265881690E+02  0.30671814571E+02  0.36656408345E+02  0.00000000000E+00 0. -1.
</event>
<event>
 5    1  0.3186486E-003  0.9118800E+02  0.7818608E-02  0.1130116E+00
         25   -1    0    0    0    0  0.00000000000E+00  0.00000000000E+00  0.99999998245E-14  0.12500000000E+03  0.12500000000E+03 0.  0.
        -11    1    3    3    0    0  0.15227430189E+02 -0.30954846136E+02  0.30794005392E+02  0.46242273925E+02  0.51100000000E-03 0. -1.
         23    2    1    0    0    0 -0.23823845270E+02 -0.39506902544E+01  0.16226855295E+02  0.95905423363E+02  0.91385752942E+02 0.  0.
         11    1    3    3    0    0 -0.39051275459E+02  0.27004155881E+02 -0.14567150097E+02  0.49663149438E+02  0.51100000000E-03 0.  1.
         22    1    1    0    0    0  0.23823845270E+02  0.39506902544E+01 -0.16226855295E+02  0.29094576637E+02  0.00000000000E+00 0.  1.
</event>
<event>
 5    1  0.3186486E-003  0.9118800E+02  0.7818608E-02  0.1130116E+00
         25   -1    0    0    0    0  0.00000000000E+00  0.00000000000E+00  0.99999998245E-14  0.12500000000E+03  0.12500000000E+03 0.  0.
        -11    1    3    3    0    0  0.14601749336E+02 -0.24526537442E+02  0.26707215655E+02  0.39090120119E+02  0.51100000000E-03 0.  1.
         23    2    1    0    0    0  0.17079528694E+02  0.51291412250E+01 -0.22312985648E+02  0.96436251670E+02  0.92108973056E+02 0.  0.
         11    1    3    3    0    0  0.24777793582E+01  0.29655678667E+02 -0.49020201304E+02  0.57346131551E+02  0.51100000000E-03 0. -1.
         22    1    1    0    0    0 -0.17079528694E+02 -0.51291412250E+01  0.22312985648E+02  0.28563748330E+02  0.00000000000E+00 0. -1.
</event>
<event>
 5    1  0.3186486E-003  0.9118800E+02  0.7818608E-02  0.1130116E+00
         25   -1    0    0    0    0  0.00000000000E+00  0.00000000000E+00  0.99999998245E-14  0.12500000000E+03  0.12500000000E+03 0.  0.
        -11    1    3    3    0    0  0.70777241303E+01 -0.46703631321E+02  0.36952601904E+02  0.59973478681E+02  0.51100000000E-03 0. -1.
         23    2    1    0    0    0  0.15517523693E+02 -0.18928912298E+02  0.16668739568E+02  0.95386757335E+02  0.90673531605E+02 0.  0.
         11    1    3    3    0    0  0.84397995631E+01  0.27774719023E+02 -0.20283862335E+02  0.35413278654E+02  0.51100000000E-03 0.  1.
         22    1    1    0    0    0 -0.15517523693E+02  0.18928912298E+02 -0.16668739568E+02  0.29613242665E+02  0.00000000000E+00 0. -1.
</event>
<event>
 5    1  0.3186486E-003  0.9118800E+02  0.7818608E-02  0.1130116E+00
         25   -1    0    0    0    0  0.00000000000E+00  0.00000000000E+00  0.99999998245E-14  0.12500000000E+03  0.12500000000E+03 0.  0.
        -11    1    3    3    0    0  0.22924071275E+02 -0.22344132123E+02 -0.12870638001E+02  0.34502559426E+02  0.51100000000E-03 0.  1.
         23    2    1    0    0    0 -0.16250760757E+02  0.98827580683E+01  0.21893359716E+02  0.95998701204E+02  0.91513252051E+02 0.  0.
         11    1    3    3    0    0 -0.39174832031E+02  0.32226890191E+02  0.34763997717E+02  0.61496141778E+02  0.51100000000E-03 0. -1.
         22    1    1    0    0    0  0.16250760757E+02 -0.98827580683E+01 -0.21893359716E+02  0.29001298796E+02  0.00000000000E+00 0. -1.
</event>
<event>
 5    1  0.3186486E-003  0.9118800E+02  0.7818608E-02  0.1130116E+00
         25   -1    0    0    0    0  0.00000000000E+00  0.00000000000E+00  0.99999998245E-14  0.12500000000E+03  0.12500000000E+03 0.  0.
        -11    1    3    3    0    0  0.15033007458E+02  0.47931391720E+01  0.33319955731E+02  0.36867125553E+02  0.51100000000E-03 0.  1.
         23    2    1    0    0    0 -0.28946551329E+02  0.29632996870E+01 -0.52978511844E+01  0.95423806768E+02  0.90724592543E+02 0.  0.
         11    1    3    3    0    0 -0.43979558787E+02 -0.18298394850E+01 -0.38617806916E+02  0.58556681215E+02  0.51100000000E-03 0. -1.
         22    1    1    0    0    0  0.28946551329E+02 -0.29632996870E+01  0.52978511844E+01  0.29576193232E+02  0.00000000000E+00 0. -1.
</event>
<event>
 5    1  0.3186486E-003  0.9118800E+02  0.7818608E-02  0.1130116E+00
         25   -1    0    0    0    0  0.00000000000E+00  0.00000000000E+00  0.99999998245E-14  0.12500000000E+03  0.12500000000E+03 0.  0.
        -11    1    3    3    0    0 -0.14610165525E+02 -0.24983337324E+02  0.19755175672E+02  0.35041276327E+02  0.51100000000E-03 0.  1.
         23    2    1    0    0    0 -0.22522313472E+01  0.25014112442E+02 -0.13636981708E+02  0.96421238001E+02  0.92088595929E+02 0.  0.
         11    1    3    3    0    0  0.12357934178E+02  0.49997449766E+02 -0.33392157380E+02  0.61379961674E+02  0.51100000000E-03 0. -1.
         22    1    1    0    0    0  0.22522313472E+01 -0.25014112442E+02  0.13636981708E+02  0.28578761999E+02  0.00000000000E+00 0. -1.
</event>
<event>
 5    1  0.3186486E-003  0.9118800E+02  0.7818608E-02  0.1130116E+00
         25   -1    0    0    0    0  0.00000000000E+00  0.00000000000E+00  0.99999998245E-14  0.12500000000E+03  0.12500000000E+03 0.  0.
        -11    1    3    3    0    0  0.27886056483E+02 -0.48217050173E+02  0.25484338001E+02  0.61253306500E+02  0.51100000000E-03 0.  1.
         23    2    1    0    0    0  0.18946059803E+02 -0.18377599616E+02  0.62089123564E+01  0.97884691734E+02  0.94054095783E+02 0.  0.
         11    1    3    3    0    0 -0.89399966796E+01  0.29839450557E+02 -0.19275425645E+02  0.36631385235E+02  0.51100000000E-03 0. -1.
         22    1    1    0    0    0 -0.18946059803E+02  0.18377599616E+02 -0.62089123564E+01  0.27115308266E+02  0.00000000000E+00 0.  1.
</event>
<event>
 5    1  0.3186486E-003  0.9118800E+02  0.7818608E-02  0.1130116E+00
         25   -1    0    0    0    0  0.00000000000E+00  0.00000000000E+00  0.99999998245E-14  0.12500000000E+03  0.12500000000E+03 0.  0.
        -11    1    3    3    0    0  0.10064495414E+02 -0.12057576873E+02 -0.29441694929E+02  0.33369036974E+02  0.51100000000E-03 0. -1.
         23    2    1    0    0    0 -0.98130452402E+01  0.20355013361E+01  0.27728832622E+02  0.95515643451E+02  0.90851036662E+02 0.  0.
         11    1    3    3    0    0 -0.19877540654E+02  0.14093078209E+02  0.57170527551E+02  0.62146606477E+02  0.51100000000E-03 0.  1.
         22    1    1    0    0    0  0.98130452402E+01 -0.20355013361E+01 -0.27728832622E+02  0.29484356549E+02  0.00000000000E+00 0.  1.
</event>
<event>
 5    1  0.3186486E-003  0.9118800E+02  0.7818608E-02  0.1130116E+00
         25   -1    0    0    0    0  0.00000000000E+00  0.00000000000E+00  0.99999998245E-14  0.12500000000E+03  0.12500000000E+03 0.  0.
        -11    1    3    3    0    0  0.50770923023E+02  0.19907874938E+01  0.15220536124E+01  0.50832730666E+02  0.51100000000E-03 0. -1.
         23    2    1    0    0    0  0.16899902420E+02 -0.23997284932E+02 -0.80091351851E+01  0.94575953058E+02  0.89548803814E+02 0.  0.
         11    1    3    3    0    0 -0.33871020603E+02 -0.25988072426E+02 -0.95311887974E+01  0.43743222392E+02  0.51100000000E-03 0.  1.
         22    1    1    0    0    0 -0.16899902420E+02  0.23997284932E+02  0.80091351851E+01  0.30424046942E+02  0.00000000000E+00 0. -1.
</event>
<event>
 5    1  0.3186486E-003  0.9118800E+02  0.7818608E-02  0.1130116E+00
         25   -1    0    0    0    0  0.00000000000E+00  0.00000000000E+00  0.99999998245E-14  0.12500000000E+03  0.12500000000E+03 0.  0.
        -11    1    3    3    0    0 -0.29447357899E+01  0.46228056451E+02  0.30825460611E+02  0.55640935419E+02  0.51100000000E-03 0.  1.
         23    2    1    0    0    0  0.14968430976E+02  0.10491411405E+02  0.21668782916E+02  0.96651105979E+02  0.92400089257E+02 0.  0.
         11    1    3    3    0    0  0.17913166765E+02 -0.35736645046E+02 -0.91566776946E+01  0.41010170560E+02  0.51100000000E-03 0. -1.
         22    1    1    0    0    0 -0.14968430976E+02 -0.10491411405E+02 -0.21668782916E+02  0.28348894021E+02  0.00000000000E+00 0.  1.
</event>
<event>
 5    1  0.3186486E-003  0.9118800E+02  0.7818608E-02  0.1130116E+00
         25   -1    0    0    0    0  0.00000000000E+00  0.00000000000E+00  0.99999998245E-14  0.12500000000E+03  0.12500000000E+03 0.  0.
        -11    1    3    3    0    0 -0.38318625630E+02 -0.38127975591E+02 -0.80656895102E+01  0.54654505216E+02  0.51100000000E-03 0. -1.
         23    2    1    0    0    0 -0.16193223277E+02 -0.92947004652E+01 -0.24212994896E+02  0.94424175258E+02  0.89336687953E+02 0.  0.
         11    1    3    3    0    0  0.22125402353E+02  0.28833275125E+02 -0.16147305386E+02  0.39769670042E+02  0.51100000000E-03 0.  1.
         22    1    1    0    0    0  0.16193223277E+02  0.92947004652E+01  0.24212994896E+02  0.30575824742E+02  0.00000000000E+00 0. -1.
</event>
<event>
 5    1  0.3186486E-003  0.9118800E+02  0.7818608E-02  0.1130116E+00
         25   -1    0    0    0    0  0.00000000000E+00  0.00000000000E+00  0.99999998245E-14  0.12500000000E+03  0.12500000000E+03 0.  0.
        -11    1    3    3    0    0 -0.45168278290E+02  0.60210346669E+01  0.22768528694E+02  0.50939494710E+02  0.51100000000E-03 0.  1.
         23    2    1    0    0    0 -0.21397443169E+02  0.12648581486E+02 -0.14935696195E+02  0.96001513684E+02  0.91517093600E+02 0.  0.
         11    1    3    3    0    0  0.23770835121E+02  0.66275468189E+01 -0.37704224890E+02  0.45062018974E+02  0.51100000000E-03 0. -1.
         22    1    1    0    0    0  0.21397443169E+02 -0.12648581486E+02  0.14935696195E+02  0.28998486316E+02  0.00000000000E+00 0.  1.
</event>
<event>
 5    1  0.3186486E-003  0.9118800E+02  0.7818608E-02  0.1130116E+00
         25   -1    0    0    0    0  0.00000000000E+00  0.00000000000E+00  0.99999998245E-14  0.12500000000E+03  0.12500000000E+03 0.  0.
        -11    1    3    3    0    0 -0.12847433851E+02  0.28414642504E+02  0.21755884668E+02  0.38023242670E+02  0.51100000000E-03 0. -1.
         23    2    1    0    0    0  0.17903473979E+02 -0.19261047680E+02  0.23047191549E+00  0.98702177741E+02  0.95134349397E+02 0.  0.
         11    1    3    3    0    0  0.30750907830E+02 -0.47675690185E+02 -0.21525412752E+02  0.60678935071E+02  0.51100000000E-03 0.  1.
         22    1    1    0    0    0 -0.17903473979E+02  0.19261047680E+02 -0.23047191549E+00  0.26297822259E+02  0.00000000000E+00 0.  1.
</event>
<event>
 5    1  0.3186486E-003  0.9118800E+02  0.7818608E-02  0.1130116E+00
         25   -1    0    0    0    0  0.00000000000E+00  0.00000000000E+00  0.99999998245E-14  0.12500000000E+03  0.12500000000E+03 0.  0.
        -11    1    3    3    0    0 -0.66394934152E+01 -0.29330251250E+02  0.31286869644E+02  0.43396021979E+02  0.51100000000E-03 0.  1.
         23    2    1    0    0    0 -0.28034806988E+02  0.48511952040E+01 -0.30842000741E+01  0.96381880078E+02  0.92035156432E+02 0.  0.
         11    1    3    3    0    0 -0.21395313573E+02  0.34181446454E+02 -0.34371069718E+02  0.52985858099E+02  0.51100000000E-03 0. -1.
         22    1    1    0    0    0  0.28034806988E+02 -0.48511952040E+01  0.30842000741E+01  0.28618119922E+02  0.00000000000E+00 0. -1.
</event>
<event>
 5    1  0.3186486E-003  0.9118800E+02  0.7818608E-02  0.1130116E+00
         25   -1    0    0    0    0  0.00000000000E+00  0.00000000000E+00  0.99999998245E-14  0.12500000000E+03  0.12500000000E+03 0.  0.
        -11    1    3    3    0    0  0.22843907865E+02 -0.13503479461E+02  0.23663715185E+02  0.35555020752E+02  0.51100000000E-03 0. -1.
         23    2    1    0    0    0 -0.30253373904E+02  0.35591806195E+01  0.93794687506E+01  0.93126675208E+02  0.87502393121E+02 0.  0.
         11    1    3    3    0    0 -0.53097281769E+02  0.17062660080E+02 -0.14284246435E+02  0.57571654455E+02  0.51100000000E-03 0.  1.
         22    1    1    0    0    0  0.30253373904E+02 -0.35591806195E+01 -0.93794687506E+01  0.31873324792E+02  0.00000000000E+00 0.  1.
</event>
<event>
 5    1  0.3186486E-003  0.9118800E+02  0.7818608E-02  0.1130116E+00
         25   -1    0    0    0    0  0.00000000000E+00  0.00000000000E+00  0.99999998245E-14  0.12500000000E+03  0.12500000000E+03 0.  0.
        -11    1    3    3    0    0  0.10459441443E+01 -0.17614121838E+02  0.28394419222E+02  0.33430440178E+02  0.51100000000E-03 0. -1.
         23    2    1    0    0    0 -0.49118214842E+00 -0.27104740731E+01 -0.30589093827E+02  0.94287126628E+02  0.89144723103E+02 0.  0.
         11    1    3    3    0    0 -0.15371262927E+01  0.14903647765E+02 -0.58983513048E+02  0.60856686451E+02  0.51100000000E-03 0.  1.
         22    1    1    0    0    0  0.49118214842E+00  0.27104740731E+01  0.30589093827E+02  0.30712873372E+02  0.00000000000E+00 0.  1.
</event>
<event>
 5    1  0.3186486E-003  0.9118800E+02  0.7818608E-02  0.1130116E+00
         25   -1    0    0    0    0  0.00000000000E+00  0.00000000000E+00  0.99999998245E-14  0.12500000000E+03  0.12500000000E+03 0.  0.
        -11    1    3    3    0    0  0.88238349605E+01  0.31772146545E+02  0.82843330001E+01  0.33999404892E+02  0.51100000000E-03 0.  1.
         23    2    1    0    0    0 -0.62177243744E+01 -0.17333999464E+02  0.30031287088E+02  0.89772087232E+02  0.82571313470E+02 0.  0.
         11    1    3    3    0    0 -0.15041559335E+02 -0.49106146009E+02  0.21746954088E+02  0.55772682340E+02  0.51100000000E-03 0. -1.
         22    1    1    0    0    0  0.62177243744E+01  0.17333999464E+02 -0.30031287088E+02  0.35227912768E+02  0.00000000000E+00 0. -1.
</event>
<event>
 5    1  0.3186486E-003  0.9118800E+02  0.7818608E-02  0.1130116E+00
         25   -1    0    0    0    0  0.00000000000E+00  0.00000000000E+00  0.99999998245E-14  0.12500000000E+03  0.12500000000E+03 0.  0.
        -11    1    3    3    0    0 -0.11964006274E+02 -0.31744771105E+02 -0.53440707857E+01  0.34342787182E+02  0.51100000000E-03 0.  1.
         23    2    1    0    0    0  0.19301079344E+02  0.21285826116E+02 -0.45469226766E+01  0.95908892027E+02  0.91390497354E+02 0.  0.
         11    1    3    3    0    0  0.31265085618E+02  0.53030597221E+02  0.79714810911E+00  0.61566104844E+02  0.51100000000E-03 0. -1.
         22    1    1    0    0    0 -0.19301079344E+02 -0.21285826116E+02  0.45469226766E+01  0.29091107973E+02  0.00000000000E+00 0. -1.
</event>
<event>
 5    1  0.3186486E-003  0.9118800E+02  0.7818608E-02  0.1130116E+00
         25   -1    0    0    0    0  0.00000000000E+00  0.00000000000E+00  0.99999998245E-14  0.12500000000E+03  0.12500000000E+03 0.  0.
        -11    1    3    3    0    0  0.49928426324E+01  0.25144192505E+02 -0.38899656826E+02  0.46586931598E+02  0.51100000000E-03 0. -1.
         23    2    1    0    0    0  0.30325849210E+01 -0.20748862117E+02 -0.19202230998E+02  0.96566964183E+02  0.92286190981E+02 0.  0.
         11    1    3    3    0    0 -0.19602577114E+01 -0.45893054621E+02  0.19697425828E+02  0.49980032586E+02  0.51100000000E-03 0.  1.
         22    1    1    0    0    0 -0.30325849210E+01  0.20748862117E+02  0.19202230998E+02  0.28433035817E+02  0.00000000000E+00 0. -1.
</event>
<event>
 5    1  0.3186486E-003  0.9118800E+02  0.7818608E-02  0.1130116E+00
         25   -1    0    0    0    0  0.00000000000E+00  0.00000000000E+00  0.99999998245E-14  0.12500000000E+03  0.12500000000E+03 0.  0.
        -11    1    3    3    0    0  0.57764532803E+02  0.14491966232E+02 -0.14191322836E+01  0.59571572683E+02  0.51100000000E-03 0.  1.
         23    2    1    0    0    0  0.31062448784E+02  0.15525561007E+02 -0.11922829002E+02  0.88283891540E+02  0.80286816384E+02 0.  0.
         11    1    3    3    0    0 -0.26702084019E+02  0.10335947751E+01 -0.10503696718E+02  0.28712318857E+02  0.51100000000E-03 0. -1.
         22    1    1    0    0    0 -0.31062448784E+02 -0.15525561007E+02  0.11922829002E+02  0.36716108460E+02  0.00000000000E+00 0.  1.
</event>
<event>
 5    1  0.3186486E-003  0.9118800E+02  0.7818608E-02  0.1130116E+00
         25   -1    0    0    0    0  0.00000000000E+00  0.00000000000E+00  0.99999998245E-14  0.12500000000E+03  0.12500000000E+03 0.  0.
        -11    1    3    3    0    0  0.24496029780E+02 -0.37181229242E+02 -0.35393844096E+02  0.56879024983E+02  0.51100000000E-03 0.  1.
         23    2    1    0    0    0  0.24552593168E+02 -0.10944389419E+02 -0.39522088942E+01  0.97829621899E+02  0.93980878239E+02 0.  0.
         11    1    3    3    0    0  0.56563388279E-01  0.26236839823E+02  0.31441635202E+02  0.40950596915E+02  0.51100000000E-03 0. -1.
         22    1    1    0    0    0 -0.24552593168E+02  0.10944389419E+02  0.39522088942E+01  0.27170378101E+02  0.00000000000E+00 0.  1.
</event>
<event>
 5    1  0.3186486E-003  0.9118800E+02  0.7818608E-02  0.1130116E+00
         25   -1    0    0    0    0  0.00000000000E+00  0.00000000000E+00  0.99999998245E-14  0.12500000000E+03  0.12500000000E+03 0.  0.
        -11    1    3    3    0    0  0.18532898285E+01  0.15074621151E+02  0.43562674043E+02  0.46134428100E+02  0.51100000000E-03 0. -1.
         23    2    1    0    0    0  0.19920853743E+02  0.62499765556E+01 -0.88890363582E+01  0.10230820439E+03  0.99759967405E+02 0.  0.
         11    1    3    3    0    0  0.18067563915E+02 -0.88246445952E+01 -0.52451710401E+02  0.56173776287E+02  0.51100000000E-03 0.  1.
         22    1    1    0    0    0 -0.19920853743E+02 -0.62499765556E+01  0.88890363582E+01  0.22691795614E+02  0.00000000000E+00 0.  1.
</event>
<event>
 5    1  0.3186486E-003  0.9118800E+02  0.7818608E-02  0.1130116E+00
         25   -1    0    0    0    0  0.00000000000E+00  0.00000000000E+00  0.99999998245E-14  0.12500000000E+03  0.12500000000E+03 0.  0.
        -11    1    3    3    0    0 -0.45295671568E+02 -0.10724971139E+02 -0.40276982173E+02  0.61554513741E+02  0.51100000000E-03 0.  1.
         23    2    1    0    0    0 -0.16756304688E+02  0.22773642839E+01 -0.19572259499E+02  0.99134318552E+02  0.95700468326E+02 0.  0.
         11    1    3    3    0    0  0.28539366880E+02  0.13002335423E+02  0.20704722674E+02  0.37579804810E+02  0.51100000000E-03 0. -1.
         22    1    1    0    0    0  0.16756304688E+02 -0.22773642839E+01  0.19572259499E+02  0.25865681448E+02  0.00000000000E+00 0.  1.
</event>
<event>
 5    1  0.3186486E-003  0.9118800E+02  0.7818608E-02  0.1130116E+00
         25   -1    0    0    0    0  0.00000000000E+00  0.00000000000E+00  0.99999998245E-14  0.12500000000E+03  0.12500000000E+03 0.  0.
        -11    1    3    3    0    0 -0.24472962547E+02  0.84182771727E+01  0.27895149747E+02  0.38051710422E+02  0.51100000000E-03 0.  1.
         23    2    1    0    0    0  0.28551426610E+02  0.43204236776E+01  0.63441205062E+01  0.95434853506E+02  0.90739811420E+02 0.  0.
         11    1    3    3    0    0  0.53024389156E+02 -0.40978534951E+01 -0.21551029240E+02  0.57383143085E+02  0.51100000000E-03 0. -1.
         22    1    1    0    0    0 -0.28551426610E+02 -0.43204236776E+01 -0.63441205062E+01  0.29565146494E+02  0.00000000000E+00 0. -1.
</event>
<event>
 5    1  0.3186486E-003  0.9118800E+02  0.7818608E-02  0.1130116E+00
         25   -1    0    0    0    0  0.00000000000E+00  0.00000000000E+00  0.99999998245E-14  0.12500000000E+03  0.12500000000E+03 0.  0.
        -11    1    3    3    0    0 -0.20923954710E+02  0.19205229652E+02 -0.24154304210E+02  0.37283818726E+02  0.51100000000E-03 0.  1.
         23    2    1    0    0    0  0.15768788304E+02 -0.22646212145E+02 -0.15389346981E+01  0.97361730714E+02  0.93356481717E+02 0.  0.
         11    1    3    3    0    0  0.36692743015E+02 -0.41851441797E+02  0.22615369511E+02  0.60077911988E+02  0.51100000000E-03 0. -1.
         22    1    1    0    0    0 -0.15768788304E+02  0.22646212145E+02  0.15389346981E+01  0.27638269286E+02  0.00000000000E+00 0. -1.
</event>
<event>
 5    1  0.3186486E-003  0.9118800E+02  0.7818608E-02  0.1130116E+00
         25   -1    0    0    0    0  0.00000000000E+00  0.00000000000E+00  0.99999998245E-14  0.12500000000E+03  0.12500000000E+03 0.  0.
        -11    1    3    3    0    0  0.11938860426E+02  0.29484625955E+02  0.13400693425E+02  0.34517504842E+02  0.51100000000E-03 0.  1.
         23    2    1    0    0    0  0.39329709838E+01 -0.19211610637E+02 -0.22208087911E+02  0.95373096471E+02  0.90654697163E+02 0.  0.
         11    1    3    3    0    0 -0.80058894423E+01 -0.48696236592E+02 -0.35608781336E+02  0.60855591629E+02  0.51100000000E-03 0. -1.
         22    1    1    0    0    0 -0.39329709838E+01  0.19211610637E+02  0.22208087911E+02  0.29626903529E+02  0.00000000000E+00 0. -1.
</event>
<event>
 5    1  0.3186486E-003  0.9118800E+02  0.7818608E-02  0.1130116E+00
         25   -1    0    0    0    0  0.00000000000E+00  0.00000000000E+00  0.99999998245E-14  0.12500000000E+03  0.12500000000E+03 0.  0.
        -11    1    3    3    0    0 -0.43459920232E+02  0.94390354827E+00 -0.88043837624E+00  0.43479084540E+02  0.51100000000E-03 0.  1.
         23    2    1    0    0    0 -0.30841705821E+01 -0.12492892197E+02  0.27507124299E+02  0.94631820093E+02  0.89626753948E+02 0.  0.
         11    1    3    3    0    0  0.40375749650E+02 -0.13436795745E+02  0.28387562676E+02  0.51152735553E+02  0.51100000000E-03 0. -1.
         22    1    1    0    0    0  0.30841705821E+01  0.12492892197E+02 -0.27507124299E+02  0.30368179907E+02  0.00000000000E+00 0. -1.
</event>
<event>
 5    1  0.3186486E-003  0.9118800E+02  0.7818608E-02  0.1130116E+00
         25   -1    0    0    0    0  0.00000000000E+00  0.00000000000E+00  0.99999998245E-14  0.12500000000E+03  0.12500000000E+03 0.  0.
        -11    1    3    3    0    0 -0.24829939474E+02  0.17054982237E+02 -0.33809932275E+02  0.45282555516E+02  0.51100000000E-03 0. -1.
         23    2    1    0    0    0 -0.12160486658E+02  0.25962593138E+02  0.12210139959E+02  0.93838786994E+02  0.88513822358E+02 0.  0.
         11    1    3    3    0    0  0.12669452816E+02  0.89076109008E+01  0.46020072234E+02  0.48556231477E+02  0.51100000000E-03 0.  1.
         22    1    1    0    0    0  0.12160486658E+02 -0.25962593138E+02 -0.12210139959E+02  0.31161213006E+02  0.00000000000E+00 0. -1.
</event>
<event>
 5    1  0.3186486E-003  0.9118800E+02  0.7818608E-02  0.1130116E+00
         25   -1    0    0    0    0  0.00000000000E+00  0.00000000000E+00  0.99999998245E-14  0.12500000000E+03  0.12500000000E+03 0.  0.
        -11    1    3    3    0    0 -0.12697945501E+02  0.15026107195E+01 -0.50672246429E+02  0.52260618226E+02  0.51100000000E-03 0. -1.
         23    2    1    0    0    0 -0.27707238685E+02  0.61005003874E+01 -0.11634732495E+02  0.94336109498E+02  0.89213381140E+02 0.  0.
         11    1    3    3    0    0 -0.15009293183E+02  0.45978896679E+01  0.39037513935E+02  0.42075491272E+02  0.51100000000E-03 0.  1.
         22    1    1    0    0    0  0.27707238685E+02 -0.61005003874E+01  0.11634732495E+02  0.30663890502E+02  0.00000000000E+00 0. -1.
</event>
<event>
 5    1  0.3186486E-003  0.9118800E+02  0.7818608E-02  0.1130116E+00
         25   -1    0    0    0    0  0.00000000000E+00  0.00000000000E+00  0.99999998245E-14  0.12500000000E+03  0.12500000000E+03 0.  0.
        -11    1    3    3    0    0  0.36146843491E+02 -0.35818840758E+02  0.28627910037E+02  0.58387848744E+02  0.51100000000E-03 0.  1.
         23    2    1    0    0    0  0.86947852153E+01 -0.13794652829E+02  0.26798691722E+02  0.93630243632E+02  0.88218824000E+02 0.  0.
         11    1    3    3    0    0 -0.27452058276E+02  0.22024187929E+02 -0.18292183159E+01  0.35242394888E+02  0.51100000000E-03 0. -1.
         22    1    1    0    0    0 -0.86947852153E+01  0.13794652829E+02 -0.26798691722E+02  0.31369756368E+02  0.00000000000E+00 0.  1.
</event>
<event>
 5    1  0.3186486E-003  0.9118800E+02  0.7818608E-02  0.1130116E+00
         25   -1    0    0    0    0  0.00000000000E+00  0.00000000000E+00  0.99999998245E-14  0.12500000000E+03  0.12500000000E+03 0.  0.
        -11    1    3    3    0    0  0.13075299922E+02  0.23220226126E+02  0.20171800193E+02  0.33422206580E+02  0.51100000000E-03 0.  1.
         23    2    1    0    0    0 -0.83528440116E+01 -0.22776346163E+02 -0.16177445934E+02  0.95841095621E+02  0.91297721249E+02 0.  0.
         11    1    3    3    0    0 -0.21428143933E+02 -0.45996572289E+02 -0.36349246127E+02  0.62418889041E+02  0.51100000000E-03 0. -1.
         22    1    1    0    0    0  0.83528440116E+01  0.22776346163E+02  0.16177445934E+02  0.29158904379E+02  0.00000000000E+00 0. -1.
</event>
<event>
 5    1  0.3186486E-003  0.9118800E+02  0.7818608E-02  0.1130116E+00
         25   -1    0    0    0    0  0.00000000000E+00  0.00000000000E+00  0.99999998245E-14  0.12500000000E+03  0.12500000000E+03 0.  0.
        -11    1    3    3    0    0  0.32532405536E+01 -0.24786495351E+02  0.30875817714E+02  0.39727447006E+02  0.51100000000E-03 0.  1.
         23    2    1    0    0    0 -0.22905887757E+02 -0.92556947868E+01 -0.15968393837E+02  0.95583385959E+02  0.90944194370E+02 0.  0.
         11    1    3    3    0    0 -0.26159128311E+02  0.15530800564E+02 -0.46844211551E+02  0.55855938952E+02  0.51100000000E-03 0. -1.
         22    1    1    0    0    0  0.22905887757E+02  0.92556947868E+01  0.15968393837E+02  0.29416614041E+02  0.00000000000E+00 0. -1.
</event>
<event>
 5    1  0.3186486E-003  0.9118800E+02  0.7818608E-02  0.1130116E+00
         25   -1    0    0    0    0  0.00000000000E+00  0.00000000000E+00  0.99999998245E-14  0.12500000000E+03  0.12500000000E+03 0.  0.
        -11    1    3    3    0    0  0.14452182340E+01 -0.23970661491E+02 -0.27443819843E+02  0.36467033275E+02  0.51100000000E-03 0. -1.
         23    2    1    0    0    0  0.20322180287E+02  0.16242191313E+02  0.12436311501E+02  0.96164923548E+02  0.91740017915E+02 0.  0.
         11    1    3    3    0    0  0.18876962053E+02  0.40212852803E+02  0.39880131343E+02  0.59697890274E+02  0.51100000000E-03 0.  1.
         22    1    1    0    0    0 -0.20322180287E+02 -0.16242191313E+02 -0.12436311501E+02  0.28835076452E+02  0.00000000000E+00 0.  1.
</event>
<event>
 5    1  0.3186486E-003  0.9118800E+02  0.7818608E-02  0.1130116E+00
         25   -1    0    0    0    0  0.00000000000E+00  0.00000000000E+00  0.99999998245E-14  0.12500000000E+03  0.12500000000E+03 0.  0.
        -11    1    3    3    0    0  0.46971310199E+02 -0.35843135049E+02 -0.12337813584E+02  0.60359389959E+02  0.51100000000E-03 0.  1.
         23    2    1    0    0    0  0.32124359881E+02 -0.20392194269E+02  0.31813569362E+01  0.86817057253E+02  0.77969637124E+02 0.  0.
         11    1    3    3    0    0 -0.14846950318E+02  0.15450940780E+02  0.15519170520E+02  0.26457667294E+02  0.51100000000E-03 0. -1.
         22    1    1    0    0    0 -0.32124359881E+02  0.20392194269E+02 -0.31813569362E+01  0.38182942747E+02  0.00000000000E+00 0.  1.
</event>
<event>
 5    1  0.3186486E-003  0.9118800E+02  0.7818608E-02  0.1130116E+00
         25   -1    0    0    0    0  0.00000000000E+00  0.00000000000E+00  0.99999998245E-14  0.12500000000E+03  0.12500000000E+03 0.  0.
        -11    1    3    3    0    0 -0.15150680475E+02  0.30412167930E+02 -0.76607673079E+01  0.34830022008E+02  0.51100000000E-03 0.  1.
         23    2    1    0    0    0  0.12290590347E+02 -0.22901334516E+02 -0.14596061310E+02  0.95191029211E+02  0.90403303606E+02 0.  0.
         11    1    3    3    0    0  0.27441270822E+02 -0.53313502446E+02 -0.69352940020E+01  0.60361007203E+02  0.51100000000E-03 0. -1.
         22    1    1    0    0    0 -0.12290590347E+02  0.22901334516E+02  0.14596061310E+02  0.29808970789E+02  0.00000000000E+00 0. -1.
</event>
<event>
 5    1  0.3186486E-003  0.9118800E+02  0.7818608E-02  0.1130116E+00
         25   -1    0    0    0    0  0.00000000000E+00  0.00000000000E+00  0.99999998245E-14  0.12500000000E+03  0.12500000000E+03 0.  0.
        -11    1    3    3    0    0 -0.17444128189E+02  0.26793344494E+02 -0.85068999206E+01  0.33083957804E+02  0.51100000000E-03 0.  1.
         23    2    1    0    0    0  0.19124408736E+02 -0.22489040648E+02  0.22731743496E+01  0.95391432314E+02  0.90679976171E+02 0.  0.
         11    1    3    3    0    0  0.36568536925E+02 -0.49282385143E+02  0.10780074270E+02  0.62307474510E+02  0.51100000000E-03 0. -1.
         22    1    1    0    0    0 -0.19124408736E+02  0.22489040648E+02 -0.22731743496E+01  0.29608567686E+02  0.00000000000E+00 0. -1.
</event>
<event>
 5    1  0.3186486E-003  0.9118800E+02  0.7818608E-02  0.1130116E+00
         25   -1    0    0    0    0  0.00000000000E+00  0.00000000000E+00  0.99999998245E-14  0.12500000000E+03  0.12500000000E+03 0.  0.
        -11    1    3    3    0    0 -0.34474733086E+02  0.10717848528E+02  0.13445364707E+02  0.38524762566E+02  0.51100000000E-03 0.  1.
         23    2    1    0    0    0  0.15402980027E+02  0.20873950319E+02 -0.13106893258E+02  0.95935171659E+02  0.91426434442E+02 0.  0.
         11    1    3    3    0    0  0.49877713112E+02  0.10156101791E+02 -0.26552257965E+02  0.57410409093E+02  0.51100000000E-03 0. -1.
         22    1    1    0    0    0 -0.15402980027E+02 -0.20873950319E+02  0.13106893258E+02  0.29064828341E+02  0.00000000000E+00 0. -1.
</event>
<event>
 5    1  0.3186486E-003  0.9118800E+02  0.7818608E-02  0.1130116E+00
         25   -1    0    0    0    0  0.00000000000E+00  0.00000000000E+00  0.99999998245E-14  0.12500000000E+03  0.12500000000E+03 0.  0.
        -11    1    3    3    0    0 -0.34867727182E+02  0.25856496349E+02  0.15769695749E+02  0.46184414108E+02  0.51100000000E-03 0.  1.
         23    2    1    0    0    0  0.13494512532E+02  0.21225151052E+02  0.16756055982E+02  0.94777916721E+02  0.89830279863E+02 0.  0.
         11    1    3    3    0    0  0.48362239714E+02 -0.46313452967E+01  0.98636023279E+00  0.48593502613E+02  0.51100000000E-03 0. -1.
         22    1    1    0    0    0 -0.13494512532E+02 -0.21225151052E+02 -0.16756055982E+02  0.30222083279E+02  0.00000000000E+00 0. -1.
</event>
<event>
 5    1  0.3186486E-003  0.9118800E+02  0.7818608E-02  0.1130116E+00
         25   -1    0    0    0    0  0.00000000000E+00  0.00000000000E+00  0.99999998245E-14  0.12500000000E+03  0.12500000000E+03 0.  0.
        -11    1    3    3    0    0  0.23985911421E+02  0.23947645534E+02  0.31425416075E+02  0.46220887584E+02  0.51100000000E-03 0. -1.
         23    2    1    0    0    0  0.16636656256E+02  0.13641005413E+02 -0.17818133762E+02  0.97065411211E+02  0.92958876944E+02 0.  0.
         11    1    3    3    0    0 -0.73492551645E+01 -0.10306640120E+02 -0.49243549837E+02  0.50844523627E+02  0.51100000000E-03 0.  1.
         22    1    1    0    0    0 -0.16636656256E+02 -0.13641005413E+02  0.17818133762E+02  0.27934588789E+02  0.00000000000E+00 0. -1.
</event>
<event>
 5    1  0.3186486E-003  0.9118800E+02  0.7818608E-02  0.1130116E+00
         25   -1    0    0    0    0  0.00000000000E+00  0.00000000000E+00  0.99999998245E-14  0.12500000000E+03  0.12500000000E+03 0.  0.
        -11    1    3    3    0    0 -0.88653880959E+01 -0.34841219373E+02  0.20735396061E+02  0.41502558037E+02  0.51100000000E-03 0.  1.
         23    2    1    0    0    0 -0.23505701757E+02  0.15328122380E+02  0.26155428278E+01  0.96816486821E+02  0.92623548330E+02 0.  0.
         11    1    3    3    0    0 -0.14640313662E+02  0.50169341754E+02 -0.18119853233E+02  0.55313928784E+02  0.51100000000E-03 0. -1.
         22    1    1    0    0    0  0.23505701757E+02 -0.15328122380E+02 -0.26155428278E+01  0.28183513179E+02  0.00000000000E+00 0.  1.
</event>
<event>
 5    1  0.3186486E-003  0.9118800E+02  0.7818608E-02  0.1130116E+00
         25   -1    0    0    0    0  0.00000000000E+00  0.00000000000E+00  0.99999998245E-14  0.12500000000E+03  0.12500000000E+03 0.  0.
        -11    1    3    3    0    0 -0.18426860689E+02 -0.44543819767E+02 -0.31333589421E+02  0.57493433543E+02  0.51100000000E-03 0.  1.
         23    2    1    0    0    0 -0.22810996541E+02 -0.10133361485E+02 -0.15442404885E+02  0.95648774356E+02  0.91034024348E+02 0.  0.
         11    1    3    3    0    0 -0.43841358520E+01  0.34410458282E+02  0.15891184536E+02  0.38155340813E+02  0.51100000000E-03 0. -1.
         22    1    1    0    0    0  0.22810996541E+02  0.10133361485E+02  0.15442404885E+02  0.29351225644E+02  0.00000000000E+00 0.  1.
</event>
<event>
 5    1  0.3186486E-003  0.9118800E+02  0.7818608E-02  0.1130116E+00
         25   -1    0    0    0    0  0.00000000000E+00  0.00000000000E+00  0.99999998245E-14  0.12500000000E+03  0.12500000000E+03 0.  0.
        -11    1    3    3    0    0 -0.17948038124E+01 -0.31058895231E+02  0.19813668187E+02  0.36884383429E+02  0.51100000000E-03 0. -1.
         23    2    1    0    0    0 -0.26839468029E+02  0.12689177697E+02 -0.77219560295E+01  0.94324262362E+02  0.89196780158E+02 0.  0.
         11    1    3    3    0    0 -0.25044664216E+02  0.43748072928E+02 -0.27535624216E+02  0.57439878933E+02  0.51100000000E-03 0.  1.
         22    1    1    0    0    0  0.26839468029E+02 -0.12689177697E+02  0.77219560295E+01  0.30675737638E+02  0.00000000000E+00 0.  1.
</event>
<event>
 5    1  0.3186486E-003  0.9118800E+02  0.7818608E-02  0.1130116E+00
         25   -1    0    0    0    0  0.00000000000E+00  0.00000000000E+00  0.99999998245E-14  0.12500000000E+03  0.12500000000E+03 0.  0.
        -11    1    3    3    0    0  0.10549147402E+02  0.20686937129E+02 -0.23931483357E+02  0.33345910913E+02  0.51100000000E-03 0. -1.
         23    2    1    0    0    0 -0.16402520046E+02 -0.72483510198E+01  0.24010285227E+02  0.95032099622E+02  0.90183285067E+02 0.  0.
         11    1    3    3    0    0 -0.26951667448E+02 -0.27935288149E+02  0.47941768584E+02  0.61686188709E+02  0.51100000000E-03 0.  1.
         22    1    1    0    0    0  0.16402520046E+02  0.72483510198E+01 -0.24010285227E+02  0.29967900378E+02  0.00000000000E+00 0.  1.
</event>
<event>
 5    1  0.3186486E-003  0.9118800E+02  0.7818608E-02  0.1130116E+00
         25   -1    0    0    0    0  0.00000000000E+00  0.00000000000E+00  0.99999998245E-14  0.12500000000E+03  0.12500000000E+03 0.  0.
        -11    1    3    3    0    0  0.11725118209E+02  0.19138248009E+02 -0.24710407581E+02  0.33381958854E+02  0.51100000000E-03 0.  1.
         23    2    1    0    0    0 -0.13738626451E+02 -0.16806399009E+02  0.19520745559E+02  0.95806432017E+02  0.91250249338E+02 0.  0.
         11    1    3    3    0    0 -0.25463744659E+02 -0.35944647018E+02  0.44231153140E+02  0.62424473163E+02  0.51100000000E-03 0. -1.
         22    1    1    0    0    0  0.13738626451E+02  0.16806399009E+02 -0.19520745559E+02  0.29193567983E+02  0.00000000000E+00 0. -1.
</event>
<event>
 5    1  0.3186486E-003  0.9118800E+02  0.7818608E-02  0.1130116E+00
         25   -1    0    0    0    0  0.00000000000E+00  0.00000000000E+00  0.99999998245E-14  0.12500000000E+03  0.12500000000E+03 0.  0.
        -11    1    3    3    0    0 -0.17736629261E+02  0.28877908293E+02  0.32380822927E+02  0.46872585790E+02  0.51100000000E-03 0.  1.
         23    2    1    0    0    0 -0.15989954461E+02 -0.17007995409E+02  0.19550455623E+02  0.94550519436E+02  0.89513294315E+02 0.  0.
         11    1    3    3    0    0  0.17466747991E+01 -0.45885903702E+02 -0.12830367304E+02  0.47677933647E+02  0.51100000000E-03 0. -1.
         22    1    1    0    0    0  0.15989954461E+02  0.17007995409E+02 -0.19550455623E+02  0.30449480564E+02  0.00000000000E+00 0.  1.
</event>
<event>
 5    1  0.3186486E-003  0.9118800E+02  0.7818608E-02  0.1130116E+00
         25   -1    0    0    0    0  0.00000000000E+00  0.00000000000E+00  0.99999998245E-14  0.12500000000E+03  0.12500000000E+03 0.  0.
        -11    1    3    3    0    0 -0.15280858880E+02  0.19595838004E+02  0.18320689566E+02  0.30873114220E+02  0.51100000000E-03 0.  1.
         23    2    1    0    0    0  0.47821652035E+01 -0.32492585237E+02 -0.57450197534E+01  0.91658697515E+02  0.85379589942E+02 0.  0.
         11    1    3    3    0    0  0.20063024083E+02 -0.52088423242E+02 -0.24065709319E+02  0.60785583295E+02  0.51100000000E-03 0. -1.
         22    1    1    0    0    0 -0.47821652035E+01  0.32492585237E+02  0.57450197534E+01  0.33341302485E+02  0.00000000000E+00 0. -1.
</event>
<event>
 5    1  0.3186486E-003  0.9118800E+02  0.7818608E-02  0.1130116E+00
         25   -1    0    0    0    0  0.00000000000E+00  0.00000000000E+00  0.99999998245E-14  0.12500000000E+03  0.12500000000E+03 0.  0.
        -11    1    3    3    0    0  0.32080380728E+02 -0.35935468856E+02  0.29242400764E+02  0.56352699600E+02  0.51100000000E-03 0.  1.
         23    2    1    0    0    0 -0.19983740984E-01 -0.25486443693E+02  0.25546683902E+01  0.99385833176E+02  0.96028424407E+02 0.  0.
         11    1    3    3    0    0 -0.32100364469E+02  0.10449025163E+02 -0.26687732373E+02  0.43033133576E+02  0.51100000000E-03 0. -1.
         22    1    1    0    0    0  0.19983740984E-01  0.25486443693E+02 -0.25546683902E+01  0.25614166824E+02  0.00000000000E+00 0.  1.
</event>
<event>
 5    1  0.3186486E-003  0.9118800E+02  0.7818608E-02  0.1130116E+00
         25   -1    0    0    0    0  0.00000000000E+00  0.00000000000E+00  0.99999998245E-14  0.12500000000E+03  0.12500000000E+03 0.  0.
        -11    1    3    3    0    0 -0.22668720583E+01  0.12854477633E+02 -0.58951286549E+02  0.60379056718E+02  0.51100000000E-03 0.  1.
         23    2    1    0    0    0  0.59281934157E+01 -0.31409755646E+01 -0.28342592275E+02  0.95874208311E+02  0.91343046138E+02 0.  0.
         11    1    3    3    0    0  0.81950654740E+01 -0.15995453198E+02  0.30608694274E+02  0.35495151592E+02  0.51100000000E-03 0. -1.
         22    1    1    0    0    0 -0.59281934157E+01  0.31409755646E+01  0.28342592275E+02  0.29125791689E+02  0.00000000000E+00 0.  1.
</event>
<event>
 5    1  0.3186486E-003  0.9118800E+02  0.7818608E-02  0.1130116E+00
         25   -1    0    0    0    0  0.00000000000E+00  0.00000000000E+00  0.99999998245E-14  0.12500000000E+03  0.12500000000E+03 0.  0.
        -11    1    3    3    0    0  0.36299070524E+02  0.16377369526E+02 -0.38523401973E+02  0.55406617414E+02  0.51100000000E-03 0.  1.
         23    2    1    0    0    0  0.44877715120E+00  0.50794772580E+01 -0.30800598607E+02  0.93780144704E+02  0.88430968422E+02 0.  0.
         11    1    3    3    0    0 -0.35850293373E+02 -0.11297892268E+02  0.77228033658E+01  0.38373527290E+02  0.51100000000E-03 0. -1.
         22    1    1    0    0    0 -0.44877715120E+00 -0.50794772580E+01  0.30800598607E+02  0.31219855296E+02  0.00000000000E+00 0.  1.
</event>
<event>
 5    1  0.3186486E-003  0.9118800E+02  0.7818608E-02  0.1130116E+00
         25   -1    0    0    0    0  0.00000000000E+00  0.00000000000E+00  0.99999998245E-14  0.12500000000E+03  0.12500000000E+03 0.  0.
        -11    1    3    3    0    0  0.23023724219E+02 -0.32310579130E+02  0.21117996244E+02  0.44944801326E+02  0.51100000000E-03 0.  1.
         23    2    1    0    0    0 -0.16945419262E+02 -0.12504404134E+01  0.23940875030E+02  0.95642269631E+02  0.91025092188E+02 0.  0.
         11    1    3    3    0    0 -0.39969143481E+02  0.31060138716E+02  0.28228787854E+01  0.50697468305E+02  0.51100000000E-03 0. -1.
         22    1    1    0    0    0  0.16945419262E+02  0.12504404134E+01 -0.23940875030E+02  0.29357730369E+02  0.00000000000E+00 0. -1.
</event>
<event>
 5    1  0.3186486E-003  0.9118800E+02  0.7818608E-02  0.1130116E+00
         25   -1    0    0    0    0  0.00000000000E+00  0.00000000000E+00  0.99999998245E-14  0.12500000000E+03  0.12500000000E+03 0.  0.
        -11    1    3    3    0    0 -0.32750967544E+02  0.16858842102E+02 -0.76383804392E+01  0.37619028271E+02  0.51100000000E-03 0. -1.
         23    2    1    0    0    0  0.97249913330E+00 -0.18356130233E+02  0.23267751484E+02  0.95347318320E+02  0.90619145770E+02 0.  0.
         11    1    3    3    0    0  0.33723466677E+02 -0.35214972335E+02  0.30906131923E+02  0.57728290049E+02  0.51100000000E-03 0.  1.
         22    1    1    0    0    0 -0.97249913330E+00  0.18356130233E+02 -0.23267751484E+02  0.29652681680E+02  0.00000000000E+00 0.  1.
</event>
<event>
 5    1  0.3186486E-003  0.9118800E+02  0.7818608E-02  0.1130116E+00
         25   -1    0    0    0    0  0.00000000000E+00  0.00000000000E+00  0.99999998245E-14  0.12500000000E+03  0.12500000000E+03 0.  0.
        -11    1    3    3    0    0 -0.14345009730E+02 -0.32694830005E+02 -0.10234763989E+02  0.37141373256E+02  0.51100000000E-03 0. -1.
         23    2    1    0    0    0  0.15859179340E+02  0.17233296879E+02 -0.17247151111E+02  0.95914534349E+02  0.91398214355E+02 0.  0.
         11    1    3    3    0    0  0.30204189070E+02  0.49928126884E+02 -0.70123871224E+01  0.58773161093E+02  0.51100000000E-03 0.  1.
         22    1    1    0    0    0 -0.15859179340E+02 -0.17233296879E+02  0.17247151111E+02  0.29085465651E+02  0.00000000000E+00 0.  1.
</event>
<event>
 5    1  0.3186486E-003  0.9118800E+02  0.7818608E-02  0.1130116E+00
         25   -1    0    0    0    0  0.00000000000E+00  0.00000000000E+00  0.99999998245E-14  0.12500000000E+03  0.12500000000E+03 0.  0.
        -11    1    3    3    0    0  0.24113266531E+02 -0.18512666046E+01 -0.20477009559E+02  0.31688873940E+02  0.51100000000E-03 0. -1.
         23    2    1    0    0    0 -0.27860534858E+02 -0.76424381568E+01 -0.28291027525E+02  0.84564885286E+02  0.74271268479E+02 0.  0.
         11    1    3    3    0    0 -0.51973801389E+02 -0.57911715521E+01 -0.78140179652E+01  0.52876011346E+02  0.51100000000E-03 0.  1.
         22    1    1    0    0    0  0.27860534858E+02  0.76424381568E+01  0.28291027525E+02  0.40435114714E+02  0.00000000000E+00 0.  1.
</event>
<event>
 5    1  0.3186486E-003  0.9118800E+02  0.7818608E-02  0.1130116E+00
         25   -1    0    0    0    0  0.00000000000E+00  0.00000000000E+00  0.99999998245E-14  0.12500000000E+03  0.12500000000E+03 0.  0.
        -11    1    3    3    0    0  0.12008152995E+02 -0.31416353961E+02 -0.44009129471E+02  0.55389407937E+02  0.51100000000E-03 0.  1.
         23    2    1    0    0    0  0.14109117555E+02  0.45259915526E+01 -0.24575667301E+02  0.96303045092E+02  0.91928022240E+02 0.  0.
         11    1    3    3    0    0  0.21009645596E+01  0.35942345514E+02  0.19433462170E+02  0.40913637155E+02  0.51100000000E-03 0. -1.
         22    1    1    0    0    0 -0.14109117555E+02 -0.45259915526E+01  0.24575667301E+02  0.28696954908E+02  0.00000000000E+00 0. -1.
</event>
<event>
 5    1  0.3186486E-003  0.9118800E+02  0.7818608E-02  0.1130116E+00
         25   -1    0    0    0    0  0.00000000000E+00  0.00000000000E+00  0.99999998245E-14  0.12500000000E+03  0.12500000000E+03 0.  0.
        -11    1    3    3    0    0  0.36041357280E+02 -0.21533744349E+02  0.90522182674E+01  0.42949088885E+02  0.51100000000E-03 0.  1.
         23    2    1    0    0    0  0.93947598800E+01  0.23864206397E+02 -0.77529066709E+01  0.98206914660E+02  0.94481366761E+02 0.  0.
         11    1    3    3    0    0 -0.26646597400E+02  0.45397950746E+02 -0.16805124938E+02  0.55257825775E+02  0.51100000000E-03 0. -1.
         22    1    1    0    0    0 -0.93947598800E+01 -0.23864206397E+02  0.77529066709E+01  0.26793085340E+02  0.00000000000E+00 0.  1.
</event>
<event>
 5    1  0.3186486E-003  0.9118800E+02  0.7818608E-02  0.1130116E+00
         25   -1    0    0    0    0  0.00000000000E+00  0.00000000000E+00  0.99999998245E-14  0.12500000000E+03  0.12500000000E+03 0.  0.
        -11    1    3    3    0    0 -0.42186777078E+02  0.10662008947E+02  0.27651942675E+01  0.43601019422E+02  0.51100000000E-03 0. -1.
         23    2    1    0    0    0 -0.79584569021E+01 -0.28187293877E+02 -0.22742814541E+01  0.95622577912E+02  0.90998046562E+02 0.  0.
         11    1    3    3    0    0  0.34228320176E+02 -0.38849302824E+02 -0.50394757215E+01  0.52021558491E+02  0.51100000000E-03 0.  1.
         22    1    1    0    0    0  0.79584569021E+01  0.28187293877E+02  0.22742814541E+01  0.29377422088E+02  0.00000000000E+00 0. -1.
</event>
<event>
 5    1  0.3186486E-003  0.9118800E+02  0.7818608E-02  0.1130116E+00
         25   -1    0    0    0    0  0.00000000000E+00  0.00000000000E+00  0.99999998245E-14  0.12500000000E+03  0.12500000000E+03 0.  0.
        -11    1    3    3    0    0  0.26466031161E+02  0.15445165890E+02 -0.15890210915E+02  0.34518151138E+02  0.51100000000E-03 0. -1.
         23    2    1    0    0    0 -0.19324306141E+02 -0.22446379147E+02 -0.62306141894E+01  0.94733032893E+02  0.89767801707E+02 0.  0.
         11    1    3    3    0    0 -0.45790337303E+02 -0.37891545037E+02  0.96595967259E+01  0.60214881755E+02  0.51100000000E-03 0.  1.
         22    1    1    0    0    0  0.19324306141E+02  0.22446379147E+02  0.62306141894E+01  0.30266967107E+02  0.00000000000E+00 0.  1.
</event>
<event>
 5    1  0.3186486E-003  0.9118800E+02  0.7818608E-02  0.1130116E+00
         25   -1    0    0    0    0  0.00000000000E+00  0.00000000000E+00  0.99999998245E-14  0.12500000000E+03  0.12500000000E+03 0.  0.
        -11    1    3    3    0    0  0.44492094695E+02 -0.20067178985E+01  0.43765894892E+02  0.62442188967E+02  0.51100000000E-03 0.  1.
         23    2    1    0    0    0  0.21994311488E+02 -0.23230014862E+01  0.19794647040E+02  0.95318791717E+02  0.90579787641E+02 0.  0.
         11    1    3    3    0    0 -0.22497783207E+02 -0.31628358773E+00 -0.23971247852E+02  0.32876602750E+02  0.51100000000E-03 0. -1.
         22    1    1    0    0    0 -0.21994311488E+02  0.23230014862E+01 -0.19794647040E+02  0.29681208283E+02  0.00000000000E+00 0.  1.
</event>
<event>
 4    1  0.3186486E-003  0.9118800E+02  0.7818608E-02  0.1130116E+00
         25   -1    0    0    0    0  0.00000000000E+00  0.00000000000E+00  0.99999998245E-14  0.12500000000E+03  0.12500000000E+03 0.  0.
        -11    1    1    0    0    0  0.27548975956E+02 -0.18681096801E+01 -0.57274958793E+01  0.28200002115E+02  0.51100000000E-03 0. -1.
         11    1    1    0    0    0  0.24532559740E+01 -0.17066739963E+02  0.42402074102E+02  0.45773660180E+02  0.51100000000E-03 0.  1.
         22    1    1    0    0    0 -0.30002231930E+02  0.18934849643E+02 -0.36674578223E+02  0.51026337705E+02  0.00000000000E+00 0. -1.
</event>
<event>
 5    1  0.3186486E-003  0.9118800E+02  0.7818608E-02  0.1130116E+00
         25   -1    0    0    0    0  0.00000000000E+00  0.00000000000E+00  0.99999998245E-14  0.12500000000E+03  0.12500000000E+03 0.  0.
        -11    1    3    3    0    0 -0.37563659333E+02  0.22586771295E+01 -0.10670577771E+01  0.37646629828E+02  0.51100000000E-03 0.  1.
         23    2    1    0    0    0  0.17296847473E+02  0.13397329449E+02  0.17878601171E+02  0.96745553470E+02  0.92527770791E+02 0.  0.
         11    1    3    3    0    0  0.54860506806E+02  0.11138652319E+02  0.18945658948E+02  0.59098923643E+02  0.51100000000E-03 0. -1.
         22    1    1    0    0    0 -0.17296847473E+02 -0.13397329449E+02 -0.17878601171E+02  0.28254446530E+02  0.00000000000E+00 0. -1.
</event>
<event>
 5    1  0.3186486E-003  0.9118800E+02  0.7818608E-02  0.1130116E+00
         25   -1    0    0    0    0  0.00000000000E+00  0.00000000000E+00  0.99999998245E-14  0.12500000000E+03  0.12500000000E+03 0.  0.
        -11    1    3    3    0    0  0.33416902497E+02 -0.12126021972E+02  0.69845603806E+01  0.36228633224E+02  0.51100000000E-03 0.  1.
         23    2    1    0    0    0 -0.16328885516E+02 -0.17137727312E+01 -0.24125234239E+02  0.95817874542E+02  0.91265922641E+02 0.  0.
         11    1    3    3    0    0 -0.49745788013E+02  0.10412249240E+02 -0.31109794619E+02  0.59589241318E+02  0.51100000000E-03 0. -1.
         22    1    1    0    0    0  0.16328885516E+02  0.17137727312E+01  0.24125234239E+02  0.29182125458E+02  0.00000000000E+00 0. -1.
</event>
<event>
 5    1  0.3186486E-003  0.9118800E+02  0.7818608E-02  0.1130116E+00
         25   -1    0    0    0    0  0.00000000000E+00  0.00000000000E+00  0.99999998245E-14  0.12500000000E+03  0.12500000000E+03 0.  0.
        -11    1    3    3    0    0 -0.42599822771E+02 -0.17726829811E+02  0.65918313961E+01  0.46609415751E+02  0.51100000000E-03 0. -1.
         23    2    1    0    0    0 -0.23632190780E+01 -0.15247820201E+01  0.29296710840E+02  0.95568604676E+02  0.90923875682E+02 0.  0.
         11    1    3    3    0    0  0.40236603693E+02  0.16202047791E+02  0.22704879444E+02  0.48959188925E+02  0.51100000000E-03 0.  1.
         22    1    1    0    0    0  0.23632190780E+01  0.15247820201E+01 -0.29296710840E+02  0.29431395324E+02  0.00000000000E+00 0.  1.
</event>
<event>
 5    1  0.3186486E-003  0.9118800E+02  0.7818608E-02  0.1130116E+00
         25   -1    0    0    0    0  0.00000000000E+00  0.00000000000E+00  0.99999998245E-14  0.12500000000E+03  0.12500000000E+03 0.  0.
        -11    1    3    3    0    0  0.34102316514E+02 -0.23939775794E+02 -0.98936319167E+01  0.42824815347E+02  0.51100000000E-03 0.  1.
         23    2    1    0    0    0  0.11427693588E+02  0.12889999637E+02  0.22357558863E+02  0.96775813392E+02  0.92568641278E+02 0.  0.
         11    1    3    3    0    0 -0.22674622927E+02  0.36829775431E+02  0.32251190779E+02  0.53950998045E+02  0.51100000000E-03 0. -1.
         22    1    1    0    0    0 -0.11427693588E+02 -0.12889999637E+02 -0.22357558863E+02  0.28224186608E+02  0.00000000000E+00 0. -1.
</event>
<event>
 5    1  0.3186486E-003  0.9118800E+02  0.7818608E-02  0.1130116E+00
         25   -1    0    0    0    0  0.00000000000E+00  0.00000000000E+00  0.99999998245E-14  0.12500000000E+03  0.12500000000E+03 0.  0.
        -11    1    3    3    0    0 -0.19466928837E+02 -0.18998824230E+02  0.23026184449E+02  0.35638768371E+02  0.51100000000E-03 0.  1.
         23    2    1    0    0    0  0.20640987622E+01  0.24931289753E+02 -0.13388330577E+02  0.96626119263E+02  0.92366280729E+02 0.  0.
         11    1    3    3    0    0  0.21531027600E+02  0.43930113983E+02 -0.36414515025E+02  0.60987350892E+02  0.51100000000E-03 0. -1.
         22    1    1    0    0    0 -0.20640987622E+01 -0.24931289753E+02  0.13388330577E+02  0.28373880737E+02  0.00000000000E+00 0. -1.
</event>
<event>
 5    1  0.3186486E-003  0.9118800E+02  0.7818608E-02  0.1130116E+00
         25   -1    0    0    0    0  0.00000000000E+00  0.00000000000E+00  0.99999998245E-14  0.12500000000E+03  0.12500000000E+03 0.  0.
        -11    1    3    3    0    0  0.95166329490E+01 -0.34239820356E+02  0.18984530632E+02  0.40290743407E+02  0.51100000000E-03 0.  1.
         23    2    1    0    0    0  0.16989720234E+02 -0.88757165001E-01 -0.23936092031E+02  0.95647061932E+02  0.91031672967E+02 0.  0.
         11    1    3    3    0    0  0.74730872852E+01  0.34151063191E+02 -0.42920622663E+02  0.55356318526E+02  0.51100000000E-03 0. -1.
         22    1    1    0    0    0 -0.16989720234E+02  0.88757165001E-01  0.23936092031E+02  0.29352938068E+02  0.00000000000E+00 0.  1.
</event>
<event>
 5    1  0.3186486E-003  0.9118800E+02  0.7818608E-02  0.1130116E+00
         25   -1    0    0    0    0  0.00000000000E+00  0.00000000000E+00  0.99999998245E-14  0.12500000000E+03  0.12500000000E+03 0.  0.
        -11    1    3    3    0    0 -0.28161862898E+02  0.17624315389E+02 -0.10356769903E+02  0.34798989898E+02  0.51100000000E-03 0.  1.
         23    2    1    0    0    0  0.65566504090E+01  0.12021978379E+02  0.32201739711E+02  0.90007576975E+02  0.82927041692E+02 0.  0.
         11    1    3    3    0    0  0.34718513307E+02 -0.56023370098E+01  0.42558509614E+02  0.55208587077E+02  0.51100000000E-03 0. -1.
         22    1    1    0    0    0 -0.65566504090E+01 -0.12021978379E+02 -0.32201739711E+02  0.34992423025E+02  0.00000000000E+00 0. -1.
</event>
<event>
 5    1  0.3186486E-003  0.9118800E+02  0.7818608E-02  0.1130116E+00
         25   -1    0    0    0    0  0.00000000000E+00  0.00000000000E+00  0.99999998245E-14  0.12500000000E+03  0.12500000000E+03 0.  0.
        -11    1    3    3    0    0  0.38628119072E+02  0.24878462259E+01 -0.26894131693E+02  0.47134014063E+02  0.51100000000E-03 0.  1.
         23    2    1    0    0    0 -0.58765275936E+01  0.20640524016E+02 -0.19952346618E+02  0.95697083016E+02  0.91100333446E+02 0.  0.
         11    1    3    3    0    0 -0.44504646666E+02  0.18152677790E+02  0.69417850749E+01  0.48563068953E+02  0.51100000000E-03 0. -1.
         22    1    1    0    0    0  0.58765275936E+01 -0.20640524016E+02  0.19952346618E+02  0.29302916984E+02  0.00000000000E+00 0.  1.
</event>
<event>
 5    1  0.3186486E-003  0.9118800E+02  0.7818608E-02  0.1130116E+00
         25   -1    0    0    0    0  0.00000000000E+00  0.00000000000E+00  0.99999998245E-14  0.12500000000E+03  0.12500000000E+03 0.  0.
        -11    1    3    3    0    0  0.24424367377E+02  0.16730896781E+02  0.10629374006E+02  0.31455623041E+02  0.51100000000E-03 0.  1.
         23    2    1    0    0    0 -0.28665713634E+02 -0.65319938718E+01 -0.11404043063E+02  0.93465221100E+02  0.87984687730E+02 0.  0.
         11    1    3    3    0    0 -0.53090081012E+02 -0.23262890653E+02 -0.22033417069E+02  0.62009598058E+02  0.51100000000E-03 0. -1.
         22    1    1    0    0    0  0.28665713634E+02  0.65319938718E+01  0.11404043063E+02  0.31534778900E+02  0.00000000000E+00 0. -1.
</event>
<event>
 5    1  0.3186486E-003  0.9118800E+02  0.7818608E-02  0.1130116E+00
         25   -1    0    0    0    0  0.00000000000E+00  0.00000000000E+00  0.99999998245E-14  0.12500000000E+03  0.12500000000E+03 0.  0.
        -11    1    3    3    0    0  0.65600082788E+01  0.19026633573E+02  0.36786537578E+02  0.41932038360E+02  0.51100000000E-03 0. -1.
         23    2    1    0    0    0 -0.16563809954E+02  0.23972281094E+02 -0.98673354126E+01  0.94236476645E+02  0.89073672661E+02 0.  0.
         11    1    3    3    0    0 -0.23123818233E+02  0.49456475215E+01 -0.46653872991E+02  0.52304438286E+02  0.51100000000E-03 0.  1.
         22    1    1    0    0    0  0.16563809954E+02 -0.23972281094E+02  0.98673354126E+01  0.30763523355E+02  0.00000000000E+00 0.  1.
</event>
<event>
 5    1  0.3186486E-003  0.9118800E+02  0.7818608E-02  0.1130116E+00
         25   -1    0    0    0    0  0.00000000000E+00  0.00000000000E+00  0.99999998245E-14  0.12500000000E+03  0.12500000000E+03 0.  0.
        -11    1    3    3    0    0 -0.38786366025E+02  0.11910389352E+01 -0.28148155242E+02  0.47938704686E+02  0.51100000000E-03 0.  1.
         23    2    1    0    0    0 -0.15816657266E+02  0.22743655308E+02  0.82706670455E+01  0.96089025661E+02  0.91636545195E+02 0.  0.
         11    1    3    3    0    0  0.22969708759E+02  0.21552616373E+02  0.36418822287E+02  0.48150320975E+02  0.51100000000E-03 0. -1.
         22    1    1    0    0    0  0.15816657266E+02 -0.22743655308E+02 -0.82706670455E+01  0.28910974339E+02  0.00000000000E+00 0. -1.
</event>
<event>
 5    1  0.3186486E-003  0.9118800E+02  0.7818608E-02  0.1130116E+00
         25   -1    0    0    0    0  0.00000000000E+00  0.00000000000E+00  0.99999998245E-14  0.12500000000E+03  0.12500000000E+03 0.  0.
        -11    1    3    3    0    0  0.12749827349E+02  0.55351214678E+01 -0.33860315773E+02  0.36602139986E+02  0.51100000000E-03 0.  1.
         23    2    1    0    0    0  0.96821792853E+01 -0.19854562443E+02  0.19346518142E+02  0.95636144502E+02  0.91016680479E+02 0.  0.
         11    1    3    3    0    0 -0.30676480633E+01 -0.25389683910E+02  0.53206833914E+02  0.59034004516E+02  0.51100000000E-03 0. -1.
         22    1    1    0    0    0 -0.96821792853E+01  0.19854562443E+02 -0.19346518142E+02  0.29363855498E+02  0.00000000000E+00 0. -1.
</event>
<event>
 5    1  0.3186486E-003  0.9118800E+02  0.7818608E-02  0.1130116E+00
         25   -1    0    0    0    0  0.00000000000E+00  0.00000000000E+00  0.99999998245E-14  0.12500000000E+03  0.12500000000E+03 0.  0.
        -11    1    3    3    0    0  0.14344551995E+02 -0.51289973007E+02 -0.49546989129E+01  0.53488097224E+02  0.51100000000E-03 0. -1.
         23    2    1    0    0    0  0.23466747988E+02 -0.49202738778E+01  0.15917027389E+00  0.10102245443E+03  0.98135689780E+02 0.  0.
         11    1    3    3    0    0  0.91221959933E+01  0.46369699130E+02  0.51138691868E+01  0.47534357211E+02  0.51100000000E-03 0.  1.
         22    1    1    0    0    0 -0.23466747988E+02  0.49202738778E+01 -0.15917027389E+00  0.23977545566E+02  0.00000000000E+00 0. -1.
</event>
<event>
 5    1  0.3186486E-003  0.9118800E+02  0.7818608E-02  0.1130116E+00
         25   -1    0    0    0    0  0.00000000000E+00  0.00000000000E+00  0.99999998245E-14  0.12500000000E+03  0.12500000000E+03 0.  0.
        -11    1    3    3    0    0  0.59230323837E+01 -0.27522288944E+01  0.35323429409E+02  0.35922162267E+02  0.51100000000E-03 0. -1.
         23    2    1    0    0    0 -0.15293232919E+02 -0.12859261604E+02 -0.20428279245E+02  0.96424517938E+02  0.92093047971E+02 0.  0.
         11    1    3    3    0    0 -0.21216265303E+02 -0.10107032710E+02 -0.55751708654E+02  0.60502355671E+02  0.51100000000E-03 0.  1.
         22    1    1    0    0    0  0.15293232919E+02  0.12859261604E+02  0.20428279245E+02  0.28575482062E+02  0.00000000000E+00 0.  1.
</event>
<event>
 5    1  0.3186486E-003  0.9118800E+02  0.7818608E-02  0.1130116E+00
         25   -1    0    0    0    0  0.00000000000E+00  0.00000000000E+00  0.99999998245E-14  0.12500000000E+03  0.12500000000E+03 0.  0.
        -11    1    3    3    0    0 -0.12680322655E+02  0.21054437092E+01  0.45263220316E+02  0.47052976415E+02  0.51100000000E-03 0.  1.
         23    2    1    0    0    0 -0.26353943897E+02  0.85520250345E+01 -0.25280063625E+01  0.97178096627E+02  0.93110279544E+02 0.  0.
         11    1    3    3    0    0 -0.13673621241E+02  0.64465813254E+01 -0.47791226678E+02  0.50125120213E+02  0.51100000000E-03 0. -1.
         22    1    1    0    0    0  0.26353943897E+02 -0.85520250345E+01  0.25280063625E+01  0.27821903373E+02  0.00000000000E+00 0.  1.
</event>
<event>
 5    1  0.3186486E-003  0.9118800E+02  0.7818608E-02  0.1130116E+00
         25   -1    0    0    0    0  0.00000000000E+00  0.00000000000E+00  0.99999998245E-14  0.12500000000E+03  0.12500000000E+03 0.  0.
        -11    1    3    3    0    0 -0.30245454534E+02 -0.21310353860E+02  0.43913721682E+02  0.57422414211E+02  0.51100000000E-03 0.  1.
         23    2    1    0    0    0 -0.36634866713E+01 -0.44232657712E+00  0.31282776853E+02  0.93500334684E+02  0.88034559527E+02 0.  0.
         11    1    3    3    0    0  0.26581967863E+02  0.20868027283E+02 -0.12630944829E+02  0.36077920473E+02  0.51100000000E-03 0. -1.
         22    1    1    0    0    0  0.36634866713E+01  0.44232657712E+00 -0.31282776853E+02  0.31499665316E+02  0.00000000000E+00 0.  1.
</event>
<event>
 5    1  0.3186486E-003  0.9118800E+02  0.7818608E-02  0.1130116E+00
         25   -1    0    0    0    0  0.00000000000E+00  0.00000000000E+00  0.99999998245E-14  0.12500000000E+03  0.12500000000E+03 0.  0.
        -11    1    3    3    0    0 -0.30756179401E+02 -0.31405343370E+02  0.43874030911E+01  0.44175643399E+02  0.51100000000E-03 0.  1.
         23    2    1    0    0    0  0.94572870506E+01 -0.17313822189E+02 -0.22899121310E+02  0.94774539310E+02  0.89825580028E+02 0.  0.
         11    1    3    3    0    0  0.40213466451E+02  0.14091521181E+02 -0.27286524402E+02  0.50598895911E+02  0.51100000000E-03 0. -1.
         22    1    1    0    0    0 -0.94572870506E+01  0.17313822189E+02  0.22899121310E+02  0.30225460690E+02  0.00000000000E+00 0. -1.
</event>
<event>
 5    1  0.3186486E-003  0.9118800E+02  0.7818608E-02  0.1130116E+00
         25   -1    0    0    0    0  0.00000000000E+00  0.00000000000E+00  0.99999998245E-14  0.12500000000E+03  0.12500000000E+03 0.  0.
        -11    1    3    3    0    0 -0.41155462278E+01  0.14490271006E+02  0.55110948458E+02  0.57132497886E+02  0.51100000000E-03 0.  1.
         23    2    1    0    0    0 -0.15477759781E+02 -0.56177270390E+01  0.24559684331E+02  0.95431469442E+02  0.90735149531E+02 0.  0.
         11    1    3    3    0    0 -0.11362213553E+02 -0.20107998045E+02 -0.30551264126E+02  0.38298971555E+02  0.51100000000E-03 0. -1.
         22    1    1    0    0    0  0.15477759781E+02  0.56177270390E+01 -0.24559684331E+02  0.29568530558E+02  0.00000000000E+00 0.  1.
</event>
<event>
 5    1  0.3186486E-003  0.9118800E+02  0.7818608E-02  0.1130116E+00
         25   -1    0    0    0    0  0.00000000000E+00  0.00000000000E+00  0.99999998245E-14  0.12500000000E+03  0.12500000000E+03 0.  0.
        -11    1    3    3    0    0 -0.53712927227E+01 -0.17209417958E+02 -0.56976787185E+02  0.59760933143E+02  0.51100000000E-03 0.  1.
         23    2    1    0    0    0 -0.14213922086E+02 -0.12593328317E+02 -0.22991109154E+02  0.95180231401E+02  0.90388372318E+02 0.  0.
         11    1    3    3    0    0 -0.88426293633E+01  0.46160896406E+01  0.33985678031E+02  0.35419298258E+02  0.51100000000E-03 0. -1.
         22    1    1    0    0    0  0.14213922086E+02  0.12593328317E+02  0.22991109154E+02  0.29819768599E+02  0.00000000000E+00 0.  1.
</event>
<event>
 5    1  0.3186486E-003  0.9118800E+02  0.7818608E-02  0.1130116E+00
         25   -1    0    0    0    0  0.00000000000E+00  0.00000000000E+00  0.99999998245E-14  0.12500000000E+03  0.12500000000E+03 0.  0.
        -11    1    3    3    0    0  0.72914655196E+01  0.14385076386E+02  0.52596038988E+02  0.55013082168E+02  0.51100000000E-03 0.  1.
         23    2    1    0    0    0  0.23184637882E+02  0.10998316224E+01  0.16883930513E+02  0.96298010994E+02  0.91921176823E+02 0.  0.
         11    1    3    3    0    0  0.15893172363E+02 -0.13285244764E+02 -0.35712108475E+02  0.41284928826E+02  0.51100000000E-03 0. -1.
         22    1    1    0    0    0 -0.23184637882E+02 -0.10998316224E+01 -0.16883930513E+02  0.28701989006E+02  0.00000000000E+00 0.  1.
</event>
<event>
 5    1  0.3186486E-003  0.9118800E+02  0.7818608E-02  0.1130116E+00
         25   -1    0    0    0    0  0.00000000000E+00  0.00000000000E+00  0.99999998245E-14  0.12500000000E+03  0.12500000000E+03 0.  0.
        -11    1    3    3    0    0  0.28629022817E+02 -0.48913708336E+00  0.24295179406E+02  0.37551510558E+02  0.51100000000E-03 0. -1.
         23    2    1    0    0    0 -0.23545356214E+02 -0.17253665513E+02  0.76854562494E+01  0.94814920728E+02  0.89881756670E+02 0.  0.
         11    1    3    3    0    0 -0.52174379031E+02 -0.16764528430E+02 -0.16609723157E+02  0.57263410170E+02  0.51100000000E-03 0.  1.
         22    1    1    0    0    0  0.23545356214E+02  0.17253665513E+02 -0.76854562494E+01  0.30185079272E+02  0.00000000000E+00 0.  1.
</event>
<event>
 5    1  0.3186486E-003  0.9118800E+02  0.7818608E-02  0.1130116E+00
         25   -1    0    0    0    0  0.00000000000E+00  0.00000000000E+00  0.99999998245E-14  0.12500000000E+03  0.12500000000E+03 0.  0.
        -11    1    3    3    0    0 -0.27071184297E+02  0.60625777346E+01  0.21087022593E+02  0.34846325346E+02  0.51100000000E-03 0. -1.
         23    2    1    0    0    0  0.20738356224E+02 -0.69286331881E+01 -0.16972366494E+02  0.97320646663E+02  0.93301455861E+02 0.  0.
         11    1    3    3    0    0  0.47809540521E+02 -0.12991210923E+02 -0.38059389088E+02  0.62474321317E+02  0.51100000000E-03 0.  1.
         22    1    1    0    0    0 -0.20738356224E+02  0.69286331881E+01  0.16972366494E+02  0.27679353337E+02  0.00000000000E+00 0.  1.
</event>
<event>
 5    1  0.3186486E-003  0.9118800E+02  0.7818608E-02  0.1130116E+00
         25   -1    0    0    0    0  0.00000000000E+00  0.00000000000E+00  0.99999998245E-14  0.12500000000E+03  0.12500000000E+03 0.  0.
        -11    1    3    3    0    0  0.35067241842E+02 -0.31125560734E+01  0.13356078795E+02  0.37653476556E+02  0.51100000000E-03 0. -1.
         23    2    1    0    0    0 -0.95293229646E+01 -0.20972177680E+02 -0.18635098274E+02  0.95370502527E+02  0.90651120411E+02 0.  0.
         11    1    3    3    0    0 -0.44596564806E+02 -0.17859621606E+02 -0.31991177069E+02  0.57717025972E+02  0.51100000000E-03 0.  1.
         22    1    1    0    0    0  0.95293229646E+01  0.20972177680E+02  0.18635098274E+02  0.29629497473E+02  0.00000000000E+00 0.  1.
</event>
<event>
 5    1  0.3186486E-003  0.9118800E+02  0.7818608E-02  0.1130116E+00
         25   -1    0    0    0    0  0.00000000000E+00  0.00000000000E+00  0.99999998245E-14  0.12500000000E+03  0.12500000000E+03 0.  0.
        -11    1    3    3    0    0  0.14452210636E+02  0.46727056902E+02 -0.52557579003E+01  0.49192552590E+02  0.51100000000E-03 0. -1.
         23    2    1    0    0    0  0.86875809492E+01  0.12141092775E+02  0.25248758428E+02  0.95667765195E+02  0.91060097181E+02 0.  0.
         11    1    3    3    0    0 -0.57646296867E+01 -0.34585964126E+02  0.30504516328E+02  0.46475212605E+02  0.51100000000E-03 0.  1.
         22    1    1    0    0    0 -0.86875809492E+01 -0.12141092775E+02 -0.25248758428E+02  0.29332234805E+02  0.00000000000E+00 0.  1.
</event>
<event>
 5    1  0.3186486E-003  0.9118800E+02  0.7818608E-02  0.1130116E+00
         25   -1    0    0    0    0  0.00000000000E+00  0.00000000000E+00  0.99999998245E-14  0.12500000000E+03  0.12500000000E+03 0.  0.
        -11    1    3    3    0    0 -0.42098187318E+02  0.15642659488E+02 -0.17127725522E+02  0.48065675416E+02  0.51100000000E-03 0.  1.
         23    2    1    0    0    0 -0.13428092484E+02 -0.46396640609E+01  0.20835517562E+02  0.99781773607E+02  0.96542443524E+02 0.  0.
         11    1    3    3    0    0  0.28670094834E+02 -0.20282323549E+02  0.37963243084E+02  0.51716098191E+02  0.51100000000E-03 0. -1.
         22    1    1    0    0    0  0.13428092484E+02  0.46396640609E+01 -0.20835517562E+02  0.25218226393E+02  0.00000000000E+00 0. -1.
</event>
<event>
 5    1  0.3186486E-003  0.9118800E+02  0.7818608E-02  0.1130116E+00
         25   -1    0    0    0    0  0.00000000000E+00  0.00000000000E+00  0.99999998245E-14  0.12500000000E+03  0.12500000000E+03 0.  0.
        -11    1    3    3    0    0 -0.32882149434E+02  0.22153557565E+02  0.40806345262E+01  0.39858091306E+02  0.51100000000E-03 0.  1.
         23    2    1    0    0    0 -0.34937465512E+01 -0.27283143750E+02  0.33904436035E+00  0.97491980279E+02  0.93530717253E+02 0.  0.
         11    1    3    3    0    0  0.29388402883E+02 -0.49436701316E+02 -0.37415901658E+01  0.57633888973E+02  0.51100000000E-03 0. -1.
         22    1    1    0    0    0  0.34937465512E+01  0.27283143750E+02 -0.33904436035E+00  0.27508019721E+02  0.00000000000E+00 0. -1.
</event>
<event>
 5    1  0.3186486E-003  0.9118800E+02  0.7818608E-02  0.1130116E+00
         25   -1    0    0    0    0  0.00000000000E+00  0.00000000000E+00  0.99999998245E-14  0.12500000000E+03  0.12500000000E+03 0.  0.
        -11    1    3    3    0    0  0.35579277509E+02 -0.22463564879E+02  0.35051572860E+01  0.42223013429E+02  0.51100000000E-03 0.  1.
         23    2    1    0    0    0 -0.16378479834E+02 -0.23533111002E+02 -0.75421013329E+01  0.95352989904E+02  0.90626968812E+02 0.  0.
         11    1    3    3    0    0 -0.51957757343E+02 -0.10695461233E+01 -0.11047258619E+02  0.53129976476E+02  0.51100000000E-03 0. -1.
         22    1    1    0    0    0  0.16378479834E+02  0.23533111002E+02  0.75421013329E+01  0.29647010096E+02  0.00000000000E+00 0. -1.
</event>
<event>
 5    1  0.3186486E-003  0.9118800E+02  0.7818608E-02  0.1130116E+00
         25   -1    0    0    0    0  0.00000000000E+00  0.00000000000E+00  0.99999998245E-14  0.12500000000E+03  0.12500000000E+03 0.  0.
        -11    1    3    3    0    0  0.34507226250E+02  0.51031236444E+01 -0.20771928144E+02  0.40598811971E+02  0.51100000000E-03 0. -1.
         23    2    1    0    0    0 -0.16659161123E+02  0.17667360918E+02 -0.20398010156E+02  0.93286562635E+02  0.87730500163E+02 0.  0.
         11    1    3    3    0    0 -0.51166387373E+02  0.12564237274E+02  0.37391798742E+00  0.52687750664E+02  0.51100000000E-03 0.  1.
         22    1    1    0    0    0  0.16659161123E+02 -0.17667360918E+02  0.20398010156E+02  0.31713437365E+02  0.00000000000E+00 0.  1.
</event>
<event>
 5    1  0.3186486E-003  0.9118800E+02  0.7818608E-02  0.1130116E+00
         25   -1    0    0    0    0  0.00000000000E+00  0.00000000000E+00  0.99999998245E-14  0.12500000000E+03  0.12500000000E+03 0.  0.
        -11    1    3    3    0    0 -0.19370572212E+02 -0.52480084461E+02  0.67714501719E+01  0.56349186955E+02  0.51100000000E-03 0. -1.
         23    2    1    0    0    0 -0.37081465810E+01 -0.24920282273E+02 -0.15797699357E+02  0.95262176869E+02  0.90501625494E+02 0.  0.
         11    1    3    3    0    0  0.15662425631E+02  0.27559802188E+02 -0.22569149529E+02  0.38912989913E+02  0.51100000000E-03 0.  1.
         22    1    1    0    0    0  0.37081465810E+01  0.24920282273E+02  0.15797699357E+02  0.29737823131E+02  0.00000000000E+00 0. -1.
</event>
<event>
 5    1  0.3186486E-003  0.9118800E+02  0.7818608E-02  0.1130116E+00
         25   -1    0    0    0    0  0.00000000000E+00  0.00000000000E+00  0.99999998245E-14  0.12500000000E+03  0.12500000000E+03 0.  0.
        -11    1    3    3    0    0 -0.10905204001E+02 -0.31053452283E+02  0.10815300200E+02  0.34644062863E+02  0.51100000000E-03 0.  1.
         23    2    1    0    0    0  0.14048935376E+01  0.28386823656E+02  0.82728651545E+01  0.95398888856E+02  0.90690254239E+02 0.  0.
         11    1    3    3    0    0  0.12310097538E+02  0.59440275939E+02 -0.25424350451E+01  0.60754825992E+02  0.51100000000E-03 0. -1.
         22    1    1    0    0    0 -0.14048935376E+01 -0.28386823656E+02 -0.82728651545E+01  0.29601111144E+02  0.00000000000E+00 0. -1.
</event>
<event>
 5    1  0.3186486E-003  0.9118800E+02  0.7818608E-02  0.1130116E+00
         25   -1    0    0    0    0  0.00000000000E+00  0.00000000000E+00  0.99999998245E-14  0.12500000000E+03  0.12500000000E+03 0.  0.
        -11    1    3    3    0    0  0.11633432863E+02  0.19055961718E+02 -0.25718149375E+02  0.34057152622E+02  0.51100000000E-03 0.  1.
         23    2    1    0    0    0 -0.13961701795E+02 -0.84218600705E+01  0.23767179441E+02  0.96177514635E+02  0.91757172246E+02 0.  0.
         11    1    3    3    0    0 -0.25595134658E+02 -0.27477821788E+02  0.49485328816E+02  0.62120362013E+02  0.51100000000E-03 0. -1.
         22    1    1    0    0    0  0.13961701795E+02  0.84218600705E+01 -0.23767179441E+02  0.28822485365E+02  0.00000000000E+00 0. -1.
</event>
<event>
 5    1  0.3186486E-003  0.9118800E+02  0.7818608E-02  0.1130116E+00
         25   -1    0    0    0    0  0.00000000000E+00  0.00000000000E+00  0.99999998245E-14  0.12500000000E+03  0.12500000000E+03 0.  0.
        -11    1    3    3    0    0 -0.13563745544E+01  0.36224538372E+01 -0.48790256680E+02  0.48943345522E+02  0.51100000000E-03 0.  1.
         23    2    1    0    0    0 -0.14327188503E+02  0.23324760093E+02 -0.73009265449E+01  0.96669516556E+02  0.92424991961E+02 0.  0.
         11    1    3    3    0    0 -0.12970813948E+02  0.19702306255E+02  0.41489330135E+02  0.47726171034E+02  0.51100000000E-03 0. -1.
         22    1    1    0    0    0  0.14327188503E+02 -0.23324760093E+02  0.73009265449E+01  0.28330483444E+02  0.00000000000E+00 0.  1.
</event>
<event>
 5    1  0.3186486E-003  0.9118800E+02  0.7818608E-02  0.1130116E+00
         25   -1    0    0    0    0  0.00000000000E+00  0.00000000000E+00  0.99999998245E-14  0.12500000000E+03  0.12500000000E+03 0.  0.
        -11    1    3    3    0    0  0.50429886372E+02  0.14301142506E+02 -0.17198199379E+02  0.55167691438E+02  0.51100000000E-03 0.  1.
         23    2    1    0    0    0  0.23273994582E+02 -0.15033194531E+02 -0.71087156955E+01  0.96395636688E+02  0.92053838443E+02 0.  0.
         11    1    3    3    0    0 -0.27155891790E+02 -0.29334337037E+02  0.10089483683E+02  0.41227945250E+02  0.51100000000E-03 0. -1.
         22    1    1    0    0    0 -0.23273994582E+02  0.15033194531E+02  0.71087156955E+01  0.28604363312E+02  0.00000000000E+00 0.  1.
</event>
<event>
 5    1  0.3186486E-003  0.9118800E+02  0.7818608E-02  0.1130116E+00
         25   -1    0    0    0    0  0.00000000000E+00  0.00000000000E+00  0.99999998245E-14  0.12500000000E+03  0.12500000000E+03 0.  0.
        -11    1    3    3    0    0  0.35768370856E+02 -0.13604316485E+02 -0.38898711447E+02  0.54567055383E+02  0.51100000000E-03 0. -1.
         23    2    1    0    0    0  0.34817882767E+02  0.18561437689E+01 -0.78576065556E+01  0.89258256746E+02  0.81789755999E+02 0.  0.
         11    1    3    3    0    0 -0.95048808863E+00  0.15460460253E+02  0.31041104891E+02  0.34691201363E+02  0.51100000000E-03 0.  1.
         22    1    1    0    0    0 -0.34817882767E+02 -0.18561437689E+01  0.78576065556E+01  0.35741743254E+02  0.00000000000E+00 0. -1.
</event>
<event>
 5    1  0.3186486E-003  0.9118800E+02  0.7818608E-02  0.1130116E+00
         25   -1    0    0    0    0  0.00000000000E+00  0.00000000000E+00  0.99999998245E-14  0.12500000000E+03  0.12500000000E+03 0.  0.
        -11    1    3    3    0    0 -0.50639944011E+02 -0.34790697775E+02  0.11159656436E+02  0.62444651598E+02  0.51100000000E-03 0. -1.
         23    2    1    0    0    0 -0.23199584950E+02 -0.17016340567E+02  0.35683712823E+01  0.96008451890E+02  0.91526569763E+02 0.  0.
         11    1    3    3    0    0  0.27440359061E+02  0.17774357208E+02 -0.75912851539E+01  0.33563800293E+02  0.51100000000E-03 0.  1.
         22    1    1    0    0    0  0.23199584950E+02  0.17016340567E+02 -0.35683712823E+01  0.28991548110E+02  0.00000000000E+00 0. -1.
</event>
<event>
 5    1  0.3186486E-003  0.9118800E+02  0.7818608E-02  0.1130116E+00
         25   -1    0    0    0    0  0.00000000000E+00  0.00000000000E+00  0.99999998245E-14  0.12500000000E+03  0.12500000000E+03 0.  0.
        -11    1    3    3    0    0  0.16945175904E+02  0.15406000300E+00  0.38203629548E+02  0.41793301279E+02  0.51100000000E-03 0. -1.
         23    2    1    0    0    0 -0.12881247670E+02 -0.24404178801E+02 -0.17208743386E+01  0.97351276830E+02  0.93342483401E+02 0.  0.
         11    1    3    3    0    0 -0.29826423574E+02 -0.24558238804E+02 -0.39924503887E+02  0.55557975550E+02  0.51100000000E-03 0.  1.
         22    1    1    0    0    0  0.12881247670E+02  0.24404178801E+02  0.17208743386E+01  0.27648723170E+02  0.00000000000E+00 0. -1.
</event>
<event>
 5    1  0.3186486E-003  0.9118800E+02  0.7818608E-02  0.1130116E+00
         25   -1    0    0    0    0  0.00000000000E+00  0.00000000000E+00  0.99999998245E-14  0.12500000000E+03  0.12500000000E+03 0.  0.
        -11    1    3    3    0    0 -0.22719972905E+02 -0.16715014776E+02  0.18372332868E+02  0.33662018701E+02  0.51100000000E-03 0. -1.
         23    2    1    0    0    0  0.34581309291E+01 -0.11474221323E+02 -0.32086607783E+02  0.90748477063E+02  0.84036416307E+02 0.  0.
         11    1    3    3    0    0  0.26178103834E+02  0.52407934530E+01 -0.50458940652E+02  0.57086458362E+02  0.51100000000E-03 0.  1.
         22    1    1    0    0    0 -0.34581309291E+01  0.11474221323E+02  0.32086607783E+02  0.34251522937E+02  0.00000000000E+00 0.  1.
</event>
<event>
 5    1  0.3186486E-003  0.9118800E+02  0.7818608E-02  0.1130116E+00
         25   -1    0    0    0    0  0.00000000000E+00  0.00000000000E+00  0.99999998245E-14  0.12500000000E+03  0.12500000000E+03 0.  0.
        -11    1    3    3    0    0 -0.55485953789E+02 -0.65984438604E+01  0.22592130484E+02  0.60271343849E+02  0.51100000000E-03 0.  1.
         23    2    1    0    0    0 -0.19703614801E+02 -0.60099193816E+01  0.20216441363E+02  0.96137289306E+02  0.91702357258E+02 0.  0.
         11    1    3    3    0    0  0.35782338988E+02  0.58852447883E+00 -0.23756891210E+01  0.35865945458E+02  0.51100000000E-03 0. -1.
         22    1    1    0    0    0  0.19703614801E+02  0.60099193816E+01 -0.20216441363E+02  0.28862710694E+02  0.00000000000E+00 0.  1.
</event>
<event>
 5    1  0.3186486E-003  0.9118800E+02  0.7818608E-02  0.1130116E+00
         25   -1    0    0    0    0  0.00000000000E+00  0.00000000000E+00  0.99999998245E-14  0.12500000000E+03  0.12500000000E+03 0.  0.
        -11    1    3    3    0    0 -0.21299554451E+02  0.32691446972E+02  0.11342267986E+02  0.40633099418E+02  0.51100000000E-03 0.  1.
         23    2    1    0    0    0  0.19008330390E+01  0.52057512644E+01 -0.29458640085E+02  0.95024601952E+02  0.90172892202E+02 0.  0.
         11    1    3    3    0    0  0.23200387490E+02 -0.27485695708E+02 -0.40800908071E+02  0.54391502534E+02  0.51100000000E-03 0. -1.
         22    1    1    0    0    0 -0.19008330390E+01 -0.52057512644E+01  0.29458640085E+02  0.29975398048E+02  0.00000000000E+00 0. -1.
</event>
<event>
 5    1  0.3186486E-003  0.9118800E+02  0.7818608E-02  0.1130116E+00
         25   -1    0    0    0    0  0.00000000000E+00  0.00000000000E+00  0.99999998245E-14  0.12500000000E+03  0.12500000000E+03 0.  0.
        -11    1    3    3    0    0  0.27202033843E+01 -0.29326753032E+02  0.48736479491E+02  0.56944730953E+02  0.51100000000E-03 0.  1.
         23    2    1    0    0    0  0.17499084321E+02 -0.41694722920E+01  0.22584927735E+02  0.96126458269E+02  0.91687592221E+02 0.  0.
         11    1    3    3    0    0  0.14778880937E+02  0.25157280740E+02 -0.26151551756E+02  0.39181727316E+02  0.51100000000E-03 0. -1.
         22    1    1    0    0    0 -0.17499084321E+02  0.41694722920E+01 -0.22584927735E+02  0.28873541731E+02  0.00000000000E+00 0.  1.
</event>
<event>
 5    1  0.3186486E-003  0.9118800E+02  0.7818608E-02  0.1130116E+00
         25   -1    0    0    0    0  0.00000000000E+00  0.00000000000E+00  0.99999998245E-14  0.12500000000E+03  0.12500000000E+03 0.  0.
        -11    1    3    3    0    0 -0.23036984094E+02 -0.19452560525E+02 -0.51118527821E+02  0.59348198237E+02  0.51100000000E-03 0.  1.
         23    2    1    0    0    0 -0.12179287065E+01 -0.19179242222E+02 -0.21095872526E+02  0.96462962309E+02  0.92145214619E+02 0.  0.
         11    1    3    3    0    0  0.21819055387E+02  0.27331830264E+00  0.30022655295E+02  0.37114764072E+02  0.51100000000E-03 0. -1.
         22    1    1    0    0    0  0.12179287065E+01  0.19179242222E+02  0.21095872526E+02  0.28537037691E+02  0.00000000000E+00 0.  1.
</event>
<event>
 5    1  0.3186486E-003  0.9118800E+02  0.7818608E-02  0.1130116E+00
         25   -1    0    0    0    0  0.00000000000E+00  0.00000000000E+00  0.99999998245E-14  0.12500000000E+03  0.12500000000E+03 0.  0.
        -11    1    3    3    0    0 -0.31529915949E+02  0.36649878197E+02  0.17178073282E+02  0.51307264335E+02  0.51100000000E-03 0. -1.
         23    2    1    0    0    0 -0.67374922440E+01  0.19681347915E+02 -0.17945209525E+02  0.97526743870E+02  0.93577165845E+02 0.  0.
         11    1    3    3    0    0  0.24792423706E+02 -0.16968530282E+02 -0.35123282807E+02  0.46219479535E+02  0.51100000000E-03 0.  1.
         22    1    1    0    0    0  0.67374922440E+01 -0.19681347915E+02  0.17945209525E+02  0.27473256130E+02  0.00000000000E+00 0. -1.
</event>
<event>
 5    1  0.3186486E-003  0.9118800E+02  0.7818608E-02  0.1130116E+00
         25   -1    0    0    0    0  0.00000000000E+00  0.00000000000E+00  0.99999998245E-14  0.12500000000E+03  0.12500000000E+03 0.  0.
        -11    1    3    3    0    0  0.21605662310E+02  0.47764170531E+02 -0.25375002300E+02  0.58241835242E+02  0.51100000000E-03 0. -1.
         23    2    1    0    0    0 -0.52176142110E+01  0.26306038782E+02 -0.15680070284E+02  0.93934009294E+02  0.88648194135E+02 0.  0.
         11    1    3    3    0    0 -0.26823276521E+02 -0.21458131749E+02  0.96949320155E+01  0.35692174052E+02  0.51100000000E-03 0.  1.
         22    1    1    0    0    0  0.52176142110E+01 -0.26306038782E+02  0.15680070284E+02  0.31065990706E+02  0.00000000000E+00 0. -1.
</event>
<event>
 5    1  0.3186486E-003  0.9118800E+02  0.7818608E-02  0.1130116E+00
         25   -1    0    0    0    0  0.00000000000E+00  0.00000000000E+00  0.99999998245E-14  0.12500000000E+03  0.12500000000E+03 0.  0.
        -11    1    3    3    0    0  0.17097519830E+02 -0.11191329010E+02  0.31887720581E+02  0.37873443908E+02  0.51100000000E-03 0.  1.
         23    2    1    0    0    0  0.21534810422E+02  0.94382233746E+01 -0.20155039437E+02  0.94031407280E+02  0.88785425718E+02 0.  0.
         11    1    3    3    0    0  0.44372905918E+01  0.20629552385E+02 -0.52042760018E+02  0.56157963371E+02  0.51100000000E-03 0. -1.
         22    1    1    0    0    0 -0.21534810422E+02 -0.94382233746E+01  0.20155039437E+02  0.30968592720E+02  0.00000000000E+00 0. -1.
</event>
<event>
 5    1  0.3186486E-003  0.9118800E+02  0.7818608E-02  0.1130116E+00
         25   -1    0    0    0    0  0.00000000000E+00  0.00000000000E+00  0.99999998245E-14  0.12500000000E+03  0.12500000000E+03 0.  0.
        -11    1    3    3    0    0 -0.33177169518E+01 -0.25482259234E+02  0.23549552037E+02  0.34855905997E+02  0.51100000000E-03 0.  1.
         23    2    1    0    0    0  0.11530988061E+02  0.21720516330E+02 -0.13752797331E+02  0.96824053703E+02  0.92633759644E+02 0.  0.
         11    1    3    3    0    0  0.14848705013E+02  0.47202775564E+02 -0.37302349368E+02  0.61968147706E+02  0.51100000000E-03 0. -1.
         22    1    1    0    0    0 -0.11530988061E+02 -0.21720516330E+02  0.13752797331E+02  0.28175946297E+02  0.00000000000E+00 0. -1.
</event>
<event>
 5    1  0.3186486E-003  0.9118800E+02  0.7818608E-02  0.1130116E+00
         25   -1    0    0    0    0  0.00000000000E+00  0.00000000000E+00  0.99999998245E-14  0.12500000000E+03  0.12500000000E+03 0.  0.
        -11    1    3    3    0    0 -0.43786117034E+02  0.47723479942E+01 -0.19300119792E+02  0.48088397504E+02  0.51100000000E-03 0. -1.
         23    2    1    0    0    0 -0.95819501730E+01  0.29700183561E+02 -0.22707815917E+01  0.93709887797E+02  0.88331602211E+02 0.  0.
         11    1    3    3    0    0  0.34204166861E+02  0.24927835566E+02  0.17029338201E+02  0.45621490292E+02  0.51100000000E-03 0.  1.
         22    1    1    0    0    0  0.95819501730E+01 -0.29700183561E+02  0.22707815917E+01  0.31290112203E+02  0.00000000000E+00 0. -1.
</event>
<event>
 5    1  0.3186486E-003  0.9118800E+02  0.7818608E-02  0.1130116E+00
         25   -1    0    0    0    0  0.00000000000E+00  0.00000000000E+00  0.99999998245E-14  0.12500000000E+03  0.12500000000E+03 0.  0.
        -11    1    3    3    0    0  0.13194409935E+02 -0.25820249171E+02 -0.24081674071E+02  0.37692237226E+02  0.51100000000E-03 0. -1.
         23    2    1    0    0    0 -0.28295147940E+02 -0.13441377685E+01  0.79953326124E+01  0.95566219291E+02  0.90920596251E+02 0.  0.
         11    1    3    3    0    0 -0.41489557875E+02  0.24476111402E+02  0.32077006683E+02  0.57873982065E+02  0.51100000000E-03 0.  1.
         22    1    1    0    0    0  0.28295147940E+02  0.13441377685E+01 -0.79953326124E+01  0.29433780709E+02  0.00000000000E+00 0.  1.
</event>
<event>
 5    1  0.3186486E-003  0.9118800E+02  0.7818608E-02  0.1130116E+00
         25   -1    0    0    0    0  0.00000000000E+00  0.00000000000E+00  0.99999998245E-14  0.12500000000E+03  0.12500000000E+03 0.  0.
        -11    1    3    3    0    0  0.15249930198E+02  0.54955005690E+00 -0.42265488136E+02  0.44935886149E+02  0.51100000000E-03 0. -1.
         23    2    1    0    0    0 -0.32911541434E+01  0.29095730108E+02 -0.51987968609E+01  0.95260788597E+02  0.90499708006E+02 0.  0.
         11    1    3    3    0    0 -0.18541084341E+02  0.28546180051E+02  0.37066691275E+02  0.50324902448E+02  0.51100000000E-03 0.  1.
         22    1    1    0    0    0  0.32911541434E+01 -0.29095730108E+02  0.51987968609E+01  0.29739211403E+02  0.00000000000E+00 0.  1.
</event>
<event>
 5    1  0.3186486E-003  0.9118800E+02  0.7818608E-02  0.1130116E+00
         25   -1    0    0    0    0  0.00000000000E+00  0.00000000000E+00  0.99999998245E-14  0.12500000000E+03  0.12500000000E+03 0.  0.
        -11    1    3    3    0    0 -0.26736012358E+02 -0.19480459966E+02  0.14682663890E+02  0.36192309908E+02  0.51100000000E-03 0.  1.
         23    2    1    0    0    0  0.27723939851E+02 -0.11665518034E+01 -0.47531636633E+01  0.96847375810E+02  0.92665225153E+02 0.  0.
         11    1    3    3    0    0  0.54459952208E+02  0.18313908163E+02 -0.19435827554E+02  0.60655065903E+02  0.51100000000E-03 0. -1.
         22    1    1    0    0    0 -0.27723939851E+02  0.11665518034E+01  0.47531636633E+01  0.28152624190E+02  0.00000000000E+00 0. -1.
</event>
<event>
 5    1  0.3186486E-003  0.9118800E+02  0.7818608E-02  0.1130116E+00
         25   -1    0    0    0    0  0.00000000000E+00  0.00000000000E+00  0.99999998245E-14  0.12500000000E+03  0.12500000000E+03 0.  0.
        -11    1    3    3    0    0 -0.38699879910E+02 -0.83838529953E+01  0.45363698110E+02  0.60214905153E+02  0.51100000000E-03 0.  1.
         23    2    1    0    0    0 -0.13044110064E+02  0.48487768726E+01  0.27546344779E+02  0.94138040321E+02  0.88935426464E+02 0.  0.
         11    1    3    3    0    0  0.25655769846E+02  0.13232629868E+02 -0.17817353331E+02  0.33923135168E+02  0.51100000000E-03 0. -1.
         22    1    1    0    0    0  0.13044110064E+02 -0.48487768726E+01 -0.27546344779E+02  0.30861959679E+02  0.00000000000E+00 0.  1.
</event>
<event>
 5    1  0.3186486E-003  0.9118800E+02  0.7818608E-02  0.1130116E+00
         25   -1    0    0    0    0  0.00000000000E+00  0.00000000000E+00  0.99999998245E-14  0.12500000000E+03  0.12500000000E+03 0.  0.
        -11    1    3    3    0    0 -0.29053364494E+02 -0.16744631166E+02 -0.26801267812E+02  0.42927713867E+02  0.51100000000E-03 0.  1.
         23    2    1    0    0    0  0.65519468020E+01  0.21431690503E+02 -0.18815063307E+02  0.95738216528E+02  0.91156755822E+02 0.  0.
         11    1    3    3    0    0  0.35605311296E+02  0.38176321669E+02  0.79862045051E+01  0.52810502661E+02  0.51100000000E-03 0. -1.
         22    1    1    0    0    0 -0.65519468020E+01 -0.21431690503E+02  0.18815063307E+02  0.29261783472E+02  0.00000000000E+00 0. -1.
</event>
<event>
 5    1  0.3186486E-003  0.9118800E+02  0.7818608E-02  0.1130116E+00
         25   -1    0    0    0    0  0.00000000000E+00  0.00000000000E+00  0.99999998245E-14  0.12500000000E+03  0.12500000000E+03 0.  0.
        -11    1    3    3    0    0 -0.11730541906E+02 -0.38286537346E+02  0.41152068756E+02  0.57419137214E+02  0.51100000000E-03 0.  1.
         23    2    1    0    0    0 -0.79207840328E+01 -0.26647031661E+01  0.28319615234E+02  0.95473061966E+02  0.90792430805E+02 0.  0.
         11    1    3    3    0    0  0.38097578731E+01  0.35621834179E+02 -0.12832453522E+02  0.38053924752E+02  0.51100000000E-03 0. -1.
         22    1    1    0    0    0  0.79207840328E+01  0.26647031661E+01 -0.28319615234E+02  0.29526938034E+02  0.00000000000E+00 0.  1.
</event>
<event>
 5    1  0.3186486E-003  0.9118800E+02  0.7818608E-02  0.1130116E+00
         25   -1    0    0    0    0  0.00000000000E+00  0.00000000000E+00  0.99999998245E-14  0.12500000000E+03  0.12500000000E+03 0.  0.
        -11    1    3    3    0    0 -0.90337417799E+01 -0.26187762371E+02  0.47027338654E+02  0.54580014379E+02  0.51100000000E-03 0. -1.
         23    2    1    0    0    0 -0.12675252621E+02 -0.26391981429E+02  0.68385024314E+01  0.94934008776E+02  0.90047222023E+02 0.  0.
         11    1    3    3    0    0 -0.36415108409E+01 -0.20421905778E+00 -0.40188836222E+02  0.40353994397E+02  0.51100000000E-03 0.  1.
         22    1    1    0    0    0  0.12675252621E+02  0.26391981429E+02 -0.68385024314E+01  0.30065991224E+02  0.00000000000E+00 0. -1.
</event>
<event>
 5    1  0.3186486E-003  0.9118800E+02  0.7818608E-02  0.1130116E+00
         25   -1    0    0    0    0  0.00000000000E+00  0.00000000000E+00  0.99999998245E-14  0.12500000000E+03  0.12500000000E+03 0.  0.
        -11    1    3    3    0    0  0.43994531363E+02 -0.80125865153E+00  0.35920605268E+02  0.56801854621E+02  0.51100000000E-03 0. -1.
         23    2    1    0    0    0  0.14744014075E+02 -0.18255700120E+02  0.18839089165E+02  0.94907346104E+02  0.90010202344E+02 0.  0.
         11    1    3    3    0    0 -0.29250517288E+02 -0.17454441468E+02 -0.17081516102E+02  0.38105491484E+02  0.51100000000E-03 0.  1.
         22    1    1    0    0    0 -0.14744014075E+02  0.18255700120E+02 -0.18839089165E+02  0.30092653896E+02  0.00000000000E+00 0.  1.
</event>
<event>
 5    1  0.3186486E-003  0.9118800E+02  0.7818608E-02  0.1130116E+00
         25   -1    0    0    0    0  0.00000000000E+00  0.00000000000E+00  0.99999998245E-14  0.12500000000E+03  0.12500000000E+03 0.  0.
        -11    1    3    3    0    0  0.26908517399E+00 -0.56188818673E+02 -0.74376526036E+01  0.56679576808E+02  0.51100000000E-03 0.  1.
         23    2    1    0    0    0 -0.11761934020E+02 -0.20432503784E+02  0.11360394032E+02  0.98829618740E+02  0.95301651008E+02 0.  0.
         11    1    3    3    0    0 -0.12031019194E+02  0.35756314889E+02  0.18798046635E+02  0.42150041931E+02  0.51100000000E-03 0. -1.
         22    1    1    0    0    0  0.11761934020E+02  0.20432503784E+02 -0.11360394032E+02  0.26170381260E+02  0.00000000000E+00 0. -1.
</event>
<event>
 5    1  0.3186486E-003  0.9118800E+02  0.7818608E-02  0.1130116E+00
         25   -1    0    0    0    0  0.00000000000E+00  0.00000000000E+00  0.99999998245E-14  0.12500000000E+03  0.12500000000E+03 0.  0.
        -11    1    3    3    0    0 -0.81832495791E+01  0.54958859963E+02 -0.17592596251E+02  0.58283284956E+02  0.51100000000E-03 0.  1.
         23    2    1    0    0    0 -0.75338522255E+01  0.27896198127E+02  0.74486781203E+01  0.95159765332E+02  0.90360064924E+02 0.  0.
         11    1    3    3    0    0  0.64939735363E+00 -0.27062661836E+02  0.25041274371E+02  0.36876480377E+02  0.51100000000E-03 0. -1.
         22    1    1    0    0    0  0.75338522255E+01 -0.27896198127E+02 -0.74486781203E+01  0.29840234668E+02  0.00000000000E+00 0.  1.
</event>
<event>
 5    1  0.3186486E-003  0.9118800E+02  0.7818608E-02  0.1130116E+00
         25   -1    0    0    0    0  0.00000000000E+00  0.00000000000E+00  0.99999998245E-14  0.12500000000E+03  0.12500000000E+03 0.  0.
        -11    1    3    3    0    0 -0.41910380378E+02 -0.34289467957E+02  0.42097570028E+01  0.54313623065E+02  0.51100000000E-03 0. -1.
         23    2    1    0    0    0 -0.62775823958E+01 -0.26803261881E+02 -0.12964383579E+02  0.94571425768E+02  0.89542484006E+02 0.  0.
         11    1    3    3    0    0  0.35632797982E+02  0.74862060753E+01 -0.17174140582E+02  0.40257802703E+02  0.51100000000E-03 0.  1.
         22    1    1    0    0    0  0.62775823958E+01  0.26803261881E+02  0.12964383579E+02  0.30428574232E+02  0.00000000000E+00 0. -1.
</event>
<event>
 5    1  0.3186486E-003  0.9118800E+02  0.7818608E-02  0.1130116E+00
         25   -1    0    0    0    0  0.00000000000E+00  0.00000000000E+00  0.99999998245E-14  0.12500000000E+03  0.12500000000E+03 0.  0.
        -11    1    3    3    0    0 -0.16142574900E+02 -0.44807308179E+02 -0.39334113707E+02  0.61769329703E+02  0.51100000000E-03 0. -1.
         23    2    1    0    0    0 -0.11060818618E+02 -0.22699681530E+02 -0.12761907569E+02  0.96707182274E+02  0.92475918857E+02 0.  0.
         11    1    3    3    0    0  0.50817562821E+01  0.22107626648E+02  0.26572206138E+02  0.34937852571E+02  0.51100000000E-03 0.  1.
         22    1    1    0    0    0  0.11060818618E+02  0.22699681530E+02  0.12761907569E+02  0.28292817726E+02  0.00000000000E+00 0. -1.
</event>
<event>
 5    1  0.3186486E-003  0.9118800E+02  0.7818608E-02  0.1130116E+00
         25   -1    0    0    0    0  0.00000000000E+00  0.00000000000E+00  0.99999998245E-14  0.12500000000E+03  0.12500000000E+03 0.  0.
        -11    1    3    3    0    0  0.32676259086E+01  0.30353484859E+02 -0.13965674826E+02  0.33571587627E+02  0.51100000000E-03 0. -1.
         23    2    1    0    0    0 -0.20066646398E+02 -0.15267797270E+02  0.18047563780E+02  0.93992089888E+02  0.88730053938E+02 0.  0.
         11    1    3    3    0    0 -0.23334272307E+02 -0.45621282129E+02  0.32013238606E+02  0.60420502261E+02  0.51100000000E-03 0.  1.
         22    1    1    0    0    0  0.20066646398E+02  0.15267797270E+02 -0.18047563780E+02  0.31007910112E+02  0.00000000000E+00 0.  1.
</event>
<event>
 5    1  0.3186486E-003  0.9118800E+02  0.7818608E-02  0.1130116E+00
         25   -1    0    0    0    0  0.00000000000E+00  0.00000000000E+00  0.99999998245E-14  0.12500000000E+03  0.12500000000E+03 0.  0.
        -11    1    3    3    0    0  0.15625633810E+02  0.14584681803E+02  0.25516297361E+02  0.33285955094E+02  0.51100000000E-03 0.  1.
         23    2    1    0    0    0 -0.23262082257E+02 -0.15290246163E+02 -0.11656026598E+02  0.94820883798E+02  0.89890049224E+02 0.  0.
         11    1    3    3    0    0 -0.38887716067E+02 -0.29874927966E+02 -0.37172323959E+02  0.61534928704E+02  0.51100000000E-03 0. -1.
         22    1    1    0    0    0  0.23262082257E+02  0.15290246163E+02  0.11656026598E+02  0.30179116202E+02  0.00000000000E+00 0. -1.
</event>
<event>
 5    1  0.3186486E-003  0.9118800E+02  0.7818608E-02  0.1130116E+00
         25   -1    0    0    0    0  0.00000000000E+00  0.00000000000E+00  0.99999998245E-14  0.12500000000E+03  0.12500000000E+03 0.  0.
        -11    1    3    3    0    0 -0.31225469951E+02  0.22690873922E+02  0.10433870826E+02  0.39984639472E+02  0.51100000000E-03 0. -1.
         23    2    1    0    0    0 -0.62245122810E+01 -0.89783686090E+01 -0.27527573976E+02  0.95383737828E+02  0.90669368902E+02 0.  0.
         11    1    3    3    0    0  0.25000957670E+02 -0.31669242531E+02 -0.37961444802E+02  0.55399098356E+02  0.51100000000E-03 0.  1.
         22    1    1    0    0    0  0.62245122810E+01  0.89783686090E+01  0.27527573976E+02  0.29616262172E+02  0.00000000000E+00 0.  1.
</event>
<event>
 5    1  0.3186486E-003  0.9118800E+02  0.7818608E-02  0.1130116E+00
         25   -1    0    0    0    0  0.00000000000E+00  0.00000000000E+00  0.99999998245E-14  0.12500000000E+03  0.12500000000E+03 0.  0.
        -11    1    3    3    0    0 -0.40744730997E+02 -0.61815367889E+00 -0.25913989802E+02  0.48291304452E+02  0.51100000000E-03 0.  1.
         23    2    1    0    0    0 -0.45264483832E+01  0.26392727401E+02 -0.12684041995E+02  0.95369783734E+02  0.90650129252E+02 0.  0.
         11    1    3    3    0    0  0.36218282614E+02  0.27010881080E+02  0.13229947806E+02  0.47078479281E+02  0.51100000000E-03 0. -1.
         22    1    1    0    0    0  0.45264483832E+01 -0.26392727401E+02  0.12684041995E+02  0.29630216266E+02  0.00000000000E+00 0. -1.
</event>
<event>
 5    1  0.3186486E-003  0.9118800E+02  0.7818608E-02  0.1130116E+00
         25   -1    0    0    0    0  0.00000000000E+00  0.00000000000E+00  0.99999998245E-14  0.12500000000E+03  0.12500000000E+03 0.  0.
        -11    1    3    3    0    0 -0.14118475390E+02 -0.29654327834E+02 -0.19307836060E+02  0.38098596302E+02  0.51100000000E-03 0. -1.
         23    2    1    0    0    0 -0.44253665875E+01  0.11570160370E+02  0.23575609028E+02  0.98368030087E+02  0.94694284525E+02 0.  0.
         11    1    3    3    0    0  0.96931088024E+01  0.41224488204E+02  0.42883445088E+02  0.60269433785E+02  0.51100000000E-03 0.  1.
         22    1    1    0    0    0  0.44253665875E+01 -0.11570160370E+02 -0.23575609028E+02  0.26631969913E+02  0.00000000000E+00 0.  1.
</event>
<event>
 5    1  0.3186486E-003  0.9118800E+02  0.7818608E-02  0.1130116E+00
         25   -1    0    0    0    0  0.00000000000E+00  0.00000000000E+00  0.99999998245E-14  0.12500000000E+03  0.12500000000E+03 0.  0.
        -11    1    3    3    0    0 -0.12978117758E+01  0.67789993020E-01 -0.45919487028E+02  0.45937873264E+02  0.51100000000E-03 0.  1.
         23    2    1    0    0    0 -0.17975871947E+02 -0.74388206212E+01  0.88110113660E+01  0.10364345661E+03  0.10141924941E+03 0.  0.
         11    1    3    3    0    0 -0.16678060171E+02 -0.75066106143E+01  0.54730498394E+02  0.57705583341E+02  0.51100000000E-03 0. -1.
         22    1    1    0    0    0  0.17975871947E+02  0.74388206212E+01 -0.88110113660E+01  0.21356543395E+02  0.00000000000E+00 0. -1.
</event>
<event>
 5    1  0.3186486E-003  0.9118800E+02  0.7818608E-02  0.1130116E+00
         25   -1    0    0    0    0  0.00000000000E+00  0.00000000000E+00  0.99999998245E-14  0.12500000000E+03  0.12500000000E+03 0.  0.
        -11    1    3    3    0    0 -0.83627397035E+01  0.25065863741E+02 -0.23661020041E+02  0.35469378485E+02  0.51100000000E-03 0.  1.
         23    2    1    0    0    0 -0.24012665112E+01 -0.25821396800E+02  0.10471294236E+02  0.97032901177E+02  0.92915151048E+02 0.  0.
         11    1    3    3    0    0  0.59614731924E+01 -0.50887260542E+02  0.34132314278E+02  0.61563522692E+02  0.51100000000E-03 0. -1.
         22    1    1    0    0    0  0.24012665112E+01  0.25821396800E+02 -0.10471294236E+02  0.27967098823E+02  0.00000000000E+00 0. -1.
</event>
<event>
 5    1  0.3186486E-003  0.9118800E+02  0.7818608E-02  0.1130116E+00
         25   -1    0    0    0    0  0.00000000000E+00  0.00000000000E+00  0.99999998245E-14  0.12500000000E+03  0.12500000000E+03 0.  0.
        -11    1    3    3    0    0 -0.25126862366E+02  0.83495537388E+01 -0.25629728838E+02  0.36850471646E+02  0.51100000000E-03 0.  1.
         23    2    1    0    0    0 -0.10985764051E+01  0.14592884814E+02  0.26577478888E+02  0.94659902087E+02  0.89665910589E+02 0.  0.
         11    1    3    3    0    0  0.24028285961E+02  0.62433310755E+01  0.52207207726E+02  0.57809430441E+02  0.51100000000E-03 0. -1.
         22    1    1    0    0    0  0.10985764051E+01 -0.14592884814E+02 -0.26577478888E+02  0.30340097913E+02  0.00000000000E+00 0. -1.
</event>
<event>
 5    1  0.3186486E-003  0.9118800E+02  0.7818608E-02  0.1130116E+00
         25   -1    0    0    0    0  0.00000000000E+00  0.00000000000E+00  0.99999998245E-14  0.12500000000E+03  0.12500000000E+03 0.  0.
        -11    1    3    3    0    0 -0.29371786425E+02  0.29962021358E+01  0.52909320030E+02  0.60589398506E+02  0.51100000000E-03 0. -1.
         23    2    1    0    0    0 -0.22521033967E+02 -0.19132786122E+01  0.19177471581E+02  0.95358255412E+02  0.90634231133E+02 0.  0.
         11    1    3    3    0    0  0.68507524576E+01 -0.49094807480E+01 -0.33731848450E+02  0.34768856906E+02  0.51100000000E-03 0.  1.
         22    1    1    0    0    0  0.22521033967E+02  0.19132786122E+01 -0.19177471581E+02  0.29641744588E+02  0.00000000000E+00 0. -1.
</event>
<event>
 5    1  0.3186486E-003  0.9118800E+02  0.7818608E-02  0.1130116E+00
         25   -1    0    0    0    0  0.00000000000E+00  0.00000000000E+00  0.99999998245E-14  0.12500000000E+03  0.12500000000E+03 0.  0.
        -11    1    3    3    0    0 -0.35079281958E+02 -0.11375960925E+02 -0.62894609605E+01  0.37410236956E+02  0.51100000000E-03 0.  1.
         23    2    1    0    0    0  0.13780686523E+02  0.19763895400E+02 -0.15887625784E+02  0.96139377424E+02  0.91705203538E+02 0.  0.
         11    1    3    3    0    0  0.48859968481E+02  0.31139856325E+02 -0.95981648240E+01  0.58729140468E+02  0.51100000000E-03 0. -1.
         22    1    1    0    0    0 -0.13780686523E+02 -0.19763895400E+02  0.15887625784E+02  0.28860622576E+02  0.00000000000E+00 0. -1.
</event>
<event>
 5    1  0.3186486E-003  0.9118800E+02  0.7818608E-02  0.1130116E+00
         25   -1    0    0    0    0  0.00000000000E+00  0.00000000000E+00  0.99999998245E-14  0.12500000000E+03  0.12500000000E+03 0.  0.
        -11    1    3    3    0    0 -0.14470427160E+02  0.12646855453E+02  0.32045359440E+02  0.37366312060E+02  0.51100000000E-03 0.  1.
         23    2    1    0    0    0 -0.94543683907E+01 -0.22324392254E+02 -0.15218843023E+02  0.96375242287E+02  0.92026140698E+02 0.  0.
         11    1    3    3    0    0  0.50160587695E+01 -0.34971247708E+02 -0.47264202463E+02  0.59008930227E+02  0.51100000000E-03 0. -1.
         22    1    1    0    0    0  0.94543683907E+01  0.22324392254E+02  0.15218843023E+02  0.28624757713E+02  0.00000000000E+00 0. -1.
</event>
<event>
 5    1  0.3186486E-003  0.9118800E+02  0.7818608E-02  0.1130116E+00
         25   -1    0    0    0    0  0.00000000000E+00  0.00000000000E+00  0.99999998245E-14  0.12500000000E+03  0.12500000000E+03 0.  0.
        -11    1    3    3    0    0  0.41235077064E+02 -0.35780904208E+01 -0.29335926756E+02  0.50731951573E+02  0.51100000000E-03 0. -1.
         23    2    1    0    0    0  0.24077451108E+02 -0.12387091033E+02  0.11258896985E+02  0.95675497661E+02  0.91070711073E+02 0.  0.
         11    1    3    3    0    0 -0.17157625956E+02 -0.88090006124E+01  0.40594823740E+02  0.44943546088E+02  0.51100000000E-03 0.  1.
         22    1    1    0    0    0 -0.24077451108E+02  0.12387091033E+02 -0.11258896985E+02  0.29324502339E+02  0.00000000000E+00 0. -1.
</event>
<event>
 5    1  0.3186486E-003  0.9118800E+02  0.7818608E-02  0.1130116E+00
         25   -1    0    0    0    0  0.00000000000E+00  0.00000000000E+00  0.99999998245E-14  0.12500000000E+03  0.12500000000E+03 0.  0.
        -11    1    3    3    0    0  0.12852728205E+02  0.25865057428E+02  0.18812958645E+02  0.34469134473E+02  0.51100000000E-03 0.  1.
         23    2    1    0    0    0 -0.23047420778E+02 -0.19283017035E+02  0.65027865211E+00  0.94942701173E+02  0.90059287656E+02 0.  0.
         11    1    3    3    0    0 -0.35900148983E+02 -0.45148074462E+02 -0.18162679993E+02  0.60473566700E+02  0.51100000000E-03 0. -1.
         22    1    1    0    0    0  0.23047420778E+02  0.19283017035E+02 -0.65027865211E+00  0.30057298827E+02  0.00000000000E+00 0. -1.
</event>
<event>
 5    1  0.3186486E-003  0.9118800E+02  0.7818608E-02  0.1130116E+00
         25   -1    0    0    0    0  0.00000000000E+00  0.00000000000E+00  0.99999998245E-14  0.12500000000E+03  0.12500000000E+03 0.  0.
        -11    1    3    3    0    0  0.30522575496E+02  0.26188353570E+02 -0.46397829455E+02  0.61402085111E+02  0.51100000000E-03 0. -1.
         23    2    1    0    0    0  0.17922314686E+02  0.69292506694E+01 -0.13643131180E+02  0.10143394588E+03  0.98658433341E+02 0.  0.
         11    1    3    3    0    0 -0.12600260811E+02 -0.19259102901E+02  0.32754698274E+02  0.40031860766E+02  0.51100000000E-03 0.  1.
         22    1    1    0    0    0 -0.17922314686E+02 -0.69292506694E+01  0.13643131180E+02  0.23566054123E+02  0.00000000000E+00 0. -1.
</event>
<event>
 5    1  0.3186486E-003  0.9118800E+02  0.7818608E-02  0.1130116E+00
         25   -1    0    0    0    0  0.00000000000E+00  0.00000000000E+00  0.99999998245E-14  0.12500000000E+03  0.12500000000E+03 0.  0.
        -11    1    3    3    0    0  0.23602970035E+02 -0.30365989789E+01  0.28786681292E+02  0.37349620452E+02  0.51100000000E-03 0. -1.
         23    2    1    0    0    0  0.27142031867E+01 -0.20990918427E+02 -0.21590528381E+02  0.94765310137E+02  0.89812735925E+02 0.  0.
         11    1    3    3    0    0 -0.20888766849E+02 -0.17954319448E+02 -0.50377209673E+02  0.57415689685E+02  0.51100000000E-03 0.  1.
         22    1    1    0    0    0 -0.27142031867E+01  0.20990918427E+02  0.21590528381E+02  0.30234689863E+02  0.00000000000E+00 0.  1.
</event>
<event>
 5    1  0.3186486E-003  0.9118800E+02  0.7818608E-02  0.1130116E+00
         25   -1    0    0    0    0  0.00000000000E+00  0.00000000000E+00  0.99999998245E-14  0.12500000000E+03  0.12500000000E+03 0.  0.
        -11    1    3    3    0    0  0.59269989618E+01  0.19384166952E+02  0.16387112464E+02  0.26065546231E+02  0.51100000000E-03 0.  1.
         23    2    1    0    0    0 -0.23726626918E+01 -0.25057002970E+02 -0.26550497109E+02  0.88415688843E+02  0.80491752439E+02 0.  0.
         11    1    3    3    0    0 -0.82996616537E+01 -0.44441169922E+02 -0.42937609574E+02  0.62350142612E+02  0.51100000000E-03 0. -1.
         22    1    1    0    0    0  0.23726626918E+01  0.25057002970E+02  0.26550497109E+02  0.36584311157E+02  0.00000000000E+00 0. -1.
</event>
<event>
 5    1  0.3186486E-003  0.9118800E+02  0.7818608E-02  0.1130116E+00
         25   -1    0    0    0    0  0.00000000000E+00  0.00000000000E+00  0.99999998245E-14  0.12500000000E+03  0.12500000000E+03 0.  0.
        -11    1    3    3    0    0  0.23438200566E+02  0.40083045237E+02  0.13317889052E+02  0.48304926564E+02  0.51100000000E-03 0.  1.
         23    2    1    0    0    0 -0.54185417038E+00  0.18658677382E+02 -0.22052602089E+02  0.96107836590E+02  0.91662201302E+02 0.  0.
         11    1    3    3    0    0 -0.23980054737E+02 -0.21424367855E+02 -0.35370491141E+02  0.47802910027E+02  0.51100000000E-03 0. -1.
         22    1    1    0    0    0  0.54185417038E+00 -0.18658677382E+02  0.22052602089E+02  0.28892163410E+02  0.00000000000E+00 0.  1.
</event>
<event>
 5    1  0.3186486E-003  0.9118800E+02  0.7818608E-02  0.1130116E+00
         25   -1    0    0    0    0  0.00000000000E+00  0.00000000000E+00  0.99999998245E-14  0.12500000000E+03  0.12500000000E+03 0.  0.
        -11    1    3    3    0    0  0.57951689101E+01 -0.80633393810E+01  0.45098191229E+02  0.46178439526E+02  0.51100000000E-03 0.  1.
         23    2    1    0    0    0  0.28456045865E+02  0.22521447778E+01  0.14628887273E+01  0.96417509805E+02  0.92083535179E+02 0.  0.
         11    1    3    3    0    0  0.22660876954E+02  0.10315484159E+02 -0.43635302502E+02  0.50239070279E+02  0.51100000000E-03 0. -1.
         22    1    1    0    0    0 -0.28456045865E+02 -0.22521447778E+01 -0.14628887273E+01  0.28582490195E+02  0.00000000000E+00 0. -1.
</event>
<event>
 5    1  0.3186486E-003  0.9118800E+02  0.7818608E-02  0.1130116E+00
         25   -1    0    0    0    0  0.00000000000E+00  0.00000000000E+00  0.99999998245E-14  0.12500000000E+03  0.12500000000E+03 0.  0.
        -11    1    3    3    0    0  0.18387015254E+02  0.27610170591E+02 -0.32511709619E+00  0.33173928791E+02  0.51100000000E-03 0.  1.
         23    2    1    0    0    0 -0.20857158175E+02 -0.20412271580E+02  0.48840799245E+01  0.95410540476E+02  0.90706312454E+02 0.  0.
         11    1    3    3    0    0 -0.39244173429E+02 -0.48022442172E+02  0.52091970207E+01  0.62236611685E+02  0.51100000000E-03 0. -1.
         22    1    1    0    0    0  0.20857158175E+02  0.20412271580E+02 -0.48840799245E+01  0.29589459524E+02  0.00000000000E+00 0. -1.
</event>
<event>
 5    1  0.3186486E-003  0.9118800E+02  0.7818608E-02  0.1130116E+00
         25   -1    0    0    0    0  0.00000000000E+00  0.00000000000E+00  0.99999998245E-14  0.12500000000E+03  0.12500000000E+03 0.  0.
        -11    1    3    3    0    0 -0.10593622135E+02 -0.24073810239E+02  0.55056593126E+02  0.61016404485E+02  0.51100000000E-03 0. -1.
         23    2    1    0    0    0 -0.98479869831E+01 -0.17924520647E+02  0.20795982761E+02  0.95832480616E+02  0.91285925279E+02 0.  0.
         11    1    3    3    0    0  0.74563515187E+00  0.61492895926E+01 -0.34260610365E+02  0.34816076131E+02  0.51100000000E-03 0.  1.
         22    1    1    0    0    0  0.98479869831E+01  0.17924520647E+02 -0.20795982761E+02  0.29167519384E+02  0.00000000000E+00 0. -1.
</event>
<event>
 5    1  0.3186486E-003  0.9118800E+02  0.7818608E-02  0.1130116E+00
         25   -1    0    0    0    0  0.00000000000E+00  0.00000000000E+00  0.99999998245E-14  0.12500000000E+03  0.12500000000E+03 0.  0.
        -11    1    3    3    0    0  0.10080586020E+02  0.81612342232E+01  0.39391115343E+02  0.41471483296E+02  0.51100000000E-03 0. -1.
         23    2    1    0    0    0  0.17847112446E+02 -0.22947615847E+02 -0.42446835497E+01  0.95620928637E+02  0.90995780997E+02 0.  0.
         11    1    3    3    0    0  0.77665264266E+01 -0.31108850070E+02 -0.43635798893E+02  0.54149445341E+02  0.51100000000E-03 0.  1.
         22    1    1    0    0    0 -0.17847112446E+02  0.22947615847E+02  0.42446835497E+01  0.29379071363E+02  0.00000000000E+00 0.  1.
</event>
<event>
 5    1  0.3186486E-003  0.9118800E+02  0.7818608E-02  0.1130116E+00
         25   -1    0    0    0    0  0.00000000000E+00  0.00000000000E+00  0.99999998245E-14  0.12500000000E+03  0.12500000000E+03 0.  0.
        -11    1    3    3    0    0  0.13009419055E+02  0.33276792077E+02 -0.20219997882E+02  0.41054088587E+02  0.51100000000E-03 0. -1.
         23    2    1    0    0    0  0.37364669970E+00  0.10955475601E+02  0.27591192432E+02  0.95311012861E+02  0.90569052194E+02 0.  0.
         11    1    3    3    0    0 -0.12635772355E+02 -0.22321316476E+02  0.47811190314E+02  0.54256924274E+02  0.51100000000E-03 0.  1.
         22    1    1    0    0    0 -0.37364669970E+00 -0.10955475601E+02 -0.27591192432E+02  0.29688987139E+02  0.00000000000E+00 0.  1.
</event>
<event>
 5    1  0.3186486E-003  0.9118800E+02  0.7818608E-02  0.1130116E+00
         25   -1    0    0    0    0  0.00000000000E+00  0.00000000000E+00  0.99999998245E-14  0.12500000000E+03  0.12500000000E+03 0.  0.
        -11    1    3    3    0    0 -0.40735519553E+01  0.24198584753E+02 -0.31501342441E+02  0.39931189632E+02  0.51100000000E-03 0.  1.
         23    2    1    0    0    0 -0.15208017898E+02 -0.23101982670E+02 -0.96082341942E+00  0.97324946372E+02  0.93307216189E+02 0.  0.
         11    1    3    3    0    0 -0.11134465943E+02 -0.47300567423E+02  0.30540519021E+02  0.57393756740E+02  0.51100000000E-03 0. -1.
         22    1    1    0    0    0  0.15208017898E+02  0.23101982670E+02  0.96082341942E+00  0.27675053628E+02  0.00000000000E+00 0. -1.
</event>
<event>
 5    1  0.3186486E-003  0.9118800E+02  0.7818608E-02  0.1130116E+00
         25   -1    0    0    0    0  0.00000000000E+00  0.00000000000E+00  0.99999998245E-14  0.12500000000E+03  0.12500000000E+03 0.  0.
        -11    1    3    3    0    0  0.50661122912E+01  0.14584127909E+02  0.27248990088E+02  0.31318840044E+02  0.51100000000E-03 0.  1.
         23    2    1    0    0    0 -0.31123378983E+01 -0.21005538948E+02 -0.23168820558E+02  0.93572089478E+02  0.88136385049E+02 0.  0.
         11    1    3    3    0    0 -0.81784501895E+01 -0.35589666857E+02 -0.50417810647E+02  0.62253249434E+02  0.51100000000E-03 0. -1.
         22    1    1    0    0    0  0.31123378983E+01  0.21005538948E+02  0.23168820558E+02  0.31427910522E+02  0.00000000000E+00 0. -1.
</event>
<event>
 5    1  0.3186486E-003  0.9118800E+02  0.7818608E-02  0.1130116E+00
         25   -1    0    0    0    0  0.00000000000E+00  0.00000000000E+00  0.99999998245E-14  0.12500000000E+03  0.12500000000E+03 0.  0.
        -11    1    3    3    0    0 -0.21124196076E+02 -0.62076681517E+01 -0.28612118578E+02  0.36102910319E+02  0.51100000000E-03 0. -1.
         23    2    1    0    0    0  0.17183389341E+02  0.24458453897E+02  0.37362297256E+01  0.94876184690E+02  0.89966917100E+02 0.  0.
         11    1    3    3    0    0  0.38307585417E+02  0.30666122049E+02  0.32348348304E+02  0.58773274370E+02  0.51100000000E-03 0.  1.
         22    1    1    0    0    0 -0.17183389341E+02 -0.24458453897E+02 -0.37362297256E+01  0.30123815310E+02  0.00000000000E+00 0.  1.
</event>
<event>
 5    1  0.3186486E-003  0.9118800E+02  0.7818608E-02  0.1130116E+00
         25   -1    0    0    0    0  0.00000000000E+00  0.00000000000E+00  0.99999998245E-14  0.12500000000E+03  0.12500000000E+03 0.  0.
        -11    1    3    3    0    0 -0.14899741456E+02 -0.24588227734E+02 -0.18373505840E+02  0.34119920218E+02  0.51100000000E-03 0. -1.
         23    2    1    0    0    0  0.22074974800E+02  0.20826440229E+02 -0.43218208520E+01  0.94345094022E+02  0.89225968784E+02 0.  0.
         11    1    3    3    0    0  0.36974716256E+02  0.45414667963E+02  0.14051684988E+02  0.60225173804E+02  0.51100000000E-03 0.  1.
         22    1    1    0    0    0 -0.22074974800E+02 -0.20826440229E+02  0.43218208520E+01  0.30654905978E+02  0.00000000000E+00 0.  1.
</event>
<event>
 5    1  0.3186486E-003  0.9118800E+02  0.7818608E-02  0.1130116E+00
         25   -1    0    0    0    0  0.00000000000E+00  0.00000000000E+00  0.99999998245E-14  0.12500000000E+03  0.12500000000E+03 0.  0.
        -11    1    3    3    0    0  0.18476759086E+02 -0.23391419290E+02  0.29408237937E+02  0.41873542740E+02  0.51100000000E-03 0.  1.
         23    2    1    0    0    0 -0.27728602952E+02 -0.90925735469E+01  0.81832779348E+01  0.94692965286E+02  0.89711990957E+02 0.  0.
         11    1    3    3    0    0 -0.46205362039E+02  0.14298845743E+02 -0.21224960003E+02  0.52819422546E+02  0.51100000000E-03 0. -1.
         22    1    1    0    0    0  0.27728602952E+02  0.90925735469E+01 -0.81832779348E+01  0.30307034714E+02  0.00000000000E+00 0. -1.
</event>
<event>
 5    1  0.3186486E-003  0.9118800E+02  0.7818608E-02  0.1130116E+00
         25   -1    0    0    0    0  0.00000000000E+00  0.00000000000E+00  0.99999998245E-14  0.12500000000E+03  0.12500000000E+03 0.  0.
        -11    1    3    3    0    0 -0.17064942078E+02  0.49133508493E+02  0.16174650326E+02  0.54469562312E+02  0.51100000000E-03 0. -1.
         23    2    1    0    0    0  0.14708626516E+02  0.23622782073E+02  0.81917969653E+01  0.95991638027E+02  0.91503603791E+02 0.  0.
         11    1    3    3    0    0  0.31773568594E+02 -0.25510726420E+02 -0.79828533610E+01  0.41522075715E+02  0.51100000000E-03 0.  1.
         22    1    1    0    0    0 -0.14708626516E+02 -0.23622782073E+02 -0.81917969653E+01  0.29008361973E+02  0.00000000000E+00 0.  1.
</event>
<event>
 5    1  0.3186486E-003  0.9118800E+02  0.7818608E-02  0.1130116E+00
         25   -1    0    0    0    0  0.00000000000E+00  0.00000000000E+00  0.99999998245E-14  0.12500000000E+03  0.12500000000E+03 0.  0.
        -11    1    3    3    0    0  0.29503972092E+00  0.85250603960E+01 -0.40391751714E+02  0.41282651441E+02  0.51100000000E-03 0. -1.
         23    2    1    0    0    0  0.29018284772E+02  0.56371658022E+00  0.49632098914E+01  0.95554931144E+02  0.90905075689E+02 0.  0.
         11    1    3    3    0    0  0.28723245051E+02 -0.79613438158E+01  0.45354961606E+02  0.54272279703E+02  0.51100000000E-03 0.  1.
         22    1    1    0    0    0 -0.29018284772E+02 -0.56371658022E+00 -0.49632098914E+01  0.29445068856E+02  0.00000000000E+00 0.  1.
</event>
<event>
 5    1  0.3186486E-003  0.9118800E+02  0.7818608E-02  0.1130116E+00
         25   -1    0    0    0    0  0.00000000000E+00  0.00000000000E+00  0.99999998245E-14  0.12500000000E+03  0.12500000000E+03 0.  0.
        -11    1    3    3    0    0  0.53486094347E+01  0.25638829614E+02  0.22009717120E+02  0.34210887957E+02  0.51100000000E-03 0. -1.
         23    2    1    0    0    0  0.80015380164E+00 -0.28265489420E+02 -0.73815879884E+01  0.95775592743E+02  0.91207994089E+02 0.  0.
         11    1    3    3    0    0 -0.45484556331E+01 -0.53904319034E+02 -0.29391305109E+02  0.61564704786E+02  0.51100000000E-03 0.  1.
         22    1    1    0    0    0 -0.80015380164E+00  0.28265489420E+02  0.73815879884E+01  0.29224407257E+02  0.00000000000E+00 0.  1.
</event>
<event>
 5    1  0.3186486E-003  0.9118800E+02  0.7818608E-02  0.1130116E+00
         25   -1    0    0    0    0  0.00000000000E+00  0.00000000000E+00  0.99999998245E-14  0.12500000000E+03  0.12500000000E+03 0.  0.
        -11    1    3    3    0    0  0.30653654011E+02 -0.36230506811E+00  0.21133885099E+02  0.37234646082E+02  0.51100000000E-03 0. -1.
         23    2    1    0    0    0 -0.24672789673E+02 -0.24294386446E+01 -0.68624899156E+01  0.99275644028E+02  0.95884884142E+02 0.  0.
         11    1    3    3    0    0 -0.55326443683E+02 -0.20671335765E+01 -0.27996375015E+02  0.62040997946E+02  0.51100000000E-03 0.  1.
         22    1    1    0    0    0  0.24672789673E+02  0.24294386446E+01  0.68624899156E+01  0.25724355972E+02  0.00000000000E+00 0.  1.
</event>
<event>
 5    1  0.3186486E-003  0.9118800E+02  0.7818608E-02  0.1130116E+00
         25   -1    0    0    0    0  0.00000000000E+00  0.00000000000E+00  0.99999998245E-14  0.12500000000E+03  0.12500000000E+03 0.  0.
        -11    1    3    3    0    0 -0.98196260546E+01  0.11823962872E+02  0.35334440389E+02  0.38532503575E+02  0.51100000000E-03 0. -1.
         23    2    1    0    0    0 -0.20355023297E+02  0.10128187390E+02 -0.19898286914E+02  0.94786609337E+02  0.89842374937E+02 0.  0.
         11    1    3    3    0    0 -0.10535397243E+02 -0.16957754825E+01 -0.55232727303E+02  0.56254105763E+02  0.51100000000E-03 0.  1.
         22    1    1    0    0    0  0.20355023297E+02 -0.10128187390E+02  0.19898286914E+02  0.30213390663E+02  0.00000000000E+00 0.  1.
</event>
<event>
 5    1  0.3186486E-003  0.9118800E+02  0.7818608E-02  0.1130116E+00
         25   -1    0    0    0    0  0.00000000000E+00  0.00000000000E+00  0.99999998245E-14  0.12500000000E+03  0.12500000000E+03 0.  0.
        -11    1    3    3    0    0 -0.23911908495E+02 -0.28801012689E+02  0.41499352189E+01  0.37662974688E+02  0.51100000000E-03 0. -1.
         23    2    1    0    0    0 -0.21169799629E+02  0.23344118535E+02 -0.10305568271E+02  0.91844110269E+02  0.85650613350E+02 0.  0.
         11    1    3    3    0    0  0.27421088661E+01  0.52145131224E+02 -0.14455503489E+02  0.54181135581E+02  0.51100000000E-03 0.  1.
         22    1    1    0    0    0  0.21169799629E+02 -0.23344118535E+02  0.10305568271E+02  0.33155889731E+02  0.00000000000E+00 0.  1.
</event>
<event>
 5    1  0.3186486E-003  0.9118800E+02  0.7818608E-02  0.1130116E+00
         25   -1    0    0    0    0  0.00000000000E+00  0.00000000000E+00  0.99999998245E-14  0.12500000000E+03  0.12500000000E+03 0.  0.
        -11    1    3    3    0    0  0.11757625461E+02 -0.32959514629E+02  0.22743699358E+01  0.35067707652E+02  0.51100000000E-03 0. -1.
         23    2    1    0    0    0 -0.30204882662E+02  0.71462679697E+01 -0.49768887990E+01  0.93564772872E+02  0.88126007613E+02 0.  0.
         11    1    3    3    0    0 -0.41962508123E+02  0.40105782599E+02 -0.72512587348E+01  0.58497065220E+02  0.51100000000E-03 0.  1.
         22    1    1    0    0    0  0.30204882662E+02 -0.71462679697E+01  0.49768887990E+01  0.31435227128E+02  0.00000000000E+00 0.  1.
</event>
<event>
 5    1  0.3186486E-003  0.9118800E+02  0.7818608E-02  0.1130116E+00
         25   -1    0    0    0    0  0.00000000000E+00  0.00000000000E+00  0.99999998245E-14  0.12500000000E+03  0.12500000000E+03 0.  0.
        -11    1    3    3    0    0 -0.61234944401E+01 -0.29023582740E+02 -0.18720815796E+02  0.35076124124E+02  0.51100000000E-03 0.  1.
         23    2    1    0    0    0  0.20469080309E+02  0.93074558302E+01  0.19384017868E+02  0.95312424628E+02  0.90571000641E+02 0.  0.
         11    1    3    3    0    0  0.26592574749E+02  0.38331038570E+02  0.38104833665E+02  0.60236300505E+02  0.51100000000E-03 0. -1.
         22    1    1    0    0    0 -0.20469080309E+02 -0.93074558302E+01 -0.19384017868E+02  0.29687575372E+02  0.00000000000E+00 0. -1.
</event>
<event>
 5    1  0.3186486E-003  0.9118800E+02  0.7818608E-02  0.1130116E+00
         25   -1    0    0    0    0  0.00000000000E+00  0.00000000000E+00  0.99999998245E-14  0.12500000000E+03  0.12500000000E+03 0.  0.
        -11    1    3    3    0    0 -0.28099980367E+02  0.93035195075E+01 -0.43235840756E+02  0.52397540953E+02  0.51100000000E-03 0.  1.
         23    2    1    0    0    0  0.11020189372E+02  0.12071641008E+02 -0.23695158174E+02  0.96214072686E+02  0.91806961454E+02 0.  0.
         11    1    3    3    0    0  0.39120169739E+02  0.27681215009E+01  0.19540682582E+02  0.43816531733E+02  0.51100000000E-03 0. -1.
         22    1    1    0    0    0 -0.11020189372E+02 -0.12071641008E+02  0.23695158174E+02  0.28785927314E+02  0.00000000000E+00 0.  1.
</event>
<event>
 5    1  0.3186486E-003  0.9118800E+02  0.7818608E-02  0.1130116E+00
         25   -1    0    0    0    0  0.00000000000E+00  0.00000000000E+00  0.99999998245E-14  0.12500000000E+03  0.12500000000E+03 0.  0.
        -11    1    3    3    0    0 -0.61163608856E+01 -0.45492103974E+01 -0.54718464614E+02  0.55246860144E+02  0.51100000000E-03 0. -1.
         23    2    1    0    0    0 -0.13302669289E+02 -0.18950806458E+02 -0.16939863574E+02  0.96311098775E+02  0.91938972659E+02 0.  0.
         11    1    3    3    0    0 -0.71863084031E+01 -0.14401596060E+02  0.37778601040E+02  0.41064238631E+02  0.51100000000E-03 0.  1.
         22    1    1    0    0    0  0.13302669289E+02  0.18950806458E+02  0.16939863574E+02  0.28688901225E+02  0.00000000000E+00 0. -1.
</event>
<event>
 5    1  0.3186486E-003  0.9118800E+02  0.7818608E-02  0.1130116E+00
         25   -1    0    0    0    0  0.00000000000E+00  0.00000000000E+00  0.99999998245E-14  0.12500000000E+03  0.12500000000E+03 0.  0.
        -11    1    3    3    0    0  0.22024299262E+02  0.27680626965E+02  0.47552980187E+02  0.59266962062E+02  0.51100000000E-03 0.  1.
         23    2    1    0    0    0  0.16915446138E+02  0.13374281349E+00  0.22493127176E+02  0.96855889153E+02  0.92676708445E+02 0.  0.
         11    1    3    3    0    0 -0.51088531233E+01 -0.27546884152E+02 -0.25059853010E+02  0.37588927091E+02  0.51100000000E-03 0. -1.
         22    1    1    0    0    0 -0.16915446138E+02 -0.13374281349E+00 -0.22493127176E+02  0.28144110847E+02  0.00000000000E+00 0.  1.
</event>
<event>
 5    1  0.3186486E-003  0.9118800E+02  0.7818608E-02  0.1130116E+00
         25   -1    0    0    0    0  0.00000000000E+00  0.00000000000E+00  0.99999998245E-14  0.12500000000E+03  0.12500000000E+03 0.  0.
        -11    1    3    3    0    0  0.71941205535E+01 -0.36089676138E+01  0.45670333192E+02  0.46374123732E+02  0.51100000000E-03 0.  1.
         23    2    1    0    0    0  0.54477273390E+01  0.28761731883E+02  0.11297388074E+02  0.93622525096E+02  0.88207886689E+02 0.  0.
         11    1    3    3    0    0 -0.17463932145E+01  0.32370699496E+02 -0.34372945118E+02  0.47248401364E+02  0.51100000000E-03 0. -1.
         22    1    1    0    0    0 -0.54477273390E+01 -0.28761731883E+02 -0.11297388074E+02  0.31377474904E+02  0.00000000000E+00 0.  1.
</event>
<event>
 5    1  0.3186486E-003  0.9118800E+02  0.7818608E-02  0.1130116E+00
         25   -1    0    0    0    0  0.00000000000E+00  0.00000000000E+00  0.99999998245E-14  0.12500000000E+03  0.12500000000E+03 0.  0.
        -11    1    3    3    0    0 -0.17911293279E+02  0.41202945321E+02  0.34021155528E+02  0.56355444757E+02  0.51100000000E-03 0.  1.
         23    2    1    0    0    0 -0.19251186444E+02  0.34413633014E+01  0.20957290831E+02  0.96335401628E+02  0.91972008823E+02 0.  0.
         11    1    3    3    0    0 -0.13398931651E+01 -0.37761582020E+02 -0.13063864697E+02  0.39979956871E+02  0.51100000000E-03 0. -1.
         22    1    1    0    0    0  0.19251186444E+02 -0.34413633014E+01 -0.20957290831E+02  0.28664598372E+02  0.00000000000E+00 0.  1.
</event>
<event>
 5    1  0.3186486E-003  0.9118800E+02  0.7818608E-02  0.1130116E+00
         25   -1    0    0    0    0  0.00000000000E+00  0.00000000000E+00  0.99999998245E-14  0.12500000000E+03  0.12500000000E+03 0.  0.
        -11    1    3    3    0    0 -0.37518726645E+02 -0.20337754899E+02  0.64818475983E+01  0.43165883194E+02  0.51100000000E-03 0.  1.
         23    2    1    0    0    0 -0.37250163229E+01  0.37985897395E+00 -0.28634095906E+02  0.96122128060E+02  0.91681688548E+02 0.  0.
         11    1    3    3    0    0  0.33793710322E+02  0.20717613873E+02 -0.35115943504E+02  0.52956244866E+02  0.51100000000E-03 0. -1.
         22    1    1    0    0    0  0.37250163229E+01 -0.37985897395E+00  0.28634095906E+02  0.28877871940E+02  0.00000000000E+00 0. -1.
</event>
<event>
 5    1  0.3186486E-003  0.9118800E+02  0.7818608E-02  0.1130116E+00
         25   -1    0    0    0    0  0.00000000000E+00  0.00000000000E+00  0.99999998245E-14  0.12500000000E+03  0.12500000000E+03 0.  0.
        -11    1    3    3    0    0  0.26592516227E+02 -0.16263729048E+02  0.24759778678E+02  0.39808509671E+02  0.51100000000E-03 0. -1.
         23    2    1    0    0    0  0.13469052474E+02  0.22413441347E+02 -0.13323758491E+02  0.95652082392E+02  0.91038566542E+02 0.  0.
         11    1    3    3    0    0 -0.13123463752E+02  0.38677170395E+02 -0.38083537169E+02  0.55843572721E+02  0.51100000000E-03 0.  1.
         22    1    1    0    0    0 -0.13469052474E+02 -0.22413441347E+02  0.13323758491E+02  0.29347917608E+02  0.00000000000E+00 0.  1.
</event>
<event>
 5    1  0.3186486E-003  0.9118800E+02  0.7818608E-02  0.1130116E+00
         25   -1    0    0    0    0  0.00000000000E+00  0.00000000000E+00  0.99999998245E-14  0.12500000000E+03  0.12500000000E+03 0.  0.
        -11    1    3    3    0    0 -0.35386727385E+02 -0.28148667787E+02  0.36290861649E+02  0.57979260195E+02  0.51100000000E-03 0.  1.
         23    2    1    0    0    0 -0.36656878931E+01 -0.23966828076E+02  0.13639385886E+02  0.97181319890E+02  0.93114606654E+02 0.  0.
         11    1    3    3    0    0  0.31721039492E+02  0.41818397111E+01 -0.22651475763E+02  0.39202059695E+02  0.51100000000E-03 0. -1.
         22    1    1    0    0    0  0.36656878931E+01  0.23966828076E+02 -0.13639385886E+02  0.27818680110E+02  0.00000000000E+00 0.  1.
</event>
<event>
 5    1  0.3186486E-003  0.9118800E+02  0.7818608E-02  0.1130116E+00
         25   -1    0    0    0    0  0.00000000000E+00  0.00000000000E+00  0.99999998245E-14  0.12500000000E+03  0.12500000000E+03 0.  0.
        -11    1    3    3    0    0  0.43543919625E+02  0.43124426661E+02 -0.94073288411E+01  0.62002314048E+02  0.51100000000E-03 0.  1.
         23    2    1    0    0    0  0.16738035565E+02  0.23968946655E+02 -0.62900946147E+01  0.95096195416E+02  0.90272082362E+02 0.  0.
         11    1    3    3    0    0 -0.26805884060E+02 -0.19155480006E+02  0.31172342263E+01  0.33093881367E+02  0.51100000000E-03 0. -1.
         22    1    1    0    0    0 -0.16738035565E+02 -0.23968946655E+02  0.62900946147E+01  0.29903804584E+02  0.00000000000E+00 0.  1.
</event>
<event>
 5    1  0.3186486E-003  0.9118800E+02  0.7818608E-02  0.1130116E+00
         25   -1    0    0    0    0  0.00000000000E+00  0.00000000000E+00  0.99999998245E-14  0.12500000000E+03  0.12500000000E+03 0.  0.
        -11    1    3    3    0    0  0.15907074266E+01  0.19371127850E+02  0.48796290041E+02  0.52524745276E+02  0.51100000000E-03 0. -1.
         23    2    1    0    0    0 -0.18726680055E+02  0.20731540703E+02  0.11968776326E+02  0.94606959143E+02  0.89592074347E+02 0.  0.
         11    1    3    3    0    0 -0.20317387481E+02  0.13604128527E+01 -0.36827513715E+02  0.42082213867E+02  0.51100000000E-03 0.  1.
         22    1    1    0    0    0  0.18726680055E+02 -0.20731540703E+02 -0.11968776326E+02  0.30393040857E+02  0.00000000000E+00 0. -1.
</event>
<event>
 5    1  0.3186486E-003  0.9118800E+02  0.7818608E-02  0.1130116E+00
         25   -1    0    0    0    0  0.00000000000E+00  0.00000000000E+00  0.99999998245E-14  0.12500000000E+03  0.12500000000E+03 0.  0.
        -11    1    3    3    0    0 -0.29837540255E+01 -0.50016141081E+02 -0.35699720999E+02  0.61522249930E+02  0.51100000000E-03 0.  1.
         23    2    1    0    0    0  0.52456980919E+01 -0.20564152392E+02 -0.96805091415E+01  0.10167374935E+03  0.98961797366E+02 0.  0.
         11    1    3    3    0    0  0.82294521174E+01  0.29451988690E+02  0.26019211857E+02  0.40151499422E+02  0.51100000000E-03 0. -1.
         22    1    1    0    0    0 -0.52456980919E+01  0.20564152392E+02  0.96805091415E+01  0.23326250648E+02  0.00000000000E+00 0.  1.
</event>
<event>
 5    1  0.3186486E-003  0.9118800E+02  0.7818608E-02  0.1130116E+00
         25   -1    0    0    0    0  0.00000000000E+00  0.00000000000E+00  0.99999998245E-14  0.12500000000E+03  0.12500000000E+03 0.  0.
        -11    1    3    3    0    0  0.94725140556E+01  0.50682806286E+02 -0.24633125725E+02  0.57142508335E+02  0.51100000000E-03 0.  1.
         23    2    1    0    0    0  0.13603870985E+02  0.24351050038E+02  0.46301862578E+01  0.96724965632E+02  0.92499953557E+02 0.  0.
         11    1    3    3    0    0  0.41313569292E+01 -0.26331756249E+02  0.29263311983E+02  0.39582457297E+02  0.51100000000E-03 0. -1.
         22    1    1    0    0    0 -0.13603870985E+02 -0.24351050038E+02 -0.46301862578E+01  0.28275034368E+02  0.00000000000E+00 0.  1.
</event>
<event>
 5    1  0.3186486E-003  0.9118800E+02  0.7818608E-02  0.1130116E+00
         25   -1    0    0    0    0  0.00000000000E+00  0.00000000000E+00  0.99999998245E-14  0.12500000000E+03  0.12500000000E+03 0.  0.
        -11    1    3    3    0    0  0.67810440426E-01  0.59036931656E+02 -0.18588761169E+02  0.61894312660E+02  0.51100000000E-03 0.  1.
         23    2    1    0    0    0  0.49097093603E+01  0.26244921432E+02 -0.12167394148E+02  0.95658107980E+02  0.91046839566E+02 0.  0.
         11    1    3    3    0    0  0.48418989199E+01 -0.32792010224E+02  0.64213670214E+01  0.33763795319E+02  0.51100000000E-03 0. -1.
         22    1    1    0    0    0 -0.49097093603E+01 -0.26244921432E+02  0.12167394148E+02  0.29341892020E+02  0.00000000000E+00 0.  1.
</event>
<event>
 5    1  0.3186486E-003  0.9118800E+02  0.7818608E-02  0.1130116E+00
         25   -1    0    0    0    0  0.00000000000E+00  0.00000000000E+00  0.99999998245E-14  0.12500000000E+03  0.12500000000E+03 0.  0.
        -11    1    3    3    0    0  0.45317166875E+02 -0.35098613797E+02  0.23836700101E+02  0.62078551658E+02  0.51100000000E-03 0.  1.
         23    2    1    0    0    0  0.22483875899E+02 -0.16502613058E+02  0.61157314512E+01  0.96447187803E+02  0.92123813158E+02 0.  0.
         11    1    3    3    0    0 -0.22833290976E+02  0.18596000739E+02 -0.17720968650E+02  0.34368636144E+02  0.51100000000E-03 0. -1.
         22    1    1    0    0    0 -0.22483875899E+02  0.16502613058E+02 -0.61157314512E+01  0.28552812197E+02  0.00000000000E+00 0.  1.
</event>
<event>
 5    1  0.3186486E-003  0.9118800E+02  0.7818608E-02  0.1130116E+00
         25   -1    0    0    0    0  0.00000000000E+00  0.00000000000E+00  0.99999998245E-14  0.12500000000E+03  0.12500000000E+03 0.  0.
        -11    1    3    3    0    0  0.20301105590E+02 -0.40264298030E+02  0.38572390051E+02  0.59339513467E+02  0.51100000000E-03 0.  1.
         23    2    1    0    0    0 -0.39958839334E+01 -0.16531370889E+02  0.22171517648E+02  0.97056673307E+02  0.92947126511E+02 0.  0.
         11    1    3    3    0    0 -0.24296989523E+02  0.23732927141E+02 -0.16400872403E+02  0.37717159840E+02  0.51100000000E-03 0. -1.
         22    1    1    0    0    0  0.39958839334E+01  0.16531370889E+02 -0.22171517648E+02  0.27943326693E+02  0.00000000000E+00 0.  1.
</event>
<event>
 5    1  0.3186486E-003  0.9118800E+02  0.7818608E-02  0.1130116E+00
         25   -1    0    0    0    0  0.00000000000E+00  0.00000000000E+00  0.99999998245E-14  0.12500000000E+03  0.12500000000E+03 0.  0.
        -11    1    3    3    0    0  0.22653625080E+02 -0.71859714223E+01  0.81890253030E+00  0.23780149625E+02  0.51100000000E-03 0. -1.
         23    2    1    0    0    0 -0.23680635519E+02  0.30097980768E+02 -0.12479210817E+02  0.84721076883E+02  0.74533678432E+02 0.  0.
         11    1    3    3    0    0 -0.46334260599E+02  0.37283952190E+02 -0.13298113348E+02  0.60940927258E+02  0.51100000000E-03 0.  1.
         22    1    1    0    0    0  0.23680635519E+02 -0.30097980768E+02  0.12479210817E+02  0.40278923117E+02  0.00000000000E+00 0.  1.
</event>
<event>
 5    1  0.3186486E-003  0.9118800E+02  0.7818608E-02  0.1130116E+00
         25   -1    0    0    0    0  0.00000000000E+00  0.00000000000E+00  0.99999998245E-14  0.12500000000E+03  0.12500000000E+03 0.  0.
        -11    1    3    3    0    0 -0.33182385309E+02 -0.31576872669E+02  0.61000914228E+00  0.45809842760E+02  0.51100000000E-03 0. -1.
         23    2    1    0    0    0  0.15585987222E+02 -0.25384844920E+02 -0.27568221847E+01  0.95084896493E+02  0.90256435356E+02 0.  0.
         11    1    3    3    0    0  0.48768372530E+02  0.61920277488E+01 -0.33668313270E+01  0.49275053733E+02  0.51100000000E-03 0.  1.
         22    1    1    0    0    0 -0.15585987222E+02  0.25384844920E+02  0.27568221847E+01  0.29915103507E+02  0.00000000000E+00 0.  1.
</event>
<event>
 5    1  0.3186486E-003  0.9118800E+02  0.7818608E-02  0.1130116E+00
         25   -1    0    0    0    0  0.00000000000E+00  0.00000000000E+00  0.99999998245E-14  0.12500000000E+03  0.12500000000E+03 0.  0.
        -11    1    3    3    0    0 -0.20457601200E+02 -0.11825631499E+02 -0.37547028804E+02  0.44363705656E+02  0.51100000000E-03 0. -1.
         23    2    1    0    0    0 -0.27829130536E+02  0.52926755406E+00  0.11055318807E+02  0.95050697763E+02  0.90209059638E+02 0.  0.
         11    1    3    3    0    0 -0.73715293361E+01  0.12354899053E+02  0.48602347611E+02  0.50686992108E+02  0.51100000000E-03 0.  1.
         22    1    1    0    0    0  0.27829130536E+02 -0.52926755406E+00 -0.11055318807E+02  0.29949302237E+02  0.00000000000E+00 0.  1.
</event>
<event>
 5    1  0.3186486E-003  0.9118800E+02  0.7818608E-02  0.1130116E+00
         25   -1    0    0    0    0  0.00000000000E+00  0.00000000000E+00  0.99999998245E-14  0.12500000000E+03  0.12500000000E+03 0.  0.
        -11    1    3    3    0    0  0.24649871679E+02 -0.33380522014E+02 -0.22457396441E+02  0.47182730727E+02  0.51100000000E-03 0. -1.
         23    2    1    0    0    0 -0.29387950001E-01 -0.21513642442E+02  0.18617573710E+02  0.96549134888E+02  0.92262038358E+02 0.  0.
         11    1    3    3    0    0 -0.24679259629E+02  0.11866879572E+02  0.41074970151E+02  0.49366404161E+02  0.51100000000E-03 0.  1.
         22    1    1    0    0    0  0.29387950001E-01  0.21513642442E+02 -0.18617573710E+02  0.28450865112E+02  0.00000000000E+00 0.  1.
</event>
<event>
 5    1  0.3186486E-003  0.9118800E+02  0.7818608E-02  0.1130116E+00
         25   -1    0    0    0    0  0.00000000000E+00  0.00000000000E+00  0.99999998245E-14  0.12500000000E+03  0.12500000000E+03 0.  0.
        -11    1    3    3    0    0  0.15181554533E+02  0.22126313815E+02 -0.23444867517E+02  0.35633062936E+02  0.51100000000E-03 0. -1.
         23    2    1    0    0    0 -0.28291052092E+02 -0.58668808184E+01  0.65011719530E+01  0.95384646620E+02  0.90670621786E+02 0.  0.
         11    1    3    3    0    0 -0.43472606626E+02 -0.27993194633E+02  0.29946039470E+02  0.59751583684E+02  0.51100000000E-03 0.  1.
         22    1    1    0    0    0  0.28291052092E+02  0.58668808184E+01 -0.65011719530E+01  0.29615353380E+02  0.00000000000E+00 0.  1.
</event>
<event>
 5    1  0.3186486E-003  0.9118800E+02  0.7818608E-02  0.1130116E+00
         25   -1    0    0    0    0  0.00000000000E+00  0.00000000000E+00  0.99999998245E-14  0.12500000000E+03  0.12500000000E+03 0.  0.
        -11    1    3    3    0    0  0.24953578232E+02  0.13271914750E+02 -0.26941014754E+02  0.39046678014E+02  0.51100000000E-03 0.  1.
         23    2    1    0    0    0  0.13921284467E+01 -0.81357093285E+01  0.24280552591E+02  0.99354863580E+02  0.95988102882E+02 0.  0.
         11    1    3    3    0    0 -0.23561449785E+02 -0.21407624079E+02  0.51221567345E+02  0.60308185566E+02  0.51100000000E-03 0. -1.
         22    1    1    0    0    0 -0.13921284467E+01  0.81357093285E+01 -0.24280552591E+02  0.25645136420E+02  0.00000000000E+00 0. -1.
</event>
<event>
 5    1  0.3186486E-003  0.9118800E+02  0.7818608E-02  0.1130116E+00
         25   -1    0    0    0    0  0.00000000000E+00  0.00000000000E+00  0.99999998245E-14  0.12500000000E+03  0.12500000000E+03 0.  0.
        -11    1    3    3    0    0 -0.26537640567E+02 -0.51908234946E+02  0.14322760742E+01  0.58316058141E+02  0.51100000000E-03 0.  1.
         23    2    1    0    0    0 -0.87915000870E+01 -0.23060677718E+02 -0.15165316621E+02  0.96033257711E+02  0.91560441392E+02 0.  0.
         11    1    3    3    0    0  0.17746140480E+02  0.28847557227E+02 -0.16597592695E+02  0.37717199571E+02  0.51100000000E-03 0. -1.
         22    1    1    0    0    0  0.87915000870E+01  0.23060677718E+02  0.15165316621E+02  0.28966742289E+02  0.00000000000E+00 0.  1.
</event>
<event>
 5    1  0.3186486E-003  0.9118800E+02  0.7818608E-02  0.1130116E+00
         25   -1    0    0    0    0  0.00000000000E+00  0.00000000000E+00  0.99999998245E-14  0.12500000000E+03  0.12500000000E+03 0.  0.
        -11    1    3    3    0    0  0.23095429977E+02  0.19614857107E+02  0.47870496989E+02  0.56654443668E+02  0.51100000000E-03 0. -1.
         23    2    1    0    0    0  0.25227167200E+02 -0.10501504491E+01  0.14729135910E+02  0.95768848371E+02  0.91198750500E+02 0.  0.
         11    1    3    3    0    0  0.21317372225E+01 -0.20665007556E+02 -0.33141361078E+02  0.39114404703E+02  0.51100000000E-03 0.  1.
         22    1    1    0    0    0 -0.25227167200E+02  0.10501504491E+01 -0.14729135910E+02  0.29231151629E+02  0.00000000000E+00 0.  1.
</event>
<event>
 5    1  0.3186486E-003  0.9118800E+02  0.7818608E-02  0.1130116E+00
         25   -1    0    0    0    0  0.00000000000E+00  0.00000000000E+00  0.99999998245E-14  0.12500000000E+03  0.12500000000E+03 0.  0.
        -11    1    3    3    0    0  0.91965002096E+01  0.27627295693E+02  0.34122488696E+02  0.44857410965E+02  0.51100000000E-03 0. -1.
         23    2    1    0    0    0 -0.28204246853E+02  0.54767254697E+01  0.99478222978E+01  0.94595506403E+02  0.89576093913E+02 0.  0.
         11    1    3    3    0    0 -0.37400747063E+02 -0.22150570223E+02 -0.24174666398E+02  0.49738095438E+02  0.51100000000E-03 0.  1.
         22    1    1    0    0    0  0.28204246853E+02 -0.54767254697E+01 -0.99478222978E+01  0.30404493597E+02  0.00000000000E+00 0.  1.
</event>
<event>
 5    1  0.3186486E-003  0.9118800E+02  0.7818608E-02  0.1130116E+00
         25   -1    0    0    0    0  0.00000000000E+00  0.00000000000E+00  0.99999998245E-14  0.12500000000E+03  0.12500000000E+03 0.  0.
        -11    1    3    3    0    0  0.16116230175E+02  0.55642688864E+02 -0.70007543257E+01  0.58351111904E+02  0.51100000000E-03 0. -1.
         23    2    1    0    0    0  0.20054371528E+02  0.23253138330E+02  0.64166659210E+01  0.93630271581E+02  0.88218863602E+02 0.  0.
         11    1    3    3    0    0  0.39381413532E+01 -0.32389550534E+02  0.13417420247E+02  0.35279159676E+02  0.51100000000E-03 0.  1.
         22    1    1    0    0    0 -0.20054371528E+02 -0.23253138330E+02 -0.64166659210E+01  0.31369728419E+02  0.00000000000E+00 0. -1.
</event>
<event>
 5    1  0.3186486E-003  0.9118800E+02  0.7818608E-02  0.1130116E+00
         25   -1    0    0    0    0  0.00000000000E+00  0.00000000000E+00  0.99999998245E-14  0.12500000000E+03  0.12500000000E+03 0.  0.
        -11    1    3    3    0    0  0.34877010751E+02 -0.85574060622E+01  0.95580534739E+01  0.37161693502E+02  0.51100000000E-03 0.  1.
         23    2    1    0    0    0 -0.22392535170E+02 -0.52243706762E+01  0.18839095376E+02  0.95274065282E+02  0.90518044170E+02 0.  0.
         11    1    3    3    0    0 -0.57269545921E+02  0.33330353860E+01  0.92810419017E+01  0.58112371780E+02  0.51100000000E-03 0. -1.
         22    1    1    0    0    0  0.22392535170E+02  0.52243706762E+01 -0.18839095376E+02  0.29725934718E+02  0.00000000000E+00 0. -1.
</event>
<event>
 5    1  0.3186486E-003  0.9118800E+02  0.7818608E-02  0.1130116E+00
         25   -1    0    0    0    0  0.00000000000E+00  0.00000000000E+00  0.99999998245E-14  0.12500000000E+03  0.12500000000E+03 0.  0.
        -11    1    3    3    0    0 -0.21724466323E+02 -0.28525715153E+02  0.38787025660E+02  0.52821418211E+02  0.51100000000E-03 0.  1.
         23    2    1    0    0    0 -0.28905693132E+02 -0.26703971820E+00  0.84838464922E+01  0.94873831028E+02  0.89963646863E+02 0.  0.
         11    1    3    3    0    0 -0.71812268083E+01  0.28258675434E+02 -0.30303179168E+02  0.42052412817E+02  0.51100000000E-03 0. -1.
         22    1    1    0    0    0  0.28905693132E+02  0.26703971820E+00 -0.84838464922E+01  0.30126168972E+02  0.00000000000E+00 0.  1.
</event>
<event>
 5    1  0.3186486E-003  0.9118800E+02  0.7818608E-02  0.1130116E+00
         25   -1    0    0    0    0  0.00000000000E+00  0.00000000000E+00  0.99999998245E-14  0.12500000000E+03  0.12500000000E+03 0.  0.
        -11    1    3    3    0    0 -0.31198014335E+02  0.46812345359E+02  0.96212329875E+01  0.57072584495E+02  0.51100000000E-03 0. -1.
         23    2    1    0    0    0 -0.11824240663E+02  0.33729549920E+02  0.21494719500E+02  0.83292468648E+02  0.72097969195E+02 0.  0.
         11    1    3    3    0    0  0.19373773673E+02 -0.13082795438E+02  0.11873486513E+02  0.26219884153E+02  0.51100000000E-03 0.  1.
         22    1    1    0    0    0  0.11824240663E+02 -0.33729549920E+02 -0.21494719500E+02  0.41707531352E+02  0.00000000000E+00 0. -1.
</event>
<event>
 5    1  0.3186486E-003  0.9118800E+02  0.7818608E-02  0.1130116E+00
         25   -1    0    0    0    0  0.00000000000E+00  0.00000000000E+00  0.99999998245E-14  0.12500000000E+03  0.12500000000E+03 0.  0.
        -11    1    3    3    0    0  0.99016309890E+01  0.19142681007E+02  0.25339461984E+02  0.33265190008E+02  0.51100000000E-03 0.  1.
         23    2    1    0    0    0 -0.25996772030E+02 -0.15130656648E+02 -0.89816007977E+01  0.93608311936E+02  0.88187742822E+02 0.  0.
         11    1    3    3    0    0 -0.35898403019E+02 -0.34273337655E+02 -0.34321062781E+02  0.60343121928E+02  0.51100000000E-03 0. -1.
         22    1    1    0    0    0  0.25996772030E+02  0.15130656648E+02  0.89816007977E+01  0.31391688064E+02  0.00000000000E+00 0. -1.
</event>
<event>
 5    1  0.3186486E-003  0.9118800E+02  0.7818608E-02  0.1130116E+00
         25   -1    0    0    0    0  0.00000000000E+00  0.00000000000E+00  0.99999998245E-14  0.12500000000E+03  0.12500000000E+03 0.  0.
        -11    1    3    3    0    0  0.15063783231E+02 -0.15567054533E+02  0.34130035056E+02  0.40424127019E+02  0.51100000000E-03 0.  1.
         23    2    1    0    0    0 -0.14412219332E+02  0.23413929552E+02  0.58399148846E+01  0.96892549582E+02  0.92726141921E+02 0.  0.
         11    1    3    3    0    0 -0.29476002562E+02  0.38980984084E+02 -0.28290120172E+02  0.56468422564E+02  0.51100000000E-03 0. -1.
         22    1    1    0    0    0  0.14412219332E+02 -0.23413929552E+02 -0.58399148846E+01  0.28107450418E+02  0.00000000000E+00 0. -1.
</event>
<event>
 5    1  0.3186486E-003  0.9118800E+02  0.7818608E-02  0.1130116E+00
         25   -1    0    0    0    0  0.00000000000E+00  0.00000000000E+00  0.99999998245E-14  0.12500000000E+03  0.12500000000E+03 0.  0.
        -11    1    3    3    0    0  0.32284353773E+02 -0.36248230792E+02 -0.60228899331E+01  0.48913075323E+02  0.51100000000E-03 0. -1.
         23    2    1    0    0    0  0.22575000742E+01 -0.18405814997E+02  0.23791455964E+02  0.94835389789E+02  0.89910218815E+02 0.  0.
         11    1    3    3    0    0 -0.30026853699E+02  0.17842415795E+02  0.29814345897E+02  0.45922314466E+02  0.51100000000E-03 0.  1.
         22    1    1    0    0    0 -0.22575000742E+01  0.18405814997E+02 -0.23791455964E+02  0.30164610211E+02  0.00000000000E+00 0. -1.
</event>
<event>
 5    1  0.3186486E-003  0.9118800E+02  0.7818608E-02  0.1130116E+00
         25   -1    0    0    0    0  0.00000000000E+00  0.00000000000E+00  0.99999998245E-14  0.12500000000E+03  0.12500000000E+03 0.  0.
        -11    1    3    3    0    0 -0.59055801567E+02  0.14827499346E+02 -0.98847460798E+01  0.61685903097E+02  0.51100000000E-03 0. -1.
         23    2    1    0    0    0 -0.29391363456E+02  0.25084783263E+01  0.66379321894E+00  0.95494316976E+02  0.90821689281E+02 0.  0.
         11    1    3    3    0    0  0.29664438112E+02 -0.12319021020E+02  0.10548539299E+02  0.33808413878E+02  0.51100000000E-03 0.  1.
         22    1    1    0    0    0  0.29391363456E+02 -0.25084783263E+01 -0.66379321894E+00  0.29505683024E+02  0.00000000000E+00 0. -1.
</event>
<event>
 5    1  0.3186486E-003  0.9118800E+02  0.7818608E-02  0.1130116E+00
         25   -1    0    0    0    0  0.00000000000E+00  0.00000000000E+00  0.99999998245E-14  0.12500000000E+03  0.12500000000E+03 0.  0.
        -11    1    3    3    0    0 -0.34583960707E+02 -0.39315821319E+00  0.73573810440E+01  0.35360090040E+02  0.51100000000E-03 0.  1.
         23    2    1    0    0    0  0.20127328333E+02  0.21676223340E+01 -0.19964624895E+02  0.96567726444E+02  0.92287223443E+02 0.  0.
         11    1    3    3    0    0  0.54711289039E+02  0.25607805472E+01 -0.27322005939E+02  0.61207636404E+02  0.51100000000E-03 0. -1.
         22    1    1    0    0    0 -0.20127328333E+02 -0.21676223340E+01  0.19964624895E+02  0.28432273556E+02  0.00000000000E+00 0. -1.
</event>
<event>
 5    1  0.3186486E-003  0.9118800E+02  0.7818608E-02  0.1130116E+00
         25   -1    0    0    0    0  0.00000000000E+00  0.00000000000E+00  0.99999998245E-14  0.12500000000E+03  0.12500000000E+03 0.  0.
        -11    1    3    3    0    0 -0.45098790931E+02  0.19335448333E+02 -0.26183891000E+02  0.55617952621E+02  0.51100000000E-03 0. -1.
         23    2    1    0    0    0 -0.29226036138E+02 -0.69990581894E+01 -0.17420577192E+01  0.94897130221E+02  0.89996014107E+02 0.  0.
         11    1    3    3    0    0  0.15872754793E+02 -0.26334506522E+02  0.24441833281E+02  0.39279177599E+02  0.51100000000E-03 0.  1.
         22    1    1    0    0    0  0.29226036138E+02  0.69990581894E+01  0.17420577192E+01  0.30102869779E+02  0.00000000000E+00 0. -1.
</event>
<event>
 5    1  0.3186486E-003  0.9118800E+02  0.7818608E-02  0.1130116E+00
         25   -1    0    0    0    0  0.00000000000E+00  0.00000000000E+00  0.99999998245E-14  0.12500000000E+03  0.12500000000E+03 0.  0.
        -11    1    3    3    0    0  0.26382950820E+02  0.33469155130E+02 -0.23950030978E+02  0.48886075964E+02  0.51100000000E-03 0. -1.
         23    2    1    0    0    0  0.36132486146E+01  0.25338036113E+02  0.15443319146E+02  0.95107396469E+02  0.90287591159E+02 0.  0.
         11    1    3    3    0    0 -0.22769702205E+02 -0.81311190169E+01  0.39393350124E+02  0.46221320505E+02  0.51100000000E-03 0.  1.
         22    1    1    0    0    0 -0.36132486146E+01 -0.25338036113E+02 -0.15443319146E+02  0.29892603531E+02  0.00000000000E+00 0. -1.
</event>
<event>
 5    1  0.3186486E-003  0.9118800E+02  0.7818608E-02  0.1130116E+00
         25   -1    0    0    0    0  0.00000000000E+00  0.00000000000E+00  0.99999998245E-14  0.12500000000E+03  0.12500000000E+03 0.  0.
        -11    1    3    3    0    0  0.20967690401E+02 -0.35211192425E+02  0.20427036600E+02  0.45790129256E+02  0.51100000000E-03 0.  1.
         23    2    1    0    0    0  0.23111434799E+02  0.12297366065E+02 -0.27174642006E+01  0.98679889015E+02  0.95105059034E+02 0.  0.
         11    1    3    3    0    0  0.21437443974E+01  0.47508558490E+02 -0.23144500801E+02  0.52889759759E+02  0.51100000000E-03 0. -1.
         22    1    1    0    0    0 -0.23111434799E+02 -0.12297366065E+02  0.27174642006E+01  0.26320110985E+02  0.00000000000E+00 0.  1.
</event>
<event>
 5    1  0.3186486E-003  0.9118800E+02  0.7818608E-02  0.1130116E+00
         25   -1    0    0    0    0  0.00000000000E+00  0.00000000000E+00  0.99999998245E-14  0.12500000000E+03  0.12500000000E+03 0.  0.
        -11    1    3    3    0    0  0.87006373918E+01  0.29986968685E+01 -0.30006732700E+02  0.31386259439E+02  0.51100000000E-03 0.  1.
         23    2    1    0    0    0  0.59258857971E+01 -0.23176224266E+01  0.31337559561E+02  0.93022974881E+02  0.87354128239E+02 0.  0.
         11    1    3    3    0    0 -0.27747515948E+01 -0.53163192951E+01  0.61344292261E+02  0.61636715443E+02  0.51100000000E-03 0. -1.
         22    1    1    0    0    0 -0.59258857971E+01  0.23176224266E+01 -0.31337559561E+02  0.31977025119E+02  0.00000000000E+00 0. -1.
</event>
<event>
 5    1  0.3186486E-003  0.9118800E+02  0.7818608E-02  0.1130116E+00
         25   -1    0    0    0    0  0.00000000000E+00  0.00000000000E+00  0.99999998245E-14  0.12500000000E+03  0.12500000000E+03 0.  0.
        -11    1    3    3    0    0  0.52630301340E+02 -0.90934165281E+01 -0.16869788537E+02  0.56010968648E+02  0.51100000000E-03 0.  1.
         23    2    1    0    0    0  0.26420950176E+02  0.25134207995E+01  0.11257836492E+02  0.96170799963E+02  0.91748024451E+02 0.  0.
         11    1    3    3    0    0 -0.26209351164E+02  0.11606837328E+02  0.28127625029E+02  0.40159831315E+02  0.51100000000E-03 0. -1.
         22    1    1    0    0    0 -0.26420950176E+02 -0.25134207995E+01 -0.11257836492E+02  0.28829200037E+02  0.00000000000E+00 0.  1.
</event>
<event>
 5    1  0.3186486E-003  0.9118800E+02  0.7818608E-02  0.1130116E+00
         25   -1    0    0    0    0  0.00000000000E+00  0.00000000000E+00  0.99999998245E-14  0.12500000000E+03  0.12500000000E+03 0.  0.
        -11    1    3    3    0    0 -0.36831798897E+02  0.96898999168E+01 -0.48675921242E+02  0.61804699493E+02  0.51100000000E-03 0.  1.
         23    2    1    0    0    0 -0.17078070191E+02  0.10636587841E+02 -0.20066068237E+02  0.96584430732E+02  0.92309846078E+02 0.  0.
         11    1    3    3    0    0  0.19753728706E+02  0.94668792407E+00  0.28609853005E+02  0.34779731239E+02  0.51100000000E-03 0. -1.
         22    1    1    0    0    0  0.17078070191E+02 -0.10636587841E+02  0.20066068237E+02  0.28415569268E+02  0.00000000000E+00 0.  1.
</event>
<event>
 5    1  0.3186486E-003  0.9118800E+02  0.7818608E-02  0.1130116E+00
         25   -1    0    0    0    0  0.00000000000E+00  0.00000000000E+00  0.99999998245E-14  0.12500000000E+03  0.12500000000E+03 0.  0.
        -11    1    3    3    0    0 -0.24014716430E+02  0.22241929190E+02 -0.46098800641E+02  0.56537681595E+02  0.51100000000E-03 0. -1.
         23    2    1    0    0    0  0.70535577606E+01  0.60976811020E+01 -0.27032015404E+02  0.96405170944E+02  0.92066784108E+02 0.  0.
         11    1    3    3    0    0  0.31068274191E+02 -0.16144248088E+02  0.19066785237E+02  0.39867489350E+02  0.51100000000E-03 0.  1.
         22    1    1    0    0    0 -0.70535577606E+01 -0.60976811020E+01  0.27032015404E+02  0.28594829056E+02  0.00000000000E+00 0.  1.
</event>
<event>
 5    1  0.3186486E-003  0.9118800E+02  0.7818608E-02  0.1130116E+00
         25   -1    0    0    0    0  0.00000000000E+00  0.00000000000E+00  0.99999998245E-14  0.12500000000E+03  0.12500000000E+03 0.  0.
        -11    1    3    3    0    0  0.46081885940E+02 -0.29871293535E+01  0.23934553283E+02  0.52012748386E+02  0.51100000000E-03 0.  1.
         23    2    1    0    0    0  0.22510704372E+02  0.19066801504E+02 -0.46571620223E+01  0.95134235502E+02  0.90324741215E+02 0.  0.
         11    1    3    3    0    0 -0.23571181568E+02  0.22053930858E+02 -0.28591715305E+02  0.43121487116E+02  0.51100000000E-03 0. -1.
         22    1    1    0    0    0 -0.22510704372E+02 -0.19066801504E+02  0.46571620223E+01  0.29865764498E+02  0.00000000000E+00 0.  1.
</event>
<event>
 5    1  0.3186486E-003  0.9118800E+02  0.7818608E-02  0.1130116E+00
         25   -1    0    0    0    0  0.00000000000E+00  0.00000000000E+00  0.99999998245E-14  0.12500000000E+03  0.12500000000E+03 0.  0.
        -11    1    3    3    0    0  0.26173619869E+02 -0.16976241787E+02 -0.35499320719E+02  0.47259421643E+02  0.51100000000E-03 0.  1.
         23    2    1    0    0    0 -0.14534979797E+02 -0.12935073441E+02 -0.30979527080E+02  0.88417041389E+02  0.80493852854E+02 0.  0.
         11    1    3    3    0    0 -0.40708599666E+02  0.40411683467E+01  0.45197936391E+01  0.41157619746E+02  0.51100000000E-03 0. -1.
         22    1    1    0    0    0  0.14534979797E+02  0.12935073441E+02  0.30979527080E+02  0.36582958611E+02  0.00000000000E+00 0.  1.
</event>
<event>
 5    1  0.3186486E-003  0.9118800E+02  0.7818608E-02  0.1130116E+00
         25   -1    0    0    0    0  0.00000000000E+00  0.00000000000E+00  0.99999998245E-14  0.12500000000E+03  0.12500000000E+03 0.  0.
        -11    1    3    3    0    0 -0.39512338901E+02  0.13772124318E+02  0.44682340125E+00  0.41846098804E+02  0.51100000000E-03 0.  1.
         23    2    1    0    0    0  0.44356294800E+00 -0.25240406999E+02  0.87059650097E+01  0.98296653387E+02  0.94600017689E+02 0.  0.
         11    1    3    3    0    0  0.39955901849E+02 -0.39012531318E+02  0.82591416085E+01  0.56450554583E+02  0.51100000000E-03 0. -1.
         22    1    1    0    0    0 -0.44356294800E+00  0.25240406999E+02 -0.87059650097E+01  0.26703346613E+02  0.00000000000E+00 0. -1.
</event>
<event>
 5    1  0.3186486E-003  0.9118800E+02  0.7818608E-02  0.1130116E+00
         25   -1    0    0    0    0  0.00000000000E+00  0.00000000000E+00  0.99999998245E-14  0.12500000000E+03  0.12500000000E+03 0.  0.
        -11    1    3    3    0    0 -0.97638495643E+01  0.29456316693E+02  0.39465057702E+02  0.50204562852E+02  0.51100000000E-03 0.  1.
         23    2    1    0    0    0 -0.28968844653E+02  0.14743672288E+02  0.53032739996E+01  0.92065298724E+02  0.85972813615E+02 0.  0.
         11    1    3    3    0    0 -0.19204995089E+02 -0.14712644406E+02 -0.34161783702E+02  0.41860735872E+02  0.51100000000E-03 0. -1.
         22    1    1    0    0    0  0.28968844653E+02 -0.14743672288E+02 -0.53032739996E+01  0.32934701276E+02  0.00000000000E+00 0. -1.
</event>
<event>
 5    1  0.3186486E-003  0.9118800E+02  0.7818608E-02  0.1130116E+00
         25   -1    0    0    0    0  0.00000000000E+00  0.00000000000E+00  0.99999998245E-14  0.12500000000E+03  0.12500000000E+03 0.  0.
        -11    1    3    3    0    0  0.88180974394E+01 -0.40300879858E+02  0.26248953290E+02  0.48897109412E+02  0.51100000000E-03 0.  1.
         23    2    1    0    0    0  0.25842801508E+02 -0.12325592367E+02 -0.69572848313E+01  0.95535200167E+02  0.90877940348E+02 0.  0.
         11    1    3    3    0    0  0.17024704068E+02  0.27975287492E+02 -0.33206238121E+02  0.46638090755E+02  0.51100000000E-03 0. -1.
         22    1    1    0    0    0 -0.25842801508E+02  0.12325592367E+02  0.69572848313E+01  0.29464799833E+02  0.00000000000E+00 0.  1.
</event>
<event>
 5    1  0.3186486E-003  0.9118800E+02  0.7818608E-02  0.1130116E+00
         25   -1    0    0    0    0  0.00000000000E+00  0.00000000000E+00  0.99999998245E-14  0.12500000000E+03  0.12500000000E+03 0.  0.
        -11    1    3    3    0    0  0.50603869211E+02  0.44226654369E+01 -0.29909525824E+02  0.58948208488E+02  0.51100000000E-03 0.  1.
         23    2    1    0    0    0  0.28003231655E+02 -0.96235500880E+01 -0.58610783502E+01  0.94814805966E+02  0.89881597068E+02 0.  0.
         11    1    3    3    0    0 -0.22600637556E+02 -0.14046215525E+02  0.24048447473E+02  0.35866597478E+02  0.51100000000E-03 0. -1.
         22    1    1    0    0    0 -0.28003231655E+02  0.96235500880E+01  0.58610783502E+01  0.30185194034E+02  0.00000000000E+00 0.  1.
</event>
<event>
 5    1  0.3186486E-003  0.9118800E+02  0.7818608E-02  0.1130116E+00
         25   -1    0    0    0    0  0.00000000000E+00  0.00000000000E+00  0.99999998245E-14  0.12500000000E+03  0.12500000000E+03 0.  0.
        -11    1    3    3    0    0  0.33144848511E+02 -0.17465354492E+02  0.12563823584E+02  0.39515430577E+02  0.51100000000E-03 0.  1.
         23    2    1    0    0    0 -0.68783387535E+01 -0.11718279846E+02 -0.26172856085E+02  0.95510204778E+02  0.90843553401E+02 0.  0.
         11    1    3    3    0    0 -0.40023187265E+02  0.57470746454E+01 -0.38736679669E+02  0.55994774201E+02  0.51100000000E-03 0. -1.
         22    1    1    0    0    0  0.68783387535E+01  0.11718279846E+02  0.26172856085E+02  0.29489795222E+02  0.00000000000E+00 0. -1.
</event>
<event>
 5    1  0.3186486E-003  0.9118800E+02  0.7818608E-02  0.1130116E+00
         25   -1    0    0    0    0  0.00000000000E+00  0.00000000000E+00  0.99999998245E-14  0.12500000000E+03  0.12500000000E+03 0.  0.
        -11    1    3    3    0    0  0.44161248603E+02 -0.29600259704E+02  0.23566097550E+02  0.58152834899E+02  0.51100000000E-03 0.  1.
         23    2    1    0    0    0  0.12036026947E+02 -0.25721109261E+02  0.31165161940E+01  0.96431589483E+02  0.92102645840E+02 0.  0.
         11    1    3    3    0    0 -0.32125221656E+02  0.38791504425E+01 -0.20449581356E+02  0.38278754584E+02  0.51100000000E-03 0. -1.
         22    1    1    0    0    0 -0.12036026947E+02  0.25721109261E+02 -0.31165161940E+01  0.28568410517E+02  0.00000000000E+00 0.  1.
</event>
<event>
 5    1  0.3186486E-003  0.9118800E+02  0.7818608E-02  0.1130116E+00
         25   -1    0    0    0    0  0.00000000000E+00  0.00000000000E+00  0.99999998245E-14  0.12500000000E+03  0.12500000000E+03 0.  0.
        -11    1    3    3    0    0 -0.27888298721E+02  0.21679507684E+02 -0.44987034611E+02  0.57197828126E+02  0.51100000000E-03 0.  1.
         23    2    1    0    0    0 -0.36011287378E+01 -0.34592264068E+01 -0.28891520241E+02  0.95680137835E+02  0.91077079766E+02 0.  0.
         11    1    3    3    0    0  0.24287169983E+02 -0.25138734091E+02  0.16095514369E+02  0.38482309709E+02  0.51100000000E-03 0. -1.
         22    1    1    0    0    0  0.36011287378E+01  0.34592264068E+01  0.28891520241E+02  0.29319862165E+02  0.00000000000E+00 0.  1.
</event>
<event>
 5    1  0.3186486E-003  0.9118800E+02  0.7818608E-02  0.1130116E+00
         25   -1    0    0    0    0  0.00000000000E+00  0.00000000000E+00  0.99999998245E-14  0.12500000000E+03  0.12500000000E+03 0.  0.
        -11    1    3    3    0    0 -0.34639408116E+02 -0.27564090180E+02 -0.22584790389E+02  0.49696482967E+02  0.51100000000E-03 0. -1.
         23    2    1    0    0    0 -0.11896594224E+02 -0.20326746407E+02  0.17023479138E+02  0.95939641854E+02  0.91432545975E+02 0.  0.
         11    1    3    3    0    0  0.22742813893E+02  0.72373437731E+01  0.39608269527E+02  0.46243158887E+02  0.51100000000E-03 0.  1.
         22    1    1    0    0    0  0.11896594224E+02  0.20326746407E+02 -0.17023479138E+02  0.29060358146E+02  0.00000000000E+00 0. -1.
</event>
<event>
 5    1  0.3186486E-003  0.9118800E+02  0.7818608E-02  0.1130116E+00
         25   -1    0    0    0    0  0.00000000000E+00  0.00000000000E+00  0.99999998245E-14  0.12500000000E+03  0.12500000000E+03 0.  0.
        -11    1    3    3    0    0 -0.16917550762E+02  0.46436826363E+02 -0.24629719218E+02  0.55219610968E+02  0.51100000000E-03 0. -1.
         23    2    1    0    0    0 -0.23922462883E+02  0.16271425030E+02  0.19116583866E+01  0.96005208387E+02  0.91522139927E+02 0.  0.
         11    1    3    3    0    0 -0.70049121210E+01 -0.30165401333E+02  0.26541377605E+02  0.40785597419E+02  0.51100000000E-03 0.  1.
         22    1    1    0    0    0  0.23922462883E+02 -0.16271425030E+02 -0.19116583866E+01  0.28994791613E+02  0.00000000000E+00 0. -1.
</event>
<event>
 4    1  0.3186486E-003  0.9118800E+02  0.7818608E-02  0.1130116E+00
         25   -1    0    0    0    0  0.00000000000E+00  0.00000000000E+00  0.99999998245E-14  0.12500000000E+03  0.12500000000E+03 0.  0.
        -11    1    1    0    0    0 -0.15815119919E+01  0.97141367753E+01 -0.63143161556E+01  0.11693426454E+02  0.51100000000E-03 0. -1.
         11    1    1    0    0    0  0.30738470129E+02  0.26666210330E+02  0.39002806735E+02  0.56366295361E+02  0.51100000000E-03 0.  1.
         22    1    1    0    0    0 -0.29156958138E+02 -0.36380347106E+02 -0.32688490580E+02  0.56940278184E+02  0.00000000000E+00 0.  1.
</event>
<event>
 5    1  0.3186486E-003  0.9118800E+02  0.7818608E-02  0.1130116E+00
         25   -1    0    0    0    0  0.00000000000E+00  0.00000000000E+00  0.99999998245E-14  0.12500000000E+03  0.12500000000E+03 0.  0.
        -11    1    3    3    0    0  0.27692717734E+02 -0.55008257500E+02 -0.10460200643E+02  0.62467678094E+02  0.51100000000E-03 0. -1.
         23    2    1    0    0    0  0.11940649274E+02 -0.25850284012E+02 -0.37756404055E+01  0.96275937803E+02  0.91891155455E+02 0.  0.
         11    1    3    3    0    0 -0.15752068460E+02  0.29157973488E+02  0.66845602379E+01  0.33808259709E+02  0.51100000000E-03 0.  1.
         22    1    1    0    0    0 -0.11940649274E+02  0.25850284012E+02  0.37756404055E+01  0.28724062197E+02  0.00000000000E+00 0. -1.
</event>
<event>
 5    1  0.3186486E-003  0.9118800E+02  0.7818608E-02  0.1130116E+00
         25   -1    0    0    0    0  0.00000000000E+00  0.00000000000E+00  0.99999998245E-14  0.12500000000E+03  0.12500000000E+03 0.  0.
        -11    1    3    3    0    0 -0.40285791935E+01 -0.25078764282E+02  0.50566021124E+02  0.56587068848E+02  0.51100000000E-03 0. -1.
         23    2    1    0    0    0 -0.20290185103E+02 -0.10278751838E+02  0.17477028577E+02  0.96315668410E+02  0.91945185315E+02 0.  0.
         11    1    3    3    0    0 -0.16261605910E+02  0.14800012444E+02 -0.33088992547E+02  0.39728599562E+02  0.51100000000E-03 0.  1.
         22    1    1    0    0    0  0.20290185103E+02  0.10278751838E+02 -0.17477028577E+02  0.28684331590E+02  0.00000000000E+00 0. -1.
</event>
<event>
 5    1  0.3186486E-003  0.9118800E+02  0.7818608E-02  0.1130116E+00
         25   -1    0    0    0    0  0.00000000000E+00  0.00000000000E+00  0.99999998245E-14  0.12500000000E+03  0.12500000000E+03 0.  0.
        -11    1    3    3    0    0  0.23848221460E+02 -0.49758825239E+02  0.46045772626E+01  0.55370393605E+02  0.51100000000E-03 0. -1.
         23    2    1    0    0    0 -0.10408680443E+02 -0.25288265758E+02  0.79142149341E+00  0.97641941561E+02  0.93730920139E+02 0.  0.
         11    1    3    3    0    0 -0.34256901904E+02  0.24470559481E+02 -0.38131557692E+01  0.42271547955E+02  0.51100000000E-03 0.  1.
         22    1    1    0    0    0  0.10408680443E+02  0.25288265758E+02 -0.79142149341E+00  0.27358058439E+02  0.00000000000E+00 0.  1.
</event>
