<event>
 5    1  0.8752570E-005  0.9118800E+02  0.7818608E-02  0.1130116E+00
         25   -1    0    0    0    0  0.00000000000E+00  0.00000000000E+00  0.99999998245E-14  0.12500000000E+03  0.12500000000E+03 0.  0.
        -11    1    3    3    0    0  0.38164426708E+01 -0.44532108030E+02 -0.33516775864E+02  0.55866341789E+02  0.51100000000E-03 0.  1.
         23    2    1    0    0    0 -0.18290856398E+02 -0.17235518017E+02 -0.11175651946E+02  0.97495205772E+02  0.93535027894E+02 0.  0.
         11    1    3    3    0    0 -0.22107299068E+02  0.27296590013E+02  0.22341123917E+02  0.41628863984E+02  0.51100000000E-03 0. -1.
         22    1    1    0    0    0  0.18290856398E+02  0.17235518017E+02  0.11175651946E+02  0.27504794228E+02  0.00000000000E+00 0.  1.
</event>
<event>
 5    1  0.8752570E-005  0.9118800E+02  0.7818608E-02  0.1130116E+00
         25   -1    0    0    0    0  0.00000000000E+00  0.00000000000E+00  0.99999998245E-14  0.12500000000E+03  0.12500000000E+03 0.  0.
        -11    1    3    3    0    0 -0.16660125279E+02  0.43474618194E+02 -0.36948271688E+02  0.59437168358E+02  0.51100000000E-03 0. -1.
         23    2    1    0    0    0 -0.16927573381E+02  0.98963574382E+01 -0.19769213453E+02  0.97155746883E+02  0.93080270308E+02 0.  0.
         11    1    3    3    0    0 -0.26744810135E+00 -0.33578260756E+02  0.17179058234E+02  0.37718578525E+02  0.51100000000E-03 0.  1.
         22    1    1    0    0    0  0.16927573381E+02 -0.98963574382E+01  0.19769213453E+02  0.27844253117E+02  0.00000000000E+00 0. -1.
</event>
<event>
 5    1  0.8752570E-005  0.9118800E+02  0.7818608E-02  0.1130116E+00
         25   -1    0    0    0    0  0.00000000000E+00  0.00000000000E+00  0.99999998245E-14  0.12500000000E+03  0.12500000000E+03 0.  0.
        -11    1    3    3    0    0 -0.33339964286E+02 -0.29662875431E+02 -0.39138711257E+02  0.59357207789E+02  0.51100000000E-03 0.  1.
         23    2    1    0    0    0 -0.19522722459E+02 -0.11006631694E+01 -0.22522639536E+02  0.95173544574E+02  0.90379124490E+02 0.  0.
         11    1    3    3    0    0  0.13817241827E+02  0.28562212262E+02  0.16616071721E+02  0.35816336785E+02  0.51100000000E-03 0. -1.
         22    1    1    0    0    0  0.19522722459E+02  0.11006631694E+01  0.22522639536E+02  0.29826455426E+02  0.00000000000E+00 0.  1.
</event>
<event>
 5    1  0.8752570E-005  0.9118800E+02  0.7818608E-02  0.1130116E+00
         25   -1    0    0    0    0  0.00000000000E+00  0.00000000000E+00  0.99999998245E-14  0.12500000000E+03  0.12500000000E+03 0.  0.
        -11    1    3    3    0    0  0.27034146994E+02  0.15680316707E+02 -0.23769364871E+02  0.39264489585E+02  0.51100000000E-03 0.  1.
         23    2    1    0    0    0 -0.47123391952E+01 -0.27159621360E+02 -0.15941956009E+02  0.93156678338E+02  0.87545243072E+02 0.  0.
         11    1    3    3    0    0 -0.31746486189E+02 -0.42839938066E+02  0.78274088622E+01  0.53892188753E+02  0.51100000000E-03 0. -1.
         22    1    1    0    0    0  0.47123391952E+01  0.27159621360E+02  0.15941956009E+02  0.31843321662E+02  0.00000000000E+00 0. -1.
</event>
<event>
 5    1  0.8752570E-005  0.9118800E+02  0.7818608E-02  0.1130116E+00
         25   -1    0    0    0    0  0.00000000000E+00  0.00000000000E+00  0.99999998245E-14  0.12500000000E+03  0.12500000000E+03 0.  0.
        -11    1    3    3    0    0 -0.36447298270E+02 -0.11564290784E+02 -0.22296035350E+02  0.44263433725E+02  0.51100000000E-03 0. -1.
         23    2    1    0    0    0  0.35128977151E+01 -0.26617288716E+02  0.84176392149E+01  0.96863241856E+02  0.92686625054E+02 0.  0.
         11    1    3    3    0    0  0.39960195985E+02 -0.15052997932E+02  0.30713674565E+02  0.52599808131E+02  0.51100000000E-03 0.  1.
         22    1    1    0    0    0 -0.35128977151E+01  0.26617288716E+02 -0.84176392149E+01  0.28136758144E+02  0.00000000000E+00 0.  1.
</event>
<event>
 5    1  0.8752570E-005  0.9118800E+02  0.7818608E-02  0.1130116E+00
         25   -1    0    0    0    0  0.00000000000E+00  0.00000000000E+00  0.99999998245E-14  0.12500000000E+03  0.12500000000E+03 0.  0.
        -11    1    3    3    0    0 -0.73884060592E+01  0.13263085559E+02 -0.54908843209E+02  0.56969106061E+02  0.51100000000E-03 0.  1.
         23    2    1    0    0    0 -0.19358982074E+02  0.11648046872E+02 -0.17086531883E+02  0.96673391402E+02  0.92430232340E+02 0.  0.
         11    1    3    3    0    0 -0.11970576015E+02 -0.16150386864E+01  0.37822311326E+02  0.39704285340E+02  0.51100000000E-03 0. -1.
         22    1    1    0    0    0  0.19358982074E+02 -0.11648046872E+02  0.17086531883E+02  0.28326608598E+02  0.00000000000E+00 0.  1.
</event>
<event>
 5    1  0.8752570E-005  0.9118800E+02  0.7818608E-02  0.1130116E+00
         25   -1    0    0    0    0  0.00000000000E+00  0.00000000000E+00  0.99999998245E-14  0.12500000000E+03  0.12500000000E+03 0.  0.
        -11    1    3    3    0    0  0.25716716592E+02 -0.99228711466E+01  0.33392909879E+02  0.43300107558E+02  0.51100000000E-03 0.  1.
         23    2    1    0    0    0  0.49214196565E+01 -0.27374326688E+02 -0.10798451778E+02  0.95164103938E+02  0.90366066554E+02 0.  0.
         11    1    3    3    0    0 -0.20795296936E+02 -0.17451455541E+02 -0.44191361657E+02  0.51863996380E+02  0.51100000000E-03 0. -1.
         22    1    1    0    0    0 -0.49214196565E+01  0.27374326688E+02  0.10798451778E+02  0.29835896062E+02  0.00000000000E+00 0. -1.
</event>
<event>
 5    1  0.8752570E-005  0.9118800E+02  0.7818608E-02  0.1130116E+00
         25   -1    0    0    0    0  0.00000000000E+00  0.00000000000E+00  0.99999998245E-14  0.12500000000E+03  0.12500000000E+03 0.  0.
        -11    1    3    3    0    0  0.31223085174E+02 -0.21859144864E+02 -0.28672471251E+02  0.47695008857E+02  0.51100000000E-03 0. -1.
         23    2    1    0    0    0 -0.16298855492E+02 -0.17699360991E+02 -0.10610260287E+02  0.98703656277E+02  0.95136292072E+02 0.  0.
         11    1    3    3    0    0 -0.47521940666E+02  0.41597838730E+01  0.18062210963E+02  0.51008647420E+02  0.51100000000E-03 0.  1.
         22    1    1    0    0    0  0.16298855492E+02  0.17699360991E+02  0.10610260287E+02  0.26296343723E+02  0.00000000000E+00 0.  1.
</event>
<event>
 5    1  0.8752570E-005  0.9118800E+02  0.7818608E-02  0.1130116E+00
         25   -1    0    0    0    0  0.00000000000E+00  0.00000000000E+00  0.99999998245E-14  0.12500000000E+03  0.12500000000E+03 0.  0.
        -11    1    3    3    0    0  0.54048852314E+02 -0.10541186148E+02  0.86096390983E+01  0.55736172523E+02  0.51100000000E-03 0. -1.
         23    2    1    0    0    0  0.25886108659E+02  0.15356389659E+02  0.73518130779E+01  0.94016803257E+02  0.88764862497E+02 0.  0.
         11    1    3    3    0    0 -0.28162743654E+02  0.25897575808E+02 -0.12578260203E+01  0.38280630734E+02  0.51100000000E-03 0.  1.
         22    1    1    0    0    0 -0.25886108659E+02 -0.15356389659E+02 -0.73518130779E+01  0.30983196743E+02  0.00000000000E+00 0. -1.
</event>
<event>
 5    1  0.8752570E-005  0.9118800E+02  0.7818608E-02  0.1130116E+00
         25   -1    0    0    0    0  0.00000000000E+00  0.00000000000E+00  0.99999998245E-14  0.12500000000E+03  0.12500000000E+03 0.  0.
        -11    1    3    3    0    0 -0.96749908689E+01  0.12924318063E+02 -0.53294371985E+02  0.55686026355E+02  0.51100000000E-03 0.  1.
         23    2    1    0    0    0 -0.13338540207E+02  0.22441033907E+02 -0.15928513861E+02  0.94418400770E+02  0.89328607917E+02 0.  0.
         11    1    3    3    0    0 -0.36635493381E+01  0.95167158438E+01  0.37365858124E+02  0.38732374415E+02  0.51100000000E-03 0. -1.
         22    1    1    0    0    0  0.13338540207E+02 -0.22441033907E+02  0.15928513861E+02  0.30581599230E+02  0.00000000000E+00 0.  1.
</event>
<event>
 5    1  0.8752570E-005  0.9118800E+02  0.7818608E-02  0.1130116E+00
         25   -1    0    0    0    0  0.00000000000E+00  0.00000000000E+00  0.99999998245E-14  0.12500000000E+03  0.12500000000E+03 0.  0.
        -11    1    3    3    0    0 -0.24107977354E+02  0.24325746516E+02 -0.45340931941E+02  0.56821973084E+02  0.51100000000E-03 0.  1.
         23    2    1    0    0    0 -0.12015768091E+01 -0.96596393346E+01 -0.11179624895E+02  0.11017649057E+03  0.10917473446E+03 0.  0.
         11    1    3    3    0    0  0.22906400545E+02 -0.33985385850E+02  0.34161307045E+02  0.53354517490E+02  0.51100000000E-03 0. -1.
         22    1    1    0    0    0  0.12015768091E+01  0.96596393346E+01  0.11179624895E+02  0.14823509426E+02  0.00000000000E+00 0.  1.
</event>
<event>
 5    1  0.8752570E-005  0.9118800E+02  0.7818608E-02  0.1130116E+00
         25   -1    0    0    0    0  0.00000000000E+00  0.00000000000E+00  0.99999998245E-14  0.12500000000E+03  0.12500000000E+03 0.  0.
        -11    1    3    3    0    0  0.31760001798E+02  0.39800430365E+02 -0.35705820705E+02  0.62190655278E+02  0.51100000000E-03 0.  1.
         23    2    1    0    0    0  0.17120552791E+02  0.15159480509E+02 -0.18184206529E+02  0.95783762318E+02  0.91219189755E+02 0.  0.
         11    1    3    3    0    0 -0.14639449007E+02 -0.24640949856E+02  0.17521614176E+02  0.33593107040E+02  0.51100000000E-03 0. -1.
         22    1    1    0    0    0 -0.17120552791E+02 -0.15159480509E+02  0.18184206529E+02  0.29216237682E+02  0.00000000000E+00 0.  1.
</event>
<event>
 5    1  0.8752570E-005  0.9118800E+02  0.7818608E-02  0.1130116E+00
         25   -1    0    0    0    0  0.00000000000E+00  0.00000000000E+00  0.99999998245E-14  0.12500000000E+03  0.12500000000E+03 0.  0.
        -11    1    3    3    0    0 -0.74610891043E+01  0.57472417559E+02  0.23125820329E+02  0.62398318863E+02  0.51100000000E-03 0.  1.
         23    2    1    0    0    0 -0.89551165374E+00  0.26394700869E+02  0.10469040837E+02  0.96590793902E+02  0.92318462268E+02 0.  0.
         11    1    3    3    0    0  0.65655774505E+01 -0.31077716690E+02 -0.12656779492E+02  0.34192475039E+02  0.51100000000E-03 0. -1.
         22    1    1    0    0    0  0.89551165374E+00 -0.26394700869E+02 -0.10469040837E+02  0.28409206098E+02  0.00000000000E+00 0.  1.
</event>
<event>
 5    1  0.8752570E-005  0.9118800E+02  0.7818608E-02  0.1130116E+00
         25   -1    0    0    0    0  0.00000000000E+00  0.00000000000E+00  0.99999998245E-14  0.12500000000E+03  0.12500000000E+03 0.  0.
        -11    1    3    3    0    0  0.21224468455E+02  0.19823204658E+02  0.29814193233E+02  0.41621191988E+02  0.51100000000E-03 0. -1.
         23    2    1    0    0    0 -0.76028837435E+01  0.30885121847E+02 -0.96797539871E+01  0.91752560550E+02  0.85516899719E+02 0.  0.
         11    1    3    3    0    0 -0.28827352198E+02  0.11061917188E+02 -0.39493947220E+02  0.50131368562E+02  0.51100000000E-03 0.  1.
         22    1    1    0    0    0  0.76028837435E+01 -0.30885121847E+02  0.96797539871E+01  0.33247439450E+02  0.00000000000E+00 0.  1.
</event>
<event>
 5    1  0.8752570E-005  0.9118800E+02  0.7818608E-02  0.1130116E+00
         25   -1    0    0    0    0  0.00000000000E+00  0.00000000000E+00  0.99999998245E-14  0.12500000000E+03  0.12500000000E+03 0.  0.
        -11    1    3    3    0    0 -0.22119984203E+02 -0.14538282738E+02  0.21601533284E+02  0.34165503166E+02  0.51100000000E-03 0.  1.
         23    2    1    0    0    0  0.24877603608E+02 -0.11293472232E+02 -0.15008641842E+02  0.93827945107E+02  0.88498510025E+02 0.  0.
         11    1    3    3    0    0  0.46997587811E+02  0.32448105064E+01 -0.36610175126E+02  0.59662441940E+02  0.51100000000E-03 0. -1.
         22    1    1    0    0    0 -0.24877603608E+02  0.11293472232E+02  0.15008641842E+02  0.31172054893E+02  0.00000000000E+00 0. -1.
</event>
<event>
 5    1  0.8752570E-005  0.9118800E+02  0.7818608E-02  0.1130116E+00
         25   -1    0    0    0    0  0.00000000000E+00  0.00000000000E+00  0.99999998245E-14  0.12500000000E+03  0.12500000000E+03 0.  0.
        -11    1    3    3    0    0 -0.18997640457E+02 -0.29662140828E+02 -0.20199688315E+02  0.40605176391E+02  0.51100000000E-03 0.  1.
         23    2    1    0    0    0  0.24508127578E+02 -0.12580106880E+02  0.93573748653E+01  0.95905879101E+02  0.91386376311E+02 0.  0.
         11    1    3    3    0    0  0.43505768036E+02  0.17082033948E+02  0.29557063180E+02  0.55300702710E+02  0.51100000000E-03 0. -1.
         22    1    1    0    0    0 -0.24508127578E+02  0.12580106880E+02 -0.93573748653E+01  0.29094120899E+02  0.00000000000E+00 0. -1.
</event>
<event>
 5    1  0.8752570E-005  0.9118800E+02  0.7818608E-02  0.1130116E+00
         25   -1    0    0    0    0  0.00000000000E+00  0.00000000000E+00  0.99999998245E-14  0.12500000000E+03  0.12500000000E+03 0.  0.
        -11    1    3    3    0    0  0.64699599775E+01 -0.15313109388E+02 -0.57225380781E+02  0.59591072377E+02  0.51100000000E-03 0.  1.
         23    2    1    0    0    0  0.15966815003E+02 -0.50304956028E+01 -0.23131992868E+02  0.96445943171E+02  0.92122124339E+02 0.  0.
         11    1    3    3    0    0  0.94968550258E+01  0.10282613785E+02  0.34093387913E+02  0.36854870795E+02  0.51100000000E-03 0. -1.
         22    1    1    0    0    0 -0.15966815003E+02  0.50304956028E+01  0.23131992868E+02  0.28554056829E+02  0.00000000000E+00 0.  1.
</event>
<event>
 5    1  0.8752570E-005  0.9118800E+02  0.7818608E-02  0.1130116E+00
         25   -1    0    0    0    0  0.00000000000E+00  0.00000000000E+00  0.99999998245E-14  0.12500000000E+03  0.12500000000E+03 0.  0.
        -11    1    3    3    0    0  0.30434112319E+02  0.46703889482E+01 -0.36006103179E+02  0.47376019166E+02  0.51100000000E-03 0. -1.
         23    2    1    0    0    0 -0.17762685502E+02 -0.44610428272E+01 -0.17088028463E+02  0.99951754231E+02  0.96762278589E+02 0.  0.
         11    1    3    3    0    0 -0.48196797821E+02 -0.91314317754E+01  0.18918074716E+02  0.52575735066E+02  0.51100000000E-03 0.  1.
         22    1    1    0    0    0  0.17762685502E+02  0.44610428272E+01  0.17088028463E+02  0.25048245769E+02  0.00000000000E+00 0. -1.
</event>
<event>
 5    1  0.8752570E-005  0.9118800E+02  0.7818608E-02  0.1130116E+00
         25   -1    0    0    0    0  0.00000000000E+00  0.00000000000E+00  0.99999998245E-14  0.12500000000E+03  0.12500000000E+03 0.  0.
        -11    1    3    3    0    0  0.45315978647E+02 -0.27181817366E+02  0.12835418581E+02  0.54379564971E+02  0.51100000000E-03 0.  1.
         23    2    1    0    0    0  0.95254538705E+01 -0.11002280228E+02  0.25492348853E+02  0.95646221850E+02  0.91030519401E+02 0.  0.
         11    1    3    3    0    0 -0.35790524777E+02  0.16179537137E+02  0.12656930271E+02  0.41266656878E+02  0.51100000000E-03 0. -1.
         22    1    1    0    0    0 -0.95254538705E+01  0.11002280228E+02 -0.25492348853E+02  0.29353778150E+02  0.00000000000E+00 0.  1.
</event>
<event>
 5    1  0.8752570E-005  0.9118800E+02  0.7818608E-02  0.1130116E+00
         25   -1    0    0    0    0  0.00000000000E+00  0.00000000000E+00  0.99999998245E-14  0.12500000000E+03  0.12500000000E+03 0.  0.
        -11    1    3    3    0    0 -0.44936337335E+02 -0.86261011025E+01 -0.34625250359E+02  0.57381111840E+02  0.51100000000E-03 0.  1.
         23    2    1    0    0    0 -0.26837582931E+02 -0.11990073642E+02 -0.11509976595E+01  0.95583295237E+02  0.90944069676E+02 0.  0.
         11    1    3    3    0    0  0.18098754404E+02 -0.33639725397E+01  0.33474252700E+02  0.38202183397E+02  0.51100000000E-03 0. -1.
         22    1    1    0    0    0  0.26837582931E+02  0.11990073642E+02  0.11509976595E+01  0.29416704763E+02  0.00000000000E+00 0.  1.
</event>
<event>
 5    1  0.8752570E-005  0.9118800E+02  0.7818608E-02  0.1130116E+00
         25   -1    0    0    0    0  0.00000000000E+00  0.00000000000E+00  0.99999998245E-14  0.12500000000E+03  0.12500000000E+03 0.  0.
        -11    1    3    3    0    0  0.28225622693E+02  0.52839282732E+02  0.16232047651E+01  0.59927542666E+02  0.51100000000E-03 0. -1.
         23    2    1    0    0    0  0.18484660076E+02  0.28905620623E+02  0.13194095993E+02  0.88239943814E+02  0.80218364192E+02 0.  0.
         11    1    3    3    0    0 -0.97409626175E+01 -0.23933662109E+02  0.11570891228E+02  0.28312401148E+02  0.51100000000E-03 0.  1.
         22    1    1    0    0    0 -0.18484660076E+02 -0.28905620623E+02 -0.13194095993E+02  0.36760056186E+02  0.00000000000E+00 0. -1.
</event>
<event>
 5    1  0.8752570E-005  0.9118800E+02  0.7818608E-02  0.1130116E+00
         25   -1    0    0    0    0  0.00000000000E+00  0.00000000000E+00  0.99999998245E-14  0.12500000000E+03  0.12500000000E+03 0.  0.
        -11    1    3    3    0    0 -0.61641477963E+01  0.20522870736E+02 -0.28002314038E+02  0.35260665522E+02  0.51100000000E-03 0.  1.
         23    2    1    0    0    0 -0.19425120935E+02 -0.49815952591E+01  0.23416984873E+02  0.94169709777E+02  0.88979927199E+02 0.  0.
         11    1    3    3    0    0 -0.13260973138E+02 -0.25504465995E+02  0.51419298912E+02  0.58909044255E+02  0.51100000000E-03 0. -1.
         22    1    1    0    0    0  0.19425120935E+02  0.49815952591E+01 -0.23416984873E+02  0.30830290223E+02  0.00000000000E+00 0. -1.
</event>
<event>
 5    1  0.8752570E-005  0.9118800E+02  0.7818608E-02  0.1130116E+00
         25   -1    0    0    0    0  0.00000000000E+00  0.00000000000E+00  0.99999998245E-14  0.12500000000E+03  0.12500000000E+03 0.  0.
        -11    1    3    3    0    0  0.35862446229E+01 -0.99940167926E+01 -0.43527475815E+02  0.44803824315E+02  0.51100000000E-03 0. -1.
         23    2    1    0    0    0  0.28654402295E+02 -0.69722143413E+01  0.44061700086E+00  0.95506260206E+02  0.90838125540E+02 0.  0.
         11    1    3    3    0    0  0.25068157672E+02  0.30218024513E+01  0.43968092816E+02  0.50702435891E+02  0.51100000000E-03 0.  1.
         22    1    1    0    0    0 -0.28654402295E+02  0.69722143413E+01 -0.44061700086E+00  0.29493739794E+02  0.00000000000E+00 0.  1.
</event>
<event>
 5    1  0.8752570E-005  0.9118800E+02  0.7818608E-02  0.1130116E+00
         25   -1    0    0    0    0  0.00000000000E+00  0.00000000000E+00  0.99999998245E-14  0.12500000000E+03  0.12500000000E+03 0.  0.
        -11    1    3    3    0    0 -0.40948428491E+02 -0.35117711188E+02 -0.21967274047E+02  0.58245931740E+02  0.51100000000E-03 0. -1.
         23    2    1    0    0    0 -0.61715817968E+01 -0.25425456814E+02 -0.14409315771E+02  0.95130774080E+02  0.90319950842E+02 0.  0.
         11    1    3    3    0    0  0.34776846695E+02  0.96922543744E+01  0.75579582752E+01  0.36884842340E+02  0.51100000000E-03 0.  1.
         22    1    1    0    0    0  0.61715817968E+01  0.25425456814E+02  0.14409315771E+02  0.29869225920E+02  0.00000000000E+00 0. -1.
</event>
<event>
 5    1  0.8752570E-005  0.9118800E+02  0.7818608E-02  0.1130116E+00
         25   -1    0    0    0    0  0.00000000000E+00  0.00000000000E+00  0.99999998245E-14  0.12500000000E+03  0.12500000000E+03 0.  0.
        -11    1    3    3    0    0 -0.24134378921E+02  0.42917565531E+02  0.16137556457E+02  0.51815117540E+02  0.51100000000E-03 0. -1.
         23    2    1    0    0    0 -0.34264893940E+01  0.27248220112E+02 -0.16064926577E+02  0.93183523219E+02  0.87583564695E+02 0.  0.
         11    1    3    3    0    0  0.20707889527E+02 -0.15669345419E+02 -0.32202483034E+02  0.41368405678E+02  0.51100000000E-03 0.  1.
         22    1    1    0    0    0  0.34264893940E+01 -0.27248220112E+02  0.16064926577E+02  0.31816476781E+02  0.00000000000E+00 0.  1.
</event>
<event>
 5    1  0.8752570E-005  0.9118800E+02  0.7818608E-02  0.1130116E+00
         25   -1    0    0    0    0  0.00000000000E+00  0.00000000000E+00  0.99999998245E-14  0.12500000000E+03  0.12500000000E+03 0.  0.
        -11    1    3    3    0    0 -0.27351461612E+02  0.38597506400E+02 -0.10536950716E+00  0.47306247532E+02  0.51100000000E-03 0. -1.
         23    2    1    0    0    0  0.17710177386E+02  0.22940845558E+02  0.60132420776E+01  0.95401151066E+02  0.90693372230E+02 0.  0.
         11    1    3    3    0    0  0.45061638998E+02 -0.15656660842E+02  0.61186115848E+01  0.48094903534E+02  0.51100000000E-03 0.  1.
         22    1    1    0    0    0 -0.17710177386E+02 -0.22940845558E+02 -0.60132420776E+01  0.29598848934E+02  0.00000000000E+00 0.  1.
</event>
<event>
 5    1  0.8752570E-005  0.9118800E+02  0.7818608E-02  0.1130116E+00
         25   -1    0    0    0    0  0.00000000000E+00  0.00000000000E+00  0.99999998245E-14  0.12500000000E+03  0.12500000000E+03 0.  0.
        -11    1    3    3    0    0 -0.37044682507E+02 -0.24574591115E+02  0.14845387162E+02  0.46867948011E+02  0.51100000000E-03 0.  1.
         23    2    1    0    0    0 -0.20516408723E+02  0.88438146807E+01 -0.17809194266E+02  0.96428974723E+02  0.92099097068E+02 0.  0.
         11    1    3    3    0    0  0.16528273784E+02  0.33418405796E+02 -0.32654581428E+02  0.49561026712E+02  0.51100000000E-03 0. -1.
         22    1    1    0    0    0  0.20516408723E+02 -0.88438146807E+01  0.17809194266E+02  0.28571025277E+02  0.00000000000E+00 0.  1.
</event>
<event>
 5    1  0.8752570E-005  0.9118800E+02  0.7818608E-02  0.1130116E+00
         25   -1    0    0    0    0  0.00000000000E+00  0.00000000000E+00  0.99999998245E-14  0.12500000000E+03  0.12500000000E+03 0.  0.
        -11    1    3    3    0    0 -0.20708814980E+02  0.22710540021E+02  0.16322951967E+02  0.34800321939E+02  0.51100000000E-03 0. -1.
         23    2    1    0    0    0  0.15628209205E+01 -0.23896963928E+02 -0.16423987275E+02  0.95961152705E+02  0.91461949335E+02 0.  0.
         11    1    3    3    0    0  0.22271635900E+02 -0.46607503949E+02 -0.32746939242E+02  0.61160830766E+02  0.51100000000E-03 0.  1.
         22    1    1    0    0    0 -0.15628209205E+01  0.23896963928E+02  0.16423987275E+02  0.29038847295E+02  0.00000000000E+00 0.  1.
</event>
<event>
 5    1  0.8752570E-005  0.9118800E+02  0.7818608E-02  0.1130116E+00
         25   -1    0    0    0    0  0.00000000000E+00  0.00000000000E+00  0.99999998245E-14  0.12500000000E+03  0.12500000000E+03 0.  0.
        -11    1    3    3    0    0  0.93367727568E+01  0.19019266676E+02  0.30572427836E+02  0.37196520999E+02  0.51100000000E-03 0. -1.
         23    2    1    0    0    0  0.63691433389E+01 -0.84534440030E+01 -0.24223276913E+02  0.98565290870E+02  0.94954319110E+02 0.  0.
         11    1    3    3    0    0 -0.29676294179E+01 -0.27472710679E+02 -0.54795704748E+02  0.61368769871E+02  0.51100000000E-03 0.  1.
         22    1    1    0    0    0 -0.63691433389E+01  0.84534440030E+01  0.24223276913E+02  0.26434709130E+02  0.00000000000E+00 0.  1.
</event>
<event>
 5    1  0.8752570E-005  0.9118800E+02  0.7818608E-02  0.1130116E+00
         25   -1    0    0    0    0  0.00000000000E+00  0.00000000000E+00  0.99999998245E-14  0.12500000000E+03  0.12500000000E+03 0.  0.
        -11    1    3    3    0    0  0.37137388945E+02  0.43815659131E-01 -0.35445497263E+02  0.51337811152E+02  0.51100000000E-03 0.  1.
         23    2    1    0    0    0  0.29037371000E+02 -0.10778942647E+01  0.74475547955E+01  0.95003386140E+02  0.90143477495E+02 0.  0.
         11    1    3    3    0    0 -0.81000179442E+01 -0.11217099239E+01  0.42893052058E+02  0.43665574987E+02  0.51100000000E-03 0. -1.
         22    1    1    0    0    0 -0.29037371000E+02  0.10778942647E+01 -0.74475547955E+01  0.29996613860E+02  0.00000000000E+00 0.  1.
</event>
<event>
 5    1  0.8752570E-005  0.9118800E+02  0.7818608E-02  0.1130116E+00
         25   -1    0    0    0    0  0.00000000000E+00  0.00000000000E+00  0.99999998245E-14  0.12500000000E+03  0.12500000000E+03 0.  0.
        -11    1    3    3    0    0  0.66741414406E+01  0.40316674553E+02 -0.29760383511E+02  0.50553524487E+02  0.51100000000E-03 0.  1.
         23    2    1    0    0    0 -0.22443641656E+02  0.18294196997E+02 -0.28554397824E+01  0.95904498098E+02  0.91384487330E+02 0.  0.
         11    1    3    3    0    0 -0.29117783097E+02 -0.22022477556E+02  0.26904943729E+02  0.45350973612E+02  0.51100000000E-03 0. -1.
         22    1    1    0    0    0  0.22443641656E+02 -0.18294196997E+02  0.28554397824E+01  0.29095501902E+02  0.00000000000E+00 0. -1.
</event>
<event>
 5    1  0.8752570E-005  0.9118800E+02  0.7818608E-02  0.1130116E+00
         25   -1    0    0    0    0  0.00000000000E+00  0.00000000000E+00  0.99999998245E-14  0.12500000000E+03  0.12500000000E+03 0.  0.
        -11    1    3    3    0    0  0.43590049602E+02 -0.24709295526E+02 -0.23073662706E+02  0.55163716523E+02  0.51100000000E-03 0. -1.
         23    2    1    0    0    0  0.27412150810E+02  0.76637349542E+01 -0.34600791971E+01  0.96327173256E+02  0.91960824887E+02 0.  0.
         11    1    3    3    0    0 -0.16177898793E+02  0.32373030480E+02  0.19613583509E+02  0.41163456732E+02  0.51100000000E-03 0.  1.
         22    1    1    0    0    0 -0.27412150810E+02 -0.76637349542E+01  0.34600791971E+01  0.28672826744E+02  0.00000000000E+00 0. -1.
</event>
<event>
 5    1  0.8752570E-005  0.9118800E+02  0.7818608E-02  0.1130116E+00
         25   -1    0    0    0    0  0.00000000000E+00  0.00000000000E+00  0.99999998245E-14  0.12500000000E+03  0.12500000000E+03 0.  0.
        -11    1    3    3    0    0 -0.20828250813E+02 -0.53968949438E+02  0.15964558675E+02  0.60011087886E+02  0.51100000000E-03 0.  1.
         23    2    1    0    0    0 -0.12311553485E+02 -0.24296104054E+02  0.20088074830E+02  0.91156156072E+02  0.84640646371E+02 0.  0.
         11    1    3    3    0    0  0.85166973279E+01  0.29672845384E+02  0.41235161558E+01  0.31145068186E+02  0.51100000000E-03 0. -1.
         22    1    1    0    0    0  0.12311553485E+02  0.24296104054E+02 -0.20088074830E+02  0.33843843928E+02  0.00000000000E+00 0.  1.
</event>
<event>
 5    1  0.8752570E-005  0.9118800E+02  0.7818608E-02  0.1130116E+00
         25   -1    0    0    0    0  0.00000000000E+00  0.00000000000E+00  0.99999998245E-14  0.12500000000E+03  0.12500000000E+03 0.  0.
        -11    1    3    3    0    0 -0.10183226368E+02 -0.32971631535E+02 -0.87011803937E+01  0.35588440902E+02  0.51100000000E-03 0.  1.
         23    2    1    0    0    0  0.14322246587E+02  0.23412888076E+02 -0.42234525912E+01  0.97230815152E+02  0.93181026974E+02 0.  0.
         11    1    3    3    0    0  0.24505472955E+02  0.56384519611E+02  0.44777278024E+01  0.61642374249E+02  0.51100000000E-03 0. -1.
         22    1    1    0    0    0 -0.14322246587E+02 -0.23412888076E+02  0.42234525912E+01  0.27769184848E+02  0.00000000000E+00 0. -1.
</event>
<event>
 5    1  0.8752570E-005  0.9118800E+02  0.7818608E-02  0.1130116E+00
         25   -1    0    0    0    0  0.00000000000E+00  0.00000000000E+00  0.99999998245E-14  0.12500000000E+03  0.12500000000E+03 0.  0.
        -11    1    3    3    0    0  0.21216017056E+01 -0.58144511438E+01  0.37086801068E+02  0.37599732042E+02  0.51100000000E-03 0.  1.
         23    2    1    0    0    0  0.15799701701E+02 -0.22225004654E+02 -0.14986156915E+02  0.93884629123E+02  0.88578537360E+02 0.  0.
         11    1    3    3    0    0  0.13678099995E+02 -0.16410553510E+02 -0.52072957984E+02  0.56284897081E+02  0.51100000000E-03 0. -1.
         22    1    1    0    0    0 -0.15799701701E+02  0.22225004654E+02  0.14986156915E+02  0.31115370877E+02  0.00000000000E+00 0. -1.
</event>
<event>
 5    1  0.8752570E-005  0.9118800E+02  0.7818608E-02  0.1130116E+00
         25   -1    0    0    0    0  0.00000000000E+00  0.00000000000E+00  0.99999998245E-14  0.12500000000E+03  0.12500000000E+03 0.  0.
        -11    1    3    3    0    0 -0.49596672848E+02  0.12415170790E+02  0.44441325901E+01  0.51319749981E+02  0.51100000000E-03 0.  1.
         23    2    1    0    0    0 -0.15090195683E+02  0.12021033283E+02 -0.22688460163E+02  0.95217698687E+02  0.90440171780E+02 0.  0.
         11    1    3    3    0    0  0.34506477166E+02 -0.39413750678E+00 -0.27132592754E+02  0.43897948706E+02  0.51100000000E-03 0. -1.
         22    1    1    0    0    0  0.15090195683E+02 -0.12021033283E+02  0.22688460163E+02  0.29782301313E+02  0.00000000000E+00 0.  1.
</event>
<event>
 5    1  0.8752570E-005  0.9118800E+02  0.7818608E-02  0.1130116E+00
         25   -1    0    0    0    0  0.00000000000E+00  0.00000000000E+00  0.99999998245E-14  0.12500000000E+03  0.12500000000E+03 0.  0.
        -11    1    3    3    0    0 -0.13074314853E+02 -0.20270416028E+02  0.22766234762E+02  0.33168191394E+02  0.51100000000E-03 0.  1.
         23    2    1    0    0    0  0.16420217378E+02  0.33748086106E+01 -0.25504529044E+02  0.94479615440E+02  0.89414226273E+02 0.  0.
         11    1    3    3    0    0  0.29494532232E+02  0.23645224639E+02 -0.48270763807E+02  0.61311424046E+02  0.51100000000E-03 0. -1.
         22    1    1    0    0    0 -0.16420217378E+02 -0.33748086106E+01  0.25504529044E+02  0.30520384560E+02  0.00000000000E+00 0. -1.
</event>
<event>
 5    1  0.8752570E-005  0.9118800E+02  0.7818608E-02  0.1130116E+00
         25   -1    0    0    0    0  0.00000000000E+00  0.00000000000E+00  0.99999998245E-14  0.12500000000E+03  0.12500000000E+03 0.  0.
        -11    1    3    3    0    0  0.23512377648E+02 -0.19849134315E+02  0.23008922339E+02  0.38421745707E+02  0.51100000000E-03 0. -1.
         23    2    1    0    0    0 -0.13595225417E+02  0.22892083581E+02  0.10433839775E+02  0.96403799950E+02  0.92064922677E+02 0.  0.
         11    1    3    3    0    0 -0.37107603065E+02  0.42741217897E+02 -0.12575082564E+02  0.57982054243E+02  0.51100000000E-03 0.  1.
         22    1    1    0    0    0  0.13595225417E+02 -0.22892083581E+02 -0.10433839775E+02  0.28596200050E+02  0.00000000000E+00 0.  1.
</event>
<event>
 5    1  0.8752570E-005  0.9118800E+02  0.7818608E-02  0.1130116E+00
         25   -1    0    0    0    0  0.00000000000E+00  0.00000000000E+00  0.99999998245E-14  0.12500000000E+03  0.12500000000E+03 0.  0.
        -11    1    3    3    0    0  0.16060680388E+01 -0.23031097262E+02 -0.29856060810E+02  0.37741161389E+02  0.51100000000E-03 0.  1.
         23    2    1    0    0    0 -0.78394281821E+01  0.28343708888E+02 -0.69303151804E+01  0.94786563647E+02  0.89842311367E+02 0.  0.
         11    1    3    3    0    0 -0.94454962209E+01  0.51374806150E+02  0.22925745630E+02  0.57045402258E+02  0.51100000000E-03 0. -1.
         22    1    1    0    0    0  0.78394281821E+01 -0.28343708888E+02  0.69303151804E+01  0.30213436353E+02  0.00000000000E+00 0. -1.
</event>
<event>
 5    1  0.8752570E-005  0.9118800E+02  0.7818608E-02  0.1130116E+00
         25   -1    0    0    0    0  0.00000000000E+00  0.00000000000E+00  0.99999998245E-14  0.12500000000E+03  0.12500000000E+03 0.  0.
        -11    1    3    3    0    0 -0.96772547614E+01 -0.59459329263E+02 -0.88292985934E+01  0.60885282376E+02  0.51100000000E-03 0.  1.
         23    2    1    0    0    0 -0.14125925360E+02 -0.25185806748E+02 -0.54760905417E+01  0.95608603360E+02  0.90978848311E+02 0.  0.
         11    1    3    3    0    0 -0.44486705986E+01  0.34273522515E+02  0.33532080517E+01  0.34723320984E+02  0.51100000000E-03 0. -1.
         22    1    1    0    0    0  0.14125925360E+02  0.25185806748E+02  0.54760905417E+01  0.29391396640E+02  0.00000000000E+00 0.  1.
</event>
<event>
 5    1  0.8752570E-005  0.9118800E+02  0.7818608E-02  0.1130116E+00
         25   -1    0    0    0    0  0.00000000000E+00  0.00000000000E+00  0.99999998245E-14  0.12500000000E+03  0.12500000000E+03 0.  0.
        -11    1    3    3    0    0  0.24761203553E+02 -0.41440282124E+02  0.37835998108E+02  0.61334956893E+02  0.51100000000E-03 0.  1.
         23    2    1    0    0    0  0.13818829160E+02 -0.10569868508E+02  0.19486009253E+02  0.98877467270E+02  0.95364389672E+02 0.  0.
         11    1    3    3    0    0 -0.10942374393E+02  0.30870413617E+02 -0.18349988855E+02  0.37542510378E+02  0.51100000000E-03 0. -1.
         22    1    1    0    0    0 -0.13818829160E+02  0.10569868508E+02 -0.19486009253E+02  0.26122532730E+02  0.00000000000E+00 0.  1.
</event>
<event>
 5    1  0.8752570E-005  0.9118800E+02  0.7818608E-02  0.1130116E+00
         25   -1    0    0    0    0  0.00000000000E+00  0.00000000000E+00  0.99999998245E-14  0.12500000000E+03  0.12500000000E+03 0.  0.
        -11    1    3    3    0    0  0.11358380392E+02 -0.11849261783E+02 -0.44283071074E+02  0.47227197609E+02  0.51100000000E-03 0.  1.
         23    2    1    0    0    0  0.42439495220E+01 -0.30408904689E+02 -0.16664064422E+01  0.94251186976E+02  0.89094313758E+02 0.  0.
         11    1    3    3    0    0 -0.71144308702E+01 -0.18559642906E+02  0.42616664632E+02  0.47023989367E+02  0.51100000000E-03 0. -1.
         22    1    1    0    0    0 -0.42439495220E+01  0.30408904689E+02  0.16664064422E+01  0.30748813024E+02  0.00000000000E+00 0. -1.
</event>
<event>
 5    1  0.8752570E-005  0.9118800E+02  0.7818608E-02  0.1130116E+00
         25   -1    0    0    0    0  0.00000000000E+00  0.00000000000E+00  0.99999998245E-14  0.12500000000E+03  0.12500000000E+03 0.  0.
        -11    1    3    3    0    0  0.24905654691E+01  0.15950457181E+02  0.56396475587E+02  0.58661592712E+02  0.51100000000E-03 0.  1.
         23    2    1    0    0    0 -0.10081005811E+02 -0.37621024537E+01  0.24788174853E+02  0.97977163259E+02  0.94176912323E+02 0.  0.
         11    1    3    3    0    0 -0.12571571280E+02 -0.19712559635E+02 -0.31608300735E+02  0.39315570546E+02  0.51100000000E-03 0. -1.
         22    1    1    0    0    0  0.10081005811E+02  0.37621024537E+01 -0.24788174853E+02  0.27022836741E+02  0.00000000000E+00 0.  1.
</event>
<event>
 5    1  0.8752570E-005  0.9118800E+02  0.7818608E-02  0.1130116E+00
         25   -1    0    0    0    0  0.00000000000E+00  0.00000000000E+00  0.99999998245E-14  0.12500000000E+03  0.12500000000E+03 0.  0.
        -11    1    3    3    0    0 -0.15785186534E+02  0.47539176947E+02  0.36919566129E+02  0.62227002356E+02  0.51100000000E-03 0. -1.
         23    2    1    0    0    0 -0.10557772887E+02  0.23772318016E+02  0.15029125144E+02  0.94958956829E+02  0.90081847269E+02 0.  0.
         11    1    3    3    0    0  0.52274136473E+01 -0.23766858931E+02 -0.21890440985E+02  0.32731954474E+02  0.51100000000E-03 0.  1.
         22    1    1    0    0    0  0.10557772887E+02 -0.23772318016E+02 -0.15029125144E+02  0.30041043171E+02  0.00000000000E+00 0. -1.
</event>
<event>
 5    1  0.8752570E-005  0.9118800E+02  0.7818608E-02  0.1130116E+00
         25   -1    0    0    0    0  0.00000000000E+00  0.00000000000E+00  0.99999998245E-14  0.12500000000E+03  0.12500000000E+03 0.  0.
        -11    1    3    3    0    0  0.11997849608E+02  0.48417875546E+02 -0.26269428003E+02  0.56376607875E+02  0.51100000000E-03 0.  1.
         23    2    1    0    0    0 -0.89067896286E+01  0.14942734927E+02 -0.23255818949E+02  0.95957800641E+02  0.91457367994E+02 0.  0.
         11    1    3    3    0    0 -0.20904639237E+02 -0.33475140618E+02  0.30136090537E+01  0.39581192767E+02  0.51100000000E-03 0. -1.
         22    1    1    0    0    0  0.89067896286E+01 -0.14942734927E+02  0.23255818949E+02  0.29042199359E+02  0.00000000000E+00 0.  1.
</event>
<event>
 5    1  0.8752570E-005  0.9118800E+02  0.7818608E-02  0.1130116E+00
         25   -1    0    0    0    0  0.00000000000E+00  0.00000000000E+00  0.99999998245E-14  0.12500000000E+03  0.12500000000E+03 0.  0.
        -11    1    3    3    0    0  0.17572227276E+01  0.14315941780E+01 -0.50598367318E+02  0.50649107289E+02  0.51100000000E-03 0. -1.
         23    2    1    0    0    0 -0.94277170172E+01  0.20817721907E+02 -0.47645478662E+01  0.10165561502E+03  0.98938888996E+02 0.  0.
         11    1    3    3    0    0 -0.11184939745E+02  0.19386127729E+02  0.45833819452E+02  0.51006507735E+02  0.51100000000E-03 0.  1.
         22    1    1    0    0    0  0.94277170172E+01 -0.20817721907E+02  0.47645478662E+01  0.23344384977E+02  0.00000000000E+00 0. -1.
</event>
<event>
 5    1  0.8752570E-005  0.9118800E+02  0.7818608E-02  0.1130116E+00
         25   -1    0    0    0    0  0.00000000000E+00  0.00000000000E+00  0.99999998245E-14  0.12500000000E+03  0.12500000000E+03 0.  0.
        -11    1    3    3    0    0  0.37212134238E+02  0.42262320101E+02  0.22712718962E+01  0.56356058335E+02  0.51100000000E-03 0. -1.
         23    2    1    0    0    0 -0.54847309368E+00  0.26023347472E+02 -0.60093336272E+01  0.98286192203E+02  0.94586193763E+02 0.  0.
         11    1    3    3    0    0 -0.37760607331E+02 -0.16238972628E+02 -0.82806055234E+01  0.41930133867E+02  0.51100000000E-03 0.  1.
         22    1    1    0    0    0  0.54847309368E+00 -0.26023347472E+02  0.60093336272E+01  0.26713807797E+02  0.00000000000E+00 0. -1.
</event>
<event>
 5    1  0.8752570E-005  0.9118800E+02  0.7818608E-02  0.1130116E+00
         25   -1    0    0    0    0  0.00000000000E+00  0.00000000000E+00  0.99999998245E-14  0.12500000000E+03  0.12500000000E+03 0.  0.
        -11    1    3    3    0    0  0.45035464621E+02 -0.15795463911E+02  0.11864881537E+02  0.49177893082E+02  0.51100000000E-03 0.  1.
         23    2    1    0    0    0  0.76058500419E+01 -0.28226863637E+02 -0.97885871288E+01  0.94171097593E+02  0.88981876797E+02 0.  0.
         11    1    3    3    0    0 -0.37429614579E+02 -0.12431399726E+02 -0.21653468666E+02  0.44993204511E+02  0.51100000000E-03 0. -1.
         22    1    1    0    0    0 -0.76058500419E+01  0.28226863637E+02  0.97885871288E+01  0.30828902407E+02  0.00000000000E+00 0.  1.
</event>
<event>
 5    1  0.8752570E-005  0.9118800E+02  0.7818608E-02  0.1130116E+00
         25   -1    0    0    0    0  0.00000000000E+00  0.00000000000E+00  0.99999998245E-14  0.12500000000E+03  0.12500000000E+03 0.  0.
        -11    1    3    3    0    0  0.41009688296E+02  0.31301279269E+02  0.29892872207E+02  0.59625065426E+02  0.51100000000E-03 0. -1.
         23    2    1    0    0    0  0.19349022020E+02  0.41899116826E+01  0.22360283756E+02  0.95134931732E+02  0.90325704718E+02 0.  0.
         11    1    3    3    0    0 -0.21660666276E+02 -0.27111367587E+02 -0.75325884513E+01  0.35509866305E+02  0.51100000000E-03 0.  1.
         22    1    1    0    0    0 -0.19349022020E+02 -0.41899116826E+01 -0.22360283756E+02  0.29865068268E+02  0.00000000000E+00 0. -1.
</event>
<event>
 5    1  0.8752570E-005  0.9118800E+02  0.7818608E-02  0.1130116E+00
         25   -1    0    0    0    0  0.00000000000E+00  0.00000000000E+00  0.99999998245E-14  0.12500000000E+03  0.12500000000E+03 0.  0.
        -11    1    3    3    0    0  0.18984232529E+02  0.63479706902E+01  0.33581401646E+02  0.39094863517E+02  0.51100000000E-03 0. -1.
         23    2    1    0    0    0  0.78889364695E+01  0.20606947776E+02 -0.19739627210E+02  0.95393674702E+02  0.90683067192E+02 0.  0.
         11    1    3    3    0    0 -0.11095296060E+02  0.14258977086E+02 -0.53321028857E+02  0.56298811185E+02  0.51100000000E-03 0.  1.
         22    1    1    0    0    0 -0.78889364695E+01 -0.20606947776E+02  0.19739627210E+02  0.29606325298E+02  0.00000000000E+00 0.  1.
</event>
<event>
 5    1  0.8752570E-005  0.9118800E+02  0.7818608E-02  0.1130116E+00
         25   -1    0    0    0    0  0.00000000000E+00  0.00000000000E+00  0.99999998245E-14  0.12500000000E+03  0.12500000000E+03 0.  0.
        -11    1    3    3    0    0  0.41828673084E+02  0.20376596605E+02  0.15726874440E+02  0.49113930418E+02  0.51100000000E-03 0. -1.
         23    2    1    0    0    0  0.16683864870E+00  0.28267305763E+02  0.17847547588E+02  0.91569424696E+02  0.85248789868E+02 0.  0.
         11    1    3    3    0    0 -0.41661834435E+02  0.78907091588E+01  0.21206731478E+01  0.42455494278E+02  0.51100000000E-03 0.  1.
         22    1    1    0    0    0 -0.16683864870E+00 -0.28267305763E+02 -0.17847547588E+02  0.33430575304E+02  0.00000000000E+00 0.  1.
</event>
<event>
 5    1  0.8752570E-005  0.9118800E+02  0.7818608E-02  0.1130116E+00
         25   -1    0    0    0    0  0.00000000000E+00  0.00000000000E+00  0.99999998245E-14  0.12500000000E+03  0.12500000000E+03 0.  0.
        -11    1    3    3    0    0 -0.32457483954E+02  0.13436120276E+02  0.36467536689E+02  0.50634956553E+02  0.51100000000E-03 0.  1.
         23    2    1    0    0    0  0.11059940609E+02  0.11642693364E+02  0.24328849254E+02  0.95849228122E+02  0.91308855159E+02 0.  0.
         11    1    3    3    0    0  0.43517424562E+02 -0.17934269116E+01 -0.12138687435E+02  0.45214271569E+02  0.51100000000E-03 0. -1.
         22    1    1    0    0    0 -0.11059940609E+02 -0.11642693364E+02 -0.24328849254E+02  0.29150771878E+02  0.00000000000E+00 0.  1.
</event>
<event>
 5    1  0.8752570E-005  0.9118800E+02  0.7818608E-02  0.1130116E+00
         25   -1    0    0    0    0  0.00000000000E+00  0.00000000000E+00  0.99999998245E-14  0.12500000000E+03  0.12500000000E+03 0.  0.
        -11    1    3    3    0    0 -0.12505577254E+02  0.23255712729E+02  0.41179518328E+02  0.48917996351E+02  0.51100000000E-03 0.  1.
         23    2    1    0    0    0 -0.13858905850E+02  0.35642130002E+02  0.59347090686E+01  0.86300497753E+02  0.77137049713E+02 0.  0.
         11    1    3    3    0    0 -0.13533285957E+01  0.12386417272E+02 -0.35244809259E+02  0.37382501403E+02  0.51100000000E-03 0. -1.
         22    1    1    0    0    0  0.13858905850E+02 -0.35642130002E+02 -0.59347090686E+01  0.38699502247E+02  0.00000000000E+00 0. -1.
</event>
<event>
 5    1  0.8752570E-005  0.9118800E+02  0.7818608E-02  0.1130116E+00
         25   -1    0    0    0    0  0.00000000000E+00  0.00000000000E+00  0.99999998245E-14  0.12500000000E+03  0.12500000000E+03 0.  0.
        -11    1    3    3    0    0 -0.45360781131E+01 -0.18671372008E+01 -0.33441827462E+02  0.33799675002E+02  0.51100000000E-03 0.  1.
         23    2    1    0    0    0  0.17715231222E+02 -0.66259706689E+01  0.23332642066E+02  0.94964269772E+02  0.90089219350E+02 0.  0.
         11    1    3    3    0    0  0.22251309335E+02 -0.47588334681E+01  0.56774469527E+02  0.61164594771E+02  0.51100000000E-03 0. -1.
         22    1    1    0    0    0 -0.17715231222E+02  0.66259706689E+01 -0.23332642066E+02  0.30035730228E+02  0.00000000000E+00 0. -1.
</event>
<event>
 5    1  0.8752570E-005  0.9118800E+02  0.7818608E-02  0.1130116E+00
         25   -1    0    0    0    0  0.00000000000E+00  0.00000000000E+00  0.99999998245E-14  0.12500000000E+03  0.12500000000E+03 0.  0.
        -11    1    3    3    0    0 -0.40106141769E+02  0.38289953483E+01 -0.18016952526E+02  0.44133597083E+02  0.51100000000E-03 0.  1.
         23    2    1    0    0    0 -0.18813993108E+01 -0.28449979010E+02 -0.98979000657E+01  0.94818724435E+02  0.89887046390E+02 0.  0.
         11    1    3    3    0    0  0.38224742458E+02 -0.32278974358E+02  0.81190524600E+01  0.50685127352E+02  0.51100000000E-03 0. -1.
         22    1    1    0    0    0  0.18813993108E+01  0.28449979010E+02  0.98979000657E+01  0.30181275565E+02  0.00000000000E+00 0. -1.
</event>
<event>
 5    1  0.8752570E-005  0.9118800E+02  0.7818608E-02  0.1130116E+00
         25   -1    0    0    0    0  0.00000000000E+00  0.00000000000E+00  0.99999998245E-14  0.12500000000E+03  0.12500000000E+03 0.  0.
        -11    1    3    3    0    0 -0.17436241078E+02 -0.23981350543E+02 -0.51639473796E+02  0.59546309129E+02  0.51100000000E-03 0.  1.
         23    2    1    0    0    0 -0.20040439195E+02 -0.60107352668E+01 -0.19832193082E+02  0.96171818926E+02  0.91749412704E+02 0.  0.
         11    1    3    3    0    0 -0.26041981169E+01  0.17970615276E+02  0.31807280714E+02  0.36625509797E+02  0.51100000000E-03 0. -1.
         22    1    1    0    0    0  0.20040439195E+02  0.60107352668E+01  0.19832193082E+02  0.28828181074E+02  0.00000000000E+00 0.  1.
</event>
<event>
 5    1  0.8752570E-005  0.9118800E+02  0.7818608E-02  0.1130116E+00
         25   -1    0    0    0    0  0.00000000000E+00  0.00000000000E+00  0.99999998245E-14  0.12500000000E+03  0.12500000000E+03 0.  0.
        -11    1    3    3    0    0 -0.20852980999E+02 -0.38750940735E+00 -0.25493651394E+02  0.32938173018E+02  0.51100000000E-03 0.  1.
         23    2    1    0    0    0  0.19560189190E+02 -0.23074421622E+01  0.22094925844E+02  0.95400827063E+02  0.90692925666E+02 0.  0.
         11    1    3    3    0    0  0.40413170189E+02 -0.19199327548E+01  0.47588577239E+02  0.62462654045E+02  0.51100000000E-03 0. -1.
         22    1    1    0    0    0 -0.19560189190E+02  0.23074421622E+01 -0.22094925844E+02  0.29599172937E+02  0.00000000000E+00 0. -1.
</event>
<event>
 5    1  0.8752570E-005  0.9118800E+02  0.7818608E-02  0.1130116E+00
         25   -1    0    0    0    0  0.00000000000E+00  0.00000000000E+00  0.99999998245E-14  0.12500000000E+03  0.12500000000E+03 0.  0.
        -11    1    3    3    0    0 -0.14138270166E+02 -0.40684685340E+02  0.29596358148E+02  0.52259723692E+02  0.51100000000E-03 0. -1.
         23    2    1    0    0    0  0.23178636454E+01 -0.40010856441E+00  0.29126817749E+02  0.95778362624E+02  0.91211790115E+02 0.  0.
         11    1    3    3    0    0  0.16456133812E+02  0.40284576776E+02 -0.46954039833E+00  0.43518638932E+02  0.51100000000E-03 0.  1.
         22    1    1    0    0    0 -0.23178636454E+01  0.40010856441E+00 -0.29126817749E+02  0.29221637376E+02  0.00000000000E+00 0. -1.
</event>
<event>
 5    1  0.8752570E-005  0.9118800E+02  0.7818608E-02  0.1130116E+00
         25   -1    0    0    0    0  0.00000000000E+00  0.00000000000E+00  0.99999998245E-14  0.12500000000E+03  0.12500000000E+03 0.  0.
        -11    1    3    3    0    0 -0.50256585091E+02 -0.12367516396E+02  0.16707752536E+01  0.51782924763E+02  0.51100000000E-03 0. -1.
         23    2    1    0    0    0 -0.95974545601E+01 -0.27556227614E+02 -0.39701167269E+01  0.95551423784E+02  0.90900252728E+02 0.  0.
         11    1    3    3    0    0  0.40659130531E+02 -0.15188711218E+02 -0.56408919806E+01  0.43768499021E+02  0.51100000000E-03 0.  1.
         22    1    1    0    0    0  0.95974545601E+01  0.27556227614E+02  0.39701167269E+01  0.29448576216E+02  0.00000000000E+00 0. -1.
</event>
<event>
 5    1  0.8752570E-005  0.9118800E+02  0.7818608E-02  0.1130116E+00
         25   -1    0    0    0    0  0.00000000000E+00  0.00000000000E+00  0.99999998245E-14  0.12500000000E+03  0.12500000000E+03 0.  0.
        -11    1    3    3    0    0 -0.46244664847E+02  0.39340979786E+02  0.11585326704E+02  0.61810205569E+02  0.51100000000E-03 0. -1.
         23    2    1    0    0    0 -0.20765407523E+02  0.18216298641E+02 -0.13458478337E+01  0.97344132772E+02  0.93332915914E+02 0.  0.
         11    1    3    3    0    0  0.25479257324E+02 -0.21124681146E+02 -0.12931174538E+02  0.35533927203E+02  0.51100000000E-03 0.  1.
         22    1    1    0    0    0  0.20765407523E+02 -0.18216298641E+02  0.13458478337E+01  0.27655867228E+02  0.00000000000E+00 0. -1.
</event>
<event>
 5    1  0.8752570E-005  0.9118800E+02  0.7818608E-02  0.1130116E+00
         25   -1    0    0    0    0  0.00000000000E+00  0.00000000000E+00  0.99999998245E-14  0.12500000000E+03  0.12500000000E+03 0.  0.
        -11    1    3    3    0    0 -0.44741366767E+01  0.43475645091E+02 -0.16559272323E+02  0.46737127802E+02  0.51100000000E-03 0. -1.
         23    2    1    0    0    0  0.27783396403E+02  0.16629163730E+02 -0.16397430350E+02  0.88705070269E+02  0.80939900959E+02 0.  0.
         11    1    3    3    0    0  0.32257533080E+02 -0.26846481361E+02  0.16184197213E+00  0.41967942468E+02  0.51100000000E-03 0.  1.
         22    1    1    0    0    0 -0.27783396403E+02 -0.16629163730E+02  0.16397430350E+02  0.36294929731E+02  0.00000000000E+00 0.  1.
</event>
<event>
 5    1  0.8752570E-005  0.9118800E+02  0.7818608E-02  0.1130116E+00
         25   -1    0    0    0    0  0.00000000000E+00  0.00000000000E+00  0.99999998245E-14  0.12500000000E+03  0.12500000000E+03 0.  0.
        -11    1    3    3    0    0  0.30181695448E+02  0.16911852287E+02  0.28391122849E+02  0.44754903025E+02  0.51100000000E-03 0.  1.
         23    2    1    0    0    0  0.15313683336E+02  0.17019964394E+02 -0.19515678492E+02  0.94915954523E+02  0.90022156332E+02 0.  0.
         11    1    3    3    0    0 -0.14868012112E+02  0.10811210691E+00 -0.47906801341E+02  0.50161051498E+02  0.51100000000E-03 0. -1.
         22    1    1    0    0    0 -0.15313683336E+02 -0.17019964394E+02  0.19515678492E+02  0.30084045477E+02  0.00000000000E+00 0.  1.
</event>
<event>
 5    1  0.8752570E-005  0.9118800E+02  0.7818608E-02  0.1130116E+00
         25   -1    0    0    0    0  0.00000000000E+00  0.00000000000E+00  0.99999998245E-14  0.12500000000E+03  0.12500000000E+03 0.  0.
        -11    1    3    3    0    0 -0.57487425958E+02 -0.83762677519E+00 -0.24325020920E+02  0.62427657372E+02  0.51100000000E-03 0.  1.
         23    2    1    0    0    0 -0.28666213483E+02  0.16896377009E+01 -0.12426807706E+02  0.93710509420E+02  0.88332481879E+02 0.  0.
         11    1    3    3    0    0  0.28821212475E+02  0.25272644761E+01  0.11898213214E+02  0.31282852048E+02  0.51100000000E-03 0. -1.
         22    1    1    0    0    0  0.28666213483E+02 -0.16896377009E+01  0.12426807706E+02  0.31289490580E+02  0.00000000000E+00 0.  1.
</event>
<event>
 5    1  0.8752570E-005  0.9118800E+02  0.7818608E-02  0.1130116E+00
         25   -1    0    0    0    0  0.00000000000E+00  0.00000000000E+00  0.99999998245E-14  0.12500000000E+03  0.12500000000E+03 0.  0.
        -11    1    3    3    0    0  0.54132656051E+01 -0.60372675347E+02 -0.78792402307E+01  0.61124837832E+02  0.51100000000E-03 0. -1.
         23    2    1    0    0    0  0.15861403334E+01 -0.25587996596E+02 -0.12595671695E+02  0.96435820397E+02  0.92108387779E+02 0.  0.
         11    1    3    3    0    0 -0.38271252717E+01  0.34784678752E+02 -0.47164314644E+01  0.35310982565E+02  0.51100000000E-03 0.  1.
         22    1    1    0    0    0 -0.15861403334E+01  0.25587996596E+02  0.12595671695E+02  0.28564179603E+02  0.00000000000E+00 0. -1.
</event>
<event>
 5    1  0.8752570E-005  0.9118800E+02  0.7818608E-02  0.1130116E+00
         25   -1    0    0    0    0  0.00000000000E+00  0.00000000000E+00  0.99999998245E-14  0.12500000000E+03  0.12500000000E+03 0.  0.
        -11    1    3    3    0    0  0.84236009493E+01  0.25794688174E+02  0.26983876251E+02  0.38268166519E+02  0.51100000000E-03 0.  1.
         23    2    1    0    0    0  0.21905082357E+02 -0.19342110908E+02 -0.51983483123E+01  0.95318815512E+02  0.90579820479E+02 0.  0.
         11    1    3    3    0    0  0.13481481408E+02 -0.45136799082E+02 -0.32182224564E+02  0.57050648992E+02  0.51100000000E-03 0. -1.
         22    1    1    0    0    0 -0.21905082357E+02  0.19342110908E+02  0.51983483123E+01  0.29681184488E+02  0.00000000000E+00 0. -1.
</event>
<event>
 5    1  0.8752570E-005  0.9118800E+02  0.7818608E-02  0.1130116E+00
         25   -1    0    0    0    0  0.00000000000E+00  0.00000000000E+00  0.99999998245E-14  0.12500000000E+03  0.12500000000E+03 0.  0.
        -11    1    3    3    0    0 -0.47598128977E+02 -0.16842616426E+02  0.99295862010E+01  0.51457286097E+02  0.51100000000E-03 0.  1.
         23    2    1    0    0    0 -0.23293215028E+02  0.14505870298E+02 -0.99299748084E+01  0.95817838682E+02  0.91265873527E+02 0.  0.
         11    1    3    3    0    0  0.24304913948E+02  0.31348486724E+02 -0.19859561009E+02  0.44360552585E+02  0.51100000000E-03 0. -1.
         22    1    1    0    0    0  0.23293215028E+02 -0.14505870298E+02  0.99299748084E+01  0.29182161318E+02  0.00000000000E+00 0. -1.
</event>
<event>
 5    1  0.8752570E-005  0.9118800E+02  0.7818608E-02  0.1130116E+00
         25   -1    0    0    0    0  0.00000000000E+00  0.00000000000E+00  0.99999998245E-14  0.12500000000E+03  0.12500000000E+03 0.  0.
        -11    1    3    3    0    0  0.26122878760E+02  0.19297051665E+02 -0.36255208833E+02  0.48674646023E+02  0.51100000000E-03 0.  1.
         23    2    1    0    0    0  0.11185799570E+02 -0.21184836482E+02 -0.14478234121E+02  0.97008239212E+02  0.92881967049E+02 0.  0.
         11    1    3    3    0    0 -0.14937079190E+02 -0.40481888146E+02  0.21776974713E+02  0.48333593189E+02  0.51100000000E-03 0. -1.
         22    1    1    0    0    0 -0.11185799570E+02  0.21184836482E+02  0.14478234121E+02  0.27991760788E+02  0.00000000000E+00 0. -1.
</event>
<event>
 5    1  0.8752570E-005  0.9118800E+02  0.7818608E-02  0.1130116E+00
         25   -1    0    0    0    0  0.00000000000E+00  0.00000000000E+00  0.99999998245E-14  0.12500000000E+03  0.12500000000E+03 0.  0.
        -11    1    3    3    0    0 -0.49414616859E+02 -0.34828666369E+02 -0.12479068335E+02  0.61729794323E+02  0.51100000000E-03 0.  1.
         23    2    1    0    0    0 -0.20445287610E+02 -0.20961542206E+02 -0.14689345342E+01  0.95681851938E+02  0.91079432280E+02 0.  0.
         11    1    3    3    0    0  0.28969329249E+02  0.13867124163E+02  0.11010133801E+02  0.33952057615E+02  0.51100000000E-03 0. -1.
         22    1    1    0    0    0  0.20445287610E+02  0.20961542206E+02  0.14689345342E+01  0.29318148062E+02  0.00000000000E+00 0.  1.
</event>
<event>
 5    1  0.8752570E-005  0.9118800E+02  0.7818608E-02  0.1130116E+00
         25   -1    0    0    0    0  0.00000000000E+00  0.00000000000E+00  0.99999998245E-14  0.12500000000E+03  0.12500000000E+03 0.  0.
        -11    1    3    3    0    0  0.28671862059E+02  0.11435218102E+02  0.23457260525E+02  0.38769613856E+02  0.51100000000E-03 0.  1.
         23    2    1    0    0    0  0.66107970488E+00 -0.31188112586E+02  0.32280350645E+01  0.93638309940E+02  0.88230252663E+02 0.  0.
         11    1    3    3    0    0 -0.28010782354E+02 -0.42623330688E+02 -0.20229225460E+02  0.54868696084E+02  0.51100000000E-03 0. -1.
         22    1    1    0    0    0 -0.66107970488E+00  0.31188112586E+02 -0.32280350645E+01  0.31361690060E+02  0.00000000000E+00 0. -1.
</event>
<event>
 5    1  0.8752570E-005  0.9118800E+02  0.7818608E-02  0.1130116E+00
         25   -1    0    0    0    0  0.00000000000E+00  0.00000000000E+00  0.99999998245E-14  0.12500000000E+03  0.12500000000E+03 0.  0.
        -11    1    3    3    0    0  0.37959040411E+02  0.16862129486E+02 -0.88378128126E+01  0.42465598963E+02  0.51100000000E-03 0.  1.
         23    2    1    0    0    0  0.10957897202E+02 -0.27507816817E+02 -0.76438331707E+01  0.94419226912E+02  0.89329763954E+02 0.  0.
         11    1    3    3    0    0 -0.27001143209E+02 -0.44369946303E+02  0.11939796419E+01  0.51953627950E+02  0.51100000000E-03 0. -1.
         22    1    1    0    0    0 -0.10957897202E+02  0.27507816817E+02  0.76438331707E+01  0.30580773088E+02  0.00000000000E+00 0. -1.
</event>
<event>
 5    1  0.8752570E-005  0.9118800E+02  0.7818608E-02  0.1130116E+00
         25   -1    0    0    0    0  0.00000000000E+00  0.00000000000E+00  0.99999998245E-14  0.12500000000E+03  0.12500000000E+03 0.  0.
        -11    1    3    3    0    0  0.51699440571E+02 -0.20029085540E+02 -0.16994612260E+02  0.57989768659E+02  0.51100000000E-03 0. -1.
         23    2    1    0    0    0  0.18382713283E+02 -0.20403025926E+01 -0.22084799285E+02  0.96193310815E+02  0.91778688724E+02 0.  0.
         11    1    3    3    0    0 -0.33316727288E+02  0.17988782947E+02 -0.50901870247E+01  0.38203542157E+02  0.51100000000E-03 0.  1.
         22    1    1    0    0    0 -0.18382713283E+02  0.20403025926E+01  0.22084799285E+02  0.28806689185E+02  0.00000000000E+00 0. -1.
</event>
<event>
 5    1  0.8752570E-005  0.9118800E+02  0.7818608E-02  0.1130116E+00
         25   -1    0    0    0    0  0.00000000000E+00  0.00000000000E+00  0.99999998245E-14  0.12500000000E+03  0.12500000000E+03 0.  0.
        -11    1    3    3    0    0 -0.35408578309E+02  0.26973371365E+02 -0.26500537259E+02  0.51803558333E+02  0.51100000000E-03 0.  1.
         23    2    1    0    0    0 -0.10847715925E+02  0.22284980092E+02  0.11804636050E+02  0.97547446189E+02  0.93604815834E+02 0.  0.
         11    1    3    3    0    0  0.24560862384E+02 -0.46883912736E+01  0.38305173309E+02  0.45743887856E+02  0.51100000000E-03 0. -1.
         22    1    1    0    0    0  0.10847715925E+02 -0.22284980092E+02 -0.11804636050E+02  0.27452553811E+02  0.00000000000E+00 0. -1.
</event>
<event>
 5    1  0.8752570E-005  0.9118800E+02  0.7818608E-02  0.1130116E+00
         25   -1    0    0    0    0  0.00000000000E+00  0.00000000000E+00  0.99999998245E-14  0.12500000000E+03  0.12500000000E+03 0.  0.
        -11    1    3    3    0    0 -0.22574259260E+02 -0.31312418409E+02  0.23357519361E+02  0.45118050033E+02  0.51100000000E-03 0.  1.
         23    2    1    0    0    0  0.20807920857E+02 -0.90284424566E+01  0.21225614564E+02  0.93935405086E+02  0.88650162275E+02 0.  0.
         11    1    3    3    0    0  0.43382180118E+02  0.22283975952E+02 -0.21319047979E+01  0.48817355053E+02  0.51100000000E-03 0. -1.
         22    1    1    0    0    0 -0.20807920857E+02  0.90284424566E+01 -0.21225614564E+02  0.31064594914E+02  0.00000000000E+00 0.  1.
</event>
<event>
 5    1  0.8752570E-005  0.9118800E+02  0.7818608E-02  0.1130116E+00
         25   -1    0    0    0    0  0.00000000000E+00  0.00000000000E+00  0.99999998245E-14  0.12500000000E+03  0.12500000000E+03 0.  0.
        -11    1    3    3    0    0 -0.26966203617E+02  0.44690693993E+02  0.11047753687E+02  0.53352480063E+02  0.51100000000E-03 0. -1.
         23    2    1    0    0    0 -0.63589577152E+01  0.21006695397E+02 -0.18372344954E+02  0.96377270329E+02  0.92028895365E+02 0.  0.
         11    1    3    3    0    0  0.20607245901E+02 -0.23683998596E+02 -0.29420098641E+02  0.43024790266E+02  0.51100000000E-03 0.  1.
         22    1    1    0    0    0  0.63589577152E+01 -0.21006695397E+02  0.18372344954E+02  0.28622729671E+02  0.00000000000E+00 0. -1.
</event>
<event>
 5    1  0.8752570E-005  0.9118800E+02  0.7818608E-02  0.1130116E+00
         25   -1    0    0    0    0  0.00000000000E+00  0.00000000000E+00  0.99999998245E-14  0.12500000000E+03  0.12500000000E+03 0.  0.
        -11    1    3    3    0    0  0.31664599102E+01 -0.20835502654E+02 -0.17633649374E+02  0.27478905177E+02  0.51100000000E-03 0.  1.
         23    2    1    0    0    0  0.82142794531E+01  0.36001942231E+02 -0.16507365059E+02  0.84551176376E+02  0.74248192531E+02 0.  0.
         11    1    3    3    0    0  0.50478195429E+01  0.56837444885E+02  0.11262843149E+01  0.57072271199E+02  0.51100000000E-03 0. -1.
         22    1    1    0    0    0 -0.82142794531E+01 -0.36001942231E+02  0.16507365059E+02  0.40448823624E+02  0.00000000000E+00 0. -1.
</event>
<event>
 5    1  0.8752570E-005  0.9118800E+02  0.7818608E-02  0.1130116E+00
         25   -1    0    0    0    0  0.00000000000E+00  0.00000000000E+00  0.99999998245E-14  0.12500000000E+03  0.12500000000E+03 0.  0.
        -11    1    3    3    0    0  0.32626437150E+02  0.67934877256E+01 -0.40338425668E+02  0.52324224430E+02  0.51100000000E-03 0. -1.
         23    2    1    0    0    0  0.11937832819E+02  0.26305824282E+02 -0.87765807429E+01  0.94808335370E+02  0.89872597840E+02 0.  0.
         11    1    3    3    0    0 -0.20688604330E+02  0.19512336557E+02  0.31561844925E+02  0.42484110940E+02  0.51100000000E-03 0.  1.
         22    1    1    0    0    0 -0.11937832819E+02 -0.26305824282E+02  0.87765807429E+01  0.30191664630E+02  0.00000000000E+00 0. -1.
</event>
<event>
 5    1  0.8752570E-005  0.9118800E+02  0.7818608E-02  0.1130116E+00
         25   -1    0    0    0    0  0.00000000000E+00  0.00000000000E+00  0.99999998245E-14  0.12500000000E+03  0.12500000000E+03 0.  0.
        -11    1    3    3    0    0  0.33918813564E+02 -0.10664659792E+01  0.28294367871E+01  0.34053325478E+02  0.51100000000E-03 0.  1.
         23    2    1    0    0    0 -0.25933314877E+02  0.10601605972E+02  0.95477841898E+01  0.95401164674E+02  0.90693390986E+02 0.  0.
         11    1    3    3    0    0 -0.59852128441E+02  0.11668071951E+02  0.67183474026E+01  0.61347839197E+02  0.51100000000E-03 0. -1.
         22    1    1    0    0    0  0.25933314877E+02 -0.10601605972E+02 -0.95477841898E+01  0.29598835326E+02  0.00000000000E+00 0. -1.
</event>
<event>
 5    1  0.8752570E-005  0.9118800E+02  0.7818608E-02  0.1130116E+00
         25   -1    0    0    0    0  0.00000000000E+00  0.00000000000E+00  0.99999998245E-14  0.12500000000E+03  0.12500000000E+03 0.  0.
        -11    1    3    3    0    0 -0.80860715060E+01  0.17672646231E+02  0.30383230667E+02  0.36067266090E+02  0.51100000000E-03 0.  1.
         23    2    1    0    0    0  0.23944664084E+02 -0.12608231769E+02 -0.10294178285E+02  0.96046855904E+02  0.91579004013E+02 0.  0.
         11    1    3    3    0    0  0.32030735590E+02 -0.30280878000E+02 -0.40677408953E+02  0.59979589814E+02  0.51100000000E-03 0. -1.
         22    1    1    0    0    0 -0.23944664084E+02  0.12608231769E+02  0.10294178285E+02  0.28953144096E+02  0.00000000000E+00 0. -1.
</event>
<event>
 5    1  0.8752570E-005  0.9118800E+02  0.7818608E-02  0.1130116E+00
         25   -1    0    0    0    0  0.00000000000E+00  0.00000000000E+00  0.99999998245E-14  0.12500000000E+03  0.12500000000E+03 0.  0.
        -11    1    3    3    0    0  0.43750245167E+02  0.81571645213E+01 -0.41581646220E+02  0.60906950243E+02  0.51100000000E-03 0.  1.
         23    2    1    0    0    0  0.24092097707E+02  0.10746115595E+02 -0.13272626736E+02  0.95469155231E+02  0.90787051983E+02 0.  0.
         11    1    3    3    0    0 -0.19658147460E+02  0.25889510740E+01  0.28309019485E+02  0.34562204988E+02  0.51100000000E-03 0. -1.
         22    1    1    0    0    0 -0.24092097707E+02 -0.10746115595E+02  0.13272626736E+02  0.29530844769E+02  0.00000000000E+00 0.  1.
</event>
<event>
 5    1  0.8752570E-005  0.9118800E+02  0.7818608E-02  0.1130116E+00
         25   -1    0    0    0    0  0.00000000000E+00  0.00000000000E+00  0.99999998245E-14  0.12500000000E+03  0.12500000000E+03 0.  0.
        -11    1    3    3    0    0  0.83404246725E+01 -0.14225603397E+02 -0.41193199663E+02  0.44371276458E+02  0.51100000000E-03 0.  1.
         23    2    1    0    0    0  0.20977151506E+02 -0.18851520833E+02  0.82515236572E+01  0.95614487146E+02  0.90986931955E+02 0.  0.
         11    1    3    3    0    0  0.12636726833E+02 -0.46259174353E+01  0.49444723320E+02  0.51243210689E+02  0.51100000000E-03 0. -1.
         22    1    1    0    0    0 -0.20977151506E+02  0.18851520833E+02 -0.82515236572E+01  0.29385512854E+02  0.00000000000E+00 0. -1.
</event>
<event>
 5    1  0.8752570E-005  0.9118800E+02  0.7818608E-02  0.1130116E+00
         25   -1    0    0    0    0  0.00000000000E+00  0.00000000000E+00  0.99999998245E-14  0.12500000000E+03  0.12500000000E+03 0.  0.
        -11    1    3    3    0    0 -0.31989576353E+02  0.17718411325E+02 -0.45495322920E+02  0.58370364938E+02  0.51100000000E-03 0.  1.
         23    2    1    0    0    0 -0.63853053791E+01 -0.43891594287E+01 -0.26970845555E+02  0.96938222522E+02  0.92787691158E+02 0.  0.
         11    1    3    3    0    0  0.25604270974E+02 -0.22107570753E+02  0.18524477365E+02  0.38567857584E+02  0.51100000000E-03 0. -1.
         22    1    1    0    0    0  0.63853053791E+01  0.43891594287E+01  0.26970845555E+02  0.28061777478E+02  0.00000000000E+00 0.  1.
</event>
<event>
 5    1  0.8752570E-005  0.9118800E+02  0.7818608E-02  0.1130116E+00
         25   -1    0    0    0    0  0.00000000000E+00  0.00000000000E+00  0.99999998245E-14  0.12500000000E+03  0.12500000000E+03 0.  0.
        -11    1    3    3    0    0 -0.30153648524E+02 -0.42491064769E+02  0.71562855014E+01  0.52592257290E+02  0.51100000000E-03 0.  1.
         23    2    1    0    0    0 -0.76367775769E+01 -0.18170322712E+02 -0.21085735878E+02  0.96136714381E+02  0.91701573570E+02 0.  0.
         11    1    3    3    0    0  0.22516870947E+02  0.24320742057E+02 -0.28242021380E+02  0.43544457090E+02  0.51100000000E-03 0. -1.
         22    1    1    0    0    0  0.76367775769E+01  0.18170322712E+02  0.21085735878E+02  0.28863285619E+02  0.00000000000E+00 0.  1.
</event>
<event>
 5    1  0.8752570E-005  0.9118800E+02  0.7818608E-02  0.1130116E+00
         25   -1    0    0    0    0  0.00000000000E+00  0.00000000000E+00  0.99999998245E-14  0.12500000000E+03  0.12500000000E+03 0.  0.
        -11    1    3    3    0    0 -0.13908917644E+02 -0.45501274012E+02 -0.34554596995E+02  0.58803436128E+02  0.51100000000E-03 0.  1.
         23    2    1    0    0    0 -0.93864469828E+01 -0.27346760272E+02 -0.24220982375E+01  0.95985913004E+02  0.91495782695E+02 0.  0.
         11    1    3    3    0    0  0.45224706615E+01  0.18154513740E+02  0.32132498757E+02  0.37182476876E+02  0.51100000000E-03 0. -1.
         22    1    1    0    0    0  0.93864469828E+01  0.27346760272E+02  0.24220982375E+01  0.29014086996E+02  0.00000000000E+00 0.  1.
</event>
<event>
 5    1  0.8752570E-005  0.9118800E+02  0.7818608E-02  0.1130116E+00
         25   -1    0    0    0    0  0.00000000000E+00  0.00000000000E+00  0.99999998245E-14  0.12500000000E+03  0.12500000000E+03 0.  0.
        -11    1    3    3    0    0 -0.50886591874E-01 -0.34141592728E+02 -0.66389480288E+01  0.34781123827E+02  0.51100000000E-03 0.  1.
         23    2    1    0    0    0  0.46595436202E+00  0.27605160155E+02  0.28079106860E+01  0.97248489355E+02  0.93204733457E+02 0.  0.
         11    1    3    3    0    0  0.51684095390E+00  0.61746752883E+02  0.94468587148E+01  0.62467365528E+02  0.51100000000E-03 0. -1.
         22    1    1    0    0    0 -0.46595436202E+00 -0.27605160155E+02 -0.28079106860E+01  0.27751510645E+02  0.00000000000E+00 0. -1.
</event>
<event>
 5    1  0.8752570E-005  0.9118800E+02  0.7818608E-02  0.1130116E+00
         25   -1    0    0    0    0  0.00000000000E+00  0.00000000000E+00  0.99999998245E-14  0.12500000000E+03  0.12500000000E+03 0.  0.
        -11    1    3    3    0    0  0.31576555899E+02  0.50361681550E+01 -0.13831233960E+02  0.34838841904E+02  0.51100000000E-03 0.  1.
         23    2    1    0    0    0 -0.18065078388E+02  0.73167835720E+00  0.22229341713E+02  0.96346447980E+02  0.91987020796E+02 0.  0.
         11    1    3    3    0    0 -0.49641634286E+02 -0.43044897978E+01  0.36060575673E+02  0.61507606076E+02  0.51100000000E-03 0. -1.
         22    1    1    0    0    0  0.18065078388E+02 -0.73167835720E+00 -0.22229341713E+02  0.28653552020E+02  0.00000000000E+00 0. -1.
</event>
<event>
 5    1  0.8752570E-005  0.9118800E+02  0.7818608E-02  0.1130116E+00
         25   -1    0    0    0    0  0.00000000000E+00  0.00000000000E+00  0.99999998245E-14  0.12500000000E+03  0.12500000000E+03 0.  0.
        -11    1    3    3    0    0 -0.13494107891E+01 -0.18181693408E+01  0.16820551035E+02  0.16972259325E+02  0.51100000000E-03 0.  1.
         23    2    1    0    0    0  0.15424335134E+02  0.23900037880E+01 -0.43006550668E+02  0.79248654306E+02  0.64708296041E+02 0.  0.
         11    1    3    3    0    0  0.16773745924E+02  0.42081731288E+01 -0.59827101703E+02  0.62276394981E+02  0.51100000000E-03 0. -1.
         22    1    1    0    0    0 -0.15424335134E+02 -0.23900037880E+01  0.43006550668E+02  0.45751345694E+02  0.00000000000E+00 0. -1.
</event>
<event>
 5    1  0.8752570E-005  0.9118800E+02  0.7818608E-02  0.1130116E+00
         25   -1    0    0    0    0  0.00000000000E+00  0.00000000000E+00  0.99999998245E-14  0.12500000000E+03  0.12500000000E+03 0.  0.
        -11    1    3    3    0    0 -0.16910116097E+02  0.46728634779E+02  0.31174932619E+02  0.58663393687E+02  0.51100000000E-03 0. -1.
         23    2    1    0    0    0  0.70508199374E+01  0.18069109804E+02  0.18726170763E+02  0.98039357160E+02  0.94259425471E+02 0.  0.
         11    1    3    3    0    0  0.23960936035E+02 -0.28659524975E+02 -0.12448761856E+02  0.39375963474E+02  0.51100000000E-03 0.  1.
         22    1    1    0    0    0 -0.70508199374E+01 -0.18069109804E+02 -0.18726170763E+02  0.26960642840E+02  0.00000000000E+00 0. -1.
</event>
<event>
 5    1  0.8752570E-005  0.9118800E+02  0.7818608E-02  0.1130116E+00
         25   -1    0    0    0    0  0.00000000000E+00  0.00000000000E+00  0.99999998245E-14  0.12500000000E+03  0.12500000000E+03 0.  0.
        -11    1    3    3    0    0  0.13427130535E+02  0.27544250459E+02 -0.16530785636E+01  0.30687232472E+02  0.51100000000E-03 0. -1.
         23    2    1    0    0    0  0.91415261304E+00 -0.25201604696E+02  0.23573745818E+02  0.90479309883E+02  0.83635085166E+02 0.  0.
         11    1    3    3    0    0 -0.12512977922E+02 -0.52745855155E+02  0.25226824382E+02  0.59792077411E+02  0.51100000000E-03 0.  1.
         22    1    1    0    0    0 -0.91415261304E+00  0.25201604696E+02 -0.23573745818E+02  0.34520690117E+02  0.00000000000E+00 0.  1.
</event>
<event>
 5    1  0.8752570E-005  0.9118800E+02  0.7818608E-02  0.1130116E+00
         25   -1    0    0    0    0  0.00000000000E+00  0.00000000000E+00  0.99999998245E-14  0.12500000000E+03  0.12500000000E+03 0.  0.
        -11    1    3    3    0    0  0.20112877202E+02  0.27050146863E+02  0.29760816266E+02  0.44966036736E+02  0.51100000000E-03 0.  1.
         23    2    1    0    0    0 -0.15689854516E+02 -0.94422185629E+01  0.21511219576E+02  0.96750051438E+02  0.92533847101E+02 0.  0.
         11    1    3    3    0    0 -0.35802731718E+02 -0.36492365425E+02 -0.82495966901E+01  0.51784014702E+02  0.51100000000E-03 0. -1.
         22    1    1    0    0    0  0.15689854516E+02  0.94422185629E+01 -0.21511219576E+02  0.28249948562E+02  0.00000000000E+00 0. -1.
</event>
<event>
 5    1  0.8752570E-005  0.9118800E+02  0.7818608E-02  0.1130116E+00
         25   -1    0    0    0    0  0.00000000000E+00  0.00000000000E+00  0.99999998245E-14  0.12500000000E+03  0.12500000000E+03 0.  0.
        -11    1    3    3    0    0 -0.21642430531E+02  0.51375724429E+02 -0.32176828241E+01  0.55840964739E+02  0.51100000000E-03 0.  1.
         23    2    1    0    0    0 -0.11162454982E+02  0.19163532240E+02 -0.21309704501E+02  0.94243783148E+02  0.89083925525E+02 0.  0.
         11    1    3    3    0    0  0.10479975549E+02 -0.32212192189E+02 -0.18092021677E+02  0.38402818409E+02  0.51100000000E-03 0. -1.
         22    1    1    0    0    0  0.11162454982E+02 -0.19163532240E+02  0.21309704501E+02  0.30756216852E+02  0.00000000000E+00 0.  1.
</event>
<event>
 5    1  0.8752570E-005  0.9118800E+02  0.7818608E-02  0.1130116E+00
         25   -1    0    0    0    0  0.00000000000E+00  0.00000000000E+00  0.99999998245E-14  0.12500000000E+03  0.12500000000E+03 0.  0.
        -11    1    3    3    0    0  0.32497943458E+02  0.49597389348E+02  0.20501013638E+01  0.59331444236E+02  0.51100000000E-03 0. -1.
         23    2    1    0    0    0  0.10548155959E+02  0.19565571290E+02  0.14387478254E+02  0.98522184672E+02  0.94897556176E+02 0.  0.
         11    1    3    3    0    0 -0.21949787500E+02 -0.30031818059E+02  0.12337376890E+02  0.39190740437E+02  0.51100000000E-03 0.  1.
         22    1    1    0    0    0 -0.10548155959E+02 -0.19565571290E+02 -0.14387478254E+02  0.26477815328E+02  0.00000000000E+00 0. -1.
</event>
<event>
 5    1  0.8752570E-005  0.9118800E+02  0.7818608E-02  0.1130116E+00
         25   -1    0    0    0    0  0.00000000000E+00  0.00000000000E+00  0.99999998245E-14  0.12500000000E+03  0.12500000000E+03 0.  0.
        -11    1    3    3    0    0  0.18302027668E+02  0.12405659303E+02  0.28712636714E+02  0.36239206764E+02  0.51100000000E-03 0.  1.
         23    2    1    0    0    0 -0.22002390666E+02  0.61974406548E+01 -0.16260379993E+02  0.96948022829E+02  0.92800892815E+02 0.  0.
         11    1    3    3    0    0 -0.40304418334E+02 -0.62082186486E+01 -0.44973016707E+02  0.60708816065E+02  0.51100000000E-03 0. -1.
         22    1    1    0    0    0  0.22002390666E+02 -0.61974406548E+01  0.16260379993E+02  0.28051977171E+02  0.00000000000E+00 0. -1.
</event>
<event>
 5    1  0.8752570E-005  0.9118800E+02  0.7818608E-02  0.1130116E+00
         25   -1    0    0    0    0  0.00000000000E+00  0.00000000000E+00  0.99999998245E-14  0.12500000000E+03  0.12500000000E+03 0.  0.
        -11    1    3    3    0    0  0.26317839206E+02  0.31281572372E+02 -0.19628848040E+02  0.45348176437E+02  0.51100000000E-03 0.  1.
         23    2    1    0    0    0 -0.17099554348E+02  0.24499947848E+02  0.33470229206E+01  0.94935988859E+02  0.90049970654E+02 0.  0.
         11    1    3    3    0    0 -0.43417393554E+02 -0.67816245235E+01  0.22975870961E+02  0.49587812422E+02  0.51100000000E-03 0. -1.
         22    1    1    0    0    0  0.17099554348E+02 -0.24499947848E+02 -0.33470229206E+01  0.30064011141E+02  0.00000000000E+00 0. -1.
</event>
<event>
 5    1  0.8752570E-005  0.9118800E+02  0.7818608E-02  0.1130116E+00
         25   -1    0    0    0    0  0.00000000000E+00  0.00000000000E+00  0.99999998245E-14  0.12500000000E+03  0.12500000000E+03 0.  0.
        -11    1    3    3    0    0 -0.24996249603E+02  0.37929577386E+02 -0.94930235104E+00  0.45435300265E+02  0.51100000000E-03 0.  1.
         23    2    1    0    0    0  0.10272288837E+02 -0.12670025071E+02 -0.66694839986E+01  0.10737809687E+03  0.10592225553E+03 0.  0.
         11    1    3    3    0    0  0.35268538440E+02 -0.50599602457E+02 -0.57201816476E+01  0.61942796602E+02  0.51100000000E-03 0. -1.
         22    1    1    0    0    0 -0.10272288837E+02  0.12670025071E+02  0.66694839986E+01  0.17621903133E+02  0.00000000000E+00 0. -1.
</event>
<event>
 5    1  0.8752570E-005  0.9118800E+02  0.7818608E-02  0.1130116E+00
         25   -1    0    0    0    0  0.00000000000E+00  0.00000000000E+00  0.99999998245E-14  0.12500000000E+03  0.12500000000E+03 0.  0.
        -11    1    3    3    0    0  0.84060286541E+01  0.37150289588E+02 -0.36598881074E+02  0.52823133477E+02  0.51100000000E-03 0. -1.
         23    2    1    0    0    0  0.11250716446E+02  0.25012940322E+02  0.57570896001E+01  0.96975548449E+02  0.92837961590E+02 0.  0.
         11    1    3    3    0    0  0.28446877917E+01 -0.12137349266E+02  0.42355970674E+02  0.44152414972E+02  0.51100000000E-03 0.  1.
         22    1    1    0    0    0 -0.11250716446E+02 -0.25012940322E+02 -0.57570896001E+01  0.28024451551E+02  0.00000000000E+00 0. -1.
</event>
<event>
 5    1  0.8752570E-005  0.9118800E+02  0.7818608E-02  0.1130116E+00
         25   -1    0    0    0    0  0.00000000000E+00  0.00000000000E+00  0.99999998245E-14  0.12500000000E+03  0.12500000000E+03 0.  0.
        -11    1    3    3    0    0  0.67092432324E+01 -0.29675181601E+02 -0.20518373084E+02  0.36696511852E+02  0.51100000000E-03 0.  1.
         23    2    1    0    0    0 -0.10626291982E+02  0.28570728532E+01  0.26420265781E+02  0.96379877874E+02  0.92032437045E+02 0.  0.
         11    1    3    3    0    0 -0.17335535215E+02  0.32532254454E+02  0.46938638865E+02  0.59683366022E+02  0.51100000000E-03 0. -1.
         22    1    1    0    0    0  0.10626291982E+02 -0.28570728532E+01 -0.26420265781E+02  0.28620122126E+02  0.00000000000E+00 0. -1.
</event>
<event>
 5    1  0.8752570E-005  0.9118800E+02  0.7818608E-02  0.1130116E+00
         25   -1    0    0    0    0  0.00000000000E+00  0.00000000000E+00  0.99999998245E-14  0.12500000000E+03  0.12500000000E+03 0.  0.
        -11    1    3    3    0    0 -0.21826170968E+00  0.27110266684E+02  0.56093994513E+02  0.62302090001E+02  0.51100000000E-03 0.  1.
         23    2    1    0    0    0  0.12661000903E+01  0.91610104835E+01  0.26352632858E+02  0.97071727926E+02  0.92967370520E+02 0.  0.
         11    1    3    3    0    0  0.14843617999E+01 -0.17949256200E+02 -0.29741361655E+02  0.34769637925E+02  0.51100000000E-03 0. -1.
         22    1    1    0    0    0 -0.12661000903E+01 -0.91610104835E+01 -0.26352632858E+02  0.27928272074E+02  0.00000000000E+00 0.  1.
</event>
<event>
 5    1  0.8752570E-005  0.9118800E+02  0.7818608E-02  0.1130116E+00
         25   -1    0    0    0    0  0.00000000000E+00  0.00000000000E+00  0.99999998245E-14  0.12500000000E+03  0.12500000000E+03 0.  0.
        -11    1    3    3    0    0 -0.29797591553E+02  0.21163471731E+01  0.43496581757E+02  0.52766732062E+02  0.51100000000E-03 0.  1.
         23    2    1    0    0    0 -0.23723510003E+02  0.17130901183E+02  0.39867514099E+01  0.95467528228E+02  0.90784811818E+02 0.  0.
         11    1    3    3    0    0  0.60740815503E+01  0.15014554010E+02 -0.39509830347E+02  0.42700796165E+02  0.51100000000E-03 0. -1.
         22    1    1    0    0    0  0.23723510003E+02 -0.17130901183E+02 -0.39867514099E+01  0.29532471772E+02  0.00000000000E+00 0. -1.
</event>
<event>
 5    1  0.8752570E-005  0.9118800E+02  0.7818608E-02  0.1130116E+00
         25   -1    0    0    0    0  0.00000000000E+00  0.00000000000E+00  0.99999998245E-14  0.12500000000E+03  0.12500000000E+03 0.  0.
        -11    1    3    3    0    0  0.97813771964E+01  0.95560169801E+00 -0.35083622273E+02  0.36434174432E+02  0.51100000000E-03 0.  1.
         23    2    1    0    0    0 -0.12181372742E+02 -0.26413150275E+02  0.10601929664E+02  0.94041297476E+02  0.88799348923E+02 0.  0.
         11    1    3    3    0    0 -0.21962749939E+02 -0.27368751973E+02  0.45685551937E+02  0.57607123045E+02  0.51100000000E-03 0. -1.
         22    1    1    0    0    0  0.12181372742E+02  0.26413150275E+02 -0.10601929664E+02  0.30958702524E+02  0.00000000000E+00 0. -1.
</event>
<event>
 5    1  0.8752570E-005  0.9118800E+02  0.7818608E-02  0.1130116E+00
         25   -1    0    0    0    0  0.00000000000E+00  0.00000000000E+00  0.99999998245E-14  0.12500000000E+03  0.12500000000E+03 0.  0.
        -11    1    3    3    0    0  0.34289818900E+02 -0.23901248316E+02 -0.46124287760E+02  0.62245572315E+02  0.51100000000E-03 0. -1.
         23    2    1    0    0    0  0.16629662478E+02 -0.14243317771E+02 -0.19085428501E+02  0.95953978649E+02  0.91452144109E+02 0.  0.
         11    1    3    3    0    0 -0.17660156422E+02  0.96579305447E+01  0.27038859259E+02  0.33708406333E+02  0.51100000000E-03 0.  1.
         22    1    1    0    0    0 -0.16629662478E+02  0.14243317771E+02  0.19085428501E+02  0.29046021351E+02  0.00000000000E+00 0. -1.
</event>
<event>
 5    1  0.8752570E-005  0.9118800E+02  0.7818608E-02  0.1130116E+00
         25   -1    0    0    0    0  0.00000000000E+00  0.00000000000E+00  0.99999998245E-14  0.12500000000E+03  0.12500000000E+03 0.  0.
        -11    1    3    3    0    0 -0.17263542313E+02  0.11640687802E+02 -0.36368624753E+02  0.41907187598E+02  0.51100000000E-03 0.  1.
         23    2    1    0    0    0  0.27898575534E+02 -0.19143327322E+00 -0.11290051052E+02  0.94902950040E+02  0.90004097184E+02 0.  0.
         11    1    3    3    0    0  0.45162117848E+02 -0.11832121075E+02  0.25078573701E+02  0.52995762442E+02  0.51100000000E-03 0. -1.
         22    1    1    0    0    0 -0.27898575534E+02  0.19143327322E+00  0.11290051052E+02  0.30097049960E+02  0.00000000000E+00 0. -1.
</event>
<event>
 5    1  0.8752570E-005  0.9118800E+02  0.7818608E-02  0.1130116E+00
         25   -1    0    0    0    0  0.00000000000E+00  0.00000000000E+00  0.99999998245E-14  0.12500000000E+03  0.12500000000E+03 0.  0.
        -11    1    3    3    0    0 -0.33694280033E+02  0.81168219552E+01  0.31031981242E+00  0.34659538431E+02  0.51100000000E-03 0.  1.
         23    2    1    0    0    0  0.26223043362E+02  0.10665729519E+02 -0.88792680256E+01  0.95331039958E+02  0.90596688623E+02 0.  0.
         11    1    3    3    0    0  0.59917323395E+02  0.25489075637E+01 -0.91895878380E+01  0.60671501527E+02  0.51100000000E-03 0. -1.
         22    1    1    0    0    0 -0.26223043362E+02 -0.10665729519E+02  0.88792680256E+01  0.29668960042E+02  0.00000000000E+00 0. -1.
</event>
<event>
 5    1  0.8752570E-005  0.9118800E+02  0.7818608E-02  0.1130116E+00
         25   -1    0    0    0    0  0.00000000000E+00  0.00000000000E+00  0.99999998245E-14  0.12500000000E+03  0.12500000000E+03 0.  0.
        -11    1    3    3    0    0  0.68042586780E+01  0.38365859217E+02 -0.23740575499E+02  0.45627316543E+02  0.51100000000E-03 0.  1.
         23    2    1    0    0    0 -0.28358960890E+02  0.94649473960E+01 -0.58324512005E+01  0.94539642501E+02  0.89498104031E+02 0.  0.
         11    1    3    3    0    0 -0.35163219568E+02 -0.28900911821E+02  0.17908124299E+02  0.48912325958E+02  0.51100000000E-03 0. -1.
         22    1    1    0    0    0  0.28358960890E+02 -0.94649473960E+01  0.58324512005E+01  0.30460357499E+02  0.00000000000E+00 0. -1.
</event>
<event>
 5    1  0.8752570E-005  0.9118800E+02  0.7818608E-02  0.1130116E+00
         25   -1    0    0    0    0  0.00000000000E+00  0.00000000000E+00  0.99999998245E-14  0.12500000000E+03  0.12500000000E+03 0.  0.
        -11    1    3    3    0    0  0.56378853354E+02  0.49120995646E+01  0.19454003680E+02  0.59842811490E+02  0.51100000000E-03 0.  1.
         23    2    1    0    0    0  0.24119655544E+02 -0.99229311529E+01  0.12719424912E+02  0.95982658352E+02  0.91491336137E+02 0.  0.
         11    1    3    3    0    0 -0.32259197810E+02 -0.14835030718E+02 -0.67345787683E+01  0.36139846862E+02  0.51100000000E-03 0. -1.
         22    1    1    0    0    0 -0.24119655544E+02  0.99229311529E+01 -0.12719424912E+02  0.29017341648E+02  0.00000000000E+00 0.  1.
</event>
<event>
 5    1  0.8752570E-005  0.9118800E+02  0.7818608E-02  0.1130116E+00
         25   -1    0    0    0    0  0.00000000000E+00  0.00000000000E+00  0.99999998245E-14  0.12500000000E+03  0.12500000000E+03 0.  0.
        -11    1    3    3    0    0 -0.13686367060E+02 -0.21183842130E+02 -0.27378865568E+02  0.37224643594E+02  0.51100000000E-03 0. -1.
         23    2    1    0    0    0  0.18794289585E+02 -0.87413007821E+01  0.20130755032E+02  0.96105658711E+02  0.91659231274E+02 0.  0.
         11    1    3    3    0    0  0.32480656645E+02  0.12442541348E+02  0.47509620600E+02  0.58881015116E+02  0.51100000000E-03 0.  1.
         22    1    1    0    0    0 -0.18794289585E+02  0.87413007821E+01 -0.20130755032E+02  0.28894341289E+02  0.00000000000E+00 0.  1.
</event>
<event>
 5    1  0.8752570E-005  0.9118800E+02  0.7818608E-02  0.1130116E+00
         25   -1    0    0    0    0  0.00000000000E+00  0.00000000000E+00  0.99999998245E-14  0.12500000000E+03  0.12500000000E+03 0.  0.
        -11    1    3    3    0    0 -0.25939894278E+02  0.82322083962E+01 -0.19830698880E+02  0.33673490887E+02  0.51100000000E-03 0. -1.
         23    2    1    0    0    0  0.30855235376E+02  0.16613914263E+01 -0.27669228611E+00  0.94098829630E+02  0.88880298197E+02 0.  0.
         11    1    3    3    0    0  0.56795129654E+02 -0.65708169699E+01  0.19554006594E+02  0.60425338743E+02  0.51100000000E-03 0.  1.
         22    1    1    0    0    0 -0.30855235376E+02 -0.16613914263E+01  0.27669228611E+00  0.30901170370E+02  0.00000000000E+00 0.  1.
</event>
<event>
 5    1  0.8752570E-005  0.9118800E+02  0.7818608E-02  0.1130116E+00
         25   -1    0    0    0    0  0.00000000000E+00  0.00000000000E+00  0.99999998245E-14  0.12500000000E+03  0.12500000000E+03 0.  0.
        -11    1    3    3    0    0  0.17576476277E+02 -0.13383504524E+02  0.28108877382E+02  0.35751359408E+02  0.51100000000E-03 0.  1.
         23    2    1    0    0    0 -0.18736015648E+02  0.22208615529E+02 -0.36713018758E+01  0.95712812639E+02  0.91121913718E+02 0.  0.
         11    1    3    3    0    0 -0.36312491924E+02  0.35592120053E+02 -0.31780179257E+02  0.59961453230E+02  0.51100000000E-03 0. -1.
         22    1    1    0    0    0  0.18736015648E+02 -0.22208615529E+02  0.36713018758E+01  0.29287187361E+02  0.00000000000E+00 0. -1.
</event>
<event>
 5    1  0.8752570E-005  0.9118800E+02  0.7818608E-02  0.1130116E+00
         25   -1    0    0    0    0  0.00000000000E+00  0.00000000000E+00  0.99999998245E-14  0.12500000000E+03  0.12500000000E+03 0.  0.
        -11    1    3    3    0    0 -0.77086025066E+01  0.56005758224E+02  0.13641343392E+02  0.58156287335E+02  0.51100000000E-03 0.  1.
         23    2    1    0    0    0 -0.18349198355E+02  0.23165138822E+02  0.13081288537E+02  0.92682251831E+02  0.86865199923E+02 0.  0.
         11    1    3    3    0    0 -0.10640595848E+02 -0.32840619401E+02 -0.56005485550E+00  0.34525964496E+02  0.51100000000E-03 0. -1.
         22    1    1    0    0    0  0.18349198355E+02 -0.23165138822E+02 -0.13081288537E+02  0.32317748169E+02  0.00000000000E+00 0.  1.
</event>
<event>
 5    1  0.8752570E-005  0.9118800E+02  0.7818608E-02  0.1130116E+00
         25   -1    0    0    0    0  0.00000000000E+00  0.00000000000E+00  0.99999998245E-14  0.12500000000E+03  0.12500000000E+03 0.  0.
        -11    1    3    3    0    0  0.35469997978E+02 -0.18964898211E+02 -0.13128978875E+01  0.40243158696E+02  0.51100000000E-03 0. -1.
         23    2    1    0    0    0 -0.15066216698E+02 -0.13561600416E+02  0.21056037024E+02  0.95772194975E+02  0.91203337350E+02 0.  0.
         11    1    3    3    0    0 -0.50536214675E+02  0.54032977952E+01  0.22368934912E+02  0.55529036279E+02  0.51100000000E-03 0.  1.
         22    1    1    0    0    0  0.15066216698E+02  0.13561600416E+02 -0.21056037024E+02  0.29227805025E+02  0.00000000000E+00 0.  1.
</event>
<event>
 5    1  0.8752570E-005  0.9118800E+02  0.7818608E-02  0.1130116E+00
         25   -1    0    0    0    0  0.00000000000E+00  0.00000000000E+00  0.99999998245E-14  0.12500000000E+03  0.12500000000E+03 0.  0.
        -11    1    3    3    0    0 -0.78213882090E+01 -0.41531149484E+02  0.44832632689E+02  0.61611487931E+02  0.51100000000E-03 0.  1.
         23    2    1    0    0    0 -0.16857498569E+01 -0.24975141299E+02  0.16420616703E+02  0.95062797586E+02  0.90225824444E+02 0.  0.
         11    1    3    3    0    0  0.61356383522E+01  0.16556008185E+02 -0.28412015986E+02  0.33451309655E+02  0.51100000000E-03 0. -1.
         22    1    1    0    0    0  0.16857498569E+01  0.24975141299E+02 -0.16420616703E+02  0.29937202414E+02  0.00000000000E+00 0.  1.
</event>
<event>
 5    1  0.8752570E-005  0.9118800E+02  0.7818608E-02  0.1130116E+00
         25   -1    0    0    0    0  0.00000000000E+00  0.00000000000E+00  0.99999998245E-14  0.12500000000E+03  0.12500000000E+03 0.  0.
        -11    1    3    3    0    0  0.16037139527E+02 -0.42590972227E+01 -0.41511048791E+02  0.44704551506E+02  0.51100000000E-03 0. -1.
         23    2    1    0    0    0 -0.73234719679E+01 -0.28135897730E+02 -0.28656567606E+01  0.95785723158E+02  0.91221876704E+02 0.  0.
         11    1    3    3    0    0 -0.23360611495E+02 -0.23876800507E+02  0.38645392030E+02  0.51081171652E+02  0.51100000000E-03 0.  1.
         22    1    1    0    0    0  0.73234719679E+01  0.28135897730E+02  0.28656567606E+01  0.29214276842E+02  0.00000000000E+00 0.  1.
</event>
<event>
 5    1  0.8752570E-005  0.9118800E+02  0.7818608E-02  0.1130116E+00
         25   -1    0    0    0    0  0.00000000000E+00  0.00000000000E+00  0.99999998245E-14  0.12500000000E+03  0.12500000000E+03 0.  0.
        -11    1    3    3    0    0 -0.44524293993E+02  0.31524712443E+02  0.92433205605E+01  0.55332262067E+02  0.51100000000E-03 0.  1.
         23    2    1    0    0    0 -0.46042270306E+01  0.28010201810E+02 -0.63699578834E+00  0.96606760037E+02  0.92340078023E+02 0.  0.
         11    1    3    3    0    0  0.39920066962E+02 -0.35145106337E+01 -0.98803163488E+01  0.41274497970E+02  0.51100000000E-03 0. -1.
         22    1    1    0    0    0  0.46042270306E+01 -0.28010201810E+02  0.63699578834E+00  0.28393239963E+02  0.00000000000E+00 0.  1.
</event>
<event>
 5    1  0.8752570E-005  0.9118800E+02  0.7818608E-02  0.1130116E+00
         25   -1    0    0    0    0  0.00000000000E+00  0.00000000000E+00  0.99999998245E-14  0.12500000000E+03  0.12500000000E+03 0.  0.
        -11    1    3    3    0    0 -0.38314621784E+02 -0.15001201160E+02 -0.11352610431E+02  0.42684049041E+02  0.51100000000E-03 0.  1.
         23    2    1    0    0    0  0.15337561534E+01 -0.17226441542E+02  0.23603588369E+02  0.95738556426E+02  0.91157221911E+02 0.  0.
         11    1    3    3    0    0  0.39848377938E+02 -0.22252403817E+01  0.34956198800E+02  0.53054507385E+02  0.51100000000E-03 0. -1.
         22    1    1    0    0    0 -0.15337561534E+01  0.17226441542E+02 -0.23603588369E+02  0.29261443574E+02  0.00000000000E+00 0.  1.
</event>
<event>
 5    1  0.8752570E-005  0.9118800E+02  0.7818608E-02  0.1130116E+00
         25   -1    0    0    0    0  0.00000000000E+00  0.00000000000E+00  0.99999998245E-14  0.12500000000E+03  0.12500000000E+03 0.  0.
        -11    1    3    3    0    0  0.22419961210E+02  0.75975219598E+01 -0.55292755158E+02  0.60147034622E+02  0.51100000000E-03 0.  1.
         23    2    1    0    0    0  0.19727708377E+02 -0.31405360070E+01 -0.21754170051E+02  0.95465454823E+02  0.90781956939E+02 0.  0.
         11    1    3    3    0    0 -0.26922528326E+01 -0.10738057967E+02  0.33538585107E+02  0.35318420200E+02  0.51100000000E-03 0. -1.
         22    1    1    0    0    0 -0.19727708377E+02  0.31405360070E+01  0.21754170051E+02  0.29534545177E+02  0.00000000000E+00 0.  1.
</event>
<event>
 5    1  0.8752570E-005  0.9118800E+02  0.7818608E-02  0.1130116E+00
         25   -1    0    0    0    0  0.00000000000E+00  0.00000000000E+00  0.99999998245E-14  0.12500000000E+03  0.12500000000E+03 0.  0.
        -11    1    3    3    0    0 -0.42968901603E+01  0.59959188626E+02 -0.30890491381E+01  0.60192273512E+02  0.51100000000E-03 0. -1.
         23    2    1    0    0    0  0.94078458000E+01  0.30506607107E+02  0.17105428744E+01  0.93029910906E+02  0.87364052827E+02 0.  0.
         11    1    3    3    0    0  0.13704735960E+02 -0.29452581519E+02  0.47995920125E+01  0.32837637394E+02  0.51100000000E-03 0.  1.
         22    1    1    0    0    0 -0.94078458000E+01 -0.30506607107E+02 -0.17105428744E+01  0.31970089094E+02  0.00000000000E+00 0. -1.
</event>
<event>
 5    1  0.8752570E-005  0.9118800E+02  0.7818608E-02  0.1130116E+00
         25   -1    0    0    0    0  0.00000000000E+00  0.00000000000E+00  0.99999998245E-14  0.12500000000E+03  0.12500000000E+03 0.  0.
        -11    1    3    3    0    0  0.21793113741E+02  0.44855792281E+02  0.35551017258E+01  0.49996206418E+02  0.51100000000E-03 0. -1.
         23    2    1    0    0    0  0.25671649994E+02  0.34878700504E+01 -0.14513399130E+02  0.95304249374E+02  0.90559717003E+02 0.  0.
         11    1    3    3    0    0  0.38785362536E+01 -0.41367922230E+02 -0.18068500856E+02  0.45308042957E+02  0.51100000000E-03 0.  1.
         22    1    1    0    0    0 -0.25671649994E+02 -0.34878700504E+01  0.14513399130E+02  0.29695750626E+02  0.00000000000E+00 0. -1.
</event>
<event>
 5    1  0.8752570E-005  0.9118800E+02  0.7818608E-02  0.1130116E+00
         25   -1    0    0    0    0  0.00000000000E+00  0.00000000000E+00  0.99999998245E-14  0.12500000000E+03  0.12500000000E+03 0.  0.
        -11    1    3    3    0    0  0.32745745093E+02 -0.22703773380E+02 -0.45253523504E+01  0.40102667761E+02  0.51100000000E-03 0. -1.
         23    2    1    0    0    0 -0.52093407534E+01  0.18408557811E+02  0.16360239006E+02  0.99827204127E+02  0.96601247568E+02 0.  0.
         11    1    3    3    0    0 -0.37955085846E+02  0.41112331190E+02  0.20885591356E+02  0.59724536366E+02  0.51100000000E-03 0.  1.
         22    1    1    0    0    0  0.52093407534E+01 -0.18408557811E+02 -0.16360239006E+02  0.25172795873E+02  0.00000000000E+00 0.  1.
</event>
<event>
 5    1  0.8752570E-005  0.9118800E+02  0.7818608E-02  0.1130116E+00
         25   -1    0    0    0    0  0.00000000000E+00  0.00000000000E+00  0.99999998245E-14  0.12500000000E+03  0.12500000000E+03 0.  0.
        -11    1    3    3    0    0 -0.15541057078E+02 -0.55363443909E+02  0.21572873757E+02  0.61416807626E+02  0.51100000000E-03 0. -1.
         23    2    1    0    0    0 -0.15006547117E+02 -0.23394842563E+02  0.88112855788E+01  0.95842601823E+02  0.91299783437E+02 0.  0.
         11    1    3    3    0    0  0.53450996109E+00  0.31968601347E+02 -0.12761588178E+02  0.34425794196E+02  0.51100000000E-03 0.  1.
         22    1    1    0    0    0  0.15006547117E+02  0.23394842563E+02 -0.88112855788E+01  0.29157398177E+02  0.00000000000E+00 0. -1.
</event>
<event>
 5    1  0.8752570E-005  0.9118800E+02  0.7818608E-02  0.1130116E+00
         25   -1    0    0    0    0  0.00000000000E+00  0.00000000000E+00  0.99999998245E-14  0.12500000000E+03  0.12500000000E+03 0.  0.
        -11    1    3    3    0    0  0.31576253383E+02 -0.66519850828E+01 -0.24273375224E+02  0.40379517435E+02  0.51100000000E-03 0.  1.
         23    2    1    0    0    0 -0.84055266892E+01  0.26402584065E+02 -0.90295826889E+00  0.97277001283E+02  0.93242963921E+02 0.  0.
         11    1    3    3    0    0 -0.39981780073E+02  0.33054569148E+02  0.23370416955E+02  0.56897483848E+02  0.51100000000E-03 0. -1.
         22    1    1    0    0    0  0.84055266892E+01 -0.26402584065E+02  0.90295826889E+00  0.27722998717E+02  0.00000000000E+00 0. -1.
</event>
<event>
 5    1  0.8752570E-005  0.9118800E+02  0.7818608E-02  0.1130116E+00
         25   -1    0    0    0    0  0.00000000000E+00  0.00000000000E+00  0.99999998245E-14  0.12500000000E+03  0.12500000000E+03 0.  0.
        -11    1    3    3    0    0  0.94503164543E+01  0.47378286870E+02 -0.10876792361E+02  0.49520855810E+02  0.51100000000E-03 0.  1.
         23    2    1    0    0    0 -0.17869466903E+01  0.62153917937E+01 -0.28565753369E+02  0.95711324046E+02  0.91119871661E+02 0.  0.
         11    1    3    3    0    0 -0.11237263145E+02 -0.41162895076E+02 -0.17688961008E+02  0.46190468236E+02  0.51100000000E-03 0. -1.
         22    1    1    0    0    0  0.17869466903E+01 -0.62153917937E+01  0.28565753369E+02  0.29288675954E+02  0.00000000000E+00 0.  1.
</event>
<event>
 5    1  0.8752570E-005  0.9118800E+02  0.7818608E-02  0.1130116E+00
         25   -1    0    0    0    0  0.00000000000E+00  0.00000000000E+00  0.99999998245E-14  0.12500000000E+03  0.12500000000E+03 0.  0.
        -11    1    3    3    0    0  0.29212599805E+02  0.19058990764E+02  0.16132905620E+02  0.38430349470E+02  0.51100000000E-03 0.  1.
         23    2    1    0    0    0  0.52718625113E+01 -0.19298331524E+02 -0.20301068077E+02  0.96498219371E+02  0.92193030338E+02 0.  0.
         11    1    3    3    0    0 -0.23940737294E+02 -0.38357322288E+02 -0.36433973697E+02  0.58067869902E+02  0.51100000000E-03 0. -1.
         22    1    1    0    0    0 -0.52718625113E+01  0.19298331524E+02  0.20301068077E+02  0.28501780629E+02  0.00000000000E+00 0. -1.
</event>
<event>
 5    1  0.8752570E-005  0.9118800E+02  0.7818608E-02  0.1130116E+00
         25   -1    0    0    0    0  0.00000000000E+00  0.00000000000E+00  0.99999998245E-14  0.12500000000E+03  0.12500000000E+03 0.  0.
        -11    1    3    3    0    0  0.58422000734E+02 -0.10498031044E+02 -0.18095695795E+01  0.59385295889E+02  0.51100000000E-03 0.  1.
         23    2    1    0    0    0  0.23442389513E+02 -0.18115110116E+02 -0.31305784810E+01  0.95209005350E+02  0.90428155668E+02 0.  0.
         11    1    3    3    0    0 -0.34979611220E+02 -0.76170790719E+01 -0.13210089016E+01  0.35823709460E+02  0.51100000000E-03 0. -1.
         22    1    1    0    0    0 -0.23442389513E+02  0.18115110116E+02  0.31305784810E+01  0.29790994650E+02  0.00000000000E+00 0.  1.
</event>
<event>
 5    1  0.8752570E-005  0.9118800E+02  0.7818608E-02  0.1130116E+00
         25   -1    0    0    0    0  0.00000000000E+00  0.00000000000E+00  0.99999998245E-14  0.12500000000E+03  0.12500000000E+03 0.  0.
        -11    1    3    3    0    0 -0.27360118231E+02  0.13875363091E+02 -0.54036425527E+02  0.62137243699E+02  0.51100000000E-03 0. -1.
         23    2    1    0    0    0 -0.11591412833E+02  0.19129617158E+01 -0.26133521970E+02  0.96347229723E+02  0.91988083091E+02 0.  0.
         11    1    3    3    0    0  0.15768705399E+02 -0.11962401375E+02  0.27902903557E+02  0.34209986024E+02  0.51100000000E-03 0.  1.
         22    1    1    0    0    0  0.11591412833E+02 -0.19129617158E+01  0.26133521970E+02  0.28652770277E+02  0.00000000000E+00 0. -1.
</event>
<event>
 5    1  0.8752570E-005  0.9118800E+02  0.7818608E-02  0.1130116E+00
         25   -1    0    0    0    0  0.00000000000E+00  0.00000000000E+00  0.99999998245E-14  0.12500000000E+03  0.12500000000E+03 0.  0.
        -11    1    3    3    0    0 -0.68822116108E+00 -0.69712585842E+01 -0.40252228306E+02  0.40857238997E+02  0.51100000000E-03 0.  1.
         23    2    1    0    0    0  0.22887429309E+02  0.18315540382E+02  0.21974927316E+01  0.95604040853E+02  0.90972579458E+02 0.  0.
         11    1    3    3    0    0  0.23575650470E+02  0.25286798967E+02  0.42449721038E+02  0.54746801856E+02  0.51100000000E-03 0. -1.
         22    1    1    0    0    0 -0.22887429309E+02 -0.18315540382E+02 -0.21974927316E+01  0.29395959147E+02  0.00000000000E+00 0. -1.
</event>
<event>
 5    1  0.8752570E-005  0.9118800E+02  0.7818608E-02  0.1130116E+00
         25   -1    0    0    0    0  0.00000000000E+00  0.00000000000E+00  0.99999998245E-14  0.12500000000E+03  0.12500000000E+03 0.  0.
        -11    1    3    3    0    0 -0.88861036251E+01 -0.42965509215E+02 -0.19982598378E+02  0.48211015940E+02  0.51100000000E-03 0. -1.
         23    2    1    0    0    0  0.25170044213E+02 -0.11913004908E+02 -0.10330744318E+02  0.95298567547E+02  0.90551874010E+02 0.  0.
         11    1    3    3    0    0  0.34056147838E+02  0.31052504307E+02  0.96518540606E+01  0.47087551607E+02  0.51100000000E-03 0.  1.
         22    1    1    0    0    0 -0.25170044213E+02  0.11913004908E+02  0.10330744318E+02  0.29701432453E+02  0.00000000000E+00 0. -1.
</event>
<event>
 5    1  0.8752570E-005  0.9118800E+02  0.7818608E-02  0.1130116E+00
         25   -1    0    0    0    0  0.00000000000E+00  0.00000000000E+00  0.99999998245E-14  0.12500000000E+03  0.12500000000E+03 0.  0.
        -11    1    3    3    0    0  0.76516354045E+01 -0.22877154121E+02  0.23081527120E+02  0.33386653015E+02  0.51100000000E-03 0.  1.
         23    2    1    0    0    0  0.13571058417E+00  0.21057790080E+02 -0.20418211712E+02  0.95668237184E+02  0.91060745087E+02 0.  0.
         11    1    3    3    0    0 -0.75159248204E+01  0.43934944201E+02 -0.43499738832E+02  0.62281584169E+02  0.51100000000E-03 0. -1.
         22    1    1    0    0    0 -0.13571058417E+00 -0.21057790080E+02  0.20418211712E+02  0.29331762816E+02  0.00000000000E+00 0. -1.
</event>
<event>
 5    1  0.8752570E-005  0.9118800E+02  0.7818608E-02  0.1130116E+00
         25   -1    0    0    0    0  0.00000000000E+00  0.00000000000E+00  0.99999998245E-14  0.12500000000E+03  0.12500000000E+03 0.  0.
        -11    1    3    3    0    0 -0.31951928658E+01  0.24101512594E+02 -0.55078783504E+02  0.60206017634E+02  0.51100000000E-03 0. -1.
         23    2    1    0    0    0 -0.13279607345E+02  0.13290569781E+02 -0.24944669617E+02  0.93771427209E+02  0.88418645105E+02 0.  0.
         11    1    3    3    0    0 -0.10084414479E+02 -0.10810942814E+02  0.30134113887E+02  0.33565409575E+02  0.51100000000E-03 0.  1.
         22    1    1    0    0    0  0.13279607345E+02 -0.13290569781E+02  0.24944669617E+02  0.31228572791E+02  0.00000000000E+00 0. -1.
</event>
<event>
 5    1  0.8752570E-005  0.9118800E+02  0.7818608E-02  0.1130116E+00
         25   -1    0    0    0    0  0.00000000000E+00  0.00000000000E+00  0.99999998245E-14  0.12500000000E+03  0.12500000000E+03 0.  0.
        -11    1    3    3    0    0  0.70963255147E+01 -0.25980371240E+02 -0.23483596786E+02  0.35732573989E+02  0.51100000000E-03 0. -1.
         23    2    1    0    0    0 -0.18302730367E+02  0.32086485013E+01  0.22493321476E+02  0.95824070278E+02  0.91274408076E+02 0.  0.
         11    1    3    3    0    0 -0.25399055882E+02  0.29189019741E+02  0.45976918263E+02  0.60091496290E+02  0.51100000000E-03 0.  1.
         22    1    1    0    0    0  0.18302730367E+02 -0.32086485013E+01 -0.22493321476E+02  0.29175929722E+02  0.00000000000E+00 0.  1.
</event>
<event>
 5    1  0.8752570E-005  0.9118800E+02  0.7818608E-02  0.1130116E+00
         25   -1    0    0    0    0  0.00000000000E+00  0.00000000000E+00  0.99999998245E-14  0.12500000000E+03  0.12500000000E+03 0.  0.
        -11    1    3    3    0    0  0.38241446228E+02 -0.40810100035E+02 -0.17924074865E+02  0.58729421371E+02  0.51100000000E-03 0. -1.
         23    2    1    0    0    0  0.93977405680E+01 -0.27005247993E+02  0.18836479805E+01  0.96344301149E+02  0.91984103448E+02 0.  0.
         11    1    3    3    0    0 -0.28843705660E+02  0.13804852042E+02  0.19807722845E+02  0.37614879778E+02  0.51100000000E-03 0.  1.
         22    1    1    0    0    0 -0.93977405680E+01  0.27005247993E+02 -0.18836479805E+01  0.28655698851E+02  0.00000000000E+00 0. -1.
</event>
<event>
 5    1  0.8752570E-005  0.9118800E+02  0.7818608E-02  0.1130116E+00
         25   -1    0    0    0    0  0.00000000000E+00  0.00000000000E+00  0.99999998245E-14  0.12500000000E+03  0.12500000000E+03 0.  0.
        -11    1    3    3    0    0  0.20489948856E+01 -0.54986017848E+02 -0.82167638568E+01  0.55634303693E+02  0.51100000000E-03 0. -1.
         23    2    1    0    0    0 -0.10212914372E+02 -0.24594256625E+02  0.13692639071E+02  0.95055560723E+02  0.90215797845E+02 0.  0.
         11    1    3    3    0    0 -0.12261909257E+02  0.30391761224E+02  0.21909402928E+02  0.39421257030E+02  0.51100000000E-03 0.  1.
         22    1    1    0    0    0  0.10212914372E+02  0.24594256625E+02 -0.13692639071E+02  0.29944439277E+02  0.00000000000E+00 0. -1.
</event>
<event>
 5    1  0.8752570E-005  0.9118800E+02  0.7818608E-02  0.1130116E+00
         25   -1    0    0    0    0  0.00000000000E+00  0.00000000000E+00  0.99999998245E-14  0.12500000000E+03  0.12500000000E+03 0.  0.
        -11    1    3    3    0    0  0.25044354564E+02  0.22063614671E+02  0.28914524048E+02  0.44159625101E+02  0.51100000000E-03 0. -1.
         23    2    1    0    0    0  0.87923556263E+01  0.26380235547E+02 -0.16554484293E+02  0.92638397827E+02  0.86802070578E+02 0.  0.
         11    1    3    3    0    0 -0.16251998937E+02  0.43166208768E+01 -0.45469008341E+02  0.48478772726E+02  0.51100000000E-03 0.  1.
         22    1    1    0    0    0 -0.87923556263E+01 -0.26380235547E+02  0.16554484293E+02  0.32361602173E+02  0.00000000000E+00 0.  1.
</event>
<event>
 5    1  0.8752570E-005  0.9118800E+02  0.7818608E-02  0.1130116E+00
         25   -1    0    0    0    0  0.00000000000E+00  0.00000000000E+00  0.99999998245E-14  0.12500000000E+03  0.12500000000E+03 0.  0.
        -11    1    3    3    0    0  0.51071500773E+02  0.24367288765E+02  0.16279334322E+02  0.58881913006E+02  0.51100000000E-03 0. -1.
         23    2    1    0    0    0  0.24181826617E+02 -0.37692100970E+00  0.17011696062E+02  0.95431425281E+02  0.90735088694E+02 0.  0.
         11    1    3    3    0    0 -0.26889674156E+02 -0.24744209775E+02  0.73236173963E+00  0.36549512275E+02  0.51100000000E-03 0.  1.
         22    1    1    0    0    0 -0.24181826617E+02  0.37692100970E+00 -0.17011696062E+02  0.29568574719E+02  0.00000000000E+00 0. -1.
</event>
<event>
 5    1  0.8752570E-005  0.9118800E+02  0.7818608E-02  0.1130116E+00
         25   -1    0    0    0    0  0.00000000000E+00  0.00000000000E+00  0.99999998245E-14  0.12500000000E+03  0.12500000000E+03 0.  0.
        -11    1    3    3    0    0 -0.40143359065E+01 -0.30270129081E+02 -0.18007300423E+02  0.35449379066E+02  0.51100000000E-03 0. -1.
         23    2    1    0    0    0 -0.26585585007E+01  0.27457815684E+02  0.37578898669E+01  0.97158999448E+02  0.93084638164E+02 0.  0.
         11    1    3    3    0    0  0.13557774059E+01  0.57727944765E+02  0.21765190290E+02  0.61709620383E+02  0.51100000000E-03 0.  1.
         22    1    1    0    0    0  0.26585585007E+01 -0.27457815684E+02 -0.37578898669E+01  0.27841000552E+02  0.00000000000E+00 0.  1.
</event>
<event>
 5    1  0.8752570E-005  0.9118800E+02  0.7818608E-02  0.1130116E+00
         25   -1    0    0    0    0  0.00000000000E+00  0.00000000000E+00  0.99999998245E-14  0.12500000000E+03  0.12500000000E+03 0.  0.
        -11    1    3    3    0    0 -0.58967736683E+02 -0.19006904718E+02  0.54292135314E+01  0.62192706617E+02  0.51100000000E-03 0.  1.
         23    2    1    0    0    0 -0.26386678862E+02 -0.81473694078E+01  0.67856457818E+01  0.96562675261E+02  0.92280381530E+02 0.  0.
         11    1    3    3    0    0  0.32581057821E+02  0.10859535311E+02  0.13564322504E+01  0.34369968645E+02  0.51100000000E-03 0. -1.
         22    1    1    0    0    0  0.26386678862E+02  0.81473694078E+01 -0.67856457818E+01  0.28437324739E+02  0.00000000000E+00 0.  1.
</event>
<event>
 5    1  0.8752570E-005  0.9118800E+02  0.7818608E-02  0.1130116E+00
         25   -1    0    0    0    0  0.00000000000E+00  0.00000000000E+00  0.99999998245E-14  0.12500000000E+03  0.12500000000E+03 0.  0.
        -11    1    3    3    0    0 -0.13000012897E+02 -0.35555413192E+02 -0.65985883965E+01  0.38428233263E+02  0.51100000000E-03 0.  1.
         23    2    1    0    0    0  0.13371718258E+02  0.34514311655E+00  0.27428822370E+02  0.94483409929E+02  0.89419530765E+02 0.  0.
         11    1    3    3    0    0  0.26371731154E+02  0.35900556309E+02  0.34027410767E+02  0.56055176667E+02  0.51100000000E-03 0. -1.
         22    1    1    0    0    0 -0.13371718258E+02 -0.34514311655E+00 -0.27428822370E+02  0.30516590071E+02  0.00000000000E+00 0. -1.
</event>
<event>
 5    1  0.8752570E-005  0.9118800E+02  0.7818608E-02  0.1130116E+00
         25   -1    0    0    0    0  0.00000000000E+00  0.00000000000E+00  0.99999998245E-14  0.12500000000E+03  0.12500000000E+03 0.  0.
        -11    1    3    3    0    0 -0.20744286698E+02 -0.86200362923E+01 -0.31037443260E+02  0.38313879217E+02  0.51100000000E-03 0. -1.
         23    2    1    0    0    0  0.48628485285E+01  0.22014427858E+02  0.13968663814E+02  0.98478199562E+02  0.94839600856E+02 0.  0.
         11    1    3    3    0    0  0.25607135227E+02  0.30634464150E+02  0.45006107074E+02  0.60164320345E+02  0.51100000000E-03 0.  1.
         22    1    1    0    0    0 -0.48628485285E+01 -0.22014427858E+02 -0.13968663814E+02  0.26521800438E+02  0.00000000000E+00 0.  1.
</event>
<event>
 5    1  0.8752570E-005  0.9118800E+02  0.7818608E-02  0.1130116E+00
         25   -1    0    0    0    0  0.00000000000E+00  0.00000000000E+00  0.99999998245E-14  0.12500000000E+03  0.12500000000E+03 0.  0.
        -11    1    3    3    0    0  0.25578707061E+01 -0.21231990225E+02 -0.34530563887E+02  0.40616498545E+02  0.51100000000E-03 0.  1.
         23    2    1    0    0    0 -0.11783814458E+02  0.24885936634E+02 -0.56432874392E+01  0.96892797748E+02  0.92726476462E+02 0.  0.
         11    1    3    3    0    0 -0.14341685164E+02  0.46117926859E+02  0.28887276448E+02  0.56276299203E+02  0.51100000000E-03 0. -1.
         22    1    1    0    0    0  0.11783814458E+02 -0.24885936634E+02  0.56432874392E+01  0.28107202252E+02  0.00000000000E+00 0. -1.
</event>
<event>
 5    1  0.8752570E-005  0.9118800E+02  0.7818608E-02  0.1130116E+00
         25   -1    0    0    0    0  0.00000000000E+00  0.00000000000E+00  0.99999998245E-14  0.12500000000E+03  0.12500000000E+03 0.  0.
        -11    1    3    3    0    0 -0.18514118420E+01  0.17422951912E+02 -0.29577708305E+02  0.34377722554E+02  0.51100000000E-03 0.  1.
         23    2    1    0    0    0 -0.94955826773E+00 -0.25169392975E+02  0.14711865629E+02  0.95830855447E+02  0.91283699869E+02 0.  0.
         11    1    3    3    0    0  0.90185357428E+00 -0.42592344887E+02  0.44289573934E+02  0.61453132893E+02  0.51100000000E-03 0. -1.
         22    1    1    0    0    0  0.94955826773E+00  0.25169392975E+02 -0.14711865629E+02  0.29169144553E+02  0.00000000000E+00 0. -1.
</event>
<event>
 5    1  0.8752570E-005  0.9118800E+02  0.7818608E-02  0.1130116E+00
         25   -1    0    0    0    0  0.00000000000E+00  0.00000000000E+00  0.99999998245E-14  0.12500000000E+03  0.12500000000E+03 0.  0.
        -11    1    3    3    0    0 -0.14259842327E+02 -0.47446181457E+02  0.93188293358E+01  0.50411544496E+02  0.51100000000E-03 0. -1.
         23    2    1    0    0    0  0.17504831545E+01 -0.98097321486E+01  0.27928901568E+02  0.95346693626E+02  0.90618284063E+02 0.  0.
         11    1    3    3    0    0  0.16010325482E+02  0.37636449308E+02  0.18610072232E+02  0.44935149130E+02  0.51100000000E-03 0.  1.
         22    1    1    0    0    0 -0.17504831545E+01  0.98097321486E+01 -0.27928901568E+02  0.29653306374E+02  0.00000000000E+00 0. -1.
</event>
<event>
 5    1  0.8752570E-005  0.9118800E+02  0.7818608E-02  0.1130116E+00
         25   -1    0    0    0    0  0.00000000000E+00  0.00000000000E+00  0.99999998245E-14  0.12500000000E+03  0.12500000000E+03 0.  0.
        -11    1    3    3    0    0  0.25279620823E+02 -0.22855195446E+02 -0.21013686391E+02  0.40037410054E+02  0.51100000000E-03 0.  1.
         23    2    1    0    0    0  0.18649573685E+02  0.14409561104E+02  0.18711567286E+02  0.94907396255E+02  0.90010271991E+02 0.  0.
         11    1    3    3    0    0 -0.66300471382E+01  0.37264756550E+02  0.39725253677E+02  0.54869986201E+02  0.51100000000E-03 0. -1.
         22    1    1    0    0    0 -0.18649573685E+02 -0.14409561104E+02 -0.18711567286E+02  0.30092603745E+02  0.00000000000E+00 0. -1.
</event>
<event>
 5    1  0.8752570E-005  0.9118800E+02  0.7818608E-02  0.1130116E+00
         25   -1    0    0    0    0  0.00000000000E+00  0.00000000000E+00  0.99999998245E-14  0.12500000000E+03  0.12500000000E+03 0.  0.
        -11    1    3    3    0    0 -0.19121274845E+02  0.25100167591E+02 -0.12401041672E+02  0.33903206332E+02  0.51100000000E-03 0.  1.
         23    2    1    0    0    0  0.20528119193E+02 -0.19612817328E+02  0.50575048879E+01  0.96161750455E+02  0.91735694327E+02 0.  0.
         11    1    3    3    0    0  0.39649394038E+02 -0.44712984920E+02  0.17458546560E+02  0.62258544122E+02  0.51100000000E-03 0. -1.
         22    1    1    0    0    0 -0.20528119193E+02  0.19612817328E+02 -0.50575048879E+01  0.28838249545E+02  0.00000000000E+00 0. -1.
</event>
<event>
 5    1  0.8752570E-005  0.9118800E+02  0.7818608E-02  0.1130116E+00
         25   -1    0    0    0    0  0.00000000000E+00  0.00000000000E+00  0.99999998245E-14  0.12500000000E+03  0.12500000000E+03 0.  0.
        -11    1    3    3    0    0  0.31874443011E+02  0.36549797571E+01 -0.12552653719E+02  0.34451532766E+02  0.51100000000E-03 0. -1.
         23    2    1    0    0    0 -0.18370321358E+02 -0.12789003844E+02  0.18671720085E+02  0.95851064221E+02  0.91311368708E+02 0.  0.
         11    1    3    3    0    0 -0.50244764369E+02 -0.16443983601E+02  0.31224373804E+02  0.61399531455E+02  0.51100000000E-03 0.  1.
         22    1    1    0    0    0  0.18370321358E+02  0.12789003844E+02 -0.18671720085E+02  0.29148935779E+02  0.00000000000E+00 0.  1.
</event>
<event>
 5    1  0.8752570E-005  0.9118800E+02  0.7818608E-02  0.1130116E+00
         25   -1    0    0    0    0  0.00000000000E+00  0.00000000000E+00  0.99999998245E-14  0.12500000000E+03  0.12500000000E+03 0.  0.
        -11    1    3    3    0    0 -0.47578888572E+02  0.65052144822E+00 -0.12516115742E+02  0.49201900059E+02  0.51100000000E-03 0. -1.
         23    2    1    0    0    0 -0.98394391547E+01 -0.26498950270E+02 -0.46083481154E+01  0.96360066330E+02  0.92005524739E+02 0.  0.
         11    1    3    3    0    0  0.37739449417E+02 -0.27149471718E+02  0.79077676270E+01  0.47158166271E+02  0.51100000000E-03 0.  1.
         22    1    1    0    0    0  0.98394391547E+01  0.26498950270E+02  0.46083481154E+01  0.28639933670E+02  0.00000000000E+00 0.  1.
</event>
<event>
 5    1  0.8752570E-005  0.9118800E+02  0.7818608E-02  0.1130116E+00
         25   -1    0    0    0    0  0.00000000000E+00  0.00000000000E+00  0.99999998245E-14  0.12500000000E+03  0.12500000000E+03 0.  0.
        -11    1    3    3    0    0  0.93902401513E+01  0.40938912409E+02 -0.10184376553E+02  0.43219124070E+02  0.51100000000E-03 0.  1.
         23    2    1    0    0    0  0.78741408849E+01 -0.83524414734E+01 -0.27272279130E+02  0.95410431193E+02  0.90706161854E+02 0.  0.
         11    1    3    3    0    0 -0.15160992664E+01 -0.49291353882E+02 -0.17087902577E+02  0.52191307123E+02  0.51100000000E-03 0. -1.
         22    1    1    0    0    0 -0.78741408849E+01  0.83524414734E+01  0.27272279130E+02  0.29589568807E+02  0.00000000000E+00 0. -1.
</event>
<event>
 5    1  0.8752570E-005  0.9118800E+02  0.7818608E-02  0.1130116E+00
         25   -1    0    0    0    0  0.00000000000E+00  0.00000000000E+00  0.99999998245E-14  0.12500000000E+03  0.12500000000E+03 0.  0.
        -11    1    3    3    0    0  0.56038271697E+02  0.20920966199E+01  0.97071152817E+01  0.56911271734E+02  0.51100000000E-03 0.  1.
         23    2    1    0    0    0  0.28536710726E+02  0.17080816475E+02  0.14718639593E+02  0.88630555379E+02  0.80824741539E+02 0.  0.
         11    1    3    3    0    0 -0.27501560971E+02  0.14988719856E+02  0.50115243116E+01  0.31719283645E+02  0.51100000000E-03 0. -1.
         22    1    1    0    0    0 -0.28536710726E+02 -0.17080816475E+02 -0.14718639593E+02  0.36369444621E+02  0.00000000000E+00 0.  1.
</event>
<event>
 5    1  0.8752570E-005  0.9118800E+02  0.7818608E-02  0.1130116E+00
         25   -1    0    0    0    0  0.00000000000E+00  0.00000000000E+00  0.99999998245E-14  0.12500000000E+03  0.12500000000E+03 0.  0.
        -11    1    3    3    0    0 -0.34765649941E+02  0.20911991934E+02  0.45593566286E+01  0.40825844212E+02  0.51100000000E-03 0. -1.
         23    2    1    0    0    0  0.10039213280E+01 -0.17114426770E+02 -0.20115998691E+02  0.98569622306E+02  0.94960020938E+02 0.  0.
         11    1    3    3    0    0  0.35769571269E+02 -0.38026418704E+02 -0.24675355320E+02  0.57743778094E+02  0.51100000000E-03 0.  1.
         22    1    1    0    0    0 -0.10039213280E+01  0.17114426770E+02  0.20115998691E+02  0.26430377694E+02  0.00000000000E+00 0.  1.
</event>
<event>
 5    1  0.8752570E-005  0.9118800E+02  0.7818608E-02  0.1130116E+00
         25   -1    0    0    0    0  0.00000000000E+00  0.00000000000E+00  0.99999998245E-14  0.12500000000E+03  0.12500000000E+03 0.  0.
        -11    1    3    3    0    0  0.57301137950E+01 -0.31679900314E+02  0.43262138680E+02  0.53926458547E+02  0.51100000000E-03 0.  1.
         23    2    1    0    0    0 -0.14670120996E+02  0.39686881933E+00  0.24791341916E+02  0.96190616305E+02  0.91775018803E+02 0.  0.
         11    1    3    3    0    0 -0.20400234791E+02  0.32076769134E+02 -0.18470796764E+02  0.42264157758E+02  0.51100000000E-03 0. -1.
         22    1    1    0    0    0  0.14670120996E+02 -0.39686881933E+00 -0.24791341916E+02  0.28809383695E+02  0.00000000000E+00 0.  1.
</event>
<event>
 5    1  0.8752570E-005  0.9118800E+02  0.7818608E-02  0.1130116E+00
         25   -1    0    0    0    0  0.00000000000E+00  0.00000000000E+00  0.99999998245E-14  0.12500000000E+03  0.12500000000E+03 0.  0.
        -11    1    3    3    0    0 -0.38908885150E+02  0.29685616632E+02  0.23448857557E+02  0.54267726131E+02  0.51100000000E-03 0.  1.
         23    2    1    0    0    0 -0.23579149151E+02 -0.80784827472E+01  0.15059396272E+02  0.95879155674E+02  0.91349816193E+02 0.  0.
         11    1    3    3    0    0  0.15329736000E+02 -0.37764099379E+02 -0.83894612843E+01  0.41611429543E+02  0.51100000000E-03 0. -1.
         22    1    1    0    0    0  0.23579149151E+02  0.80784827472E+01 -0.15059396272E+02  0.29120844326E+02  0.00000000000E+00 0.  1.
</event>
<event>
 5    1  0.8752570E-005  0.9118800E+02  0.7818608E-02  0.1130116E+00
         25   -1    0    0    0    0  0.00000000000E+00  0.00000000000E+00  0.99999998245E-14  0.12500000000E+03  0.12500000000E+03 0.  0.
        -11    1    3    3    0    0 -0.36553476868E+02 -0.67458689899E+01  0.17484527418E+02  0.41077635264E+02  0.51100000000E-03 0. -1.
         23    2    1    0    0    0  0.11603814293E+02 -0.25913289446E+02 -0.22020979394E+01  0.96522003031E+02  0.92225271795E+02 0.  0.
         11    1    3    3    0    0  0.48157291161E+02 -0.19167420456E+02 -0.19686625357E+02  0.55444367767E+02  0.51100000000E-03 0.  1.
         22    1    1    0    0    0 -0.11603814293E+02  0.25913289446E+02  0.22020979394E+01  0.28477996969E+02  0.00000000000E+00 0.  1.
</event>
<event>
 5    1  0.8752570E-005  0.9118800E+02  0.7818608E-02  0.1130116E+00
         25   -1    0    0    0    0  0.00000000000E+00  0.00000000000E+00  0.99999998245E-14  0.12500000000E+03  0.12500000000E+03 0.  0.
        -11    1    3    3    0    0  0.53977922884E+01  0.87011526047E+01  0.36923612384E+02  0.38317089790E+02  0.51100000000E-03 0. -1.
         23    2    1    0    0    0 -0.23381136583E+02  0.12818603922E+02 -0.12417450297E+02  0.95585934890E+02  0.90947697731E+02 0.  0.
         11    1    3    3    0    0 -0.28778928871E+02  0.41174513171E+01 -0.49341062681E+02  0.57268845100E+02  0.51100000000E-03 0.  1.
         22    1    1    0    0    0  0.23381136583E+02 -0.12818603922E+02  0.12417450297E+02  0.29414065110E+02  0.00000000000E+00 0.  1.
</event>
<event>
 5    1  0.8752570E-005  0.9118800E+02  0.7818608E-02  0.1130116E+00
         25   -1    0    0    0    0  0.00000000000E+00  0.00000000000E+00  0.99999998245E-14  0.12500000000E+03  0.12500000000E+03 0.  0.
        -11    1    3    3    0    0 -0.10308159929E+02 -0.10074129852E+02 -0.41072560894E+02  0.43528169179E+02  0.51100000000E-03 0.  1.
         23    2    1    0    0    0  0.26530543079E+02  0.76822141483E+01 -0.76598354261E+01  0.96337145832E+02  0.91974379356E+02 0.  0.
         11    1    3    3    0    0  0.36838703009E+02  0.17756344000E+02  0.33412725468E+02  0.52808976653E+02  0.51100000000E-03 0. -1.
         22    1    1    0    0    0 -0.26530543079E+02 -0.76822141483E+01  0.76598354261E+01  0.28662854168E+02  0.00000000000E+00 0.  1.
</event>
<event>
 5    1  0.8752570E-005  0.9118800E+02  0.7818608E-02  0.1130116E+00
         25   -1    0    0    0    0  0.00000000000E+00  0.00000000000E+00  0.99999998245E-14  0.12500000000E+03  0.12500000000E+03 0.  0.
        -11    1    3    3    0    0  0.18988399691E+02  0.26145581131E+02  0.24139720208E+02  0.40334561204E+02  0.51100000000E-03 0. -1.
         23    2    1    0    0    0  0.28102332650E+02 -0.19591426518E+02  0.13565403766E+02  0.88154575959E+02  0.80085229536E+02 0.  0.
         11    1    3    3    0    0  0.91139329591E+01 -0.45737007649E+02 -0.10574316443E+02  0.47820014755E+02  0.51100000000E-03 0.  1.
         22    1    1    0    0    0 -0.28102332650E+02  0.19591426518E+02 -0.13565403766E+02  0.36845424041E+02  0.00000000000E+00 0.  1.
</event>
<event>
 5    1  0.8752570E-005  0.9118800E+02  0.7818608E-02  0.1130116E+00
         25   -1    0    0    0    0  0.00000000000E+00  0.00000000000E+00  0.99999998245E-14  0.12500000000E+03  0.12500000000E+03 0.  0.
        -11    1    3    3    0    0 -0.19323053719E+02 -0.40578059226E+01 -0.29696059458E+02  0.35660932987E+02  0.51100000000E-03 0. -1.
         23    2    1    0    0    0 -0.53832925399E+01  0.81054842118E+00  0.28645413089E+02  0.95841870459E+02  0.91298782109E+02 0.  0.
         11    1    3    3    0    0  0.13939761179E+02  0.48683543438E+01  0.58341472547E+02  0.60180937471E+02  0.51100000000E-03 0.  1.
         22    1    1    0    0    0  0.53832925399E+01 -0.81054842118E+00 -0.28645413089E+02  0.29158129541E+02  0.00000000000E+00 0.  1.
</event>
<event>
 5    1  0.8752570E-005  0.9118800E+02  0.7818608E-02  0.1130116E+00
         25   -1    0    0    0    0  0.00000000000E+00  0.00000000000E+00  0.99999998245E-14  0.12500000000E+03  0.12500000000E+03 0.  0.
        -11    1    3    3    0    0 -0.44163619381E+02 -0.14547366286E+02 -0.38365398278E+02  0.60282293652E+02  0.51100000000E-03 0. -1.
         23    2    1    0    0    0 -0.24264312724E+02  0.40579368659E+01 -0.14892584883E+02  0.96242169621E+02  0.91845208941E+02 0.  0.
         11    1    3    3    0    0  0.19899306657E+02  0.18605303152E+02  0.23472813395E+02  0.35959875969E+02  0.51100000000E-03 0.  1.
         22    1    1    0    0    0  0.24264312724E+02 -0.40579368659E+01  0.14892584883E+02  0.28757830379E+02  0.00000000000E+00 0. -1.
</event>
<event>
 5    1  0.8752570E-005  0.9118800E+02  0.7818608E-02  0.1130116E+00
         25   -1    0    0    0    0  0.00000000000E+00  0.00000000000E+00  0.99999998245E-14  0.12500000000E+03  0.12500000000E+03 0.  0.
        -11    1    3    3    0    0 -0.33716963059E+02 -0.14472912066E+02  0.28747088989E+02  0.46612164799E+02  0.51100000000E-03 0.  1.
         23    2    1    0    0    0 -0.35484803198E+00 -0.19623354788E+02 -0.13861133211E+02  0.10097224554E+03  0.98071715526E+02 0.  0.
         11    1    3    3    0    0  0.33362115027E+02 -0.51504427223E+01 -0.42608222200E+02  0.54360080746E+02  0.51100000000E-03 0. -1.
         22    1    1    0    0    0  0.35484803198E+00  0.19623354788E+02  0.13861133211E+02  0.24027754455E+02  0.00000000000E+00 0. -1.
</event>
<event>
 5    1  0.8752570E-005  0.9118800E+02  0.7818608E-02  0.1130116E+00
         25   -1    0    0    0    0  0.00000000000E+00  0.00000000000E+00  0.99999998245E-14  0.12500000000E+03  0.12500000000E+03 0.  0.
        -11    1    3    3    0    0  0.35539026132E+02 -0.19387398582E+02  0.20499845090E+01  0.40535121055E+02  0.51100000000E-03 0. -1.
         23    2    1    0    0    0 -0.15720316840E+02 -0.15426944249E+02 -0.18827230583E+02  0.96024431294E+02  0.91548390611E+02 0.  0.
         11    1    3    3    0    0 -0.51259342973E+02  0.39604543332E+01 -0.20877215092E+02  0.55489310239E+02  0.51100000000E-03 0.  1.
         22    1    1    0    0    0  0.15720316840E+02  0.15426944249E+02  0.18827230583E+02  0.28975568706E+02  0.00000000000E+00 0.  1.
</event>
<event>
 5    1  0.8752570E-005  0.9118800E+02  0.7818608E-02  0.1130116E+00
         25   -1    0    0    0    0  0.00000000000E+00  0.00000000000E+00  0.99999998245E-14  0.12500000000E+03  0.12500000000E+03 0.  0.
        -11    1    3    3    0    0 -0.11965138599E+02 -0.53687074481E+01 -0.35484496785E+02  0.37830372371E+02  0.51100000000E-03 0.  1.
         23    2    1    0    0    0  0.35289584338E+01 -0.23860152968E+02  0.16930900164E+02  0.95531104064E+02  0.90872306101E+02 0.  0.
         11    1    3    3    0    0  0.15494097033E+02 -0.18491445520E+02  0.52415396950E+02  0.57700731693E+02  0.51100000000E-03 0. -1.
         22    1    1    0    0    0 -0.35289584338E+01  0.23860152968E+02 -0.16930900164E+02  0.29468895936E+02  0.00000000000E+00 0. -1.
</event>
<event>
 5    1  0.8752570E-005  0.9118800E+02  0.7818608E-02  0.1130116E+00
         25   -1    0    0    0    0  0.00000000000E+00  0.00000000000E+00  0.99999998245E-14  0.12500000000E+03  0.12500000000E+03 0.  0.
        -11    1    3    3    0    0  0.17228487792E+02 -0.51733141976E+02  0.20481944531E+02  0.58246449010E+02  0.51100000000E-03 0.  1.
         23    2    1    0    0    0 -0.36875500078E+01 -0.33988662696E+02  0.32075612773E+01  0.90661746313E+02  0.83907309445E+02 0.  0.
         11    1    3    3    0    0 -0.20916037800E+02  0.17744479280E+02 -0.17274383254E+02  0.32415297303E+02  0.51100000000E-03 0. -1.
         22    1    1    0    0    0  0.36875500078E+01  0.33988662696E+02 -0.32075612773E+01  0.34338253687E+02  0.00000000000E+00 0.  1.
</event>
<event>
 5    1  0.8752570E-005  0.9118800E+02  0.7818608E-02  0.1130116E+00
         25   -1    0    0    0    0  0.00000000000E+00  0.00000000000E+00  0.99999998245E-14  0.12500000000E+03  0.12500000000E+03 0.  0.
        -11    1    3    3    0    0  0.27437056529E+02  0.31873242169E+02  0.33178045373E+02  0.53567511912E+02  0.51100000000E-03 0. -1.
         23    2    1    0    0    0 -0.10317542851E+02  0.19398092795E+02  0.19519831918E+02  0.95610179778E+02  0.90981014198E+02 0.  0.
         11    1    3    3    0    0 -0.37754599380E+02 -0.12475149374E+02 -0.13658213455E+02  0.42042667866E+02  0.51100000000E-03 0.  1.
         22    1    1    0    0    0  0.10317542851E+02 -0.19398092795E+02 -0.19519831918E+02  0.29389820222E+02  0.00000000000E+00 0. -1.
</event>
<event>
 5    1  0.8752570E-005  0.9118800E+02  0.7818608E-02  0.1130116E+00
         25   -1    0    0    0    0  0.00000000000E+00  0.00000000000E+00  0.99999998245E-14  0.12500000000E+03  0.12500000000E+03 0.  0.
        -11    1    3    3    0    0 -0.13452668142E+02  0.52578741645E+02  0.16491098806E+02  0.56722611833E+02  0.51100000000E-03 0. -1.
         23    2    1    0    0    0 -0.12706666762E+02  0.23804749844E+02 -0.10369325158E+02  0.96092416227E+02  0.91641170097E+02 0.  0.
         11    1    3    3    0    0  0.74600138029E+00 -0.28773991801E+02 -0.26860423964E+02  0.39369804394E+02  0.51100000000E-03 0.  1.
         22    1    1    0    0    0  0.12706666762E+02 -0.23804749844E+02  0.10369325158E+02  0.28907583773E+02  0.00000000000E+00 0. -1.
</event>
<event>
 5    1  0.8752570E-005  0.9118800E+02  0.7818608E-02  0.1130116E+00
         25   -1    0    0    0    0  0.00000000000E+00  0.00000000000E+00  0.99999998245E-14  0.12500000000E+03  0.12500000000E+03 0.  0.
        -11    1    3    3    0    0 -0.16481723162E+02 -0.32749557314E+02 -0.98194064255E+01  0.37955255834E+02  0.51100000000E-03 0.  1.
         23    2    1    0    0    0  0.27980136329E+02  0.33359639434E+01  0.30828739074E+01  0.96653557614E+02  0.92403405801E+02 0.  0.
         11    1    3    3    0    0  0.44461859490E+02  0.36085521258E+02  0.12902280333E+02  0.58698301780E+02  0.51100000000E-03 0. -1.
         22    1    1    0    0    0 -0.27980136329E+02 -0.33359639434E+01 -0.30828739074E+01  0.28346442386E+02  0.00000000000E+00 0. -1.
</event>
<event>
 5    1  0.8752570E-005  0.9118800E+02  0.7818608E-02  0.1130116E+00
         25   -1    0    0    0    0  0.00000000000E+00  0.00000000000E+00  0.99999998245E-14  0.12500000000E+03  0.12500000000E+03 0.  0.
        -11    1    3    3    0    0 -0.47616429056E+00 -0.19167034788E+02  0.28597776309E+02  0.34430143263E+02  0.51100000000E-03 0.  1.
         23    2    1    0    0    0 -0.10905753529E+02  0.27008272202E+02 -0.85944901397E+01  0.94631472079E+02  0.89626268580E+02 0.  0.
         11    1    3    3    0    0 -0.10429589239E+02  0.46175306990E+02 -0.37192266449E+02  0.60201328816E+02  0.51100000000E-03 0. -1.
         22    1    1    0    0    0  0.10905753529E+02 -0.27008272202E+02  0.85944901397E+01  0.30368527921E+02  0.00000000000E+00 0. -1.
</event>
<event>
 5    1  0.8752570E-005  0.9118800E+02  0.7818608E-02  0.1130116E+00
         25   -1    0    0    0    0  0.00000000000E+00  0.00000000000E+00  0.99999998245E-14  0.12500000000E+03  0.12500000000E+03 0.  0.
        -11    1    3    3    0    0  0.92038137494E+01 -0.27701456656E+02  0.20552513676E+02  0.35699953880E+02  0.51100000000E-03 0.  1.
         23    2    1    0    0    0  0.89132170165E+01  0.87433366346E+01 -0.26788288300E+02  0.95444902925E+02  0.90753654093E+02 0.  0.
         11    1    3    3    0    0 -0.29059673296E+00  0.36444793290E+02 -0.47340801976E+02  0.59744949045E+02  0.51100000000E-03 0. -1.
         22    1    1    0    0    0 -0.89132170165E+01 -0.87433366346E+01  0.26788288300E+02  0.29555097075E+02  0.00000000000E+00 0. -1.
</event>
<event>
 5    1  0.8752570E-005  0.9118800E+02  0.7818608E-02  0.1130116E+00
         25   -1    0    0    0    0  0.00000000000E+00  0.00000000000E+00  0.99999998245E-14  0.12500000000E+03  0.12500000000E+03 0.  0.
        -11    1    3    3    0    0  0.42932561101E+02 -0.19886616352E+02  0.91898003874E+01  0.48198908121E+02  0.51100000000E-03 0. -1.
         23    2    1    0    0    0  0.20949084032E+02  0.15211945423E+02 -0.13899625503E+02  0.95615191094E+02  0.90987899049E+02 0.  0.
         11    1    3    3    0    0 -0.21983477069E+02  0.35098561775E+02 -0.23089425891E+02  0.47416282973E+02  0.51100000000E-03 0.  1.
         22    1    1    0    0    0 -0.20949084032E+02 -0.15211945423E+02  0.13899625503E+02  0.29384808906E+02  0.00000000000E+00 0.  1.
</event>
<event>
 5    1  0.8752570E-005  0.9118800E+02  0.7818608E-02  0.1130116E+00
         25   -1    0    0    0    0  0.00000000000E+00  0.00000000000E+00  0.99999998245E-14  0.12500000000E+03  0.12500000000E+03 0.  0.
        -11    1    3    3    0    0 -0.43005426037E+01  0.32381710002E+02  0.76985623475E+00  0.32675105023E+02  0.51100000000E-03 0.  1.
         23    2    1    0    0    0 -0.12398202715E+02 -0.28346592409E+02  0.24484216678E+01  0.93963900044E+02  0.88690332118E+02 0.  0.
         11    1    3    3    0    0 -0.80976601111E+01 -0.60728302412E+02  0.16785654330E+01  0.61288795022E+02  0.51100000000E-03 0. -1.
         22    1    1    0    0    0  0.12398202715E+02  0.28346592409E+02 -0.24484216678E+01  0.31036099956E+02  0.00000000000E+00 0. -1.
</event>
<event>
 5    1  0.8752570E-005  0.9118800E+02  0.7818608E-02  0.1130116E+00
         25   -1    0    0    0    0  0.00000000000E+00  0.00000000000E+00  0.99999998245E-14  0.12500000000E+03  0.12500000000E+03 0.  0.
        -11    1    3    3    0    0  0.53714701995E+02 -0.16525596638E+02 -0.23514000440E+02  0.60920216444E+02  0.51100000000E-03 0. -1.
         23    2    1    0    0    0  0.27868153226E+02 -0.41829879155E+01 -0.19881580744E+01  0.96749617265E+02  0.92533260594E+02 0.  0.
         11    1    3    3    0    0 -0.25846548769E+02  0.12342608723E+02  0.21525842366E+02  0.35829400820E+02  0.51100000000E-03 0.  1.
         22    1    1    0    0    0 -0.27868153226E+02  0.41829879155E+01  0.19881580744E+01  0.28250382735E+02  0.00000000000E+00 0. -1.
</event>
<event>
 5    1  0.8752570E-005  0.9118800E+02  0.7818608E-02  0.1130116E+00
         25   -1    0    0    0    0  0.00000000000E+00  0.00000000000E+00  0.99999998245E-14  0.12500000000E+03  0.12500000000E+03 0.  0.
        -11    1    3    3    0    0  0.69893734536E+01 -0.50007745161E+02  0.28576434296E+02  0.58019294332E+02  0.51100000000E-03 0.  1.
         23    2    1    0    0    0 -0.11938558176E+02 -0.26076052035E+02  0.67419517441E+01  0.95539117896E+02  0.90883328911E+02 0.  0.
         11    1    3    3    0    0 -0.18927931629E+02  0.23931693127E+02 -0.21834482552E+02  0.37519823564E+02  0.51100000000E-03 0. -1.
         22    1    1    0    0    0  0.11938558176E+02  0.26076052035E+02 -0.67419517441E+01  0.29460882104E+02  0.00000000000E+00 0.  1.
</event>
<event>
 5    1  0.8752570E-005  0.9118800E+02  0.7818608E-02  0.1130116E+00
         25   -1    0    0    0    0  0.00000000000E+00  0.00000000000E+00  0.99999998245E-14  0.12500000000E+03  0.12500000000E+03 0.  0.
        -11    1    3    3    0    0  0.27488273181E+02 -0.12420532801E+02  0.49271673890E+02  0.57771728776E+02  0.51100000000E-03 0.  1.
         23    2    1    0    0    0  0.15676503485E+02  0.11238742534E+02  0.21271277634E+02  0.96285380945E+02  0.91904000111E+02 0.  0.
         11    1    3    3    0    0 -0.11811769696E+02  0.23659275335E+02 -0.28000396255E+02  0.38513652170E+02  0.51100000000E-03 0. -1.
         22    1    1    0    0    0 -0.15676503485E+02 -0.11238742534E+02 -0.21271277634E+02  0.28714619055E+02  0.00000000000E+00 0.  1.
</event>
<event>
 5    1  0.8752570E-005  0.9118800E+02  0.7818608E-02  0.1130116E+00
         25   -1    0    0    0    0  0.00000000000E+00  0.00000000000E+00  0.99999998245E-14  0.12500000000E+03  0.12500000000E+03 0.  0.
        -11    1    3    3    0    0  0.32640910229E+01 -0.24794127506E+02  0.46165909001E+02  0.52504230336E+02  0.51100000000E-03 0. -1.
         23    2    1    0    0    0  0.22317934352E+02  0.26547151797E+01  0.18016366708E+02  0.96195014741E+02  0.91781009393E+02 0.  0.
         11    1    3    3    0    0  0.19053843329E+02  0.27448842686E+02 -0.28149542293E+02  0.43690784405E+02  0.51100000000E-03 0.  1.
         22    1    1    0    0    0 -0.22317934352E+02 -0.26547151797E+01 -0.18016366708E+02  0.28804985259E+02  0.00000000000E+00 0. -1.
</event>
<event>
 5    1  0.8752570E-005  0.9118800E+02  0.7818608E-02  0.1130116E+00
         25   -1    0    0    0    0  0.00000000000E+00  0.00000000000E+00  0.99999998245E-14  0.12500000000E+03  0.12500000000E+03 0.  0.
        -11    1    3    3    0    0  0.11338248501E+01 -0.61795170546E+01 -0.54372963313E+02  0.54734734215E+02  0.51100000000E-03 0. -1.
         23    2    1    0    0    0 -0.13857605842E+02 -0.18166227121E+02 -0.17807645436E+02  0.96031788397E+02  0.91558435435E+02 0.  0.
         11    1    3    3    0    0 -0.14991430693E+02 -0.11986710066E+02  0.36565317878E+02  0.41297054183E+02  0.51100000000E-03 0.  1.
         22    1    1    0    0    0  0.13857605842E+02  0.18166227121E+02  0.17807645436E+02  0.28968211603E+02  0.00000000000E+00 0.  1.
</event>
<event>
 5    1  0.8752570E-005  0.9118800E+02  0.7818608E-02  0.1130116E+00
         25   -1    0    0    0    0  0.00000000000E+00  0.00000000000E+00  0.99999998245E-14  0.12500000000E+03  0.12500000000E+03 0.  0.
        -11    1    3    3    0    0 -0.19149296605E+02  0.46842265249E+02  0.19568646489E+02  0.54257029957E+02  0.51100000000E-03 0. -1.
         23    2    1    0    0    0  0.99293602230E+01  0.17935451773E+02  0.21484589333E+02  0.95303868879E+02  0.90559191801E+02 0.  0.
         11    1    3    3    0    0  0.29078656828E+02 -0.28906813476E+02  0.19159428442E+01  0.41046838921E+02  0.51100000000E-03 0.  1.
         22    1    1    0    0    0 -0.99293602230E+01 -0.17935451773E+02 -0.21484589333E+02  0.29696131121E+02  0.00000000000E+00 0. -1.
</event>
<event>
 5    1  0.8752570E-005  0.9118800E+02  0.7818608E-02  0.1130116E+00
         25   -1    0    0    0    0  0.00000000000E+00  0.00000000000E+00  0.99999998245E-14  0.12500000000E+03  0.12500000000E+03 0.  0.
        -11    1    3    3    0    0 -0.44649412202E+02  0.33537187300E+02 -0.32003571996E+01  0.55933489328E+02  0.51100000000E-03 0. -1.
         23    2    1    0    0    0 -0.27646645965E+02 -0.21923711142E+01  0.61516314249E+01  0.96592499346E+02  0.92320771425E+02 0.  0.
         11    1    3    3    0    0  0.17002766237E+02 -0.35729558414E+02  0.93519886244E+01  0.40659010018E+02  0.51100000000E-03 0.  1.
         22    1    1    0    0    0  0.27646645965E+02  0.21923711142E+01 -0.61516314249E+01  0.28407500654E+02  0.00000000000E+00 0. -1.
</event>
<event>
 5    1  0.8752570E-005  0.9118800E+02  0.7818608E-02  0.1130116E+00
         25   -1    0    0    0    0  0.00000000000E+00  0.00000000000E+00  0.99999998245E-14  0.12500000000E+03  0.12500000000E+03 0.  0.
        -11    1    3    3    0    0  0.30382633553E+02  0.28618644285E+02 -0.40037617364E+01  0.41930434420E+02  0.51100000000E-03 0.  1.
         23    2    1    0    0    0  0.14920970234E+02 -0.23572015676E+02  0.35218758909E+01  0.96880987117E+02  0.92710553764E+02 0.  0.
         11    1    3    3    0    0 -0.15461663320E+02 -0.52190659961E+02  0.75256376272E+01  0.54950552697E+02  0.51100000000E-03 0. -1.
         22    1    1    0    0    0 -0.14920970234E+02  0.23572015676E+02 -0.35218758909E+01  0.28119012883E+02  0.00000000000E+00 0. -1.
</event>
<event>
 5    1  0.8752570E-005  0.9118800E+02  0.7818608E-02  0.1130116E+00
         25   -1    0    0    0    0  0.00000000000E+00  0.00000000000E+00  0.99999998245E-14  0.12500000000E+03  0.12500000000E+03 0.  0.
        -11    1    3    3    0    0 -0.24110608236E+02 -0.41065325569E+02  0.20684476684E+01  0.47665090681E+02  0.51100000000E-03 0. -1.
         23    2    1    0    0    0 -0.32281233488E+02  0.29779253087E+01 -0.10150455087E+01  0.92565814454E+02  0.86697483317E+02 0.  0.
         11    1    3    3    0    0 -0.81706252525E+01  0.44043250878E+02 -0.30834931771E+01  0.44900723773E+02  0.51100000000E-03 0.  1.
         22    1    1    0    0    0  0.32281233488E+02 -0.29779253087E+01  0.10150455087E+01  0.32434185546E+02  0.00000000000E+00 0.  1.
</event>
<event>
 5    1  0.8752570E-005  0.9118800E+02  0.7818608E-02  0.1130116E+00
         25   -1    0    0    0    0  0.00000000000E+00  0.00000000000E+00  0.99999998245E-14  0.12500000000E+03  0.12500000000E+03 0.  0.
        -11    1    3    3    0    0  0.38505215380E+02 -0.14863367812E+02 -0.11254250605E+02  0.42781181273E+02  0.51100000000E-03 0.  1.
         23    2    1    0    0    0  0.62303819862E+01 -0.55759303173E+01  0.28776026790E+02  0.95033879523E+02  0.90185752094E+02 0.  0.
         11    1    3    3    0    0 -0.32274833394E+02  0.92874374944E+01  0.40030277395E+02  0.52252698250E+02  0.51100000000E-03 0. -1.
         22    1    1    0    0    0 -0.62303819862E+01  0.55759303173E+01 -0.28776026790E+02  0.29966120477E+02  0.00000000000E+00 0. -1.
</event>
<event>
 5    1  0.8752570E-005  0.9118800E+02  0.7818608E-02  0.1130116E+00
         25   -1    0    0    0    0  0.00000000000E+00  0.00000000000E+00  0.99999998245E-14  0.12500000000E+03  0.12500000000E+03 0.  0.
        -11    1    3    3    0    0  0.40601093957E+02 -0.13319276340E+02 -0.16597120489E+02  0.45840117381E+02  0.51100000000E-03 0. -1.
         23    2    1    0    0    0 -0.49962150671E+01 -0.45833913836E+01 -0.30064405315E+02  0.94180556323E+02  0.88995163244E+02 0.  0.
         11    1    3    3    0    0 -0.45597309025E+02  0.87358849562E+01 -0.13467284827E+02  0.48340438942E+02  0.51100000000E-03 0.  1.
         22    1    1    0    0    0  0.49962150671E+01  0.45833913836E+01  0.30064405315E+02  0.30819443677E+02  0.00000000000E+00 0.  1.
</event>
<event>
 5    1  0.8752570E-005  0.9118800E+02  0.7818608E-02  0.1130116E+00
         25   -1    0    0    0    0  0.00000000000E+00  0.00000000000E+00  0.99999998245E-14  0.12500000000E+03  0.12500000000E+03 0.  0.
        -11    1    3    3    0    0  0.15699705378E+02  0.15770534461E+02 -0.32834620586E+02  0.39664881387E+02  0.51100000000E-03 0. -1.
         23    2    1    0    0    0  0.16251225904E+02  0.64215771866E+01  0.22907737644E+02  0.96188484231E+02  0.91772114815E+02 0.  0.
         11    1    3    3    0    0  0.55152052527E+00 -0.93489572747E+01  0.55742358231E+02  0.56523602843E+02  0.51100000000E-03 0.  1.
         22    1    1    0    0    0 -0.16251225904E+02 -0.64215771866E+01 -0.22907737644E+02  0.28811515769E+02  0.00000000000E+00 0.  1.
</event>
<event>
 5    1  0.8752570E-005  0.9118800E+02  0.7818608E-02  0.1130116E+00
         25   -1    0    0    0    0  0.00000000000E+00  0.00000000000E+00  0.99999998245E-14  0.12500000000E+03  0.12500000000E+03 0.  0.
        -11    1    3    3    0    0  0.78480396166E+01  0.24396604274E+02 -0.33840797602E+02  0.42449801043E+02  0.51100000000E-03 0.  1.
         23    2    1    0    0    0  0.15730091522E+02  0.11025875684E+02  0.19275255141E+02  0.97787113813E+02  0.93924323012E+02 0.  0.
         11    1    3    3    0    0  0.78820519050E+01 -0.13370728590E+02  0.53116052744E+02  0.55337312770E+02  0.51100000000E-03 0. -1.
         22    1    1    0    0    0 -0.15730091522E+02 -0.11025875684E+02 -0.19275255141E+02  0.27212886187E+02  0.00000000000E+00 0. -1.
</event>
<event>
 5    1  0.8752570E-005  0.9118800E+02  0.7818608E-02  0.1130116E+00
         25   -1    0    0    0    0  0.00000000000E+00  0.00000000000E+00  0.99999998245E-14  0.12500000000E+03  0.12500000000E+03 0.  0.
        -11    1    3    3    0    0  0.17204126128E+02  0.18454234450E+02 -0.47291990146E+02  0.53601054628E+02  0.51100000000E-03 0. -1.
         23    2    1    0    0    0 -0.79856197483E+01  0.25939825455E+02 -0.22185135625E+02  0.89945401013E+02  0.82833267793E+02 0.  0.
         11    1    3    3    0    0 -0.25189745876E+02  0.74855910046E+01  0.25106854521E+02  0.36344346385E+02  0.51100000000E-03 0.  1.
         22    1    1    0    0    0  0.79856197483E+01 -0.25939825455E+02  0.22185135625E+02  0.35054598987E+02  0.00000000000E+00 0. -1.
</event>
<event>
 5    1  0.8752570E-005  0.9118800E+02  0.7818608E-02  0.1130116E+00
         25   -1    0    0    0    0  0.00000000000E+00  0.00000000000E+00  0.99999998245E-14  0.12500000000E+03  0.12500000000E+03 0.  0.
        -11    1    3    3    0    0 -0.38308759373E+02 -0.13655624103E+02  0.15768969040E+02  0.43619920899E+02  0.51100000000E-03 0.  1.
         23    2    1    0    0    0  0.12529759400E+02 -0.24744124378E+02  0.38840509750E+01  0.96993707603E+02  0.92862408437E+02 0.  0.
         11    1    3    3    0    0  0.50838518774E+02 -0.11088500275E+02 -0.11884918065E+02  0.53373786704E+02  0.51100000000E-03 0. -1.
         22    1    1    0    0    0 -0.12529759400E+02  0.24744124378E+02 -0.38840509750E+01  0.28006292397E+02  0.00000000000E+00 0. -1.
</event>
<event>
 5    1  0.8752570E-005  0.9118800E+02  0.7818608E-02  0.1130116E+00
         25   -1    0    0    0    0  0.00000000000E+00  0.00000000000E+00  0.99999998245E-14  0.12500000000E+03  0.12500000000E+03 0.  0.
        -11    1    3    3    0    0 -0.24694051810E+02  0.20180303755E+02  0.10470279848E+02  0.33565869790E+02  0.51100000000E-03 0.  1.
         23    2    1    0    0    0  0.22681304536E+02 -0.18668100606E+02  0.61683643991E+01  0.94983533268E+02  0.90115943745E+02 0.  0.
         11    1    3    3    0    0  0.47375356346E+02 -0.38848404361E+02 -0.43019154487E+01  0.61417663478E+02  0.51100000000E-03 0. -1.
         22    1    1    0    0    0 -0.22681304536E+02  0.18668100606E+02 -0.61683643991E+01  0.30016466732E+02  0.00000000000E+00 0. -1.
</event>
<event>
 5    1  0.8752570E-005  0.9118800E+02  0.7818608E-02  0.1130116E+00
         25   -1    0    0    0    0  0.00000000000E+00  0.00000000000E+00  0.99999998245E-14  0.12500000000E+03  0.12500000000E+03 0.  0.
        -11    1    3    3    0    0  0.44060024186E+02 -0.16204806517E+02  0.46733628702E+01  0.47177556171E+02  0.51100000000E-03 0.  1.
         23    2    1    0    0    0  0.12854872471E+02  0.17923159585E+02  0.19312906949E+02  0.95683182803E+02  0.91081258778E+02 0.  0.
         11    1    3    3    0    0 -0.31205151715E+02  0.34127966101E+02  0.14639544079E+02  0.48505626631E+02  0.51100000000E-03 0. -1.
         22    1    1    0    0    0 -0.12854872471E+02 -0.17923159585E+02 -0.19312906949E+02  0.29316817197E+02  0.00000000000E+00 0.  1.
</event>
<event>
 5    1  0.8752570E-005  0.9118800E+02  0.7818608E-02  0.1130116E+00
         25   -1    0    0    0    0  0.00000000000E+00  0.00000000000E+00  0.99999998245E-14  0.12500000000E+03  0.12500000000E+03 0.  0.
        -11    1    3    3    0    0 -0.36158430609E+02  0.40279608793E+01 -0.40203338380E+01  0.36603547060E+02  0.51100000000E-03 0.  1.
         23    2    1    0    0    0  0.15001433225E+02 -0.22401817363E+02  0.10626348108E+02  0.96020633304E+02  0.91543204696E+02 0.  0.
         11    1    3    3    0    0  0.51159863834E+02 -0.26429778242E+02  0.14646681946E+02  0.59417086244E+02  0.51100000000E-03 0. -1.
         22    1    1    0    0    0 -0.15001433225E+02  0.22401817363E+02 -0.10626348108E+02  0.28979366696E+02  0.00000000000E+00 0. -1.
</event>
<event>
 5    1  0.8752570E-005  0.9118800E+02  0.7818608E-02  0.1130116E+00
         25   -1    0    0    0    0  0.00000000000E+00  0.00000000000E+00  0.99999998245E-14  0.12500000000E+03  0.12500000000E+03 0.  0.
        -11    1    3    3    0    0  0.25381686610E+01 -0.80317542144E+01 -0.45068752225E+02  0.45849141794E+02  0.51100000000E-03 0.  1.
         23    2    1    0    0    0 -0.23682546733E+02 -0.17351945515E+02 -0.41278031319E+01  0.95352204270E+02  0.90625885196E+02 0.  0.
         11    1    3    3    0    0 -0.26220715394E+02 -0.93201913009E+01  0.40940949093E+02  0.49503062476E+02  0.51100000000E-03 0. -1.
         22    1    1    0    0    0  0.23682546733E+02  0.17351945515E+02  0.41278031319E+01  0.29647795730E+02  0.00000000000E+00 0. -1.
</event>
<event>
 5    1  0.8752570E-005  0.9118800E+02  0.7818608E-02  0.1130116E+00
         25   -1    0    0    0    0  0.00000000000E+00  0.00000000000E+00  0.99999998245E-14  0.12500000000E+03  0.12500000000E+03 0.  0.
        -11    1    3    3    0    0 -0.28954313987E+02  0.58024021858E+01  0.34117362735E+02  0.45122218583E+02  0.51100000000E-03 0. -1.
         23    2    1    0    0    0 -0.21696116377E+02 -0.37932091638E+01 -0.16709509961E+02  0.97353705045E+02  0.93345735099E+02 0.  0.
         11    1    3    3    0    0  0.72581976100E+01 -0.95956113496E+01 -0.50826872696E+02  0.52231486462E+02  0.51100000000E-03 0.  1.
         22    1    1    0    0    0  0.21696116377E+02  0.37932091638E+01  0.16709509961E+02  0.27646294955E+02  0.00000000000E+00 0.  1.
</event>
<event>
 5    1  0.8752570E-005  0.9118800E+02  0.7818608E-02  0.1130116E+00
         25   -1    0    0    0    0  0.00000000000E+00  0.00000000000E+00  0.99999998245E-14  0.12500000000E+03  0.12500000000E+03 0.  0.
        -11    1    3    3    0    0 -0.31950628749E+02 -0.37189302780E+02  0.29365466510E+02  0.57150831510E+02  0.51100000000E-03 0.  1.
         23    2    1    0    0    0 -0.11629710292E+02 -0.62084777925E+01  0.27797693532E+02  0.94234644100E+02  0.89071100953E+02 0.  0.
         11    1    3    3    0    0  0.20320918457E+02  0.30980824987E+02 -0.15677729784E+01  0.37083812590E+02  0.51100000000E-03 0. -1.
         22    1    1    0    0    0  0.11629710292E+02  0.62084777925E+01 -0.27797693532E+02  0.30765355900E+02  0.00000000000E+00 0.  1.
</event>
<event>
 5    1  0.8752570E-005  0.9118800E+02  0.7818608E-02  0.1130116E+00
         25   -1    0    0    0    0  0.00000000000E+00  0.00000000000E+00  0.99999998245E-14  0.12500000000E+03  0.12500000000E+03 0.  0.
        -11    1    3    3    0    0 -0.24373779130E+02 -0.84646309601E+01 -0.10692285770E+02  0.27929483734E+02  0.51100000000E-03 0. -1.
         23    2    1    0    0    0  0.32715985038E+02  0.13376585261E+02 -0.32535033315E+01  0.89505577985E+02  0.82166869821E+02 0.  0.
         11    1    3    3    0    0  0.57089764168E+02  0.21841216221E+02  0.74387824382E+01  0.61576094251E+02  0.51100000000E-03 0.  1.
         22    1    1    0    0    0 -0.32715985038E+02 -0.13376585261E+02  0.32535033315E+01  0.35494422015E+02  0.00000000000E+00 0.  1.
</event>
<event>
 5    1  0.8752570E-005  0.9118800E+02  0.7818608E-02  0.1130116E+00
         25   -1    0    0    0    0  0.00000000000E+00  0.00000000000E+00  0.99999998245E-14  0.12500000000E+03  0.12500000000E+03 0.  0.
        -11    1    3    3    0    0  0.45324808725E+02  0.32384261771E+02 -0.37425963722E+00  0.55706541509E+02  0.51100000000E-03 0.  1.
         23    2    1    0    0    0  0.18273947498E+02  0.10769491512E+02 -0.20286316118E+02  0.95649468042E+02  0.91034976853E+02 0.  0.
         11    1    3    3    0    0 -0.27050861227E+02 -0.21614770259E+02 -0.19912056481E+02  0.39942926533E+02  0.51100000000E-03 0. -1.
         22    1    1    0    0    0 -0.18273947498E+02 -0.10769491512E+02  0.20286316118E+02  0.29350531958E+02  0.00000000000E+00 0.  1.
</event>
<event>
 5    1  0.8752570E-005  0.9118800E+02  0.7818608E-02  0.1130116E+00
         25   -1    0    0    0    0  0.00000000000E+00  0.00000000000E+00  0.99999998245E-14  0.12500000000E+03  0.12500000000E+03 0.  0.
        -11    1    3    3    0    0 -0.44367138392E+01  0.11500570127E+02  0.39940084553E+02  0.41799017899E+02  0.51100000000E-03 0. -1.
         23    2    1    0    0    0  0.25530905521E+02 -0.14487936273E+02  0.39119175962E+01  0.95385298694E+02  0.90671520742E+02 0.  0.
         11    1    3    3    0    0  0.29967619360E+02 -0.25988506399E+02 -0.36028166957E+02  0.53586280796E+02  0.51100000000E-03 0.  1.
         22    1    1    0    0    0 -0.25530905521E+02  0.14487936273E+02 -0.39119175962E+01  0.29614701306E+02  0.00000000000E+00 0.  1.
</event>
<event>
 5    1  0.8752570E-005  0.9118800E+02  0.7818608E-02  0.1130116E+00
         25   -1    0    0    0    0  0.00000000000E+00  0.00000000000E+00  0.99999998245E-14  0.12500000000E+03  0.12500000000E+03 0.  0.
        -11    1    3    3    0    0 -0.26349946877E+01  0.34633801128E+02  0.24433624440E+02  0.42466991666E+02  0.51100000000E-03 0.  1.
         23    2    1    0    0    0 -0.26426304530E+02  0.27721959474E+01 -0.11485908786E+02  0.96052448426E+02  0.91586637161E+02 0.  0.
         11    1    3    3    0    0 -0.23791309842E+02 -0.31861605181E+02 -0.35919533226E+02  0.53585456760E+02  0.51100000000E-03 0. -1.
         22    1    1    0    0    0  0.26426304530E+02 -0.27721959474E+01  0.11485908786E+02  0.28947551574E+02  0.00000000000E+00 0. -1.
</event>
<event>
 5    1  0.8752570E-005  0.9118800E+02  0.7818608E-02  0.1130116E+00
         25   -1    0    0    0    0  0.00000000000E+00  0.00000000000E+00  0.99999998245E-14  0.12500000000E+03  0.12500000000E+03 0.  0.
        -11    1    3    3    0    0  0.23240923261E+02 -0.22495198991E+02  0.14116325209E+02  0.35290864673E+02  0.51100000000E-03 0.  1.
         23    2    1    0    0    0 -0.80036099354E+01  0.11772523687E+02 -0.25179760404E+02  0.96074744254E+02  0.91617062076E+02 0.  0.
         11    1    3    3    0    0 -0.31244533197E+02  0.34267722678E+02 -0.39296085613E+02  0.60783879581E+02  0.51100000000E-03 0. -1.
         22    1    1    0    0    0  0.80036099354E+01 -0.11772523687E+02  0.25179760404E+02  0.28925255746E+02  0.00000000000E+00 0. -1.
</event>
<event>
 5    1  0.8752570E-005  0.9118800E+02  0.7818608E-02  0.1130116E+00
         25   -1    0    0    0    0  0.00000000000E+00  0.00000000000E+00  0.99999998245E-14  0.12500000000E+03  0.12500000000E+03 0.  0.
        -11    1    3    3    0    0  0.13405940013E+02  0.43343031162E+02 -0.15579862489E+02  0.47969466261E+02  0.51100000000E-03 0. -1.
         23    2    1    0    0    0 -0.15048022308E+02  0.72972522647E+01 -0.25070808750E+02  0.94863007493E+02  0.89948606844E+02 0.  0.
         11    1    3    3    0    0 -0.28453962321E+02 -0.36045778897E+02 -0.94909462611E+01  0.46893541232E+02  0.51100000000E-03 0.  1.
         22    1    1    0    0    0  0.15048022308E+02 -0.72972522647E+01  0.25070808750E+02  0.30136992507E+02  0.00000000000E+00 0. -1.
</event>
<event>
 5    1  0.8752570E-005  0.9118800E+02  0.7818608E-02  0.1130116E+00
         25   -1    0    0    0    0  0.00000000000E+00  0.00000000000E+00  0.99999998245E-14  0.12500000000E+03  0.12500000000E+03 0.  0.
        -11    1    3    3    0    0  0.15822340686E+02  0.49154012773E+02  0.18901515899E+02  0.54988460062E+02  0.51100000000E-03 0.  1.
         23    2    1    0    0    0 -0.14388173938E+02  0.21426278844E+02  0.11866537487E+02  0.96593668200E+02  0.92322354010E+02 0.  0.
         11    1    3    3    0    0 -0.30210514624E+02 -0.27727733929E+02 -0.70349784120E+01  0.41605208138E+02  0.51100000000E-03 0. -1.
         22    1    1    0    0    0  0.14388173938E+02 -0.21426278844E+02 -0.11866537487E+02  0.28406331800E+02  0.00000000000E+00 0.  1.
</event>
<event>
 5    1  0.8752570E-005  0.9118800E+02  0.7818608E-02  0.1130116E+00
         25   -1    0    0    0    0  0.00000000000E+00  0.00000000000E+00  0.99999998245E-14  0.12500000000E+03  0.12500000000E+03 0.  0.
        -11    1    3    3    0    0 -0.95774132051E+00 -0.25965531513E+02  0.20118016402E+02  0.32861233687E+02  0.51100000000E-03 0.  1.
         23    2    1    0    0    0 -0.16019017451E+02  0.10280105243E+02 -0.25588884780E+02  0.93108300324E+02  0.87476140068E+02 0.  0.
         11    1    3    3    0    0 -0.15061276131E+02  0.36245636757E+02 -0.45706901182E+02  0.60247066638E+02  0.51100000000E-03 0. -1.
         22    1    1    0    0    0  0.16019017451E+02 -0.10280105243E+02  0.25588884780E+02  0.31891699676E+02  0.00000000000E+00 0. -1.
</event>
<event>
 5    1  0.8752570E-005  0.9118800E+02  0.7818608E-02  0.1130116E+00
         25   -1    0    0    0    0  0.00000000000E+00  0.00000000000E+00  0.99999998245E-14  0.12500000000E+03  0.12500000000E+03 0.  0.
        -11    1    3    3    0    0 -0.26111242064E+02 -0.16396674752E+02 -0.44794596175E+02  0.54380177930E+02  0.51100000000E-03 0.  1.
         23    2    1    0    0    0  0.63368710687E+00 -0.25244764325E+02 -0.13960415804E+02  0.96145314166E+02  0.91713295337E+02 0.  0.
         11    1    3    3    0    0  0.26744929170E+02 -0.88480895726E+01  0.30834180370E+02  0.41765136236E+02  0.51100000000E-03 0. -1.
         22    1    1    0    0    0 -0.63368710687E+00  0.25244764325E+02  0.13960415804E+02  0.28854685834E+02  0.00000000000E+00 0.  1.
</event>
<event>
 5    1  0.8752570E-005  0.9118800E+02  0.7818608E-02  0.1130116E+00
         25   -1    0    0    0    0  0.00000000000E+00  0.00000000000E+00  0.99999998245E-14  0.12500000000E+03  0.12500000000E+03 0.  0.
        -11    1    3    3    0    0 -0.48614058717E+02 -0.29741397048E+02  0.20165869787E+02  0.60452789082E+02  0.51100000000E-03 0. -1.
         23    2    1    0    0    0 -0.26497666861E+02 -0.23168366426E+02  0.21824687199E+02  0.83584827378E+02  0.72603077377E+02 0.  0.
         11    1    3    3    0    0  0.22116391856E+02  0.65730306216E+01  0.16588174113E+01  0.23132038296E+02  0.51100000000E-03 0.  1.
         22    1    1    0    0    0  0.26497666861E+02  0.23168366426E+02 -0.21824687199E+02  0.41415172622E+02  0.00000000000E+00 0. -1.
</event>
<event>
 5    1  0.8752570E-005  0.9118800E+02  0.7818608E-02  0.1130116E+00
         25   -1    0    0    0    0  0.00000000000E+00  0.00000000000E+00  0.99999998245E-14  0.12500000000E+03  0.12500000000E+03 0.  0.
        -11    1    3    3    0    0  0.28176911932E+02 -0.50482092059E+02 -0.23712402751E+02  0.62487262935E+02  0.51100000000E-03 0. -1.
         23    2    1    0    0    0  0.14468013968E+02 -0.25197640914E+02 -0.12802264734E+02  0.93248739897E+02  0.87676593081E+02 0.  0.
         11    1    3    3    0    0 -0.13708897964E+02  0.25284451145E+02  0.10910138017E+02  0.30761476962E+02  0.51100000000E-03 0.  1.
         22    1    1    0    0    0 -0.14468013968E+02  0.25197640914E+02  0.12802264734E+02  0.31751260103E+02  0.00000000000E+00 0. -1.
</event>
<event>
 5    1  0.8752570E-005  0.9118800E+02  0.7818608E-02  0.1130116E+00
         25   -1    0    0    0    0  0.00000000000E+00  0.00000000000E+00  0.99999998245E-14  0.12500000000E+03  0.12500000000E+03 0.  0.
        -11    1    3    3    0    0  0.49129205275E+02  0.30372730025E+02 -0.10917101627E+02  0.58782349802E+02  0.51100000000E-03 0. -1.
         23    2    1    0    0    0  0.25027844263E+02  0.12199705706E+02  0.98998354330E+01  0.95449491555E+02  0.90759974046E+02 0.  0.
         11    1    3    3    0    0 -0.24101361012E+02 -0.18173024319E+02  0.20816937060E+02  0.36667141753E+02  0.51100000000E-03 0.  1.
         22    1    1    0    0    0 -0.25027844263E+02 -0.12199705706E+02 -0.98998354330E+01  0.29550508445E+02  0.00000000000E+00 0. -1.
</event>
<event>
 5    1  0.8752570E-005  0.9118800E+02  0.7818608E-02  0.1130116E+00
         25   -1    0    0    0    0  0.00000000000E+00  0.00000000000E+00  0.99999998245E-14  0.12500000000E+03  0.12500000000E+03 0.  0.
        -11    1    3    3    0    0 -0.27555784137E+02  0.25993511147E+02 -0.32533487162E+02  0.49934073020E+02  0.51100000000E-03 0.  1.
         23    2    1    0    0    0  0.85339469671E-01 -0.13506757886E+02  0.45389190436E+01  0.11075073414E+03  0.10983024873E+03 0.  0.
         11    1    3    3    0    0  0.27641123607E+02 -0.39500269033E+02  0.37072406205E+02  0.60816661122E+02  0.51100000000E-03 0. -1.
         22    1    1    0    0    0 -0.85339469671E-01  0.13506757886E+02 -0.45389190436E+01  0.14249265858E+02  0.00000000000E+00 0. -1.
</event>
<event>
 5    1  0.8752570E-005  0.9118800E+02  0.7818608E-02  0.1130116E+00
         25   -1    0    0    0    0  0.00000000000E+00  0.00000000000E+00  0.99999998245E-14  0.12500000000E+03  0.12500000000E+03 0.  0.
        -11    1    3    3    0    0 -0.36602614868E+02 -0.21218850692E+02 -0.44609419200E+02  0.61481634018E+02  0.51100000000E-03 0.  1.
         23    2    1    0    0    0 -0.22008908605E+02 -0.16292646778E+02 -0.17990453555E+02  0.92235708216E+02  0.86220224158E+02 0.  0.
         11    1    3    3    0    0  0.14593706263E+02  0.49262039133E+01  0.26618965645E+02  0.30754074198E+02  0.51100000000E-03 0. -1.
         22    1    1    0    0    0  0.22008908605E+02  0.16292646778E+02  0.17990453555E+02  0.32764291784E+02  0.00000000000E+00 0.  1.
</event>
<event>
 5    1  0.8752570E-005  0.9118800E+02  0.7818608E-02  0.1130116E+00
         25   -1    0    0    0    0  0.00000000000E+00  0.00000000000E+00  0.99999998245E-14  0.12500000000E+03  0.12500000000E+03 0.  0.
        -11    1    3    3    0    0  0.21460755838E+02  0.12228479506E+02  0.25902070872E+02  0.35791298214E+02  0.51100000000E-03 0. -1.
         23    2    1    0    0    0 -0.25573432919E+02 -0.89540103752E+01 -0.70502244282E+01  0.97002135125E+02  0.92873751843E+02 0.  0.
         11    1    3    3    0    0 -0.47034188756E+02 -0.21182489881E+02 -0.32952295300E+02  0.61210836911E+02  0.51100000000E-03 0.  1.
         22    1    1    0    0    0  0.25573432919E+02  0.89540103752E+01  0.70502244282E+01  0.27997864875E+02  0.00000000000E+00 0.  1.
</event>
<event>
 5    1  0.8752570E-005  0.9118800E+02  0.7818608E-02  0.1130116E+00
         25   -1    0    0    0    0  0.00000000000E+00  0.00000000000E+00  0.99999998245E-14  0.12500000000E+03  0.12500000000E+03 0.  0.
        -11    1    3    3    0    0  0.15225596999E+01  0.35336247514E+02 -0.10473445732E+01  0.35384537687E+02  0.51100000000E-03 0.  1.
         23    2    1    0    0    0 -0.13073393918E+02 -0.18083111643E+02  0.20396287602E+02  0.94768871950E+02  0.89817693065E+02 0.  0.
         11    1    3    3    0    0 -0.14595953618E+02 -0.53419359157E+02  0.21443632176E+02  0.59384334263E+02  0.51100000000E-03 0. -1.
         22    1    1    0    0    0  0.13073393918E+02  0.18083111643E+02 -0.20396287602E+02  0.30231128050E+02  0.00000000000E+00 0. -1.
</event>
<event>
 5    1  0.8752570E-005  0.9118800E+02  0.7818608E-02  0.1130116E+00
         25   -1    0    0    0    0  0.00000000000E+00  0.00000000000E+00  0.99999998245E-14  0.12500000000E+03  0.12500000000E+03 0.  0.
        -11    1    3    3    0    0  0.45901286423E+02 -0.14562452397E+02  0.97124574009E+01  0.49125603753E+02  0.51100000000E-03 0. -1.
         23    2    1    0    0    0  0.91755478131E+01  0.11808732871E+01  0.29763305187E+02  0.93832076184E+02  0.88504344786E+02 0.  0.
         11    1    3    3    0    0 -0.36725738610E+02  0.15743325684E+02  0.20050847786E+02  0.44706472431E+02  0.51100000000E-03 0.  1.
         22    1    1    0    0    0 -0.91755478131E+01 -0.11808732871E+01 -0.29763305187E+02  0.31167923816E+02  0.00000000000E+00 0.  1.
</event>
<event>
 5    1  0.8752570E-005  0.9118800E+02  0.7818608E-02  0.1130116E+00
         25   -1    0    0    0    0  0.00000000000E+00  0.00000000000E+00  0.99999998245E-14  0.12500000000E+03  0.12500000000E+03 0.  0.
        -11    1    3    3    0    0 -0.16012485343E+02  0.29264883203E+02 -0.18667891122E+02  0.38227257748E+02  0.51100000000E-03 0. -1.
         23    2    1    0    0    0 -0.11994964070E+02 -0.15520844710E+02  0.19598427895E+02  0.97271419807E+02  0.93235481185E+02 0.  0.
         11    1    3    3    0    0  0.40175212728E+01 -0.44785727913E+02  0.38266319017E+02  0.59044162059E+02  0.51100000000E-03 0.  1.
         22    1    1    0    0    0  0.11994964070E+02  0.15520844710E+02 -0.19598427895E+02  0.27728580193E+02  0.00000000000E+00 0.  1.
</event>
<event>
 5    1  0.8752570E-005  0.9118800E+02  0.7818608E-02  0.1130116E+00
         25   -1    0    0    0    0  0.00000000000E+00  0.00000000000E+00  0.99999998245E-14  0.12500000000E+03  0.12500000000E+03 0.  0.
        -11    1    3    3    0    0 -0.28808824231E+02  0.37608387627E+02 -0.37392521952E+02  0.60353457827E+02  0.51100000000E-03 0. -1.
         23    2    1    0    0    0 -0.39928793204E+01  0.16022922448E+02 -0.24004887913E+02  0.95863909446E+02  0.91328951387E+02 0.  0.
         11    1    3    3    0    0  0.24815944910E+02 -0.21585465178E+02  0.13387634039E+02  0.35510451619E+02  0.51100000000E-03 0.  1.
         22    1    1    0    0    0  0.39928793204E+01 -0.16022922448E+02  0.24004887913E+02  0.29136090554E+02  0.00000000000E+00 0. -1.
</event>
<event>
 5    1  0.8752570E-005  0.9118800E+02  0.7818608E-02  0.1130116E+00
         25   -1    0    0    0    0  0.00000000000E+00  0.00000000000E+00  0.99999998245E-14  0.12500000000E+03  0.12500000000E+03 0.  0.
        -11    1    3    3    0    0 -0.13339795015E+02  0.29569213614E+02 -0.17933082842E+02  0.37065941041E+02  0.51100000000E-03 0. -1.
         23    2    1    0    0    0 -0.15222597907E+02 -0.25434201341E+02  0.12042327728E+01  0.95333920693E+02  0.90600663205E+02 0.  0.
         11    1    3    3    0    0 -0.18828028915E+01 -0.55003414955E+02  0.19137315614E+02  0.58267979651E+02  0.51100000000E-03 0.  1.
         22    1    1    0    0    0  0.15222597907E+02  0.25434201341E+02 -0.12042327728E+01  0.29666079307E+02  0.00000000000E+00 0.  1.
</event>
<event>
 5    1  0.8752570E-005  0.9118800E+02  0.7818608E-02  0.1130116E+00
         25   -1    0    0    0    0  0.00000000000E+00  0.00000000000E+00  0.99999998245E-14  0.12500000000E+03  0.12500000000E+03 0.  0.
        -11    1    3    3    0    0 -0.59397344374E+02 -0.39092424598E+01  0.89666421804E+01  0.60197403329E+02  0.51100000000E-03 0. -1.
         23    2    1    0    0    0 -0.27378110445E+02  0.77492382564E+01 -0.31708623422E+01  0.96370190481E+02  0.92019278525E+02 0.  0.
         11    1    3    3    0    0  0.32019233929E+02  0.11658480716E+02 -0.12137504523E+02  0.36172787152E+02  0.51100000000E-03 0.  1.
         22    1    1    0    0    0  0.27378110445E+02 -0.77492382564E+01  0.31708623422E+01  0.28629809519E+02  0.00000000000E+00 0. -1.
</event>
<event>
 5    1  0.8752570E-005  0.9118800E+02  0.7818608E-02  0.1130116E+00
         25   -1    0    0    0    0  0.00000000000E+00  0.00000000000E+00  0.99999998245E-14  0.12500000000E+03  0.12500000000E+03 0.  0.
        -11    1    3    3    0    0 -0.25935993205E+02 -0.40657486993E+02  0.24985545238E+02  0.54313759428E+02  0.51100000000E-03 0. -1.
         23    2    1    0    0    0  0.55844600319E+01 -0.23648928795E+02  0.25008641103E+02  0.90130383472E+02  0.83111947806E+02 0.  0.
         11    1    3    3    0    0  0.31520453237E+02  0.17008558199E+02  0.23095864358E-01  0.35816624044E+02  0.51100000000E-03 0.  1.
         22    1    1    0    0    0 -0.55844600319E+01  0.23648928795E+02 -0.25008641103E+02  0.34869616528E+02  0.00000000000E+00 0. -1.
</event>
<event>
 5    1  0.8752570E-005  0.9118800E+02  0.7818608E-02  0.1130116E+00
         25   -1    0    0    0    0  0.00000000000E+00  0.00000000000E+00  0.99999998245E-14  0.12500000000E+03  0.12500000000E+03 0.  0.
        -11    1    3    3    0    0 -0.20871954955E+02  0.57476956595E+02  0.14698737520E+01  0.61166981062E+02  0.51100000000E-03 0.  1.
         23    2    1    0    0    0 -0.13162289230E+01  0.29772238100E+02  0.25004979719E+01  0.95093961978E+02  0.90268989662E+02 0.  0.
         11    1    3    3    0    0  0.19555726032E+02 -0.27704718496E+02  0.10306242200E+01  0.33926980917E+02  0.51100000000E-03 0. -1.
         22    1    1    0    0    0  0.13162289230E+01 -0.29772238100E+02 -0.25004979719E+01  0.29906038022E+02  0.00000000000E+00 0.  1.
</event>
<event>
 5    1  0.8752570E-005  0.9118800E+02  0.7818608E-02  0.1130116E+00
         25   -1    0    0    0    0  0.00000000000E+00  0.00000000000E+00  0.99999998245E-14  0.12500000000E+03  0.12500000000E+03 0.  0.
        -11    1    3    3    0    0 -0.30509500492E+02  0.11538975575E+02  0.16951277326E+02  0.36760350662E+02  0.51100000000E-03 0. -1.
         23    2    1    0    0    0  0.10610094911E+02  0.80912588838E+01 -0.25660854107E+02  0.96077309637E+02  0.91620562153E+02 0.  0.
         11    1    3    3    0    0  0.41119595403E+02 -0.34477166910E+01 -0.42612131433E+02  0.59316958975E+02  0.51100000000E-03 0.  1.
         22    1    1    0    0    0 -0.10610094911E+02 -0.80912588838E+01  0.25660854107E+02  0.28922690363E+02  0.00000000000E+00 0.  1.
</event>
<event>
 5    1  0.8752570E-005  0.9118800E+02  0.7818608E-02  0.1130116E+00
         25   -1    0    0    0    0  0.00000000000E+00  0.00000000000E+00  0.99999998245E-14  0.12500000000E+03  0.12500000000E+03 0.  0.
        -11    1    3    3    0    0  0.45275214293E+02 -0.29415931989E+00  0.10557118708E+02  0.46490690623E+02  0.51100000000E-03 0. -1.
         23    2    1    0    0    0  0.53527220211E+01  0.18837908540E+02  0.25168758125E+02  0.93109800616E+02  0.87478283899E+02 0.  0.
         11    1    3    3    0    0 -0.39922492272E+02  0.19132067860E+02  0.14611639418E+02  0.46619109993E+02  0.51100000000E-03 0.  1.
         22    1    1    0    0    0 -0.53527220211E+01 -0.18837908540E+02 -0.25168758125E+02  0.31890199384E+02  0.00000000000E+00 0.  1.
</event>
<event>
 5    1  0.8752570E-005  0.9118800E+02  0.7818608E-02  0.1130116E+00
         25   -1    0    0    0    0  0.00000000000E+00  0.00000000000E+00  0.99999998245E-14  0.12500000000E+03  0.12500000000E+03 0.  0.
        -11    1    3    3    0    0  0.31705132935E+02 -0.20089155363E+02 -0.85698286851E+01  0.38499760798E+02  0.51100000000E-03 0.  1.
         23    2    1    0    0    0  0.20406562172E+01  0.26764268159E+02 -0.14875324350E+02  0.94311800274E+02  0.89179314129E+02 0.  0.
         11    1    3    3    0    0 -0.29664476717E+02  0.46853423522E+02 -0.63054956651E+01  0.55812039476E+02  0.51100000000E-03 0. -1.
         22    1    1    0    0    0 -0.20406562172E+01 -0.26764268159E+02  0.14875324350E+02  0.30688199726E+02  0.00000000000E+00 0. -1.
</event>
<event>
 5    1  0.8752570E-005  0.9118800E+02  0.7818608E-02  0.1130116E+00
         25   -1    0    0    0    0  0.00000000000E+00  0.00000000000E+00  0.99999998245E-14  0.12500000000E+03  0.12500000000E+03 0.  0.
        -11    1    3    3    0    0 -0.68763213564E+01  0.95157575963E+01 -0.37581852795E+02  0.39372948807E+02  0.51100000000E-03 0.  1.
         23    2    1    0    0    0 -0.10187886475E+02  0.22831897529E+02  0.16418363705E+02  0.95089278806E+02  0.90262504405E+02 0.  0.
         11    1    3    3    0    0 -0.33115651186E+01  0.13316139933E+02  0.54000216500E+02  0.55716329999E+02  0.51100000000E-03 0. -1.
         22    1    1    0    0    0  0.10187886475E+02 -0.22831897529E+02 -0.16418363705E+02  0.29910721194E+02  0.00000000000E+00 0. -1.
</event>
<event>
 5    1  0.8752570E-005  0.9118800E+02  0.7818608E-02  0.1130116E+00
         25   -1    0    0    0    0  0.00000000000E+00  0.00000000000E+00  0.99999998245E-14  0.12500000000E+03  0.12500000000E+03 0.  0.
        -11    1    3    3    0    0 -0.40163642890E+02  0.40743961906E+02  0.88112700053E+01  0.57886329313E+02  0.51100000000E-03 0. -1.
         23    2    1    0    0    0 -0.12084915511E+02  0.29147345965E+02 -0.77811101037E+01  0.92501405659E+02  0.86604569249E+02 0.  0.
         11    1    3    3    0    0  0.28078727379E+02 -0.11596615941E+02 -0.16592380109E+02  0.34615076346E+02  0.51100000000E-03 0.  1.
         22    1    1    0    0    0  0.12084915511E+02 -0.29147345965E+02  0.77811101037E+01  0.32498594341E+02  0.00000000000E+00 0.  1.
</event>
<event>
 5    1  0.8752570E-005  0.9118800E+02  0.7818608E-02  0.1130116E+00
         25   -1    0    0    0    0  0.00000000000E+00  0.00000000000E+00  0.99999998245E-14  0.12500000000E+03  0.12500000000E+03 0.  0.
        -11    1    3    3    0    0 -0.33829093109E+02  0.44628929943E+01 -0.39956179998E+02  0.52543517914E+02  0.51100000000E-03 0. -1.
         23    2    1    0    0    0  0.52522878782E+01 -0.84318210015E+01 -0.27835491148E+02  0.95445022402E+02  0.90753818656E+02 0.  0.
         11    1    3    3    0    0  0.39081380988E+02 -0.12894713996E+02  0.12120688850E+02  0.42901504489E+02  0.51100000000E-03 0.  1.
         22    1    1    0    0    0 -0.52522878782E+01  0.84318210015E+01  0.27835491148E+02  0.29554977598E+02  0.00000000000E+00 0. -1.
</event>
<event>
 5    1  0.8752570E-005  0.9118800E+02  0.7818608E-02  0.1130116E+00
         25   -1    0    0    0    0  0.00000000000E+00  0.00000000000E+00  0.99999998245E-14  0.12500000000E+03  0.12500000000E+03 0.  0.
        -11    1    3    3    0    0  0.19614847303E+02 -0.29131443871E+02 -0.24010629687E+02  0.42542844227E+02  0.51100000000E-03 0.  1.
         23    2    1    0    0    0  0.53114562837E+01  0.22387951785E+02 -0.16833294185E+02  0.96490497267E+02  0.92182559721E+02 0.  0.
         11    1    3    3    0    0 -0.14303391020E+02  0.51519395655E+02  0.71773355020E+01  0.53947653040E+02  0.51100000000E-03 0. -1.
         22    1    1    0    0    0 -0.53114562837E+01 -0.22387951785E+02  0.16833294185E+02  0.28509502733E+02  0.00000000000E+00 0. -1.
</event>
<event>
 5    1  0.8752570E-005  0.9118800E+02  0.7818608E-02  0.1130116E+00
         25   -1    0    0    0    0  0.00000000000E+00  0.00000000000E+00  0.99999998245E-14  0.12500000000E+03  0.12500000000E+03 0.  0.
        -11    1    3    3    0    0  0.48632313877E+02  0.10081081861E+02 -0.21560095564E+01  0.49712961509E+02  0.51100000000E-03 0.  1.
         23    2    1    0    0    0  0.50905526156E+01  0.25250422357E+02 -0.11553118576E+02  0.96769305641E+02  0.92559853123E+02 0.  0.
         11    1    3    3    0    0 -0.43541761261E+02  0.15169340497E+02 -0.93971090201E+01  0.47056344132E+02  0.51100000000E-03 0. -1.
         22    1    1    0    0    0 -0.50905526156E+01 -0.25250422357E+02  0.11553118576E+02  0.28230694359E+02  0.00000000000E+00 0. -1.
</event>
<event>
 5    1  0.8752570E-005  0.9118800E+02  0.7818608E-02  0.1130116E+00
         25   -1    0    0    0    0  0.00000000000E+00  0.00000000000E+00  0.99999998245E-14  0.12500000000E+03  0.12500000000E+03 0.  0.
        -11    1    3    3    0    0 -0.90018654992E+01 -0.25832754156E+02 -0.47145335681E+02  0.54507315532E+02  0.51100000000E-03 0.  1.
         23    2    1    0    0    0  0.70242329354E+01  0.89994605545E+01 -0.21565870822E+02  0.10059883358E+03  0.97594612524E+02 0.  0.
         11    1    3    3    0    0  0.16026098435E+02  0.34832214711E+02  0.25579464860E+02  0.46091518043E+02  0.51100000000E-03 0. -1.
         22    1    1    0    0    0 -0.70242329354E+01 -0.89994605545E+01  0.21565870822E+02  0.24401166425E+02  0.00000000000E+00 0. -1.
</event>
<event>
 5    1  0.8752570E-005  0.9118800E+02  0.7818608E-02  0.1130116E+00
         25   -1    0    0    0    0  0.00000000000E+00  0.00000000000E+00  0.99999998245E-14  0.12500000000E+03  0.12500000000E+03 0.  0.
        -11    1    3    3    0    0 -0.29024312936E+02  0.41477547120E+02  0.12594884599E+02  0.52167315197E+02  0.51100000000E-03 0. -1.
         23    2    1    0    0    0 -0.49320909666E+01  0.59909068272E+01  0.26602501006E+02  0.97288819121E+02  0.93258805377E+02 0.  0.
         11    1    3    3    0    0  0.24092221970E+02 -0.35486640293E+02  0.14007616407E+02  0.45121503924E+02  0.51100000000E-03 0.  1.
         22    1    1    0    0    0  0.49320909666E+01 -0.59909068272E+01 -0.26602501006E+02  0.27711180879E+02  0.00000000000E+00 0. -1.
</event>
<event>
 5    1  0.8752570E-005  0.9118800E+02  0.7818608E-02  0.1130116E+00
         25   -1    0    0    0    0  0.00000000000E+00  0.00000000000E+00  0.99999998245E-14  0.12500000000E+03  0.12500000000E+03 0.  0.
        -11    1    3    3    0    0 -0.43634005578E+02  0.11799597906E+02 -0.14537886785E+02  0.47481650203E+02  0.51100000000E-03 0. -1.
         23    2    1    0    0    0  0.73927053331E+01  0.59734291879E+01 -0.23531632427E+02  0.99621432801E+02  0.96334615794E+02 0.  0.
         11    1    3    3    0    0  0.51026710912E+02 -0.58261687183E+01 -0.89937456423E+01  0.52139782598E+02  0.51100000000E-03 0.  1.
         22    1    1    0    0    0 -0.73927053331E+01 -0.59734291879E+01  0.23531632427E+02  0.25378567199E+02  0.00000000000E+00 0.  1.
</event>
<event>
 5    1  0.8752570E-005  0.9118800E+02  0.7818608E-02  0.1130116E+00
         25   -1    0    0    0    0  0.00000000000E+00  0.00000000000E+00  0.99999998245E-14  0.12500000000E+03  0.12500000000E+03 0.  0.
        -11    1    3    3    0    0  0.30232931822E+02 -0.22658911901E+02 -0.10302996720E+02  0.39161309948E+02  0.51100000000E-03 0. -1.
         23    2    1    0    0    0 -0.14189923176E+01  0.27351412596E+01  0.29108082086E+02  0.95729281191E+02  0.91144502290E+02 0.  0.
         11    1    3    3    0    0 -0.31651924140E+02  0.25394053161E+02  0.39411078805E+02  0.56567971243E+02  0.51100000000E-03 0.  1.
         22    1    1    0    0    0  0.14189923176E+01 -0.27351412596E+01 -0.29108082086E+02  0.29270718809E+02  0.00000000000E+00 0.  1.
</event>
<event>
 5    1  0.8752570E-005  0.9118800E+02  0.7818608E-02  0.1130116E+00
         25   -1    0    0    0    0  0.00000000000E+00  0.00000000000E+00  0.99999998245E-14  0.12500000000E+03  0.12500000000E+03 0.  0.
        -11    1    3    3    0    0  0.12501125957E+02 -0.85998670745E+01  0.27166620696E+02  0.31116894835E+02  0.51100000000E-03 0.  1.
         23    2    1    0    0    0 -0.11882036368E+02  0.24151932934E+01 -0.29129559939E+02  0.93447706753E+02  0.87959801547E+02 0.  0.
         11    1    3    3    0    0 -0.24383162325E+02  0.11015060368E+02 -0.56296180636E+02  0.62330811917E+02  0.51100000000E-03 0. -1.
         22    1    1    0    0    0  0.11882036368E+02 -0.24151932934E+01  0.29129559939E+02  0.31552293247E+02  0.00000000000E+00 0. -1.
</event>
<event>
 5    1  0.8752570E-005  0.9118800E+02  0.7818608E-02  0.1130116E+00
         25   -1    0    0    0    0  0.00000000000E+00  0.00000000000E+00  0.99999998245E-14  0.12500000000E+03  0.12500000000E+03 0.  0.
        -11    1    3    3    0    0 -0.13229939943E+02 -0.33693588122E+01 -0.53756400331E+02  0.55462910729E+02  0.51100000000E-03 0. -1.
         23    2    1    0    0    0  0.90752554761E+00 -0.20956509114E+02 -0.20361957290E+02  0.95766317688E+02  0.91195281796E+02 0.  0.
         11    1    3    3    0    0  0.14137465490E+02 -0.17587150302E+02  0.33394443041E+02  0.40303406959E+02  0.51100000000E-03 0.  1.
         22    1    1    0    0    0 -0.90752554761E+00  0.20956509114E+02  0.20361957290E+02  0.29233682312E+02  0.00000000000E+00 0. -1.
</event>
<event>
 5    1  0.8752570E-005  0.9118800E+02  0.7818608E-02  0.1130116E+00
         25   -1    0    0    0    0  0.00000000000E+00  0.00000000000E+00  0.99999998245E-14  0.12500000000E+03  0.12500000000E+03 0.  0.
        -11    1    3    3    0    0 -0.20205143751E+02  0.22568442179E+02 -0.16019801806E+02  0.34266842086E+02  0.51100000000E-03 0. -1.
         23    2    1    0    0    0 -0.13256959612E+02 -0.11663316109E+02  0.28877811457E+02  0.91151692577E+02  0.84634054283E+02 0.  0.
         11    1    3    3    0    0  0.69481841394E+01 -0.34231758289E+02  0.44897613263E+02  0.56884850491E+02  0.51100000000E-03 0.  1.
         22    1    1    0    0    0  0.13256959612E+02  0.11663316109E+02 -0.28877811457E+02  0.33848307423E+02  0.00000000000E+00 0.  1.
</event>
<event>
 5    1  0.8752570E-005  0.9118800E+02  0.7818608E-02  0.1130116E+00
         25   -1    0    0    0    0  0.00000000000E+00  0.00000000000E+00  0.99999998245E-14  0.12500000000E+03  0.12500000000E+03 0.  0.
        -11    1    3    3    0    0  0.32255185163E+00  0.10702965684E+02 -0.61493018907E+02  0.62418337760E+02  0.51100000000E-03 0. -1.
         23    2    1    0    0    0  0.31883251113E+00  0.73962306022E+01 -0.29360561160E+02  0.94720494837E+02  0.89750340998E+02 0.  0.
         11    1    3    3    0    0 -0.37193404960E-02 -0.33067350822E+01  0.32132457747E+02  0.32302157078E+02  0.51100000000E-03 0.  1.
         22    1    1    0    0    0 -0.31883251113E+00 -0.73962306022E+01  0.29360561160E+02  0.30279505163E+02  0.00000000000E+00 0. -1.
</event>
<event>
 5    1  0.8752570E-005  0.9118800E+02  0.7818608E-02  0.1130116E+00
         25   -1    0    0    0    0  0.00000000000E+00  0.00000000000E+00  0.99999998245E-14  0.12500000000E+03  0.12500000000E+03 0.  0.
        -11    1    3    3    0    0 -0.19527808546E+02  0.77991363854E+01  0.28212160006E+02  0.35186471938E+02  0.51100000000E-03 0. -1.
         23    2    1    0    0    0  0.11427659535E+02  0.22589432199E+01 -0.25239117182E+02  0.97202387457E+02  0.93142884132E+02 0.  0.
         11    1    3    3    0    0  0.30955468081E+02 -0.55401931655E+01 -0.53451277188E+02  0.62015915520E+02  0.51100000000E-03 0.  1.
         22    1    1    0    0    0 -0.11427659535E+02 -0.22589432199E+01  0.25239117182E+02  0.27797612543E+02  0.00000000000E+00 0.  1.
</event>
<event>
 5    1  0.8752570E-005  0.9118800E+02  0.7818608E-02  0.1130116E+00
         25   -1    0    0    0    0  0.00000000000E+00  0.00000000000E+00  0.99999998245E-14  0.12500000000E+03  0.12500000000E+03 0.  0.
        -11    1    3    3    0    0 -0.15099526406E+02 -0.41242329197E+02 -0.63796839180E+01  0.44380466226E+02  0.51100000000E-03 0.  1.
         23    2    1    0    0    0  0.24745662550E+02 -0.10020894882E+02  0.82224621794E+01  0.97064806541E+02  0.92958063853E+02 0.  0.
         11    1    3    3    0    0  0.39845188956E+02  0.31221434315E+02  0.14602146097E+02  0.52684340316E+02  0.51100000000E-03 0. -1.
         22    1    1    0    0    0 -0.24745662550E+02  0.10020894882E+02 -0.82224621794E+01  0.27935193459E+02  0.00000000000E+00 0. -1.
</event>
<event>
 5    1  0.8752570E-005  0.9118800E+02  0.7818608E-02  0.1130116E+00
         25   -1    0    0    0    0  0.00000000000E+00  0.00000000000E+00  0.99999998245E-14  0.12500000000E+03  0.12500000000E+03 0.  0.
        -11    1    3    3    0    0 -0.27665755169E+02 -0.13321399479E+02 -0.25868273351E+02  0.40149984552E+02  0.51100000000E-03 0. -1.
         23    2    1    0    0    0  0.17513932413E+02  0.16302250357E+02 -0.18665552789E+02  0.94653598958E+02  0.89657123195E+02 0.  0.
         11    1    3    3    0    0  0.45179687581E+02  0.29623649836E+02  0.72027205626E+01  0.54503614406E+02  0.51100000000E-03 0.  1.
         22    1    1    0    0    0 -0.17513932413E+02 -0.16302250357E+02  0.18665552789E+02  0.30346401042E+02  0.00000000000E+00 0.  1.
</event>
<event>
 5    1  0.8752570E-005  0.9118800E+02  0.7818608E-02  0.1130116E+00
         25   -1    0    0    0    0  0.00000000000E+00  0.00000000000E+00  0.99999998245E-14  0.12500000000E+03  0.12500000000E+03 0.  0.
        -11    1    3    3    0    0  0.15303964289E+02  0.85386762549E+01  0.38249570387E+02  0.42073149992E+02  0.51100000000E-03 0.  1.
         23    2    1    0    0    0  0.11519606671E+02 -0.26091977199E+02 -0.32923876110E+01  0.96288810052E+02  0.91908663972E+02 0.  0.
         11    1    3    3    0    0 -0.37843576186E+01 -0.34630653454E+02 -0.41541957998E+02  0.54215660061E+02  0.51100000000E-03 0. -1.
         22    1    1    0    0    0 -0.11519606671E+02  0.26091977199E+02  0.32923876110E+01  0.28711189948E+02  0.00000000000E+00 0. -1.
</event>
<event>
 5    1  0.8752570E-005  0.9118800E+02  0.7818608E-02  0.1130116E+00
         25   -1    0    0    0    0  0.00000000000E+00  0.00000000000E+00  0.99999998245E-14  0.12500000000E+03  0.12500000000E+03 0.  0.
        -11    1    3    3    0    0 -0.27731965647E+02  0.59371142058E+01  0.13780534800E+02  0.31531165271E+02  0.51100000000E-03 0.  1.
         23    2    1    0    0    0  0.23904794058E+02 -0.90627246226E+01 -0.17761112931E+02  0.93870764721E+02  0.88558970072E+02 0.  0.
         11    1    3    3    0    0  0.51636759705E+02 -0.14999838828E+02 -0.31541647731E+02  0.62339599449E+02  0.51100000000E-03 0. -1.
         22    1    1    0    0    0 -0.23904794058E+02  0.90627246226E+01  0.17761112931E+02  0.31129235279E+02  0.00000000000E+00 0. -1.
</event>
<event>
 5    1  0.8752570E-005  0.9118800E+02  0.7818608E-02  0.1130116E+00
         25   -1    0    0    0    0  0.00000000000E+00  0.00000000000E+00  0.99999998245E-14  0.12500000000E+03  0.12500000000E+03 0.  0.
        -11    1    3    3    0    0 -0.30104918351E+02 -0.34215656190E+02 -0.53593822874E+01  0.45888345102E+02  0.51100000000E-03 0.  1.
         23    2    1    0    0    0 -0.10610780821E+00 -0.11814630623E+02  0.27097837287E+02  0.95438377223E+02  0.90744665439E+02 0.  0.
         11    1    3    3    0    0  0.29998810543E+02  0.22401025567E+02  0.32457219574E+02  0.49550032121E+02  0.51100000000E-03 0. -1.
         22    1    1    0    0    0  0.10610780821E+00  0.11814630623E+02 -0.27097837287E+02  0.29561622777E+02  0.00000000000E+00 0. -1.
</event>
<event>
 5    1  0.8752570E-005  0.9118800E+02  0.7818608E-02  0.1130116E+00
         25   -1    0    0    0    0  0.00000000000E+00  0.00000000000E+00  0.99999998245E-14  0.12500000000E+03  0.12500000000E+03 0.  0.
        -11    1    3    3    0    0 -0.35888477898E+02 -0.46646181834E+02 -0.14961085644E+00  0.58854664295E+02  0.51100000000E-03 0.  1.
         23    2    1    0    0    0 -0.20898930585E+02 -0.21438616246E+02  0.14608862380E+02  0.91686362760E+02  0.85420083645E+02 0.  0.
         11    1    3    3    0    0  0.14989547314E+02  0.25207565589E+02  0.14758473237E+02  0.32831698465E+02  0.51100000000E-03 0. -1.
         22    1    1    0    0    0  0.20898930585E+02  0.21438616246E+02 -0.14608862380E+02  0.33313637240E+02  0.00000000000E+00 0.  1.
</event>
<event>
 5    1  0.8752570E-005  0.9118800E+02  0.7818608E-02  0.1130116E+00
         25   -1    0    0    0    0  0.00000000000E+00  0.00000000000E+00  0.99999998245E-14  0.12500000000E+03  0.12500000000E+03 0.  0.
        -11    1    3    3    0    0  0.67844216743E+01  0.69010800928E+01  0.52525381217E+02  0.53409446319E+02  0.51100000000E-03 0.  1.
         23    2    1    0    0    0 -0.10241353245E+02 -0.16671574815E+02  0.21249174222E+02  0.96114811266E+02  0.91671712194E+02 0.  0.
         11    1    3    3    0    0 -0.17025774919E+02 -0.23572654907E+02 -0.31276206995E+02  0.42705364947E+02  0.51100000000E-03 0. -1.
         22    1    1    0    0    0  0.10241353245E+02  0.16671574815E+02 -0.21249174222E+02  0.28885188734E+02  0.00000000000E+00 0.  1.
</event>
<event>
 5    1  0.8752570E-005  0.9118800E+02  0.7818608E-02  0.1130116E+00
         25   -1    0    0    0    0  0.00000000000E+00  0.00000000000E+00  0.99999998245E-14  0.12500000000E+03  0.12500000000E+03 0.  0.
        -11    1    3    3    0    0 -0.22832015166E+02  0.66315946802E+01 -0.33659912595E+02  0.41210055578E+02  0.51100000000E-03 0.  1.
         23    2    1    0    0    0  0.20671693609E+01 -0.29998933323E+02 -0.23959704024E+02  0.86551637140E+02  0.77542951227E+02 0.  0.
         11    1    3    3    0    0  0.24899184527E+02 -0.36630528004E+02  0.97002085712E+01  0.45341581562E+02  0.51100000000E-03 0. -1.
         22    1    1    0    0    0 -0.20671693609E+01  0.29998933323E+02  0.23959704024E+02  0.38448362860E+02  0.00000000000E+00 0.  1.
</event>
<event>
 5    1  0.8752570E-005  0.9118800E+02  0.7818608E-02  0.1130116E+00
         25   -1    0    0    0    0  0.00000000000E+00  0.00000000000E+00  0.99999998245E-14  0.12500000000E+03  0.12500000000E+03 0.  0.
        -11    1    3    3    0    0  0.10667614180E+02  0.37445815532E+02  0.19626191774E+02  0.43602459758E+02  0.51100000000E-03 0. -1.
         23    2    1    0    0    0 -0.64036144093E+01  0.11449551815E+02 -0.24277084596E+02  0.97405157171E+02  0.93414609633E+02 0.  0.
         11    1    3    3    0    0 -0.17071228589E+02 -0.25996263716E+02 -0.43903276369E+02  0.53802697414E+02  0.51100000000E-03 0.  1.
         22    1    1    0    0    0  0.64036144093E+01 -0.11449551815E+02  0.24277084596E+02  0.27594842829E+02  0.00000000000E+00 0.  1.
</event>
<event>
 5    1  0.8752570E-005  0.9118800E+02  0.7818608E-02  0.1130116E+00
         25   -1    0    0    0    0  0.00000000000E+00  0.00000000000E+00  0.99999998245E-14  0.12500000000E+03  0.12500000000E+03 0.  0.
        -11    1    3    3    0    0 -0.55135514835E+02 -0.30784407760E+01 -0.65182902997E+01  0.55604765106E+02  0.51100000000E-03 0. -1.
         23    2    1    0    0    0 -0.18175482552E+02 -0.20904060328E+02 -0.60737078071E+01  0.96641265354E+02  0.92386775777E+02 0.  0.
         11    1    3    3    0    0  0.36960032283E+02 -0.17825619552E+02  0.44458249252E+00  0.41036500248E+02  0.51100000000E-03 0.  1.
         22    1    1    0    0    0  0.18175482552E+02  0.20904060328E+02  0.60737078071E+01  0.28358734646E+02  0.00000000000E+00 0. -1.
</event>
<event>
 5    1  0.8752570E-005  0.9118800E+02  0.7818608E-02  0.1130116E+00
         25   -1    0    0    0    0  0.00000000000E+00  0.00000000000E+00  0.99999998245E-14  0.12500000000E+03  0.12500000000E+03 0.  0.
        -11    1    3    3    0    0  0.36377629503E+01 -0.34005758073E+02 -0.50479112005E+01  0.34570309648E+02  0.51100000000E-03 0.  1.
         23    2    1    0    0    0 -0.31447674373E+02  0.42648938469E+01  0.14579282365E+02  0.90075781794E+02  0.83029786514E+02 0.  0.
         11    1    3    3    0    0 -0.35085437324E+02  0.38270651920E+02  0.19627193565E+02  0.55505472146E+02  0.51100000000E-03 0. -1.
         22    1    1    0    0    0  0.31447674373E+02 -0.42648938469E+01 -0.14579282365E+02  0.34924218206E+02  0.00000000000E+00 0. -1.
</event>
<event>
 5    1  0.8752570E-005  0.9118800E+02  0.7818608E-02  0.1130116E+00
         25   -1    0    0    0    0  0.00000000000E+00  0.00000000000E+00  0.99999998245E-14  0.12500000000E+03  0.12500000000E+03 0.  0.
        -11    1    3    3    0    0 -0.26333506835E+02  0.40414569661E+02 -0.25576025421E+01  0.48304579018E+02  0.51100000000E-03 0.  1.
         23    2    1    0    0    0 -0.16844848196E+02  0.90947684213E+01 -0.28913486943E+02  0.90323589422E+02  0.83402022490E+02 0.  0.
         11    1    3    3    0    0  0.94886586389E+01 -0.31319801240E+02 -0.26355884401E+02  0.42019010403E+02  0.51100000000E-03 0. -1.
         22    1    1    0    0    0  0.16844848196E+02 -0.90947684213E+01  0.28913486943E+02  0.34676410578E+02  0.00000000000E+00 0.  1.
</event>
<event>
 5    1  0.8752570E-005  0.9118800E+02  0.7818608E-02  0.1130116E+00
         25   -1    0    0    0    0  0.00000000000E+00  0.00000000000E+00  0.99999998245E-14  0.12500000000E+03  0.12500000000E+03 0.  0.
        -11    1    3    3    0    0 -0.28567906515E+02  0.48125449008E+02  0.27488474634E+02  0.62352228211E+02  0.51100000000E-03 0.  1.
         23    2    1    0    0    0 -0.11500250642E+02  0.24282419043E+02  0.11238456326E+02  0.95876220369E+02  0.91345799533E+02 0.  0.
         11    1    3    3    0    0  0.17067655873E+02 -0.23843029966E+02 -0.16250018308E+02  0.33523992158E+02  0.51100000000E-03 0. -1.
         22    1    1    0    0    0  0.11500250642E+02 -0.24282419043E+02 -0.11238456326E+02  0.29123779631E+02  0.00000000000E+00 0.  1.
</event>
<event>
 5    1  0.8752570E-005  0.9118800E+02  0.7818608E-02  0.1130116E+00
         25   -1    0    0    0    0  0.00000000000E+00  0.00000000000E+00  0.99999998245E-14  0.12500000000E+03  0.12500000000E+03 0.  0.
        -11    1    3    3    0    0  0.15491584630E+02  0.27391975294E+02  0.46852098953E+02  0.56439602066E+02  0.51100000000E-03 0.  1.
         23    2    1    0    0    0 -0.77775711704E+00  0.24794281926E+02  0.75266301739E+01  0.99076815702E+02  0.95625330983E+02 0.  0.
         11    1    3    3    0    0 -0.16269341747E+02 -0.25976933674E+01 -0.39325468779E+02  0.42637213636E+02  0.51100000000E-03 0. -1.
         22    1    1    0    0    0  0.77775711704E+00 -0.24794281926E+02 -0.75266301739E+01  0.25923184298E+02  0.00000000000E+00 0.  1.
</event>
<event>
 5    1  0.8752570E-005  0.9118800E+02  0.7818608E-02  0.1130116E+00
         25   -1    0    0    0    0  0.00000000000E+00  0.00000000000E+00  0.99999998245E-14  0.12500000000E+03  0.12500000000E+03 0.  0.
        -11    1    3    3    0    0 -0.50781956791E+01 -0.28939109873E+02  0.35626743598E+02  0.46179270363E+02  0.51100000000E-03 0. -1.
         23    2    1    0    0    0 -0.24770272340E+02  0.95543271800E+01  0.18275663622E+02  0.92768781585E+02  0.86989628096E+02 0.  0.
         11    1    3    3    0    0 -0.19692076661E+02  0.38493437053E+02 -0.17351079976E+02  0.46589511223E+02  0.51100000000E-03 0.  1.
         22    1    1    0    0    0  0.24770272340E+02 -0.95543271800E+01 -0.18275663622E+02  0.32231218415E+02  0.00000000000E+00 0.  1.
</event>
<event>
 5    1  0.8752570E-005  0.9118800E+02  0.7818608E-02  0.1130116E+00
         25   -1    0    0    0    0  0.00000000000E+00  0.00000000000E+00  0.99999998245E-14  0.12500000000E+03  0.12500000000E+03 0.  0.
        -11    1    3    3    0    0 -0.29105868807E+02 -0.38707049048E+02  0.35521713374E+02  0.60059798254E+02  0.51100000000E-03 0.  1.
         23    2    1    0    0    0 -0.11136227222E+02 -0.11645212846E+02  0.26857208302E+02  0.93680099349E+02  0.88289437858E+02 0.  0.
         11    1    3    3    0    0  0.17969641585E+02  0.27061836202E+02 -0.86645050722E+01  0.33620301095E+02  0.51100000000E-03 0. -1.
         22    1    1    0    0    0  0.11136227222E+02  0.11645212846E+02 -0.26857208302E+02  0.31319900651E+02  0.00000000000E+00 0.  1.
</event>
<event>
 5    1  0.8752570E-005  0.9118800E+02  0.7818608E-02  0.1130116E+00
         25   -1    0    0    0    0  0.00000000000E+00  0.00000000000E+00  0.99999998245E-14  0.12500000000E+03  0.12500000000E+03 0.  0.
        -11    1    3    3    0    0  0.56037470888E+02  0.32047371714E+01 -0.26873618464E+02  0.62230698642E+02  0.51100000000E-03 0.  1.
         23    2    1    0    0    0  0.24581364300E+02  0.53995530303E+01 -0.12866666723E+02  0.96734300710E+02  0.92512567674E+02 0.  0.
         11    1    3    3    0    0 -0.31456106588E+02  0.21948158589E+01  0.14006951741E+02  0.34503602068E+02  0.51100000000E-03 0. -1.
         22    1    1    0    0    0 -0.24581364300E+02 -0.53995530303E+01  0.12866666723E+02  0.28265699290E+02  0.00000000000E+00 0.  1.
</event>
<event>
 5    1  0.8752570E-005  0.9118800E+02  0.7818608E-02  0.1130116E+00
         25   -1    0    0    0    0  0.00000000000E+00  0.00000000000E+00  0.99999998245E-14  0.12500000000E+03  0.12500000000E+03 0.  0.
        -11    1    3    3    0    0  0.68852134862E+01  0.42933153545E+02  0.38779639128E+02  0.58262528689E+02  0.51100000000E-03 0.  1.
         23    2    1    0    0    0  0.12297529228E+02  0.25622801010E+02  0.56631709144E+01  0.96020202528E+02  0.91542616480E+02 0.  0.
         11    1    3    3    0    0  0.54123157420E+01 -0.17310352535E+02 -0.33116468213E+02  0.37757673839E+02  0.51100000000E-03 0. -1.
         22    1    1    0    0    0 -0.12297529228E+02 -0.25622801010E+02 -0.56631709144E+01  0.28979797472E+02  0.00000000000E+00 0.  1.
</event>
<event>
 5    1  0.8752570E-005  0.9118800E+02  0.7818608E-02  0.1130116E+00
         25   -1    0    0    0    0  0.00000000000E+00  0.00000000000E+00  0.99999998245E-14  0.12500000000E+03  0.12500000000E+03 0.  0.
        -11    1    3    3    0    0 -0.56326169841E+01  0.85774457711E+01 -0.61099833484E+02  0.61955537299E+02  0.51100000000E-03 0.  1.
         23    2    1    0    0    0  0.27095691744E+01  0.63160490814E+01 -0.28722077447E+02  0.95467103529E+02  0.90784227056E+02 0.  0.
         11    1    3    3    0    0  0.83421861585E+01 -0.22613966897E+01  0.32377756037E+02  0.33511566229E+02  0.51100000000E-03 0. -1.
         22    1    1    0    0    0 -0.27095691744E+01 -0.63160490814E+01  0.28722077447E+02  0.29532896471E+02  0.00000000000E+00 0.  1.
</event>
<event>
 5    1  0.8752570E-005  0.9118800E+02  0.7818608E-02  0.1130116E+00
         25   -1    0    0    0    0  0.00000000000E+00  0.00000000000E+00  0.99999998245E-14  0.12500000000E+03  0.12500000000E+03 0.  0.
        -11    1    3    3    0    0  0.25739786653E+02 -0.29092636901E+02 -0.22792551901E+01  0.38911606794E+02  0.51100000000E-03 0. -1.
         23    2    1    0    0    0  0.88148589225E+01  0.24215743206E+02 -0.13425878677E+02  0.95942158113E+02  0.91435985959E+02 0.  0.
         11    1    3    3    0    0 -0.16924927730E+02  0.53308380108E+02 -0.11146623487E+02  0.57030551320E+02  0.51100000000E-03 0.  1.
         22    1    1    0    0    0 -0.88148589225E+01 -0.24215743206E+02  0.13425878677E+02  0.29057841887E+02  0.00000000000E+00 0.  1.
</event>
<event>
 5    1  0.8752570E-005  0.9118800E+02  0.7818608E-02  0.1130116E+00
         25   -1    0    0    0    0  0.00000000000E+00  0.00000000000E+00  0.99999998245E-14  0.12500000000E+03  0.12500000000E+03 0.  0.
        -11    1    3    3    0    0 -0.28399640643E+02 -0.20152975594E+02  0.23134487208E+02  0.41807732689E+02  0.51100000000E-03 0. -1.
         23    2    1    0    0    0  0.23751406276E+02 -0.93272269486E+01  0.14147209772E+02  0.95823468215E+02  0.91273583548E+02 0.  0.
         11    1    3    3    0    0  0.52151046919E+02  0.10825748645E+02 -0.89872774358E+01  0.54015735527E+02  0.51100000000E-03 0.  1.
         22    1    1    0    0    0 -0.23751406276E+02  0.93272269486E+01 -0.14147209772E+02  0.29176531785E+02  0.00000000000E+00 0.  1.
</event>
<event>
 5    1  0.8752570E-005  0.9118800E+02  0.7818608E-02  0.1130116E+00
         25   -1    0    0    0    0  0.00000000000E+00  0.00000000000E+00  0.99999998245E-14  0.12500000000E+03  0.12500000000E+03 0.  0.
        -11    1    3    3    0    0 -0.76206589310E+01  0.42106467636E+02  0.56027741613E+01  0.43155765986E+02  0.51100000000E-03 0.  1.
         23    2    1    0    0    0  0.79402025698E+00 -0.45066628358E+01  0.28758732306E+02  0.95879471812E+02  0.91350248785E+02 0.  0.
         11    1    3    3    0    0  0.84146791880E+01 -0.46613130471E+02  0.23155958145E+02  0.52723705826E+02  0.51100000000E-03 0. -1.
         22    1    1    0    0    0 -0.79402025698E+00  0.45066628358E+01 -0.28758732306E+02  0.29120528188E+02  0.00000000000E+00 0. -1.
</event>
<event>
 5    1  0.8752570E-005  0.9118800E+02  0.7818608E-02  0.1130116E+00
         25   -1    0    0    0    0  0.00000000000E+00  0.00000000000E+00  0.99999998245E-14  0.12500000000E+03  0.12500000000E+03 0.  0.
        -11    1    3    3    0    0  0.31067136706E+02  0.16288559357E+02  0.50642376729E+02  0.61604662730E+02  0.51100000000E-03 0.  1.
         23    2    1    0    0    0  0.86431019004E+01  0.56406817779E+01  0.27827757274E+02  0.95319963338E+02  0.90581404462E+02 0.  0.
         11    1    3    3    0    0 -0.22424034806E+02 -0.10647877579E+02 -0.22814619455E+02  0.33715300608E+02  0.51100000000E-03 0. -1.
         22    1    1    0    0    0 -0.86431019004E+01 -0.56406817779E+01 -0.27827757274E+02  0.29680036662E+02  0.00000000000E+00 0.  1.
</event>
<event>
 5    1  0.8752570E-005  0.9118800E+02  0.7818608E-02  0.1130116E+00
         25   -1    0    0    0    0  0.00000000000E+00  0.00000000000E+00  0.99999998245E-14  0.12500000000E+03  0.12500000000E+03 0.  0.
        -11    1    3    3    0    0 -0.24135617433E+02 -0.23438598684E+02 -0.20755962999E+02  0.39531075592E+02  0.51100000000E-03 0.  1.
         23    2    1    0    0    0 -0.17580760639E+02  0.20426819100E+02  0.12816495011E+02  0.95157067377E+02  0.90356332618E+02 0.  0.
         11    1    3    3    0    0  0.65548567947E+01  0.43865417785E+02  0.33572458009E+02  0.55625991785E+02  0.51100000000E-03 0. -1.
         22    1    1    0    0    0  0.17580760639E+02 -0.20426819100E+02 -0.12816495011E+02  0.29842932623E+02  0.00000000000E+00 0. -1.
</event>
<event>
 5    1  0.8752570E-005  0.9118800E+02  0.7818608E-02  0.1130116E+00
         25   -1    0    0    0    0  0.00000000000E+00  0.00000000000E+00  0.99999998245E-14  0.12500000000E+03  0.12500000000E+03 0.  0.
        -11    1    3    3    0    0  0.99569122283E+01  0.45869201559E+02  0.77479386677E+01  0.47572621398E+02  0.51100000000E-03 0.  1.
         23    2    1    0    0    0  0.29105569642E+02  0.21155141721E+01  0.10659454659E+01  0.95798187999E+02  0.91238955495E+02 0.  0.
         11    1    3    3    0    0  0.19148657413E+02 -0.43753687387E+02 -0.66819932018E+01  0.48225566602E+02  0.51100000000E-03 0. -1.
         22    1    1    0    0    0 -0.29105569642E+02 -0.21155141721E+01 -0.10659454659E+01  0.29201812001E+02  0.00000000000E+00 0.  1.
</event>
<event>
 5    1  0.8752570E-005  0.9118800E+02  0.7818608E-02  0.1130116E+00
         25   -1    0    0    0    0  0.00000000000E+00  0.00000000000E+00  0.99999998245E-14  0.12500000000E+03  0.12500000000E+03 0.  0.
        -11    1    3    3    0    0 -0.19374770152E+02 -0.16874513813E+02 -0.23678617968E+02  0.34940061305E+02  0.51100000000E-03 0.  1.
         23    2    1    0    0    0 -0.30561145545E+01  0.17984041555E+02  0.23130816023E+02  0.95541550673E+02  0.90886674867E+02 0.  0.
         11    1    3    3    0    0  0.16318655597E+02  0.34858555368E+02  0.46809433991E+02  0.60601489369E+02  0.51100000000E-03 0. -1.
         22    1    1    0    0    0  0.30561145545E+01 -0.17984041555E+02 -0.23130816023E+02  0.29458449327E+02  0.00000000000E+00 0. -1.
</event>
<event>
 5    1  0.8752570E-005  0.9118800E+02  0.7818608E-02  0.1130116E+00
         25   -1    0    0    0    0  0.00000000000E+00  0.00000000000E+00  0.99999998245E-14  0.12500000000E+03  0.12500000000E+03 0.  0.
        -11    1    3    3    0    0  0.61888535058E-01  0.32300224034E+02 -0.44874249098E+02  0.55290202886E+02  0.51100000000E-03 0.  1.
         23    2    1    0    0    0  0.20452302874E+02  0.89033696983E+01 -0.18330995193E+02  0.96128005445E+02  0.91689701500E+02 0.  0.
         11    1    3    3    0    0  0.20390414339E+02 -0.23396854336E+02  0.26543253904E+02  0.40837802559E+02  0.51100000000E-03 0. -1.
         22    1    1    0    0    0 -0.20452302874E+02 -0.89033696983E+01  0.18330995193E+02  0.28871994555E+02  0.00000000000E+00 0.  1.
</event>
<event>
 5    1  0.8752570E-005  0.9118800E+02  0.7818608E-02  0.1130116E+00
         25   -1    0    0    0    0  0.00000000000E+00  0.00000000000E+00  0.99999998245E-14  0.12500000000E+03  0.12500000000E+03 0.  0.
        -11    1    3    3    0    0 -0.19342611650E+02 -0.51665270125E+02  0.15556536349E+02  0.57318780395E+02  0.51100000000E-03 0.  1.
         23    2    1    0    0    0 -0.28310022260E+02 -0.25262528471E+02  0.77664038527E+01  0.86270557274E+02  0.77088516126E+02 0.  0.
         11    1    3    3    0    0 -0.89674106092E+01  0.26402741654E+02 -0.77901324963E+01  0.28951776879E+02  0.51100000000E-03 0. -1.
         22    1    1    0    0    0  0.28310022260E+02  0.25262528471E+02 -0.77664038527E+01  0.38729442726E+02  0.00000000000E+00 0.  1.
</event>
<event>
 5    1  0.8752570E-005  0.9118800E+02  0.7818608E-02  0.1130116E+00
         25   -1    0    0    0    0  0.00000000000E+00  0.00000000000E+00  0.99999998245E-14  0.12500000000E+03  0.12500000000E+03 0.  0.
        -11    1    3    3    0    0  0.23925039766E+02 -0.10701318361E+02 -0.27879250025E+02  0.38264583164E+02  0.51100000000E-03 0. -1.
         23    2    1    0    0    0 -0.11748670426E+02  0.25630073520E+02  0.97354712999E+00  0.96788659737E+02  0.92585986706E+02 0.  0.
         11    1    3    3    0    0 -0.35673710192E+02  0.36331391881E+02  0.28852797155E+02  0.58524076574E+02  0.51100000000E-03 0.  1.
         22    1    1    0    0    0  0.11748670426E+02 -0.25630073520E+02 -0.97354712999E+00  0.28211340263E+02  0.00000000000E+00 0.  1.
</event>
<event>
 5    1  0.8752570E-005  0.9118800E+02  0.7818608E-02  0.1130116E+00
         25   -1    0    0    0    0  0.00000000000E+00  0.00000000000E+00  0.99999998245E-14  0.12500000000E+03  0.12500000000E+03 0.  0.
        -11    1    3    3    0    0  0.96371904006E+01 -0.47161487569E+01  0.26740148662E+02  0.28812376658E+02  0.51100000000E-03 0.  1.
         23    2    1    0    0    0 -0.34942980404E+01  0.20798216780E+02 -0.27600613160E+02  0.90264286580E+02  0.83313094079E+02 0.  0.
         11    1    3    3    0    0 -0.13131488441E+02  0.25514365537E+02 -0.54340761822E+02  0.61451909922E+02  0.51100000000E-03 0. -1.
         22    1    1    0    0    0  0.34942980404E+01 -0.20798216780E+02  0.27600613160E+02  0.34735713420E+02  0.00000000000E+00 0. -1.
</event>
<event>
 5    1  0.8752570E-005  0.9118800E+02  0.7818608E-02  0.1130116E+00
         25   -1    0    0    0    0  0.00000000000E+00  0.00000000000E+00  0.99999998245E-14  0.12500000000E+03  0.12500000000E+03 0.  0.
        -11    1    3    3    0    0  0.38581763995E+02  0.96173176988E+01  0.46245002221E+02  0.60988896886E+02  0.51100000000E-03 0.  1.
         23    2    1    0    0    0  0.19100336923E+02  0.84208144907E+01  0.10692844114E+02  0.10154643092E+03  0.98800848835E+02 0.  0.
         11    1    3    3    0    0 -0.19481427073E+02 -0.11965032081E+01 -0.35552158107E+02  0.40557534036E+02  0.51100000000E-03 0. -1.
         22    1    1    0    0    0 -0.19100336923E+02 -0.84208144907E+01 -0.10692844114E+02  0.23453569078E+02  0.00000000000E+00 0.  1.
</event>
<event>
 5    1  0.8752570E-005  0.9118800E+02  0.7818608E-02  0.1130116E+00
         25   -1    0    0    0    0  0.00000000000E+00  0.00000000000E+00  0.99999998245E-14  0.12500000000E+03  0.12500000000E+03 0.  0.
        -11    1    3    3    0    0 -0.22390721883E+02 -0.10445353981E+02  0.45428393111E+02  0.51712558892E+02  0.51100000000E-03 0.  1.
         23    2    1    0    0    0 -0.20390139362E+02  0.17095634638E+02  0.10130792645E+02  0.96528058259E+02  0.92233478546E+02 0.  0.
         11    1    3    3    0    0  0.20005825216E+01  0.27540988620E+02 -0.35297600466E+02  0.44815499367E+02  0.51100000000E-03 0. -1.
         22    1    1    0    0    0  0.20390139362E+02 -0.17095634638E+02 -0.10130792645E+02  0.28471941741E+02  0.00000000000E+00 0. -1.
</event>
<event>
 5    1  0.8752570E-005  0.9118800E+02  0.7818608E-02  0.1130116E+00
         25   -1    0    0    0    0  0.00000000000E+00  0.00000000000E+00  0.99999998245E-14  0.12500000000E+03  0.12500000000E+03 0.  0.
        -11    1    3    3    0    0  0.52244882416E+01 -0.10597798147E+02 -0.37883452190E+02  0.39683303203E+02  0.51100000000E-03 0.  1.
         23    2    1    0    0    0  0.27511630435E+02 -0.44454167973E+01  0.11994858727E+02  0.94659792756E+02  0.89665758175E+02 0.  0.
         11    1    3    3    0    0  0.22287142194E+02  0.61523813492E+01  0.49878310917E+02  0.54976489554E+02  0.51100000000E-03 0. -1.
         22    1    1    0    0    0 -0.27511630435E+02  0.44454167973E+01 -0.11994858727E+02  0.30340207244E+02  0.00000000000E+00 0. -1.
</event>
<event>
 5    1  0.8752570E-005  0.9118800E+02  0.7818608E-02  0.1130116E+00
         25   -1    0    0    0    0  0.00000000000E+00  0.00000000000E+00  0.99999998245E-14  0.12500000000E+03  0.12500000000E+03 0.  0.
        -11    1    3    3    0    0  0.29399970988E+02 -0.48948429100E+02 -0.56249177666E+01  0.57375488718E+02  0.51100000000E-03 0.  1.
         23    2    1    0    0    0 -0.31566238547E+01 -0.28786801341E+02 -0.29023971213E+00  0.96039191228E+02  0.91568541580E+02 0.  0.
         11    1    3    3    0    0 -0.32556594843E+02  0.20161627759E+02  0.53346780545E+01  0.38663702511E+02  0.51100000000E-03 0. -1.
         22    1    1    0    0    0  0.31566238547E+01  0.28786801341E+02  0.29023971213E+00  0.28960808772E+02  0.00000000000E+00 0.  1.
</event>
<event>
 5    1  0.8752570E-005  0.9118800E+02  0.7818608E-02  0.1130116E+00
         25   -1    0    0    0    0  0.00000000000E+00  0.00000000000E+00  0.99999998245E-14  0.12500000000E+03  0.12500000000E+03 0.  0.
        -11    1    3    3    0    0  0.46347559562E+02 -0.40272344473E+01 -0.17779376719E+02  0.49803826474E+02  0.51100000000E-03 0.  1.
         23    2    1    0    0    0  0.70502712307E+01 -0.26165781102E+02 -0.12301890406E+02  0.95239439981E+02  0.90470216067E+02 0.  0.
         11    1    3    3    0    0 -0.39297288331E+02 -0.22138546655E+02  0.54774863132E+01  0.45435613507E+02  0.51100000000E-03 0. -1.
         22    1    1    0    0    0 -0.70502712307E+01  0.26165781102E+02  0.12301890406E+02  0.29760560019E+02  0.00000000000E+00 0. -1.
</event>
<event>
 5    1  0.8752570E-005  0.9118800E+02  0.7818608E-02  0.1130116E+00
         25   -1    0    0    0    0  0.00000000000E+00  0.00000000000E+00  0.99999998245E-14  0.12500000000E+03  0.12500000000E+03 0.  0.
        -11    1    3    3    0    0 -0.30922902191E+02  0.50715482503E+02 -0.24123545525E+01  0.59448343124E+02  0.51100000000E-03 0. -1.
         23    2    1    0    0    0 -0.25230839664E+02  0.16306849158E+02 -0.54921215089E+01  0.94460320920E+02  0.89387248699E+02 0.  0.
         11    1    3    3    0    0  0.56920625265E+01 -0.34408633344E+02 -0.30797669564E+01  0.35011977796E+02  0.51100000000E-03 0.  1.
         22    1    1    0    0    0  0.25230839664E+02 -0.16306849158E+02  0.54921215089E+01  0.30539679080E+02  0.00000000000E+00 0. -1.
</event>
<event>
 5    1  0.8752570E-005  0.9118800E+02  0.7818608E-02  0.1130116E+00
         25   -1    0    0    0    0  0.00000000000E+00  0.00000000000E+00  0.99999998245E-14  0.12500000000E+03  0.12500000000E+03 0.  0.
        -11    1    3    3    0    0  0.18989127219E+02 -0.58316060193E+02 -0.59139673320E+01  0.61614323325E+02  0.51100000000E-03 0.  1.
         23    2    1    0    0    0  0.13032015980E+02 -0.38738051831E+02  0.31735656133E+01  0.84005590395E+02  0.73323922418E+02 0.  0.
         11    1    3    3    0    0 -0.59571112390E+01  0.19578008362E+02  0.90875329453E+01  0.22391267070E+02  0.51100000000E-03 0. -1.
         22    1    1    0    0    0 -0.13032015980E+02  0.38738051831E+02 -0.31735656133E+01  0.40994409605E+02  0.00000000000E+00 0.  1.
</event>
<event>
 5    1  0.8752570E-005  0.9118800E+02  0.7818608E-02  0.1130116E+00
         25   -1    0    0    0    0  0.00000000000E+00  0.00000000000E+00  0.99999998245E-14  0.12500000000E+03  0.12500000000E+03 0.  0.
        -11    1    3    3    0    0  0.46678040806E+01 -0.29340884703E+02  0.36191233063E+01  0.29929483187E+02  0.51100000000E-03 0.  1.
         23    2    1    0    0    0  0.36221978634E+02  0.75276524640E+01  0.22155809644E+02  0.81877184823E+02  0.69600978483E+02 0.  0.
         11    1    3    3    0    0  0.31554174553E+02  0.36868537167E+02  0.18536686338E+02  0.51947701636E+02  0.51100000000E-03 0. -1.
         22    1    1    0    0    0 -0.36221978634E+02 -0.75276524640E+01 -0.22155809644E+02  0.43122815177E+02  0.00000000000E+00 0. -1.
</event>
<event>
 5    1  0.8752570E-005  0.9118800E+02  0.7818608E-02  0.1130116E+00
         25   -1    0    0    0    0  0.00000000000E+00  0.00000000000E+00  0.99999998245E-14  0.12500000000E+03  0.12500000000E+03 0.  0.
        -11    1    3    3    0    0 -0.38237365276E+02 -0.18399540698E+02 -0.44359401561E+02  0.61387260147E+02  0.51100000000E-03 0. -1.
         23    2    1    0    0    0 -0.23206904955E+02 -0.10743006725E+02 -0.14712716023E+02  0.95496836714E+02  0.90825157190E+02 0.  0.
         11    1    3    3    0    0  0.15030460322E+02  0.76565339728E+01  0.29646685538E+02  0.34109576567E+02  0.51100000000E-03 0.  1.
         22    1    1    0    0    0  0.23206904955E+02  0.10743006725E+02  0.14712716023E+02  0.29503163286E+02  0.00000000000E+00 0. -1.
</event>
<event>
 5    1  0.8752570E-005  0.9118800E+02  0.7818608E-02  0.1130116E+00
         25   -1    0    0    0    0  0.00000000000E+00  0.00000000000E+00  0.99999998245E-14  0.12500000000E+03  0.12500000000E+03 0.  0.
        -11    1    3    3    0    0 -0.16393716390E+01  0.85791680909E+01  0.32815749058E+02  0.33958254534E+02  0.51100000000E-03 0. -1.
         23    2    1    0    0    0  0.13255627238E+02 -0.21611410516E+02 -0.17282533273E+02  0.94316931797E+02  0.89186506543E+02 0.  0.
         11    1    3    3    0    0  0.14894998877E+02 -0.30190578607E+02 -0.50098282331E+02  0.60358677263E+02  0.51100000000E-03 0.  1.
         22    1    1    0    0    0 -0.13255627238E+02  0.21611410516E+02  0.17282533273E+02  0.30683068203E+02  0.00000000000E+00 0.  1.
</event>
<event>
 5    1  0.8752570E-005  0.9118800E+02  0.7818608E-02  0.1130116E+00
         25   -1    0    0    0    0  0.00000000000E+00  0.00000000000E+00  0.99999998245E-14  0.12500000000E+03  0.12500000000E+03 0.  0.
        -11    1    3    3    0    0 -0.42882317953E+02 -0.25392627874E+02 -0.11985429277E+02  0.51257480026E+02  0.51100000000E-03 0. -1.
         23    2    1    0    0    0  0.11126261327E+01 -0.28150069428E+02 -0.89385102785E+01  0.95443929360E+02  0.90752313138E+02 0.  0.
         11    1    3    3    0    0  0.43994944086E+02 -0.27574415536E+01  0.30469189985E+01  0.44186449334E+02  0.51100000000E-03 0.  1.
         22    1    1    0    0    0 -0.11126261327E+01  0.28150069428E+02  0.89385102785E+01  0.29556070640E+02  0.00000000000E+00 0. -1.
</event>
<event>
 5    1  0.8752570E-005  0.9118800E+02  0.7818608E-02  0.1130116E+00
         25   -1    0    0    0    0  0.00000000000E+00  0.00000000000E+00  0.99999998245E-14  0.12500000000E+03  0.12500000000E+03 0.  0.
        -11    1    3    3    0    0  0.84592358783E+01 -0.37117856445E+01 -0.39770016205E+02  0.40828791477E+02  0.51100000000E-03 0.  1.
         23    2    1    0    0    0 -0.47734106789E+01  0.28533567176E+02  0.28998763203E+01  0.95924938728E+02  0.91412442708E+02 0.  0.
         11    1    3    3    0    0 -0.13232646557E+02  0.32245352821E+02  0.42669892525E+02  0.55096147250E+02  0.51100000000E-03 0. -1.
         22    1    1    0    0    0  0.47734106789E+01 -0.28533567176E+02 -0.28998763203E+01  0.29075061272E+02  0.00000000000E+00 0. -1.
</event>
<event>
 5    1  0.8752570E-005  0.9118800E+02  0.7818608E-02  0.1130116E+00
         25   -1    0    0    0    0  0.00000000000E+00  0.00000000000E+00  0.99999998245E-14  0.12500000000E+03  0.12500000000E+03 0.  0.
        -11    1    3    3    0    0 -0.36412817323E+02 -0.11261435904E+02 -0.21271132810E+02  0.43648302319E+02  0.51100000000E-03 0.  1.
         23    2    1    0    0    0  0.86842247455E+01  0.15397961687E+02 -0.22911061823E+02  0.96061621721E+02  0.91599156275E+02 0.  0.
         11    1    3    3    0    0  0.45097042069E+02  0.26659397591E+02 -0.16399290132E+01  0.52413319402E+02  0.51100000000E-03 0. -1.
         22    1    1    0    0    0 -0.86842247455E+01 -0.15397961687E+02  0.22911061823E+02  0.28938378279E+02  0.00000000000E+00 0. -1.
</event>
<event>
 5    1  0.8752570E-005  0.9118800E+02  0.7818608E-02  0.1130116E+00
         25   -1    0    0    0    0  0.00000000000E+00  0.00000000000E+00  0.99999998245E-14  0.12500000000E+03  0.12500000000E+03 0.  0.
        -11    1    3    3    0    0  0.19127000748E+02  0.10033121774E+02 -0.55995597088E+02  0.60016769188E+02  0.51100000000E-03 0.  1.
         23    2    1    0    0    0  0.67720627485E+01  0.16066961982E+02 -0.20467278936E+02  0.98112872815E+02  0.94356866225E+02 0.  0.
         11    1    3    3    0    0 -0.12354938000E+02  0.60338402079E+01  0.35528318152E+02  0.38096103628E+02  0.51100000000E-03 0. -1.
         22    1    1    0    0    0 -0.67720627485E+01 -0.16066961982E+02  0.20467278936E+02  0.26887127185E+02  0.00000000000E+00 0.  1.
</event>
<event>
 5    1  0.8752570E-005  0.9118800E+02  0.7818608E-02  0.1130116E+00
         25   -1    0    0    0    0  0.00000000000E+00  0.00000000000E+00  0.99999998245E-14  0.12500000000E+03  0.12500000000E+03 0.  0.
        -11    1    3    3    0    0 -0.28642781438E+02 -0.44417178159E+02  0.29061857894E+02  0.60314892263E+02  0.51100000000E-03 0.  1.
         23    2    1    0    0    0 -0.22819183596E+02 -0.16137574099E+02  0.84106665921E+01  0.95813089401E+02  0.91259368562E+02 0.  0.
         11    1    3    3    0    0  0.58235978421E+01  0.28279604060E+02 -0.20651191302E+02  0.35498197138E+02  0.51100000000E-03 0. -1.
         22    1    1    0    0    0  0.22819183596E+02  0.16137574099E+02 -0.84106665921E+01  0.29186910599E+02  0.00000000000E+00 0.  1.
</event>
<event>
 5    1  0.8752570E-005  0.9118800E+02  0.7818608E-02  0.1130116E+00
         25   -1    0    0    0    0  0.00000000000E+00  0.00000000000E+00  0.99999998245E-14  0.12500000000E+03  0.12500000000E+03 0.  0.
        -11    1    3    3    0    0 -0.45196014518E+02 -0.67766167665E+01  0.23416517010E+01  0.45761180011E+02  0.51100000000E-03 0. -1.
         23    2    1    0    0    0 -0.74981836702E+01 -0.31502807224E+01  0.30806756403E+02  0.93137745418E+02  0.87518205845E+02 0.  0.
         11    1    3    3    0    0  0.37697830847E+02  0.36263360442E+01  0.28465104702E+02  0.47376565406E+02  0.51100000000E-03 0.  1.
         22    1    1    0    0    0  0.74981836702E+01  0.31502807224E+01 -0.30806756403E+02  0.31862254582E+02  0.00000000000E+00 0.  1.
</event>
<event>
 5    1  0.8752570E-005  0.9118800E+02  0.7818608E-02  0.1130116E+00
         25   -1    0    0    0    0  0.00000000000E+00  0.00000000000E+00  0.99999998245E-14  0.12500000000E+03  0.12500000000E+03 0.  0.
        -11    1    3    3    0    0 -0.16270817550E+01 -0.30791802279E+02 -0.15679692335E+02  0.34592415854E+02  0.51100000000E-03 0. -1.
         23    2    1    0    0    0  0.12655839879E+02  0.16148646487E+02  0.20838741078E+02  0.95756159689E+02  0.91181357318E+02 0.  0.
         11    1    3    3    0    0  0.14282921634E+02  0.46940448766E+02  0.36518433413E+02  0.61163743835E+02  0.51100000000E-03 0.  1.
         22    1    1    0    0    0 -0.12655839879E+02 -0.16148646487E+02 -0.20838741078E+02  0.29243840311E+02  0.00000000000E+00 0.  1.
</event>
<event>
 5    1  0.8752570E-005  0.9118800E+02  0.7818608E-02  0.1130116E+00
         25   -1    0    0    0    0  0.00000000000E+00  0.00000000000E+00  0.99999998245E-14  0.12500000000E+03  0.12500000000E+03 0.  0.
        -11    1    3    3    0    0 -0.11722365691E+02 -0.19643056682E+02  0.24281194167E+02  0.33359255442E+02  0.51100000000E-03 0.  1.
         23    2    1    0    0    0  0.36300387208E+01  0.31240680014E+02 -0.35412068581E+01  0.93350396292E+02  0.87821404413E+02 0.  0.
         11    1    3    3    0    0  0.15352404412E+02  0.50883736696E+02 -0.27822401025E+02  0.59991140850E+02  0.51100000000E-03 0. -1.
         22    1    1    0    0    0 -0.36300387208E+01 -0.31240680014E+02  0.35412068581E+01  0.31649603708E+02  0.00000000000E+00 0. -1.
</event>
<event>
 5    1  0.8752570E-005  0.9118800E+02  0.7818608E-02  0.1130116E+00
         25   -1    0    0    0    0  0.00000000000E+00  0.00000000000E+00  0.99999998245E-14  0.12500000000E+03  0.12500000000E+03 0.  0.
        -11    1    3    3    0    0 -0.20701527577E+02  0.45173419476E+02 -0.98177835987E+01  0.50651554233E+02  0.51100000000E-03 0.  1.
         23    2    1    0    0    0  0.16826687760E+02  0.23556975720E+02  0.31998097796E+01  0.95874284409E+02  0.91343150276E+02 0.  0.
         11    1    3    3    0    0  0.37528215337E+02 -0.21616443756E+02  0.13017593378E+02  0.45222730177E+02  0.51100000000E-03 0. -1.
         22    1    1    0    0    0 -0.16826687760E+02 -0.23556975720E+02 -0.31998097796E+01  0.29125715591E+02  0.00000000000E+00 0.  1.
</event>
<event>
 5    1  0.8752570E-005  0.9118800E+02  0.7818608E-02  0.1130116E+00
         25   -1    0    0    0    0  0.00000000000E+00  0.00000000000E+00  0.99999998245E-14  0.12500000000E+03  0.12500000000E+03 0.  0.
        -11    1    3    3    0    0  0.22942294059E+02 -0.11708825223E+02 -0.18451986488E+02  0.31684716353E+02  0.51100000000E-03 0.  1.
         23    2    1    0    0    0 -0.22000434159E+02 -0.95514718188E+01  0.22196037894E+02  0.92321049354E+02  0.86343861036E+02 0.  0.
         11    1    3    3    0    0 -0.44942728218E+02  0.21573534038E+01  0.40648024382E+02  0.60636333001E+02  0.51100000000E-03 0. -1.
         22    1    1    0    0    0  0.22000434159E+02  0.95514718188E+01 -0.22196037894E+02  0.32678950646E+02  0.00000000000E+00 0. -1.
</event>
<event>
 5    1  0.8752570E-005  0.9118800E+02  0.7818608E-02  0.1130116E+00
         25   -1    0    0    0    0  0.00000000000E+00  0.00000000000E+00  0.99999998245E-14  0.12500000000E+03  0.12500000000E+03 0.  0.
        -11    1    3    3    0    0  0.19613252857E+02  0.40697362277E+02  0.19836701535E+02  0.49340143008E+02  0.51100000000E-03 0. -1.
         23    2    1    0    0    0  0.25794267673E+02 -0.47318456158E+01  0.13117283970E+02  0.95677692000E+02  0.91073722884E+02 0.  0.
         11    1    3    3    0    0  0.61810148152E+01 -0.45429207893E+02 -0.67194175653E+01  0.46337548992E+02  0.51100000000E-03 0.  1.
         22    1    1    0    0    0 -0.25794267673E+02  0.47318456158E+01 -0.13117283970E+02  0.29322308000E+02  0.00000000000E+00 0. -1.
</event>
<event>
 5    1  0.8752570E-005  0.9118800E+02  0.7818608E-02  0.1130116E+00
         25   -1    0    0    0    0  0.00000000000E+00  0.00000000000E+00  0.99999998245E-14  0.12500000000E+03  0.12500000000E+03 0.  0.
        -11    1    3    3    0    0  0.12208514597E+02  0.58483572058E-01 -0.47624855874E+02  0.49164805972E+02  0.51100000000E-03 0. -1.
         23    2    1    0    0    0 -0.18866587477E+02  0.14940035172E+02 -0.14829380429E+02  0.96732292313E+02  0.92509853952E+02 0.  0.
         11    1    3    3    0    0 -0.31075102074E+02  0.14881551600E+02  0.32795475445E+02  0.47567486341E+02  0.51100000000E-03 0.  1.
         22    1    1    0    0    0  0.18866587477E+02 -0.14940035172E+02  0.14829380429E+02  0.28267707687E+02  0.00000000000E+00 0. -1.
</event>
<event>
 5    1  0.8752570E-005  0.9118800E+02  0.7818608E-02  0.1130116E+00
         25   -1    0    0    0    0  0.00000000000E+00  0.00000000000E+00  0.99999998245E-14  0.12500000000E+03  0.12500000000E+03 0.  0.
        -11    1    3    3    0    0  0.26991085111E+02 -0.10464491343E+01  0.19883818742E+02  0.33540721210E+02  0.51100000000E-03 0. -1.
         23    2    1    0    0    0 -0.12833389295E+02  0.16463506119E+01 -0.26967189988E+02  0.95089538837E+02  0.90262864509E+02 0.  0.
         11    1    3    3    0    0 -0.39824474406E+02  0.26927997462E+01 -0.46851008729E+02  0.61548817628E+02  0.51100000000E-03 0.  1.
         22    1    1    0    0    0  0.12833389295E+02 -0.16463506119E+01  0.26967189988E+02  0.29910461163E+02  0.00000000000E+00 0.  1.
</event>
<event>
 5    1  0.8752570E-005  0.9118800E+02  0.7818608E-02  0.1130116E+00
         25   -1    0    0    0    0  0.00000000000E+00  0.00000000000E+00  0.99999998245E-14  0.12500000000E+03  0.12500000000E+03 0.  0.
        -11    1    3    3    0    0 -0.50395054335E+02 -0.32493142827E+02  0.75416690361E+01  0.60434614289E+02  0.51100000000E-03 0. -1.
         23    2    1    0    0    0 -0.15991906598E+02 -0.92821610056E+01 -0.81367915742E+01  0.10479834248E+03  0.10283280420E+03 0.  0.
         11    1    3    3    0    0  0.34403147737E+02  0.23210981821E+02 -0.15678460610E+02  0.44363728187E+02  0.51100000000E-03 0.  1.
         22    1    1    0    0    0  0.15991906598E+02  0.92821610056E+01  0.81367915742E+01  0.20201657524E+02  0.00000000000E+00 0. -1.
</event>
<event>
 5    1  0.8752570E-005  0.9118800E+02  0.7818608E-02  0.1130116E+00
         25   -1    0    0    0    0  0.00000000000E+00  0.00000000000E+00  0.99999998245E-14  0.12500000000E+03  0.12500000000E+03 0.  0.
        -11    1    3    3    0    0 -0.20883513688E+02 -0.45328016881E+01  0.33517194674E+02  0.39750091499E+02  0.51100000000E-03 0. -1.
         23    2    1    0    0    0  0.28398669922E+01 -0.23637527897E+02 -0.14872880094E+02  0.96928659955E+02  0.92774807943E+02 0.  0.
         11    1    3    3    0    0  0.23723380681E+02 -0.19104726209E+02 -0.48390074767E+02  0.57178568456E+02  0.51100000000E-03 0.  1.
         22    1    1    0    0    0 -0.28398669922E+01  0.23637527897E+02  0.14872880094E+02  0.28071340045E+02  0.00000000000E+00 0.  1.
</event>
<event>
 5    1  0.8752570E-005  0.9118800E+02  0.7818608E-02  0.1130116E+00
         25   -1    0    0    0    0  0.00000000000E+00  0.00000000000E+00  0.99999998245E-14  0.12500000000E+03  0.12500000000E+03 0.  0.
        -11    1    3    3    0    0 -0.26250970468E+01  0.32680029130E+02  0.21353809795E+02  0.39126214121E+02  0.51100000000E-03 0.  1.
         23    2    1    0    0    0 -0.23310141742E+02 -0.75546870359E+01 -0.14212048909E+02  0.96673010424E+02  0.92429717115E+02 0.  0.
         11    1    3    3    0    0 -0.20685044696E+02 -0.40234716166E+02 -0.35565858704E+02  0.57546796302E+02  0.51100000000E-03 0. -1.
         22    1    1    0    0    0  0.23310141742E+02  0.75546870359E+01  0.14212048909E+02  0.28326989576E+02  0.00000000000E+00 0. -1.
</event>
<event>
 5    1  0.8752570E-005  0.9118800E+02  0.7818608E-02  0.1130116E+00
         25   -1    0    0    0    0  0.00000000000E+00  0.00000000000E+00  0.99999998245E-14  0.12500000000E+03  0.12500000000E+03 0.  0.
        -11    1    3    3    0    0 -0.53134678830E+02  0.30684446275E+02 -0.11706000439E+02  0.62464868399E+02  0.51100000000E-03 0.  1.
         23    2    1    0    0    0 -0.26912771683E+02  0.14079053335E+02 -0.50070091334E+01  0.94217096255E+02  0.89046471372E+02 0.  0.
         11    1    3    3    0    0  0.26221907147E+02 -0.16605392939E+02  0.66989913051E+01  0.31752227856E+02  0.51100000000E-03 0. -1.
         22    1    1    0    0    0  0.26912771683E+02 -0.14079053335E+02  0.50070091334E+01  0.30782903745E+02  0.00000000000E+00 0.  1.
</event>
<event>
 5    1  0.8752570E-005  0.9118800E+02  0.7818608E-02  0.1130116E+00
         25   -1    0    0    0    0  0.00000000000E+00  0.00000000000E+00  0.99999998245E-14  0.12500000000E+03  0.12500000000E+03 0.  0.
        -11    1    3    3    0    0 -0.42702309231E+02  0.15682952368E+02  0.17762514432E+01  0.45525786957E+02  0.51100000000E-03 0. -1.
         23    2    1    0    0    0  0.31262236683E+01  0.14433535008E+02  0.24268189978E+02  0.96591458115E+02  0.92319361613E+02 0.  0.
         11    1    3    3    0    0  0.45828532899E+02 -0.12494173607E+01  0.22491938535E+02  0.51065671157E+02  0.51100000000E-03 0.  1.
         22    1    1    0    0    0 -0.31262236683E+01 -0.14433535008E+02 -0.24268189978E+02  0.28408541885E+02  0.00000000000E+00 0.  1.
</event>
<event>
 5    1  0.8752570E-005  0.9118800E+02  0.7818608E-02  0.1130116E+00
         25   -1    0    0    0    0  0.00000000000E+00  0.00000000000E+00  0.99999998245E-14  0.12500000000E+03  0.12500000000E+03 0.  0.
        -11    1    3    3    0    0 -0.17480290515E+02  0.30987392909E+02  0.33671503440E+02  0.48985193885E+02  0.51100000000E-03 0. -1.
         23    2    1    0    0    0 -0.28297529672E+02 -0.46762736700E+01  0.52780035043E+01  0.95837094761E+02  0.91292243319E+02 0.  0.
         11    1    3    3    0    0 -0.10817239157E+02 -0.35663666579E+02 -0.28393499936E+02  0.46851900876E+02  0.51100000000E-03 0.  1.
         22    1    1    0    0    0  0.28297529672E+02  0.46762736700E+01 -0.52780035043E+01  0.29162905239E+02  0.00000000000E+00 0.  1.
</event>
<event>
 5    1  0.8752570E-005  0.9118800E+02  0.7818608E-02  0.1130116E+00
         25   -1    0    0    0    0  0.00000000000E+00  0.00000000000E+00  0.99999998245E-14  0.12500000000E+03  0.12500000000E+03 0.  0.
        -11    1    3    3    0    0 -0.12564079536E+02  0.16874890678E+02  0.36274807209E+02  0.41934230269E+02  0.51100000000E-03 0.  1.
         23    2    1    0    0    0 -0.27456500125E+02  0.25981612463E+01 -0.12370622013E+02  0.94773486308E+02  0.89824114674E+02 0.  0.
         11    1    3    3    0    0 -0.14892420589E+02 -0.14276729432E+02 -0.48645429222E+02  0.52839256038E+02  0.51100000000E-03 0. -1.
         22    1    1    0    0    0  0.27456500125E+02 -0.25981612463E+01  0.12370622013E+02  0.30226513692E+02  0.00000000000E+00 0. -1.
</event>
<event>
 5    1  0.8752570E-005  0.9118800E+02  0.7818608E-02  0.1130116E+00
         25   -1    0    0    0    0  0.00000000000E+00  0.00000000000E+00  0.99999998245E-14  0.12500000000E+03  0.12500000000E+03 0.  0.
        -11    1    3    3    0    0  0.51234684506E+02  0.19697085354E+02 -0.14372413034E+01  0.54909322803E+02  0.51100000000E-03 0.  1.
         23    2    1    0    0    0  0.16820632488E+02  0.66784340941E+01 -0.21563471859E+02  0.96848295294E+02  0.92666465474E+02 0.  0.
         11    1    3    3    0    0 -0.34414052018E+02 -0.13018651260E+02 -0.20126230556E+02  0.41938972491E+02  0.51100000000E-03 0. -1.
         22    1    1    0    0    0 -0.16820632488E+02 -0.66784340941E+01  0.21563471859E+02  0.28151704706E+02  0.00000000000E+00 0.  1.
</event>
<event>
 5    1  0.8752570E-005  0.9118800E+02  0.7818608E-02  0.1130116E+00
         25   -1    0    0    0    0  0.00000000000E+00  0.00000000000E+00  0.99999998245E-14  0.12500000000E+03  0.12500000000E+03 0.  0.
        -11    1    3    3    0    0  0.69420782632E+01  0.38942430323E+02  0.45701798541E+02  0.60443028714E+02  0.51100000000E-03 0. -1.
         23    2    1    0    0    0  0.13241435120E+02  0.18334164970E+02  0.15349969434E+02  0.97666892405E+02  0.93764188800E+02 0.  0.
         11    1    3    3    0    0  0.62993568567E+01 -0.20608265353E+02 -0.30351829107E+02  0.37223863691E+02  0.51100000000E-03 0.  1.
         22    1    1    0    0    0 -0.13241435120E+02 -0.18334164970E+02 -0.15349969434E+02  0.27333107595E+02  0.00000000000E+00 0. -1.
</event>
<event>
 5    1  0.8752570E-005  0.9118800E+02  0.7818608E-02  0.1130116E+00
         25   -1    0    0    0    0  0.00000000000E+00  0.00000000000E+00  0.99999998245E-14  0.12500000000E+03  0.12500000000E+03 0.  0.
        -11    1    3    3    0    0  0.22690662505E+02 -0.88221524388E+01 -0.19457610174E+02  0.31165608169E+02  0.51100000000E-03 0.  1.
         23    2    1    0    0    0 -0.13664167835E+02  0.13820473892E+02  0.25288730987E+02  0.93105879913E+02  0.87472681325E+02 0.  0.
         11    1    3    3    0    0 -0.36354830340E+02  0.22642626331E+02  0.44746341161E+02  0.61940271744E+02  0.51100000000E-03 0. -1.
         22    1    1    0    0    0  0.13664167835E+02 -0.13820473892E+02 -0.25288730987E+02  0.31894120087E+02  0.00000000000E+00 0. -1.
</event>
<event>
 5    1  0.8752570E-005  0.9118800E+02  0.7818608E-02  0.1130116E+00
         25   -1    0    0    0    0  0.00000000000E+00  0.00000000000E+00  0.99999998245E-14  0.12500000000E+03  0.12500000000E+03 0.  0.
        -11    1    3    3    0    0  0.33491399888E+02 -0.41785773074E+02 -0.18668523485E+02  0.56711889998E+02  0.51100000000E-03 0.  1.
         23    2    1    0    0    0  0.24417237774E+01 -0.18739283074E+02 -0.22554805863E+02  0.95574806498E+02  0.90932401400E+02 0.  0.
         11    1    3    3    0    0 -0.31049676110E+02  0.23046489999E+02 -0.38862823779E+01  0.38862916499E+02  0.51100000000E-03 0. -1.
         22    1    1    0    0    0 -0.24417237774E+01  0.18739283074E+02  0.22554805863E+02  0.29425193502E+02  0.00000000000E+00 0.  1.
</event>
<event>
 5    1  0.8752570E-005  0.9118800E+02  0.7818608E-02  0.1130116E+00
         25   -1    0    0    0    0  0.00000000000E+00  0.00000000000E+00  0.99999998245E-14  0.12500000000E+03  0.12500000000E+03 0.  0.
        -11    1    3    3    0    0  0.36631325096E+02  0.22185981260E+02  0.61891791804E+01  0.43270979673E+02  0.51100000000E-03 0. -1.
         23    2    1    0    0    0 -0.34836033909E+01  0.12571249939E+01  0.30254926361E+02  0.94519245007E+02  0.89469610772E+02 0.  0.
         11    1    3    3    0    0 -0.40114928487E+02 -0.20928856266E+02  0.24065747181E+02  0.51248265333E+02  0.51100000000E-03 0.  1.
         22    1    1    0    0    0  0.34836033909E+01 -0.12571249939E+01 -0.30254926361E+02  0.30480754993E+02  0.00000000000E+00 0.  1.
</event>
<event>
 5    1  0.8752570E-005  0.9118800E+02  0.7818608E-02  0.1130116E+00
         25   -1    0    0    0    0  0.00000000000E+00  0.00000000000E+00  0.99999998245E-14  0.12500000000E+03  0.12500000000E+03 0.  0.
        -11    1    3    3    0    0  0.16927058536E+01  0.14428092868E+02 -0.47527814958E+02  0.49698373332E+02  0.51100000000E-03 0.  1.
         23    2    1    0    0    0  0.26597856794E+02  0.11966188906E+02 -0.11317725157E+02  0.93715394110E+02  0.88339393973E+02 0.  0.
         11    1    3    3    0    0  0.24905150941E+02 -0.24619039624E+01  0.36210089801E+02  0.44017020778E+02  0.51100000000E-03 0. -1.
         22    1    1    0    0    0 -0.26597856794E+02 -0.11966188906E+02  0.11317725157E+02  0.31284605890E+02  0.00000000000E+00 0.  1.
</event>
<event>
 5    1  0.8752570E-005  0.9118800E+02  0.7818608E-02  0.1130116E+00
         25   -1    0    0    0    0  0.00000000000E+00  0.00000000000E+00  0.99999998245E-14  0.12500000000E+03  0.12500000000E+03 0.  0.
        -11    1    3    3    0    0 -0.28662972416E+02  0.53120163113E+01 -0.44220353845E+01  0.29484536663E+02  0.51100000000E-03 0.  1.
         23    2    1    0    0    0  0.14518873816E+02 -0.33994690118E+02 -0.32969837228E+01  0.87887916324E+02  0.79667930066E+02 0.  0.
         11    1    3    3    0    0  0.43181846232E+02 -0.39306706429E+02  0.11250516617E+01  0.58403379661E+02  0.51100000000E-03 0. -1.
         22    1    1    0    0    0 -0.14518873816E+02  0.33994690118E+02  0.32969837228E+01  0.37112083676E+02  0.00000000000E+00 0. -1.
</event>
<event>
 5    1  0.8752570E-005  0.9118800E+02  0.7818608E-02  0.1130116E+00
         25   -1    0    0    0    0  0.00000000000E+00  0.00000000000E+00  0.99999998245E-14  0.12500000000E+03  0.12500000000E+03 0.  0.
        -11    1    3    3    0    0 -0.39313755805E+02 -0.43477017080E+02 -0.14049897041E+02  0.60276214353E+02  0.51100000000E-03 0.  1.
         23    2    1    0    0    0 -0.71694801455E+01 -0.23843622092E+02 -0.10035244843E+02  0.98155523863E+02  0.94413351629E+02 0.  0.
         11    1    3    3    0    0  0.32144275659E+02  0.19633394988E+02  0.40146521984E+01  0.37879309510E+02  0.51100000000E-03 0. -1.
         22    1    1    0    0    0  0.71694801455E+01  0.23843622092E+02  0.10035244843E+02  0.26844476137E+02  0.00000000000E+00 0.  1.
</event>
<event>
 5    1  0.8752570E-005  0.9118800E+02  0.7818608E-02  0.1130116E+00
         25   -1    0    0    0    0  0.00000000000E+00  0.00000000000E+00  0.99999998245E-14  0.12500000000E+03  0.12500000000E+03 0.  0.
        -11    1    3    3    0    0  0.17634392094E+02  0.38314448391E+02  0.24252711476E+02  0.48653496835E+02  0.51100000000E-03 0.  1.
         23    2    1    0    0    0  0.88157708113E+01 -0.74498413786E+01  0.27301164428E+02  0.95359292676E+02  0.90635661684E+02 0.  0.
         11    1    3    3    0    0 -0.88186212832E+01 -0.45764289770E+02  0.30484529523E+01  0.46705795841E+02  0.51100000000E-03 0. -1.
         22    1    1    0    0    0 -0.88157708113E+01  0.74498413786E+01 -0.27301164428E+02  0.29640707324E+02  0.00000000000E+00 0. -1.
</event>
<event>
 5    1  0.8752570E-005  0.9118800E+02  0.7818608E-02  0.1130116E+00
         25   -1    0    0    0    0  0.00000000000E+00  0.00000000000E+00  0.99999998245E-14  0.12500000000E+03  0.12500000000E+03 0.  0.
        -11    1    3    3    0    0  0.22226691193E+02 -0.30925078226E+02 -0.25321653527E+02  0.45733711880E+02  0.51100000000E-03 0.  1.
         23    2    1    0    0    0 -0.15649088072E+02 -0.23403480169E+02  0.68847895494E+01  0.96016950322E+02  0.91538175536E+02 0.  0.
         11    1    3    3    0    0 -0.37875779266E+02  0.75215980568E+01  0.32206443076E+02  0.50283238442E+02  0.51100000000E-03 0. -1.
         22    1    1    0    0    0  0.15649088072E+02  0.23403480169E+02 -0.68847895494E+01  0.28983049678E+02  0.00000000000E+00 0.  1.
</event>
<event>
 5    1  0.8752570E-005  0.9118800E+02  0.7818608E-02  0.1130116E+00
         25   -1    0    0    0    0  0.00000000000E+00  0.00000000000E+00  0.99999998245E-14  0.12500000000E+03  0.12500000000E+03 0.  0.
        -11    1    3    3    0    0 -0.42277944293E+02 -0.43389552285E+02 -0.52490743911E+01  0.60808145863E+02  0.51100000000E-03 0. -1.
         23    2    1    0    0    0 -0.24526551672E+02 -0.14015064376E+02 -0.90445009188E+01  0.95338968945E+02  0.90607627914E+02 0.  0.
         11    1    3    3    0    0  0.17751392621E+02  0.29374487909E+02 -0.37954265278E+01  0.34530823081E+02  0.51100000000E-03 0.  1.
         22    1    1    0    0    0  0.24526551672E+02  0.14015064376E+02  0.90445009188E+01  0.29661031055E+02  0.00000000000E+00 0. -1.
</event>
<event>
 5    1  0.8752570E-005  0.9118800E+02  0.7818608E-02  0.1130116E+00
         25   -1    0    0    0    0  0.00000000000E+00  0.00000000000E+00  0.99999998245E-14  0.12500000000E+03  0.12500000000E+03 0.  0.
        -11    1    3    3    0    0  0.60691433632E+01 -0.30370520170E+02 -0.18988950710E+02  0.36328821147E+02  0.51100000000E-03 0. -1.
         23    2    1    0    0    0  0.15758086012E+02  0.23820785712E+02  0.43257282444E+01  0.96112995456E+02  0.91669236192E+02 0.  0.
         11    1    3    3    0    0  0.96889426488E+01  0.54191305882E+02  0.23314678955E+02  0.59784174309E+02  0.51100000000E-03 0.  1.
         22    1    1    0    0    0 -0.15758086012E+02 -0.23820785712E+02 -0.43257282444E+01  0.28887004544E+02  0.00000000000E+00 0.  1.
</event>
<event>
 5    1  0.8752570E-005  0.9118800E+02  0.7818608E-02  0.1130116E+00
         25   -1    0    0    0    0  0.00000000000E+00  0.00000000000E+00  0.99999998245E-14  0.12500000000E+03  0.12500000000E+03 0.  0.
        -11    1    3    3    0    0 -0.43258777919E+01  0.54859416272E+02  0.60917694616E+01  0.55365859767E+02  0.51100000000E-03 0.  1.
         23    2    1    0    0    0  0.52545925042E+01  0.26799245913E+02 -0.16898254593E+02  0.92885185161E+02  0.87156734049E+02 0.  0.
         11    1    3    3    0    0  0.95804702961E+01 -0.28060170359E+02 -0.22990024054E+02  0.37519325393E+02  0.51100000000E-03 0. -1.
         22    1    1    0    0    0 -0.52545925042E+01 -0.26799245913E+02  0.16898254593E+02  0.32114814839E+02  0.00000000000E+00 0.  1.
</event>
<event>
 5    1  0.8752570E-005  0.9118800E+02  0.7818608E-02  0.1130116E+00
         25   -1    0    0    0    0  0.00000000000E+00  0.00000000000E+00  0.99999998245E-14  0.12500000000E+03  0.12500000000E+03 0.  0.
        -11    1    3    3    0    0 -0.10009240063E+02  0.25928589696E+02  0.37980155794E+02  0.47063455936E+02  0.51100000000E-03 0. -1.
         23    2    1    0    0    0 -0.16705764066E+02 -0.17246158279E+02  0.17328548159E+02  0.95389341282E+02  0.90677093693E+02 0.  0.
         11    1    3    3    0    0 -0.66965240027E+01 -0.43174747974E+02 -0.20651607635E+02  0.48325885347E+02  0.51100000000E-03 0.  1.
         22    1    1    0    0    0  0.16705764066E+02  0.17246158279E+02 -0.17328548159E+02  0.29610658718E+02  0.00000000000E+00 0. -1.
</event>
<event>
 5    1  0.8752570E-005  0.9118800E+02  0.7818608E-02  0.1130116E+00
         25   -1    0    0    0    0  0.00000000000E+00  0.00000000000E+00  0.99999998245E-14  0.12500000000E+03  0.12500000000E+03 0.  0.
        -11    1    3    3    0    0  0.34235440979E+02  0.48362577807E+02  0.12613686478E+02  0.60581428161E+02  0.51100000000E-03 0.  1.
         23    2    1    0    0    0  0.76131458060E+01  0.24973862371E+02  0.12580888870E+02  0.96018410059E+02  0.91540168858E+02 0.  0.
         11    1    3    3    0    0 -0.26622295173E+02 -0.23388715437E+02 -0.32797607788E-01  0.35436981897E+02  0.51100000000E-03 0. -1.
         22    1    1    0    0    0 -0.76131458060E+01 -0.24973862371E+02 -0.12580888870E+02  0.28981589941E+02  0.00000000000E+00 0.  1.
</event>
<event>
 5    1  0.8752570E-005  0.9118800E+02  0.7818608E-02  0.1130116E+00
         25   -1    0    0    0    0  0.00000000000E+00  0.00000000000E+00  0.99999998245E-14  0.12500000000E+03  0.12500000000E+03 0.  0.
        -11    1    3    3    0    0  0.54976835397E+02  0.16308695208E+02  0.79578805388E+01  0.57894333337E+02  0.51100000000E-03 0.  1.
         23    2    1    0    0    0  0.17095859955E+02  0.17558913661E+02  0.14745706741E+02  0.96398955546E+02  0.92058345013E+02 0.  0.
         11    1    3    3    0    0 -0.37880975442E+02  0.12502184534E+01  0.67878262022E+01  0.38504622209E+02  0.51100000000E-03 0. -1.
         22    1    1    0    0    0 -0.17095859955E+02 -0.17558913661E+02 -0.14745706741E+02  0.28601044454E+02  0.00000000000E+00 0.  1.
</event>
<event>
 5    1  0.8752570E-005  0.9118800E+02  0.7818608E-02  0.1130116E+00
         25   -1    0    0    0    0  0.00000000000E+00  0.00000000000E+00  0.99999998245E-14  0.12500000000E+03  0.12500000000E+03 0.  0.
        -11    1    3    3    0    0  0.94913516808E+01  0.40930210344E+02 -0.27109125495E+02  0.50002725535E+02  0.51100000000E-03 0. -1.
         23    2    1    0    0    0 -0.22415176771E+02  0.96372207157E+01 -0.15201486266E+02  0.96252802615E+02  0.91859679151E+02 0.  0.
         11    1    3    3    0    0 -0.31906528451E+02 -0.31292989628E+02  0.11907639229E+02  0.46250077081E+02  0.51100000000E-03 0.  1.
         22    1    1    0    0    0  0.22415176771E+02 -0.96372207157E+01  0.15201486266E+02  0.28747197385E+02  0.00000000000E+00 0.  1.
</event>
<event>
 5    1  0.8752570E-005  0.9118800E+02  0.7818608E-02  0.1130116E+00
         25   -1    0    0    0    0  0.00000000000E+00  0.00000000000E+00  0.99999998245E-14  0.12500000000E+03  0.12500000000E+03 0.  0.
        -11    1    3    3    0    0  0.31549285275E+01  0.14208396907E+02 -0.48828372217E+02  0.50951369464E+02  0.51100000000E-03 0. -1.
         23    2    1    0    0    0  0.11635708831E+02 -0.18512957084E+02 -0.19250194369E+02  0.95867727805E+02  0.91334177344E+02 0.  0.
         11    1    3    3    0    0  0.84807803037E+01 -0.32721353991E+02  0.29578177847E+02  0.44916358341E+02  0.51100000000E-03 0.  1.
         22    1    1    0    0    0 -0.11635708831E+02  0.18512957084E+02  0.19250194369E+02  0.29132272195E+02  0.00000000000E+00 0. -1.
</event>
<event>
 5    1  0.8752570E-005  0.9118800E+02  0.7818608E-02  0.1130116E+00
         25   -1    0    0    0    0  0.00000000000E+00  0.00000000000E+00  0.99999998245E-14  0.12500000000E+03  0.12500000000E+03 0.  0.
        -11    1    3    3    0    0 -0.65996609940E+00 -0.19020460530E+02  0.29458258752E+02  0.35071391232E+02  0.51100000000E-03 0.  1.
         23    2    1    0    0    0 -0.22177608912E+01 -0.58302850704E+01 -0.29162426007E+02  0.95177897828E+02  0.90385145112E+02 0.  0.
         11    1    3    3    0    0 -0.15577947918E+01  0.13190175459E+02 -0.58620684759E+02  0.60106506595E+02  0.51100000000E-03 0. -1.
         22    1    1    0    0    0  0.22177608912E+01  0.58302850704E+01  0.29162426007E+02  0.29822102172E+02  0.00000000000E+00 0. -1.
</event>
<event>
 5    1  0.8752570E-005  0.9118800E+02  0.7818608E-02  0.1130116E+00
         25   -1    0    0    0    0  0.00000000000E+00  0.00000000000E+00  0.99999998245E-14  0.12500000000E+03  0.12500000000E+03 0.  0.
        -11    1    3    3    0    0  0.17643379747E+02  0.35273010712E+02  0.46912088115E+02  0.61287993483E+02  0.51100000000E-03 0.  1.
         23    2    1    0    0    0  0.11508353520E+02  0.23556624707E+02  0.17664373835E+02  0.93386919300E+02  0.87873373812E+02 0.  0.
         11    1    3    3    0    0 -0.61350262267E+01 -0.11716386005E+02 -0.29247714279E+02  0.32098925818E+02  0.51100000000E-03 0. -1.
         22    1    1    0    0    0 -0.11508353520E+02 -0.23556624707E+02 -0.17664373835E+02  0.31613080700E+02  0.00000000000E+00 0.  1.
</event>
<event>
 5    1  0.8752570E-005  0.9118800E+02  0.7818608E-02  0.1130116E+00
         25   -1    0    0    0    0  0.00000000000E+00  0.00000000000E+00  0.99999998245E-14  0.12500000000E+03  0.12500000000E+03 0.  0.
        -11    1    3    3    0    0 -0.10112288440E+02  0.85822298126E+01 -0.50155868024E+02  0.51879901152E+02  0.51100000000E-03 0. -1.
         23    2    1    0    0    0 -0.25091510722E+02  0.20091649248E+02 -0.21056801179E+02  0.86572833104E+02  0.77577111804E+02 0.  0.
         11    1    3    3    0    0 -0.14979222282E+02  0.11509419435E+02  0.29099066845E+02  0.34692931952E+02  0.51100000000E-03 0.  1.
         22    1    1    0    0    0  0.25091510722E+02 -0.20091649248E+02  0.21056801179E+02  0.38427166896E+02  0.00000000000E+00 0. -1.
</event>
<event>
 5    1  0.8752570E-005  0.9118800E+02  0.7818608E-02  0.1130116E+00
         25   -1    0    0    0    0  0.00000000000E+00  0.00000000000E+00  0.99999998245E-14  0.12500000000E+03  0.12500000000E+03 0.  0.
        -11    1    3    3    0    0 -0.11352577219E+02 -0.25791549829E+02  0.10026248458E+02  0.29910043639E+02  0.51100000000E-03 0. -1.
         23    2    1    0    0    0  0.85643237271E+01  0.31845104461E+02 -0.15798319932E+01  0.91985545770E+02  0.85856778663E+02 0.  0.
         11    1    3    3    0    0  0.19916900946E+02  0.57636654290E+02 -0.11606080452E+02  0.62075502130E+02  0.51100000000E-03 0.  1.
         22    1    1    0    0    0 -0.85643237271E+01 -0.31845104461E+02  0.15798319932E+01  0.33014454230E+02  0.00000000000E+00 0.  1.
</event>
<event>
 5    1  0.8752570E-005  0.9118800E+02  0.7818608E-02  0.1130116E+00
         25   -1    0    0    0    0  0.00000000000E+00  0.00000000000E+00  0.99999998245E-14  0.12500000000E+03  0.12500000000E+03 0.  0.
        -11    1    3    3    0    0 -0.41194173194E+02  0.11080488683E+02 -0.32602697996E+02  0.53690530370E+02  0.51100000000E-03 0. -1.
         23    2    1    0    0    0  0.36223671700E+00  0.38853119808E+01 -0.28689446674E+02  0.96046395473E+02  0.91578375549E+02 0.  0.
         11    1    3    3    0    0  0.41556409911E+02 -0.71951767027E+01  0.39132513213E+01  0.42355865103E+02  0.51100000000E-03 0.  1.
         22    1    1    0    0    0 -0.36223671700E+00 -0.38853119808E+01  0.28689446674E+02  0.28953604527E+02  0.00000000000E+00 0. -1.
</event>
<event>
 5    1  0.8752570E-005  0.9118800E+02  0.7818608E-02  0.1130116E+00
         25   -1    0    0    0    0  0.00000000000E+00  0.00000000000E+00  0.99999998245E-14  0.12500000000E+03  0.12500000000E+03 0.  0.
        -11    1    3    3    0    0  0.38537493468E+01  0.31229036711E+02  0.15327689809E+02  0.35000602753E+02  0.51100000000E-03 0.  1.
         23    2    1    0    0    0  0.22696105949E+02 -0.19307396659E+02 -0.85728452058E+01  0.93993831809E+02  0.88732507866E+02 0.  0.
         11    1    3    3    0    0  0.18842356602E+02 -0.50536433370E+02 -0.23900535015E+02  0.58993229055E+02  0.51100000000E-03 0. -1.
         22    1    1    0    0    0 -0.22696105949E+02  0.19307396659E+02  0.85728452058E+01  0.31006168191E+02  0.00000000000E+00 0. -1.
</event>
<event>
 5    1  0.8752570E-005  0.9118800E+02  0.7818608E-02  0.1130116E+00
         25   -1    0    0    0    0  0.00000000000E+00  0.00000000000E+00  0.99999998245E-14  0.12500000000E+03  0.12500000000E+03 0.  0.
        -11    1    3    3    0    0  0.60716774031E+01 -0.38199825728E+02 -0.54499748332E+01  0.39061415465E+02  0.51100000000E-03 0. -1.
         23    2    1    0    0    0 -0.18537905031E+01  0.63976732771E+01  0.28540401975E+02  0.95692640729E+02  0.91094237920E+02 0.  0.
         11    1    3    3    0    0 -0.79254679062E+01  0.44597499006E+02  0.33990376808E+02  0.56631225264E+02  0.51100000000E-03 0.  1.
         22    1    1    0    0    0  0.18537905031E+01 -0.63976732771E+01 -0.28540401975E+02  0.29307359271E+02  0.00000000000E+00 0.  1.
</event>
<event>
 5    1  0.8752570E-005  0.9118800E+02  0.7818608E-02  0.1130116E+00
         25   -1    0    0    0    0  0.00000000000E+00  0.00000000000E+00  0.99999998245E-14  0.12500000000E+03  0.12500000000E+03 0.  0.
        -11    1    3    3    0    0 -0.32014634612E+02  0.18917110850E+02 -0.30792763194E+02  0.48280308384E+02  0.51100000000E-03 0.  1.
         23    2    1    0    0    0 -0.12015289071E+02  0.26852268652E+02  0.96076769630E+01  0.94052965250E+02  0.88815771755E+02 0.  0.
         11    1    3    3    0    0  0.19999345542E+02  0.79351578020E+01  0.40400440157E+02  0.45772656866E+02  0.51100000000E-03 0. -1.
         22    1    1    0    0    0  0.12015289071E+02 -0.26852268652E+02 -0.96076769630E+01  0.30947034750E+02  0.00000000000E+00 0. -1.
</event>
<event>
 5    1  0.8752570E-005  0.9118800E+02  0.7818608E-02  0.1130116E+00
         25   -1    0    0    0    0  0.00000000000E+00  0.00000000000E+00  0.99999998245E-14  0.12500000000E+03  0.12500000000E+03 0.  0.
        -11    1    3    3    0    0 -0.27508650478E+02 -0.48139315361E+01 -0.20777442811E+02  0.34808072598E+02  0.51100000000E-03 0.  1.
         23    2    1    0    0    0  0.14130791326E+02  0.13410294554E+02  0.20866065381E+02  0.96453407419E+02  0.92132251979E+02 0.  0.
         11    1    3    3    0    0  0.41639441804E+02  0.18224226090E+02  0.41643508192E+02  0.61645334821E+02  0.51100000000E-03 0. -1.
         22    1    1    0    0    0 -0.14130791326E+02 -0.13410294554E+02 -0.20866065381E+02  0.28546592581E+02  0.00000000000E+00 0. -1.
</event>
<event>
 4    1  0.8752570E-005  0.9118800E+02  0.7818608E-02  0.1130116E+00
         25   -1    0    0    0    0  0.00000000000E+00  0.00000000000E+00  0.99999998245E-14  0.12500000000E+03  0.12500000000E+03 0.  0.
        -11    1    1    0    0    0 -0.50624869748E+01  0.20708710735E+02 -0.27735005825E+02  0.34981566904E+02  0.51100000000E-03 0.  1.
         11    1    1    0    0    0 -0.81312108356E+01 -0.21291730089E+02 -0.26063227664E+02  0.34622914325E+02  0.51100000000E-03 0. -1.
         22    1    1    0    0    0  0.13193697810E+02  0.58301935386E+00  0.53798233489E+02  0.55395518772E+02  0.00000000000E+00 0.  1.
</event>
<event>
 5    1  0.8752570E-005  0.9118800E+02  0.7818608E-02  0.1130116E+00
         25   -1    0    0    0    0  0.00000000000E+00  0.00000000000E+00  0.99999998245E-14  0.12500000000E+03  0.12500000000E+03 0.  0.
        -11    1    3    3    0    0 -0.29738610133E+02  0.35061543308E+02 -0.53573142665E+01  0.46286040749E+02  0.51100000000E-03 0. -1.
         23    2    1    0    0    0 -0.91895102369E+01 -0.57442746693E+01  0.22661080281E+02  0.99880916629E+02  0.96670725441E+02 0.  0.
         11    1    3    3    0    0  0.20549099896E+02 -0.40805817977E+02  0.28018394548E+02  0.53594875880E+02  0.51100000000E-03 0.  1.
         22    1    1    0    0    0  0.91895102369E+01  0.57442746693E+01 -0.22661080281E+02  0.25119083371E+02  0.00000000000E+00 0.  1.
</event>
<event>
 5    1  0.8752570E-005  0.9118800E+02  0.7818608E-02  0.1130116E+00
         25   -1    0    0    0    0  0.00000000000E+00  0.00000000000E+00  0.99999998245E-14  0.12500000000E+03  0.12500000000E+03 0.  0.
        -11    1    3    3    0    0 -0.29502198172E+02 -0.15773794409E+02 -0.28492991093E+02  0.43943632402E+02  0.51100000000E-03 0. -1.
         23    2    1    0    0    0  0.12066988387E+01  0.23471228805E+02 -0.19239031128E+02  0.94627396844E+02  0.89620584751E+02 0.  0.
         11    1    3    3    0    0  0.30708897011E+02  0.39245023214E+02  0.92539599649E+01  0.50683764442E+02  0.51100000000E-03 0.  1.
         22    1    1    0    0    0 -0.12066988387E+01 -0.23471228805E+02  0.19239031128E+02  0.30372603156E+02  0.00000000000E+00 0. -1.
</event>
<event>
 5    1  0.8752570E-005  0.9118800E+02  0.7818608E-02  0.1130116E+00
         25   -1    0    0    0    0  0.00000000000E+00  0.00000000000E+00  0.99999998245E-14  0.12500000000E+03  0.12500000000E+03 0.  0.
        -11    1    3    3    0    0 -0.28554665516E+02 -0.12464965837E+02  0.13925576208E+02  0.34127202772E+02  0.51100000000E-03 0. -1.
         23    2    1    0    0    0  0.27938585922E+02 -0.88076281811E+01 -0.76710245423E+01  0.94718264333E+02  0.89747234404E+02 0.  0.
         11    1    3    3    0    0  0.56493251438E+02  0.36573376558E+01 -0.21596600750E+02  0.60591061561E+02  0.51100000000E-03 0.  1.
         22    1    1    0    0    0 -0.27938585922E+02  0.88076281811E+01  0.76710245423E+01  0.30281735667E+02  0.00000000000E+00 0.  1.
</event>
<event>
 5    1  0.8752570E-005  0.9118800E+02  0.7818608E-02  0.1130116E+00
         25   -1    0    0    0    0  0.00000000000E+00  0.00000000000E+00  0.99999998245E-14  0.12500000000E+03  0.12500000000E+03 0.  0.
        -11    1    3    3    0    0 -0.41330572058E+02  0.26962992499E+02 -0.89460146802E+00  0.49356047889E+02  0.51100000000E-03 0. -1.
         23    2    1    0    0    0 -0.15122562573E+02 -0.16550712494E+02 -0.90872925710E+01  0.10080915733E+03  0.97863626197E+02 0.  0.
         11    1    3    3    0    0  0.26208009485E+02 -0.43513704993E+02 -0.81926911030E+01  0.51453109441E+02  0.51100000000E-03 0.  1.
         22    1    1    0    0    0  0.15122562573E+02  0.16550712494E+02  0.90872925710E+01  0.24190842670E+02  0.00000000000E+00 0.  1.
</event>
<event>
 5    1  0.8752570E-005  0.9118800E+02  0.7818608E-02  0.1130116E+00
         25   -1    0    0    0    0  0.00000000000E+00  0.00000000000E+00  0.99999998245E-14  0.12500000000E+03  0.12500000000E+03 0.  0.
        -11    1    3    3    0    0 -0.22408910531E+02  0.16793385823E+02 -0.24331076766E+02  0.37096878244E+02  0.51100000000E-03 0. -1.
         23    2    1    0    0    0 -0.17703594257E+02 -0.10596806428E+02  0.24308117139E+02  0.93115926940E+02  0.87487037525E+02 0.  0.
         11    1    3    3    0    0  0.47053162741E+01 -0.27390192250E+02  0.48639193905E+02  0.56019048695E+02  0.51100000000E-03 0.  1.
         22    1    1    0    0    0  0.17703594257E+02  0.10596806428E+02 -0.24308117139E+02  0.31884073060E+02  0.00000000000E+00 0.  1.
</event>
<event>
 5    1  0.8752570E-005  0.9118800E+02  0.7818608E-02  0.1130116E+00
         25   -1    0    0    0    0  0.00000000000E+00  0.00000000000E+00  0.99999998245E-14  0.12500000000E+03  0.12500000000E+03 0.  0.
        -11    1    3    3    0    0  0.24231802392E+02  0.56564882216E+01 -0.21022206059E+02  0.32574671971E+02  0.51100000000E-03 0. -1.
         23    2    1    0    0    0 -0.63167930486E+01 -0.10088292558E+02  0.29221192997E+02  0.93447604824E+02  0.87959656695E+02 0.  0.
         11    1    3    3    0    0 -0.30548595440E+02 -0.15744780780E+02  0.50243399056E+02  0.60872932853E+02  0.51100000000E-03 0.  1.
         22    1    1    0    0    0  0.63167930486E+01  0.10088292558E+02 -0.29221192997E+02  0.31552395176E+02  0.00000000000E+00 0.  1.
</event>
<event>
 5    1  0.8752570E-005  0.9118800E+02  0.7818608E-02  0.1130116E+00
         25   -1    0    0    0    0  0.00000000000E+00  0.00000000000E+00  0.99999998245E-14  0.12500000000E+03  0.12500000000E+03 0.  0.
        -11    1    3    3    0    0 -0.45648681672E+02 -0.10024775869E+02 -0.25206652522E+01  0.46804401750E+02  0.51100000000E-03 0. -1.
         23    2    1    0    0    0 -0.64100313367E+01 -0.19880979979E+02  0.22439992711E+02  0.94342290700E+02  0.89222041419E+02 0.  0.
         11    1    3    3    0    0  0.39238650336E+02 -0.98562041095E+01  0.24960657963E+02  0.47537888950E+02  0.51100000000E-03 0.  1.
         22    1    1    0    0    0  0.64100313367E+01  0.19880979979E+02 -0.22439992711E+02  0.30657709300E+02  0.00000000000E+00 0. -1.
</event>
<event>
 5    1  0.8752570E-005  0.9118800E+02  0.7818608E-02  0.1130116E+00
         25   -1    0    0    0    0  0.00000000000E+00  0.00000000000E+00  0.99999998245E-14  0.12500000000E+03  0.12500000000E+03 0.  0.
        -11    1    3    3    0    0 -0.78591283810E+01 -0.38647724521E+02  0.21089328423E+02  0.44723285693E+02  0.51100000000E-03 0.  1.
         23    2    1    0    0    0  0.20466723443E+02 -0.75052813602E+01 -0.13629313651E+02  0.99290581349E+02  0.95904355153E+02 0.  0.
         11    1    3    3    0    0  0.28325851824E+02  0.31142443161E+02 -0.34718642073E+02  0.54567295656E+02  0.51100000000E-03 0. -1.
         22    1    1    0    0    0 -0.20466723443E+02  0.75052813602E+01  0.13629313651E+02  0.25709418651E+02  0.00000000000E+00 0. -1.
</event>
<event>
 5    1  0.8752570E-005  0.9118800E+02  0.7818608E-02  0.1130116E+00
         25   -1    0    0    0    0  0.00000000000E+00  0.00000000000E+00  0.99999998245E-14  0.12500000000E+03  0.12500000000E+03 0.  0.
        -11    1    3    3    0    0 -0.31886663967E+02  0.16927158447E+02 -0.50821031740E+02  0.62338313255E+02  0.51100000000E-03 0.  1.
         23    2    1    0    0    0 -0.11634493615E+02  0.64551232903E+01 -0.24159925650E+02  0.97418628283E+02  0.93432633864E+02 0.  0.
         11    1    3    3    0    0  0.20252170352E+02 -0.10472035157E+02  0.26661106090E+02  0.35080315028E+02  0.51100000000E-03 0. -1.
         22    1    1    0    0    0  0.11634493615E+02 -0.64551232903E+01  0.24159925650E+02  0.27581371717E+02  0.00000000000E+00 0.  1.
</event>
<event>
 5    1  0.8752570E-005  0.9118800E+02  0.7818608E-02  0.1130116E+00
         25   -1    0    0    0    0  0.00000000000E+00  0.00000000000E+00  0.99999998245E-14  0.12500000000E+03  0.12500000000E+03 0.  0.
        -11    1    3    3    0    0 -0.51471206613E+01  0.33561662822E+01 -0.49449824266E+02  0.49830129675E+02  0.51100000000E-03 0. -1.
         23    2    1    0    0    0  0.24505070587E+02  0.79759088322E+01 -0.16489765810E+02  0.94405458287E+02  0.89310495305E+02 0.  0.
         11    1    3    3    0    0  0.29652191249E+02  0.46197425500E+01  0.32960058457E+02  0.44575328611E+02  0.51100000000E-03 0.  1.
         22    1    1    0    0    0 -0.24505070587E+02 -0.79759088322E+01  0.16489765810E+02  0.30594541713E+02  0.00000000000E+00 0.  1.
</event>
<event>
 5    1  0.8752570E-005  0.9118800E+02  0.7818608E-02  0.1130116E+00
         25   -1    0    0    0    0  0.00000000000E+00  0.00000000000E+00  0.99999998245E-14  0.12500000000E+03  0.12500000000E+03 0.  0.
        -11    1    3    3    0    0  0.31692834936E+02 -0.25925036248E+02  0.13215775107E+02  0.43025573822E+02  0.51100000000E-03 0. -1.
         23    2    1    0    0    0  0.74153695460E-01 -0.17337683006E+02 -0.25763558721E+02  0.93945826226E+02  0.88664855251E+02 0.  0.
         11    1    3    3    0    0 -0.31618681240E+02  0.85873532420E+01 -0.38979333828E+02  0.50920252405E+02  0.51100000000E-03 0.  1.
         22    1    1    0    0    0 -0.74153695460E-01  0.17337683006E+02  0.25763558721E+02  0.31054173774E+02  0.00000000000E+00 0. -1.
</event>
<event>
 5    1  0.8752570E-005  0.9118800E+02  0.7818608E-02  0.1130116E+00
         25   -1    0    0    0    0  0.00000000000E+00  0.00000000000E+00  0.99999998245E-14  0.12500000000E+03  0.12500000000E+03 0.  0.
        -11    1    3    3    0    0  0.53556793400E+01  0.20166311583E+01  0.56293475683E+02  0.56583615182E+02  0.51100000000E-03 0. -1.
         23    2    1    0    0    0  0.72901111456E+01  0.18693999784E+02  0.19529544071E+02  0.96999742143E+02  0.92870531040E+02 0.  0.
         11    1    3    3    0    0  0.19344318056E+01  0.16677368626E+02 -0.36763931612E+02  0.40416126960E+02  0.51100000000E-03 0.  1.
         22    1    1    0    0    0 -0.72901111456E+01 -0.18693999784E+02 -0.19529544071E+02  0.28000257857E+02  0.00000000000E+00 0. -1.
</event>
<event>
 5    1  0.8752570E-005  0.9118800E+02  0.7818608E-02  0.1130116E+00
         25   -1    0    0    0    0  0.00000000000E+00  0.00000000000E+00  0.99999998245E-14  0.12500000000E+03  0.12500000000E+03 0.  0.
        -11    1    3    3    0    0  0.21138678464E+02  0.22557020193E+02  0.17874128772E+02  0.35709205631E+02  0.51100000000E-03 0.  1.
         23    2    1    0    0    0  0.56584742906E+01 -0.16610585030E+02  0.38562961831E+02  0.82632183305E+02  0.70943962578E+02 0.  0.
         11    1    3    3    0    0 -0.15480204173E+02 -0.39167605223E+02  0.20688833059E+02  0.46922977674E+02  0.51100000000E-03 0. -1.
         22    1    1    0    0    0 -0.56584742906E+01  0.16610585030E+02 -0.38562961831E+02  0.42367816695E+02  0.00000000000E+00 0.  1.
</event>
<event>
 5    1  0.8752570E-005  0.9118800E+02  0.7818608E-02  0.1130116E+00
         25   -1    0    0    0    0  0.00000000000E+00  0.00000000000E+00  0.99999998245E-14  0.12500000000E+03  0.12500000000E+03 0.  0.
        -11    1    3    3    0    0  0.53635301635E+01 -0.98354503271E+01  0.37069564718E+02  0.38725394351E+02  0.51100000000E-03 0.  1.
         23    2    1    0    0    0  0.26052985626E+02  0.64001661976E+01 -0.12929514583E+02  0.95219258996E+02  0.90442328304E+02 0.  0.
         11    1    3    3    0    0  0.20689455463E+02  0.16235616525E+02 -0.49999079301E+02  0.56493864645E+02  0.51100000000E-03 0. -1.
         22    1    1    0    0    0 -0.26052985626E+02 -0.64001661976E+01  0.12929514583E+02  0.29780741004E+02  0.00000000000E+00 0. -1.
</event>
<event>
 5    1  0.8752570E-005  0.9118800E+02  0.7818608E-02  0.1130116E+00
         25   -1    0    0    0    0  0.00000000000E+00  0.00000000000E+00  0.99999998245E-14  0.12500000000E+03  0.12500000000E+03 0.  0.
        -11    1    3    3    0    0  0.33130149746E+02 -0.35123182684E+01 -0.20527289567E+02  0.39131992270E+02  0.51100000000E-03 0.  1.
         23    2    1    0    0    0 -0.39092604942E+01 -0.25308760047E+02  0.15373606428E+02  0.95130895104E+02  0.90320118334E+02 0.  0.
         11    1    3    3    0    0 -0.37039410240E+02 -0.21796441778E+02  0.35900895994E+02  0.55998902834E+02  0.51100000000E-03 0. -1.
         22    1    1    0    0    0  0.39092604942E+01  0.25308760047E+02 -0.15373606428E+02  0.29869104896E+02  0.00000000000E+00 0. -1.
</event>
<event>
 5    1  0.8752570E-005  0.9118800E+02  0.7818608E-02  0.1130116E+00
         25   -1    0    0    0    0  0.00000000000E+00  0.00000000000E+00  0.99999998245E-14  0.12500000000E+03  0.12500000000E+03 0.  0.
        -11    1    3    3    0    0  0.41299309512E+02 -0.97613606924E+01 -0.17538948757E+02  0.45918752732E+02  0.51100000000E-03 0.  1.
         23    2    1    0    0    0 -0.13070996461E+01 -0.29362157439E+02 -0.11928206288E+01  0.95584568335E+02  0.90945819496E+02 0.  0.
         11    1    3    3    0    0 -0.42606409158E+02 -0.19600796747E+02  0.16346128128E+02  0.49665815603E+02  0.51100000000E-03 0. -1.
         22    1    1    0    0    0  0.13070996461E+01  0.29362157439E+02  0.11928206288E+01  0.29415431665E+02  0.00000000000E+00 0. -1.
</event>
<event>
 5    1  0.8752570E-005  0.9118800E+02  0.7818608E-02  0.1130116E+00
         25   -1    0    0    0    0  0.00000000000E+00  0.00000000000E+00  0.99999998245E-14  0.12500000000E+03  0.12500000000E+03 0.  0.
        -11    1    3    3    0    0 -0.86961805679E+00 -0.54940800608E+02  0.66101961305E+01  0.55343856933E+02  0.51100000000E-03 0.  1.
         23    2    1    0    0    0 -0.14412385955E+02 -0.20532591305E+02  0.18100806274E+02  0.94065498834E+02  0.88833409866E+02 0.  0.
         11    1    3    3    0    0 -0.13542767898E+02  0.34408209303E+02  0.11490610144E+02  0.38721641901E+02  0.51100000000E-03 0. -1.
         22    1    1    0    0    0  0.14412385955E+02  0.20532591305E+02 -0.18100806274E+02  0.30934501166E+02  0.00000000000E+00 0.  1.
</event>
<event>
 5    1  0.8752570E-005  0.9118800E+02  0.7818608E-02  0.1130116E+00
         25   -1    0    0    0    0  0.00000000000E+00  0.00000000000E+00  0.99999998245E-14  0.12500000000E+03  0.12500000000E+03 0.  0.
        -11    1    3    3    0    0 -0.25074026351E+02  0.12577335059E+02 -0.40355246292E+02  0.49147147000E+02  0.51100000000E-03 0.  1.
         23    2    1    0    0    0 -0.18277622810E+02 -0.22105766567E+02 -0.15110780906E+02  0.92579757702E+02  0.86717584292E+02 0.  0.
         11    1    3    3    0    0  0.67964035410E+01 -0.34683101626E+02  0.25244465386E+02  0.43432610702E+02  0.51100000000E-03 0. -1.
         22    1    1    0    0    0  0.18277622810E+02  0.22105766567E+02  0.15110780906E+02  0.32420242298E+02  0.00000000000E+00 0.  1.
</event>
<event>
 5    1  0.8752570E-005  0.9118800E+02  0.7818608E-02  0.1130116E+00
         25   -1    0    0    0    0  0.00000000000E+00  0.00000000000E+00  0.99999998245E-14  0.12500000000E+03  0.12500000000E+03 0.  0.
        -11    1    3    3    0    0 -0.21911969826E+02  0.20207142179E+02 -0.17628705258E+02  0.34629961970E+02  0.51100000000E-03 0. -1.
         23    2    1    0    0    0  0.24756938741E+02 -0.15801569433E+02 -0.22782412126E+01  0.95541792393E+02  0.90887007313E+02 0.  0.
         11    1    3    3    0    0  0.46668908567E+02 -0.36008711612E+02  0.15350464046E+02  0.60911830423E+02  0.51100000000E-03 0.  1.
         22    1    1    0    0    0 -0.24756938741E+02  0.15801569433E+02  0.22782412126E+01  0.29458207607E+02  0.00000000000E+00 0.  1.
</event>
<event>
 5    1  0.8752570E-005  0.9118800E+02  0.7818608E-02  0.1130116E+00
         25   -1    0    0    0    0  0.00000000000E+00  0.00000000000E+00  0.99999998245E-14  0.12500000000E+03  0.12500000000E+03 0.  0.
        -11    1    3    3    0    0  0.28082978184E+02  0.26861238995E+02 -0.17020497117E+02  0.42424959003E+02  0.51100000000E-03 0.  1.
         23    2    1    0    0    0  0.20131370123E+02 -0.20515921173E+02  0.59078165731E+01  0.95655879954E+02  0.91043780614E+02 0.  0.
         11    1    3    3    0    0 -0.79516080613E+01 -0.47377160168E+02  0.22928313691E+02  0.53230920951E+02  0.51100000000E-03 0. -1.
         22    1    1    0    0    0 -0.20131370123E+02  0.20515921173E+02 -0.59078165731E+01  0.29344120046E+02  0.00000000000E+00 0. -1.
</event>
<event>
 5    1  0.8752570E-005  0.9118800E+02  0.7818608E-02  0.1130116E+00
         25   -1    0    0    0    0  0.00000000000E+00  0.00000000000E+00  0.99999998245E-14  0.12500000000E+03  0.12500000000E+03 0.  0.
        -11    1    3    3    0    0 -0.44958967672E+02  0.21501596302E+02  0.36498816623E+01  0.49969481226E+02  0.51100000000E-03 0. -1.
         23    2    1    0    0    0 -0.20347264128E+02 -0.17425020007E+02  0.98879635940E+01  0.96444539860E+02  0.92120220175E+02 0.  0.
         11    1    3    3    0    0  0.24611703543E+02 -0.38926616309E+02  0.62380819318E+01  0.46475058634E+02  0.51100000000E-03 0.  1.
         22    1    1    0    0    0  0.20347264128E+02  0.17425020007E+02 -0.98879635940E+01  0.28555460140E+02  0.00000000000E+00 0.  1.
</event>
<event>
 5    1  0.8752570E-005  0.9118800E+02  0.7818608E-02  0.1130116E+00
         25   -1    0    0    0    0  0.00000000000E+00  0.00000000000E+00  0.99999998245E-14  0.12500000000E+03  0.12500000000E+03 0.  0.
        -11    1    3    3    0    0 -0.34535602371E+02 -0.12303735323E+02 -0.35857018590E+02  0.51281726925E+02  0.51100000000E-03 0.  1.
         23    2    1    0    0    0 -0.68775905163E+00  0.15953862855E+02 -0.22606374835E+02  0.97322447079E+02  0.93303867925E+02 0.  0.
         11    1    3    3    0    0  0.33847843319E+02  0.28257598178E+02  0.13250643754E+02  0.46040720154E+02  0.51100000000E-03 0. -1.
         22    1    1    0    0    0  0.68775905163E+00 -0.15953862855E+02  0.22606374835E+02  0.27677552921E+02  0.00000000000E+00 0.  1.
</event>
<event>
 5    1  0.8752570E-005  0.9118800E+02  0.7818608E-02  0.1130116E+00
         25   -1    0    0    0    0  0.00000000000E+00  0.00000000000E+00  0.99999998245E-14  0.12500000000E+03  0.12500000000E+03 0.  0.
        -11    1    3    3    0    0 -0.29354456638E+02  0.29018128560E+02  0.15064035082E+02  0.43939288375E+02  0.51100000000E-03 0. -1.
         23    2    1    0    0    0 -0.21610402197E+02 -0.10552202330E+02 -0.17078186984E+02  0.95503848932E+02  0.90834807387E+02 0.  0.
         11    1    3    3    0    0  0.77440544408E+01 -0.39570330890E+02 -0.32142222066E+02  0.51564560558E+02  0.51100000000E-03 0.  1.
         22    1    1    0    0    0  0.21610402197E+02  0.10552202330E+02  0.17078186984E+02  0.29496151068E+02  0.00000000000E+00 0. -1.
</event>
<event>
 5    1  0.8752570E-005  0.9118800E+02  0.7818608E-02  0.1130116E+00
         25   -1    0    0    0    0  0.00000000000E+00  0.00000000000E+00  0.99999998245E-14  0.12500000000E+03  0.12500000000E+03 0.  0.
        -11    1    3    3    0    0 -0.40037758400E+02 -0.21025300150E+02  0.42318437289E+02  0.61934929393E+02  0.51100000000E-03 0.  1.
         23    2    1    0    0    0 -0.20905603175E+02 -0.42970542259E+01  0.19589129617E+02  0.96030310352E+02  0.91556417514E+02 0.  0.
         11    1    3    3    0    0  0.19132155225E+02  0.16728245924E+02 -0.22729307672E+02  0.34095380959E+02  0.51100000000E-03 0. -1.
         22    1    1    0    0    0  0.20905603175E+02  0.42970542259E+01 -0.19589129617E+02  0.28969689648E+02  0.00000000000E+00 0.  1.
</event>
<event>
 5    1  0.8752570E-005  0.9118800E+02  0.7818608E-02  0.1130116E+00
         25   -1    0    0    0    0  0.00000000000E+00  0.00000000000E+00  0.99999998245E-14  0.12500000000E+03  0.12500000000E+03 0.  0.
        -11    1    3    3    0    0 -0.19334470676E+02 -0.31158841747E+01  0.42681619431E+02  0.46960101448E+02  0.51100000000E-03 0.  1.
         23    2    1    0    0    0  0.17425104195E+02  0.16182431474E+02  0.16798243597E+02  0.95884946633E+02  0.91357740002E+02 0.  0.
         11    1    3    3    0    0  0.36759574871E+02  0.19298315649E+02 -0.25883375834E+02  0.48924845185E+02  0.51100000000E-03 0. -1.
         22    1    1    0    0    0 -0.17425104195E+02 -0.16182431474E+02 -0.16798243597E+02  0.29115053367E+02  0.00000000000E+00 0. -1.
</event>
<event>
 5    1  0.8752570E-005  0.9118800E+02  0.7818608E-02  0.1130116E+00
         25   -1    0    0    0    0  0.00000000000E+00  0.00000000000E+00  0.99999998245E-14  0.12500000000E+03  0.12500000000E+03 0.  0.
        -11    1    3    3    0    0  0.62326276094E+01 -0.28689086696E+02 -0.47935234663E+02  0.56211173843E+02  0.51100000000E-03 0.  1.
         23    2    1    0    0    0  0.42253227146E+01  0.63517691888E+01 -0.26695687933E+02  0.97235668961E+02  0.93187538009E+02 0.  0.
         11    1    3    3    0    0 -0.20073048948E+01  0.35040855885E+02  0.21239546730E+02  0.41024495118E+02  0.51100000000E-03 0. -1.
         22    1    1    0    0    0 -0.42253227146E+01 -0.63517691888E+01  0.26695687933E+02  0.27764331039E+02  0.00000000000E+00 0.  1.
</event>
<event>
 5    1  0.8752570E-005  0.9118800E+02  0.7818608E-02  0.1130116E+00
         25   -1    0    0    0    0  0.00000000000E+00  0.00000000000E+00  0.99999998245E-14  0.12500000000E+03  0.12500000000E+03 0.  0.
        -11    1    3    3    0    0 -0.28663822811E+02  0.61745062277E+01 -0.20338756523E+02  0.35684790632E+02  0.51100000000E-03 0. -1.
         23    2    1    0    0    0  0.22644958052E+02  0.19738339499E+02  0.50870740831E+01  0.94532402555E+02  0.89487991589E+02 0.  0.
         11    1    3    3    0    0  0.51308780863E+02  0.13563833272E+02  0.25425830607E+02  0.58847611922E+02  0.51100000000E-03 0.  1.
         22    1    1    0    0    0 -0.22644958052E+02 -0.19738339499E+02 -0.50870740831E+01  0.30467597445E+02  0.00000000000E+00 0.  1.
</event>
<event>
 5    1  0.8752570E-005  0.9118800E+02  0.7818608E-02  0.1130116E+00
         25   -1    0    0    0    0  0.00000000000E+00  0.00000000000E+00  0.99999998245E-14  0.12500000000E+03  0.12500000000E+03 0.  0.
        -11    1    3    3    0    0 -0.25161484911E+02  0.18928757211E+02  0.44048555354E+02  0.54144929601E+02  0.51100000000E-03 0. -1.
         23    2    1    0    0    0 -0.15508450345E+02  0.27135827783E+02  0.74571953963E+01  0.92867851850E+02  0.87131871106E+02 0.  0.
         11    1    3    3    0    0  0.96530345660E+01  0.82070705714E+01 -0.36591359957E+02  0.38722922249E+02  0.51100000000E-03 0.  1.
         22    1    1    0    0    0  0.15508450345E+02 -0.27135827783E+02 -0.74571953963E+01  0.32132148150E+02  0.00000000000E+00 0. -1.
</event>
<event>
 5    1  0.8752570E-005  0.9118800E+02  0.7818608E-02  0.1130116E+00
         25   -1    0    0    0    0  0.00000000000E+00  0.00000000000E+00  0.99999998245E-14  0.12500000000E+03  0.12500000000E+03 0.  0.
        -11    1    3    3    0    0 -0.28675800388E+02  0.22990034611E+02  0.18805513431E+01  0.36801897953E+02  0.51100000000E-03 0.  1.
         23    2    1    0    0    0 -0.16318041256E+02 -0.23892742354E+02 -0.19828385742E+02  0.89924274937E+02  0.82801381233E+02 0.  0.
         11    1    3    3    0    0  0.12357759133E+02 -0.46882776965E+02 -0.21708937085E+02  0.53122376983E+02  0.51100000000E-03 0. -1.
         22    1    1    0    0    0  0.16318041256E+02  0.23892742354E+02  0.19828385742E+02  0.35075725063E+02  0.00000000000E+00 0. -1.
</event>
<event>
 5    1  0.8752570E-005  0.9118800E+02  0.7818608E-02  0.1130116E+00
         25   -1    0    0    0    0  0.00000000000E+00  0.00000000000E+00  0.99999998245E-14  0.12500000000E+03  0.12500000000E+03 0.  0.
        -11    1    3    3    0    0 -0.22569915755E+02  0.34603856951E+02 -0.17642036028E+02  0.44922927872E+02  0.51100000000E-03 0.  1.
         23    2    1    0    0    0  0.22460806421E+02  0.11591945080E+02 -0.15101416297E+02  0.95556600230E+02  0.90907370755E+02 0.  0.
         11    1    3    3    0    0  0.45030722176E+02 -0.23011911871E+02  0.25406197309E+01  0.50633672359E+02  0.51100000000E-03 0. -1.
         22    1    1    0    0    0 -0.22460806421E+02 -0.11591945080E+02  0.15101416297E+02  0.29443399770E+02  0.00000000000E+00 0. -1.
</event>
<event>
 5    1  0.8752570E-005  0.9118800E+02  0.7818608E-02  0.1130116E+00
         25   -1    0    0    0    0  0.00000000000E+00  0.00000000000E+00  0.99999998245E-14  0.12500000000E+03  0.12500000000E+03 0.  0.
        -11    1    3    3    0    0  0.45821766662E+02  0.19429747693E+02 -0.10530767319E+02  0.50872845959E+02  0.51100000000E-03 0.  1.
         23    2    1    0    0    0  0.97900326403E+00  0.20700352356E+02 -0.19412563106E+02  0.96604390456E+02  0.92336870284E+02 0.  0.
         11    1    3    3    0    0 -0.44842763398E+02  0.12706046632E+01 -0.88817957871E+01  0.45731544496E+02  0.51100000000E-03 0. -1.
         22    1    1    0    0    0 -0.97900326403E+00 -0.20700352356E+02  0.19412563106E+02  0.28395609544E+02  0.00000000000E+00 0. -1.
</event>
<event>
 5    1  0.8752570E-005  0.9118800E+02  0.7818608E-02  0.1130116E+00
         25   -1    0    0    0    0  0.00000000000E+00  0.00000000000E+00  0.99999998245E-14  0.12500000000E+03  0.12500000000E+03 0.  0.
        -11    1    3    3    0    0 -0.39766317624E+02 -0.15050157115E+02  0.12563889176E+01  0.42537580560E+02  0.51100000000E-03 0.  1.
         23    2    1    0    0    0 -0.62211154261E+00  0.14369015404E+02  0.24383152646E+02  0.96691101056E+02  0.92454179268E+02 0.  0.
         11    1    3    3    0    0  0.39144206081E+02  0.29419172518E+02  0.23126763728E+02  0.54153520497E+02  0.51100000000E-03 0. -1.
         22    1    1    0    0    0  0.62211154261E+00 -0.14369015404E+02 -0.24383152646E+02  0.28308898944E+02  0.00000000000E+00 0. -1.
</event>
<event>
 5    1  0.8752570E-005  0.9118800E+02  0.7818608E-02  0.1130116E+00
         25   -1    0    0    0    0  0.00000000000E+00  0.00000000000E+00  0.99999998245E-14  0.12500000000E+03  0.12500000000E+03 0.  0.
        -11    1    3    3    0    0  0.52503038115E+02 -0.58622805609E+01 -0.12478207562E+02  0.54282971629E+02  0.51100000000E-03 0. -1.
         23    2    1    0    0    0  0.20486109077E+02 -0.18378378641E+02  0.10402651767E+02  0.95577888751E+02  0.90936638313E+02 0.  0.
         11    1    3    3    0    0 -0.32016929038E+02 -0.12516098080E+02  0.22880859329E+02  0.41294917121E+02  0.51100000000E-03 0.  1.
         22    1    1    0    0    0 -0.20486109077E+02  0.18378378641E+02 -0.10402651767E+02  0.29422111249E+02  0.00000000000E+00 0. -1.
</event>
<event>
 5    1  0.8752570E-005  0.9118800E+02  0.7818608E-02  0.1130116E+00
         25   -1    0    0    0    0  0.00000000000E+00  0.00000000000E+00  0.99999998245E-14  0.12500000000E+03  0.12500000000E+03 0.  0.
        -11    1    3    3    0    0  0.12666345932E+02  0.30881432429E+02  0.11975001193E+02  0.35461244225E+02  0.51100000000E-03 0. -1.
         23    2    1    0    0    0  0.33914907026E+01 -0.27735076159E+02 -0.36277841182E+01  0.96823813665E+02  0.92633435736E+02 0.  0.
         11    1    3    3    0    0 -0.92748552298E+01 -0.58616508588E+02 -0.15602785311E+02  0.61362569441E+02  0.51100000000E-03 0.  1.
         22    1    1    0    0    0 -0.33914907026E+01  0.27735076159E+02  0.36277841182E+01  0.28176186335E+02  0.00000000000E+00 0.  1.
</event>
<event>
 5    1  0.8752570E-005  0.9118800E+02  0.7818608E-02  0.1130116E+00
         25   -1    0    0    0    0  0.00000000000E+00  0.00000000000E+00  0.99999998245E-14  0.12500000000E+03  0.12500000000E+03 0.  0.
        -11    1    3    3    0    0 -0.27792820703E+02 -0.64711565545E+01 -0.36664102420E+02  0.46460447224E+02  0.51100000000E-03 0.  1.
         23    2    1    0    0    0 -0.78307480966E+01 -0.29133914969E+02  0.10956962027E+01  0.94812151992E+02  0.89877906062E+02 0.  0.
         11    1    3    3    0    0  0.19962072606E+02 -0.22662758414E+02  0.37759798622E+02  0.48351704768E+02  0.51100000000E-03 0. -1.
         22    1    1    0    0    0  0.78307480966E+01  0.29133914969E+02 -0.10956962027E+01  0.30187848008E+02  0.00000000000E+00 0. -1.
</event>
<event>
 5    1  0.8752570E-005  0.9118800E+02  0.7818608E-02  0.1130116E+00
         25   -1    0    0    0    0  0.00000000000E+00  0.00000000000E+00  0.99999998245E-14  0.12500000000E+03  0.12500000000E+03 0.  0.
        -11    1    3    3    0    0 -0.24379565482E+02  0.31152482767E+02 -0.78859776618E+01  0.40336448029E+02  0.51100000000E-03 0. -1.
         23    2    1    0    0    0 -0.18824920681E+02 -0.19497963473E+02  0.12419392703E+02  0.95187426590E+02  0.90398322149E+02 0.  0.
         11    1    3    3    0    0  0.55546448008E+01 -0.50650446240E+02  0.20305370365E+02  0.54850978561E+02  0.51100000000E-03 0.  1.
         22    1    1    0    0    0  0.18824920681E+02  0.19497963473E+02 -0.12419392703E+02  0.29812573410E+02  0.00000000000E+00 0.  1.
</event>
<event>
 5    1  0.8752570E-005  0.9118800E+02  0.7818608E-02  0.1130116E+00
         25   -1    0    0    0    0  0.00000000000E+00  0.00000000000E+00  0.99999998245E-14  0.12500000000E+03  0.12500000000E+03 0.  0.
        -11    1    3    3    0    0 -0.56578984805E+02 -0.88739842954E+01  0.51161699192E+01  0.57498733149E+02  0.51100000000E-03 0. -1.
         23    2    1    0    0    0 -0.21050126717E+02 -0.20852275468E+02 -0.21393857574E+00  0.95369424631E+02  0.90649634074E+02 0.  0.
         11    1    3    3    0    0  0.35528858088E+02 -0.11978291173E+02 -0.53301084949E+01  0.37870691482E+02  0.51100000000E-03 0.  1.
         22    1    1    0    0    0  0.21050126717E+02  0.20852275468E+02  0.21393857574E+00  0.29630575369E+02  0.00000000000E+00 0. -1.
</event>
<event>
 5    1  0.8752570E-005  0.9118800E+02  0.7818608E-02  0.1130116E+00
         25   -1    0    0    0    0  0.00000000000E+00  0.00000000000E+00  0.99999998245E-14  0.12500000000E+03  0.12500000000E+03 0.  0.
        -11    1    3    3    0    0  0.36141067058E+02 -0.18460021059E+01  0.50389884576E+02  0.62038092489E+02  0.51100000000E-03 0.  1.
         23    2    1    0    0    0  0.16140725064E+02 -0.48667666601E+01  0.28842706329E+02  0.91591765511E+02  0.85281541834E+02 0.  0.
         11    1    3    3    0    0 -0.20000341994E+02 -0.30207645542E+01 -0.21547178247E+02  0.29553673021E+02  0.51100000000E-03 0. -1.
         22    1    1    0    0    0 -0.16140725064E+02  0.48667666601E+01 -0.28842706329E+02  0.33408234489E+02  0.00000000000E+00 0.  1.
</event>
<event>
 5    1  0.8752570E-005  0.9118800E+02  0.7818608E-02  0.1130116E+00
         25   -1    0    0    0    0  0.00000000000E+00  0.00000000000E+00  0.99999998245E-14  0.12500000000E+03  0.12500000000E+03 0.  0.
        -11    1    3    3    0    0 -0.21875923476E+02 -0.10408838749E+02 -0.52918851769E+02  0.58200556912E+02  0.51100000000E-03 0. -1.
         23    2    1    0    0    0 -0.23806363898E+02  0.19420393852E+01 -0.18595682021E+02  0.94729323284E+02  0.89762635996E+02 0.  0.
         11    1    3    3    0    0 -0.19304404220E+01  0.12350878134E+02  0.34323169748E+02  0.36528766373E+02  0.51100000000E-03 0.  1.
         22    1    1    0    0    0  0.23806363898E+02 -0.19420393852E+01  0.18595682021E+02  0.30270676716E+02  0.00000000000E+00 0. -1.
</event>
<event>
 5    1  0.8752570E-005  0.9118800E+02  0.7818608E-02  0.1130116E+00
         25   -1    0    0    0    0  0.00000000000E+00  0.00000000000E+00  0.99999998245E-14  0.12500000000E+03  0.12500000000E+03 0.  0.
        -11    1    3    3    0    0 -0.95084071685E+01 -0.20797679860E+02 -0.54259232502E+02  0.58881385908E+02  0.51100000000E-03 0. -1.
         23    2    1    0    0    0  0.10745668586E+02 -0.10169514806E+02 -0.23870741128E+02  0.96916184256E+02  0.92757997305E+02 0.  0.
         11    1    3    3    0    0  0.20254075755E+02  0.10628165054E+02  0.30388491375E+02  0.38034798348E+02  0.51100000000E-03 0.  1.
         22    1    1    0    0    0 -0.10745668586E+02  0.10169514806E+02  0.23870741128E+02  0.28083815744E+02  0.00000000000E+00 0. -1.
</event>
<event>
 5    1  0.8752570E-005  0.9118800E+02  0.7818608E-02  0.1130116E+00
         25   -1    0    0    0    0  0.00000000000E+00  0.00000000000E+00  0.99999998245E-14  0.12500000000E+03  0.12500000000E+03 0.  0.
        -11    1    3    3    0    0  0.22508111554E+02  0.24031818298E+02  0.10587029053E+02  0.34586537278E+02  0.51100000000E-03 0.  1.
         23    2    1    0    0    0 -0.27634257182E+02 -0.25737005931E+00 -0.12212280049E+02  0.94786456790E+02  0.89842162694E+02 0.  0.
         11    1    3    3    0    0 -0.50142368736E+02 -0.24289188357E+02 -0.22799309101E+02  0.60199919512E+02  0.51100000000E-03 0. -1.
         22    1    1    0    0    0  0.27634257182E+02  0.25737005931E+00  0.12212280049E+02  0.30213543210E+02  0.00000000000E+00 0. -1.
</event>
<event>
 5    1  0.8752570E-005  0.9118800E+02  0.7818608E-02  0.1130116E+00
         25   -1    0    0    0    0  0.00000000000E+00  0.00000000000E+00  0.99999998245E-14  0.12500000000E+03  0.12500000000E+03 0.  0.
        -11    1    3    3    0    0 -0.38174280161E+02 -0.27959614283E+02 -0.42455885141E+01  0.47508322626E+02  0.51100000000E-03 0.  1.
         23    2    1    0    0    0 -0.21119945896E+02  0.13651388763E+02  0.14206288649E+02  0.96116939792E+02  0.91674614523E+02 0.  0.
         11    1    3    3    0    0  0.17054334265E+02  0.41611003046E+02  0.18451877163E+02  0.48608617166E+02  0.51100000000E-03 0. -1.
         22    1    1    0    0    0  0.21119945896E+02 -0.13651388763E+02 -0.14206288649E+02  0.28883060208E+02  0.00000000000E+00 0. -1.
</event>
<event>
 5    1  0.8752570E-005  0.9118800E+02  0.7818608E-02  0.1130116E+00
         25   -1    0    0    0    0  0.00000000000E+00  0.00000000000E+00  0.99999998245E-14  0.12500000000E+03  0.12500000000E+03 0.  0.
        -11    1    3    3    0    0  0.22756945535E+02  0.43603334312E+02  0.28801454737E+02  0.56996957185E+02  0.51100000000E-03 0.  1.
         23    2    1    0    0    0  0.14623969835E+00  0.10241936383E+02  0.25601455675E+02  0.97425497654E+02  0.93441823685E+02 0.  0.
         11    1    3    3    0    0 -0.22610705836E+02 -0.33361397929E+02 -0.31999990612E+01  0.40428540469E+02  0.51100000000E-03 0. -1.
         22    1    1    0    0    0 -0.14623969835E+00 -0.10241936383E+02 -0.25601455675E+02  0.27574502346E+02  0.00000000000E+00 0.  1.
</event>
<event>
 5    1  0.8752570E-005  0.9118800E+02  0.7818608E-02  0.1130116E+00
         25   -1    0    0    0    0  0.00000000000E+00  0.00000000000E+00  0.99999998245E-14  0.12500000000E+03  0.12500000000E+03 0.  0.
        -11    1    3    3    0    0  0.18436963957E+02  0.29425391204E+02 -0.43478781314E+01  0.34995418729E+02  0.51100000000E-03 0. -1.
         23    2    1    0    0    0 -0.26358592345E+02 -0.11586661431E+02 -0.52306523755E+01  0.95735929234E+02  0.91153619283E+02 0.  0.
         11    1    3    3    0    0 -0.44795556303E+02 -0.41012052635E+02 -0.88277424408E+00  0.60740510505E+02  0.51100000000E-03 0.  1.
         22    1    1    0    0    0  0.26358592345E+02  0.11586661431E+02  0.52306523755E+01  0.29264070766E+02  0.00000000000E+00 0.  1.
</event>
<event>
 5    1  0.8752570E-005  0.9118800E+02  0.7818608E-02  0.1130116E+00
         25   -1    0    0    0    0  0.00000000000E+00  0.00000000000E+00  0.99999998245E-14  0.12500000000E+03  0.12500000000E+03 0.  0.
        -11    1    3    3    0    0 -0.31312771191E+02  0.11976862930E+02  0.23587354301E+02  0.40991440185E+02  0.51100000000E-03 0. -1.
         23    2    1    0    0    0  0.42908705326E+01  0.21606545775E+02 -0.17981653788E+02  0.96564208061E+02  0.92282457787E+02 0.  0.
         11    1    3    3    0    0  0.35603641723E+02  0.96296828449E+01 -0.41569008088E+02  0.55572767876E+02  0.51100000000E-03 0.  1.
         22    1    1    0    0    0 -0.42908705326E+01 -0.21606545775E+02  0.17981653788E+02  0.28435791939E+02  0.00000000000E+00 0.  1.
</event>
<event>
 5    1  0.8752570E-005  0.9118800E+02  0.7818608E-02  0.1130116E+00
         25   -1    0    0    0    0  0.00000000000E+00  0.00000000000E+00  0.99999998245E-14  0.12500000000E+03  0.12500000000E+03 0.  0.
        -11    1    3    3    0    0 -0.40714822296E+02  0.21253450234E+02 -0.38640393112E+01  0.46090527242E+02  0.51100000000E-03 0.  1.
         23    2    1    0    0    0 -0.81725623814E+00  0.12193143140E+02 -0.28598789253E+02  0.93899656045E+02  0.88599740470E+02 0.  0.
         11    1    3    3    0    0  0.39897566057E+02 -0.90603070942E+01 -0.24734749941E+02  0.47809128803E+02  0.51100000000E-03 0. -1.
         22    1    1    0    0    0  0.81725623814E+00 -0.12193143140E+02  0.28598789253E+02  0.31100343955E+02  0.00000000000E+00 0. -1.
</event>
<event>
 5    1  0.8752570E-005  0.9118800E+02  0.7818608E-02  0.1130116E+00
         25   -1    0    0    0    0  0.00000000000E+00  0.00000000000E+00  0.99999998245E-14  0.12500000000E+03  0.12500000000E+03 0.  0.
        -11    1    3    3    0    0 -0.43956592067E+02  0.14147693890E+02 -0.10644304829E+02  0.47388188972E+02  0.51100000000E-03 0. -1.
         23    2    1    0    0    0 -0.15471062409E+02 -0.22883820070E+02  0.55305718197E+01  0.96828911670E+02  0.92640314753E+02 0.  0.
         11    1    3    3    0    0  0.28485529657E+02 -0.37031513960E+02  0.16174876649E+02  0.49440722698E+02  0.51100000000E-03 0.  1.
         22    1    1    0    0    0  0.15471062409E+02  0.22883820070E+02 -0.55305718197E+01  0.28171088330E+02  0.00000000000E+00 0.  1.
</event>
<event>
 5    1  0.8752570E-005  0.9118800E+02  0.7818608E-02  0.1130116E+00
         25   -1    0    0    0    0  0.00000000000E+00  0.00000000000E+00  0.99999998245E-14  0.12500000000E+03  0.12500000000E+03 0.  0.
        -11    1    3    3    0    0 -0.12947274763E+02 -0.21891529182E+02  0.21255958743E+02  0.33146444094E+02  0.51100000000E-03 0. -1.
         23    2    1    0    0    0  0.15814122168E+02  0.23648544793E+02 -0.92969038434E+01  0.95070540402E+02  0.90236550801E+02 0.  0.
         11    1    3    3    0    0  0.28761396931E+02  0.45540073975E+02 -0.30552862586E+02  0.61924096308E+02  0.51100000000E-03 0.  1.
         22    1    1    0    0    0 -0.15814122168E+02 -0.23648544793E+02  0.92969038434E+01  0.29929459598E+02  0.00000000000E+00 0.  1.
</event>
<event>
 5    1  0.8752570E-005  0.9118800E+02  0.7818608E-02  0.1130116E+00
         25   -1    0    0    0    0  0.00000000000E+00  0.00000000000E+00  0.99999998245E-14  0.12500000000E+03  0.12500000000E+03 0.  0.
        -11    1    3    3    0    0 -0.44746094379E+02 -0.21132323767E+02  0.33134985629E+02  0.59554305830E+02  0.51100000000E-03 0. -1.
         23    2    1    0    0    0 -0.27732434281E+02 -0.71651000877E+01  0.39864101676E+01  0.96080836173E+02  0.91625373360E+02 0.  0.
         11    1    3    3    0    0  0.17013660098E+02  0.13967223679E+02 -0.29148575462E+02  0.36526530344E+02  0.51100000000E-03 0.  1.
         22    1    1    0    0    0  0.27732434281E+02  0.71651000877E+01 -0.39864101676E+01  0.28919163827E+02  0.00000000000E+00 0. -1.
</event>
<event>
 5    1  0.8752570E-005  0.9118800E+02  0.7818608E-02  0.1130116E+00
         25   -1    0    0    0    0  0.00000000000E+00  0.00000000000E+00  0.99999998245E-14  0.12500000000E+03  0.12500000000E+03 0.  0.
        -11    1    3    3    0    0 -0.49409324524E+02  0.35475861371E+02  0.10644207882E+02  0.61750443332E+02  0.51100000000E-03 0. -1.
         23    2    1    0    0    0 -0.25290048604E+02  0.12084853002E+02  0.80403035819E-01  0.96970788539E+02  0.92831552474E+02 0.  0.
         11    1    3    3    0    0  0.24119275920E+02 -0.23391008369E+02 -0.10563804846E+02  0.35220345207E+02  0.51100000000E-03 0.  1.
         22    1    1    0    0    0  0.25290048604E+02 -0.12084853002E+02 -0.80403035819E-01  0.28029211461E+02  0.00000000000E+00 0. -1.
</event>
<event>
 5    1  0.8752570E-005  0.9118800E+02  0.7818608E-02  0.1130116E+00
         25   -1    0    0    0    0  0.00000000000E+00  0.00000000000E+00  0.99999998245E-14  0.12500000000E+03  0.12500000000E+03 0.  0.
        -11    1    3    3    0    0  0.27747535351E+02  0.21515697573E+02  0.33130401159E+02  0.48274987741E+02  0.51100000000E-03 0.  1.
         23    2    1    0    0    0 -0.11786680147E+02  0.25734703160E+02  0.70324002719E+01  0.95834002173E+02  0.91288008760E+02 0.  0.
         11    1    3    3    0    0 -0.39534215499E+02  0.42190055871E+01 -0.26098000887E+02  0.47559014433E+02  0.51100000000E-03 0. -1.
         22    1    1    0    0    0  0.11786680147E+02 -0.25734703160E+02 -0.70324002719E+01  0.29165997827E+02  0.00000000000E+00 0. -1.
</event>
<event>
 5    1  0.8752570E-005  0.9118800E+02  0.7818608E-02  0.1130116E+00
         25   -1    0    0    0    0  0.00000000000E+00  0.00000000000E+00  0.99999998245E-14  0.12500000000E+03  0.12500000000E+03 0.  0.
        -11    1    3    3    0    0  0.64553881666E+01  0.40477868074E+02  0.33830746307E+02  0.53147429252E+02  0.51100000000E-03 0.  1.
         23    2    1    0    0    0  0.24762207308E+02  0.91180141932E+01  0.90746885797E+01  0.97095608474E+02  0.92999473754E+02 0.  0.
         11    1    3    3    0    0  0.18306819142E+02 -0.31359853881E+02 -0.24756057727E+02  0.43948179222E+02  0.51100000000E-03 0. -1.
         22    1    1    0    0    0 -0.24762207308E+02 -0.91180141932E+01 -0.90746885797E+01  0.27904391526E+02  0.00000000000E+00 0.  1.
</event>
<event>
 5    1  0.8752570E-005  0.9118800E+02  0.7818608E-02  0.1130116E+00
         25   -1    0    0    0    0  0.00000000000E+00  0.00000000000E+00  0.99999998245E-14  0.12500000000E+03  0.12500000000E+03 0.  0.
        -11    1    3    3    0    0  0.25500986675E+02 -0.14371953133E+02  0.26190095901E+02  0.39278168005E+02  0.51100000000E-03 0.  1.
         23    2    1    0    0    0  0.13661610224E+02 -0.46775139274E+00 -0.26575703210E+02  0.95114779801E+02  0.90297812543E+02 0.  0.
         11    1    3    3    0    0 -0.11839376451E+02  0.13904201740E+02 -0.52765799111E+02  0.55836611796E+02  0.51100000000E-03 0. -1.
         22    1    1    0    0    0 -0.13661610224E+02  0.46775139274E+00  0.26575703210E+02  0.29885220199E+02  0.00000000000E+00 0. -1.
</event>
<event>
 5    1  0.8752570E-005  0.9118800E+02  0.7818608E-02  0.1130116E+00
         25   -1    0    0    0    0  0.00000000000E+00  0.00000000000E+00  0.99999998245E-14  0.12500000000E+03  0.12500000000E+03 0.  0.
        -11    1    3    3    0    0  0.48050711496E+02  0.95626084495E+01  0.44477722370E+01  0.49194481741E+02  0.51100000000E-03 0. -1.
         23    2    1    0    0    0  0.91861454980E+01  0.18365282009E+02 -0.20318100772E+02  0.96112388964E+02  0.91668409177E+02 0.  0.
         11    1    3    3    0    0 -0.38864565998E+02  0.88026735591E+01 -0.24765873009E+02  0.46917907223E+02  0.51100000000E-03 0.  1.
         22    1    1    0    0    0 -0.91861454980E+01 -0.18365282009E+02  0.20318100772E+02  0.28887611036E+02  0.00000000000E+00 0. -1.
</event>
<event>
 5    1  0.8752570E-005  0.9118800E+02  0.7818608E-02  0.1130116E+00
         25   -1    0    0    0    0  0.00000000000E+00  0.00000000000E+00  0.99999998245E-14  0.12500000000E+03  0.12500000000E+03 0.  0.
        -11    1    3    3    0    0 -0.99199128287E+01 -0.81016145279E+01 -0.34598176187E+02  0.36892744872E+02  0.51100000000E-03 0. -1.
         23    2    1    0    0    0 -0.16206510667E+02 -0.24743969293E+02  0.16591391690E+02  0.91085559379E+02  0.84536322636E+02 0.  0.
         11    1    3    3    0    0 -0.62865978386E+01 -0.16642354765E+02  0.51189567877E+02  0.54192814507E+02  0.51100000000E-03 0.  1.
         22    1    1    0    0    0  0.16206510667E+02  0.24743969293E+02 -0.16591391690E+02  0.33914440621E+02  0.00000000000E+00 0.  1.
</event>
<event>
 5    1  0.8752570E-005  0.9118800E+02  0.7818608E-02  0.1130116E+00
         25   -1    0    0    0    0  0.00000000000E+00  0.00000000000E+00  0.99999998245E-14  0.12500000000E+03  0.12500000000E+03 0.  0.
        -11    1    3    3    0    0 -0.17487028908E+02 -0.29215361465E+02 -0.26870501763E+02  0.43374616895E+02  0.51100000000E-03 0.  1.
         23    2    1    0    0    0  0.15605098106E+02 -0.20665615718E+02  0.13111238112E+02  0.95974298893E+02  0.91479914317E+02 0.  0.
         11    1    3    3    0    0  0.33092127014E+02  0.85497457472E+01  0.39981739875E+02  0.52599681998E+02  0.51100000000E-03 0. -1.
         22    1    1    0    0    0 -0.15605098106E+02  0.20665615718E+02 -0.13111238112E+02  0.29025701107E+02  0.00000000000E+00 0. -1.
</event>
<event>
 5    1  0.8752570E-005  0.9118800E+02  0.7818608E-02  0.1130116E+00
         25   -1    0    0    0    0  0.00000000000E+00  0.00000000000E+00  0.99999998245E-14  0.12500000000E+03  0.12500000000E+03 0.  0.
        -11    1    3    3    0    0 -0.48836375824E+02 -0.88418516197E+01  0.31284544301E+02  0.58667645735E+02  0.51100000000E-03 0. -1.
         23    2    1    0    0    0 -0.27598126901E+02 -0.68106832332E+01 -0.47448561563E-01  0.96573880569E+02  0.92295558627E+02 0.  0.
         11    1    3    3    0    0  0.21238248924E+02  0.20311683865E+01 -0.31331992862E+02  0.37906234835E+02  0.51100000000E-03 0.  1.
         22    1    1    0    0    0  0.27598126901E+02  0.68106832332E+01  0.47448561563E-01  0.28426119431E+02  0.00000000000E+00 0. -1.
</event>
<event>
 5    1  0.8752570E-005  0.9118800E+02  0.7818608E-02  0.1130116E+00
         25   -1    0    0    0    0  0.00000000000E+00  0.00000000000E+00  0.99999998245E-14  0.12500000000E+03  0.12500000000E+03 0.  0.
        -11    1    3    3    0    0 -0.36504942236E+02  0.23854347381E+02 -0.41695774292E+02  0.60333890068E+02  0.51100000000E-03 0. -1.
         23    2    1    0    0    0 -0.24198192610E+02  0.19489489744E+01 -0.19438890868E+02  0.93899816626E+02  0.88599967024E+02 0.  0.
         11    1    3    3    0    0  0.12306749626E+02 -0.21905398407E+02  0.22256883424E+02  0.33565926559E+02  0.51100000000E-03 0.  1.
         22    1    1    0    0    0  0.24198192610E+02 -0.19489489744E+01  0.19438890868E+02  0.31100183374E+02  0.00000000000E+00 0. -1.
</event>
<event>
 5    1  0.8752570E-005  0.9118800E+02  0.7818608E-02  0.1130116E+00
         25   -1    0    0    0    0  0.00000000000E+00  0.00000000000E+00  0.99999998245E-14  0.12500000000E+03  0.12500000000E+03 0.  0.
        -11    1    3    3    0    0  0.33344751264E+02  0.19057171893E+02  0.32554042879E+02  0.50346935809E+02  0.51100000000E-03 0.  1.
         23    2    1    0    0    0  0.28297628569E+02 -0.10479420594E+02 -0.31245327928E+00  0.94822663046E+02  0.89892523390E+02 0.  0.
         11    1    3    3    0    0 -0.50471226952E+01 -0.29536592487E+02 -0.32866496158E+02  0.44475727236E+02  0.51100000000E-03 0. -1.
         22    1    1    0    0    0 -0.28297628569E+02  0.10479420594E+02  0.31245327928E+00  0.30177336954E+02  0.00000000000E+00 0. -1.
</event>
<event>
 5    1  0.8752570E-005  0.9118800E+02  0.7818608E-02  0.1130116E+00
         25   -1    0    0    0    0  0.00000000000E+00  0.00000000000E+00  0.99999998245E-14  0.12500000000E+03  0.12500000000E+03 0.  0.
        -11    1    3    3    0    0 -0.15357191511E+02 -0.77929245917E+01 -0.38486838503E+02  0.42164081195E+02  0.51100000000E-03 0.  1.
         23    2    1    0    0    0  0.94337019463E+01  0.27253956916E+02 -0.72281594923E+01  0.95267539798E+02  0.90509032419E+02 0.  0.
         11    1    3    3    0    0  0.24790893457E+02  0.35046881508E+02  0.31258679011E+02  0.53103458603E+02  0.51100000000E-03 0. -1.
         22    1    1    0    0    0 -0.94337019463E+01 -0.27253956916E+02  0.72281594923E+01  0.29732460202E+02  0.00000000000E+00 0. -1.
</event>
<event>
 5    1  0.8752570E-005  0.9118800E+02  0.7818608E-02  0.1130116E+00
         25   -1    0    0    0    0  0.00000000000E+00  0.00000000000E+00  0.99999998245E-14  0.12500000000E+03  0.12500000000E+03 0.  0.
        -11    1    3    3    0    0 -0.28538031181E+02 -0.19129763549E+02 -0.22039167184E+02  0.40817789841E+02  0.51100000000E-03 0. -1.
         23    2    1    0    0    0 -0.10410920255E+02  0.28295784591E+02 -0.11866017719E+02  0.92598749056E+02  0.86744955266E+02 0.  0.
         11    1    3    3    0    0  0.18127110925E+02  0.47425548141E+02  0.10173149465E+02  0.51780959215E+02  0.51100000000E-03 0.  1.
         22    1    1    0    0    0  0.10410920255E+02 -0.28295784591E+02  0.11866017719E+02  0.32401250944E+02  0.00000000000E+00 0.  1.
</event>
<event>
 5    1  0.8752570E-005  0.9118800E+02  0.7818608E-02  0.1130116E+00
         25   -1    0    0    0    0  0.00000000000E+00  0.00000000000E+00  0.99999998245E-14  0.12500000000E+03  0.12500000000E+03 0.  0.
        -11    1    3    3    0    0 -0.45907651774E+01 -0.12431881877E+02  0.34483281202E+02  0.36942164185E+02  0.51100000000E-03 0. -1.
         23    2    1    0    0    0  0.20628536667E+02 -0.11689610715E+02 -0.18037308812E+02  0.95208591291E+02  0.90427583307E+02 0.  0.
         11    1    3    3    0    0  0.25219301845E+02  0.74227116113E+00 -0.52520590014E+02  0.58266427106E+02  0.51100000000E-03 0.  1.
         22    1    1    0    0    0 -0.20628536667E+02  0.11689610715E+02  0.18037308812E+02  0.29791408709E+02  0.00000000000E+00 0.  1.
</event>
<event>
 5    1  0.8752570E-005  0.9118800E+02  0.7818608E-02  0.1130116E+00
         25   -1    0    0    0    0  0.00000000000E+00  0.00000000000E+00  0.99999998245E-14  0.12500000000E+03  0.12500000000E+03 0.  0.
        -11    1    3    3    0    0  0.22963316115E+02  0.21390943164E+02 -0.35452086471E+02  0.47346982712E+02  0.51100000000E-03 0.  1.
         23    2    1    0    0    0 -0.74487106634E+01 -0.14168016526E+02 -0.25038827418E+02  0.95282011150E+02  0.90529016274E+02 0.  0.
         11    1    3    3    0    0 -0.30412026779E+02 -0.35558959690E+02  0.10413259053E+02  0.47935028438E+02  0.51100000000E-03 0. -1.
         22    1    1    0    0    0  0.74487106634E+01  0.14168016526E+02  0.25038827418E+02  0.29717988850E+02  0.00000000000E+00 0. -1.
</event>
<event>
 5    1  0.8752570E-005  0.9118800E+02  0.7818608E-02  0.1130116E+00
         25   -1    0    0    0    0  0.00000000000E+00  0.00000000000E+00  0.99999998245E-14  0.12500000000E+03  0.12500000000E+03 0.  0.
        -11    1    3    3    0    0  0.22674717520E+02 -0.29173201450E+02  0.16410290630E+02  0.40429149586E+02  0.51100000000E-03 0.  1.
         23    2    1    0    0    0  0.12594533961E+02  0.23663795145E+02  0.15095627003E+02  0.94235159013E+02  0.89071823565E+02 0.  0.
         11    1    3    3    0    0 -0.10080183559E+02  0.52836996594E+02 -0.13146636270E+01  0.53806009427E+02  0.51100000000E-03 0. -1.
         22    1    1    0    0    0 -0.12594533961E+02 -0.23663795145E+02 -0.15095627003E+02  0.30764840987E+02  0.00000000000E+00 0. -1.
</event>
<event>
 5    1  0.8752570E-005  0.9118800E+02  0.7818608E-02  0.1130116E+00
         25   -1    0    0    0    0  0.00000000000E+00  0.00000000000E+00  0.99999998245E-14  0.12500000000E+03  0.12500000000E+03 0.  0.
        -11    1    3    3    0    0  0.30343268677E+00  0.34072300001E+02 -0.30353490180E+01  0.34208581419E+02  0.51100000000E-03 0.  1.
         23    2    1    0    0    0  0.14960702497E+02 -0.14848730253E+02  0.24865263372E+02  0.92402626917E+02  0.86461880209E+02 0.  0.
         11    1    3    3    0    0  0.14657269811E+02 -0.48921030254E+02  0.27900612390E+02  0.58194045498E+02  0.51100000000E-03 0. -1.
         22    1    1    0    0    0 -0.14960702497E+02  0.14848730253E+02 -0.24865263372E+02  0.32597373083E+02  0.00000000000E+00 0. -1.
</event>
<event>
 5    1  0.8752570E-005  0.9118800E+02  0.7818608E-02  0.1130116E+00
         25   -1    0    0    0    0  0.00000000000E+00  0.00000000000E+00  0.99999998245E-14  0.12500000000E+03  0.12500000000E+03 0.  0.
        -11    1    3    3    0    0 -0.23996312214E+02  0.32077729342E+02 -0.23202388525E+01  0.40127138300E+02  0.51100000000E-03 0. -1.
         23    2    1    0    0    0  0.27109612563E+02  0.84231875260E+01  0.15084425736E+01  0.96571905086E+02  0.92292883104E+02 0.  0.
         11    1    3    3    0    0  0.51105924777E+02 -0.23654541816E+02  0.38286814261E+01  0.56444766786E+02  0.51100000000E-03 0.  1.
         22    1    1    0    0    0 -0.27109612563E+02 -0.84231875260E+01 -0.15084425736E+01  0.28428094914E+02  0.00000000000E+00 0.  1.
</event>
<event>
 5    1  0.8752570E-005  0.9118800E+02  0.7818608E-02  0.1130116E+00
         25   -1    0    0    0    0  0.00000000000E+00  0.00000000000E+00  0.99999998245E-14  0.12500000000E+03  0.12500000000E+03 0.  0.
        -11    1    3    3    0    0 -0.25061539440E+02 -0.15453043764E+02 -0.46147812613E+02  0.54740277035E+02  0.51100000000E-03 0. -1.
         23    2    1    0    0    0  0.12001699690E-01  0.10713063592E+02 -0.27479373450E+02  0.95506172836E+02  0.90838005312E+02 0.  0.
         11    1    3    3    0    0  0.25073541139E+02  0.26166107355E+02  0.18668439163E+02  0.40765895801E+02  0.51100000000E-03 0.  1.
         22    1    1    0    0    0 -0.12001699690E-01 -0.10713063592E+02  0.27479373450E+02  0.29493827164E+02  0.00000000000E+00 0. -1.
</event>
<event>
 5    1  0.8752570E-005  0.9118800E+02  0.7818608E-02  0.1130116E+00
         25   -1    0    0    0    0  0.00000000000E+00  0.00000000000E+00  0.99999998245E-14  0.12500000000E+03  0.12500000000E+03 0.  0.
        -11    1    3    3    0    0  0.44721654600E+02 -0.69472796520E+01  0.14914609547E+02  0.47652247198E+02  0.51100000000E-03 0.  1.
         23    2    1    0    0    0 -0.53278781804E+01 -0.99088942150E+01  0.23896575551E+02  0.98587525796E+02  0.94983585156E+02 0.  0.
         11    1    3    3    0    0 -0.50049532781E+02 -0.29616145630E+01  0.89819660040E+01  0.50935278599E+02  0.51100000000E-03 0. -1.
         22    1    1    0    0    0  0.53278781804E+01  0.99088942150E+01 -0.23896575551E+02  0.26412474204E+02  0.00000000000E+00 0. -1.
</event>
<event>
 5    1  0.8752570E-005  0.9118800E+02  0.7818608E-02  0.1130116E+00
         25   -1    0    0    0    0  0.00000000000E+00  0.00000000000E+00  0.99999998245E-14  0.12500000000E+03  0.12500000000E+03 0.  0.
        -11    1    3    3    0    0 -0.31937438000E+02 -0.33075302282E+02 -0.18509235598E+02  0.49563770738E+02  0.51100000000E-03 0.  1.
         23    2    1    0    0    0 -0.21216961975E+02 -0.11827771803E+02 -0.37710760489E+02  0.80142925665E+02  0.66413337638E+02 0.  0.
         11    1    3    3    0    0  0.10720476025E+02  0.21247530479E+02 -0.19201524891E+02  0.30579154927E+02  0.51100000000E-03 0. -1.
         22    1    1    0    0    0  0.21216961975E+02  0.11827771803E+02  0.37710760489E+02  0.44857074335E+02  0.00000000000E+00 0.  1.
</event>
<event>
 5    1  0.8752570E-005  0.9118800E+02  0.7818608E-02  0.1130116E+00
         25   -1    0    0    0    0  0.00000000000E+00  0.00000000000E+00  0.99999998245E-14  0.12500000000E+03  0.12500000000E+03 0.  0.
        -11    1    3    3    0    0 -0.20704155762E+02 -0.58191068510E+02 -0.71230493591E+01  0.62173952364E+02  0.51100000000E-03 0.  1.
         23    2    1    0    0    0 -0.66642787283E+01 -0.28209121423E+02 -0.11427928237E+00  0.96014137891E+02  0.91534334939E+02 0.  0.
         11    1    3    3    0    0  0.14039877034E+02  0.29981947087E+02  0.70087700767E+01  0.33840185527E+02  0.51100000000E-03 0. -1.
         22    1    1    0    0    0  0.66642787283E+01  0.28209121423E+02  0.11427928237E+00  0.28985862109E+02  0.00000000000E+00 0.  1.
</event>
<event>
 5    1  0.8752570E-005  0.9118800E+02  0.7818608E-02  0.1130116E+00
         25   -1    0    0    0    0  0.00000000000E+00  0.00000000000E+00  0.99999998245E-14  0.12500000000E+03  0.12500000000E+03 0.  0.
        -11    1    3    3    0    0  0.27940067401E+02  0.27303747448E+02 -0.26220322276E+02  0.47049413297E+02  0.51100000000E-03 0.  1.
         23    2    1    0    0    0  0.67378535675E+01  0.17596206372E+02  0.19195613110E+02  0.98102105806E+02  0.94342601467E+02 0.  0.
         11    1    3    3    0    0 -0.21202213834E+02 -0.97075410756E+01  0.45415935386E+02  0.51052692509E+02  0.51100000000E-03 0. -1.
         22    1    1    0    0    0 -0.67378535675E+01 -0.17596206372E+02 -0.19195613110E+02  0.26897894194E+02  0.00000000000E+00 0.  1.
</event>
<event>
 5    1  0.8752570E-005  0.9118800E+02  0.7818608E-02  0.1130116E+00
         25   -1    0    0    0    0  0.00000000000E+00  0.00000000000E+00  0.99999998245E-14  0.12500000000E+03  0.12500000000E+03 0.  0.
        -11    1    3    3    0    0  0.21626065184E+02 -0.24498306757E+02 -0.16009585147E+02  0.36389016834E+02  0.51100000000E-03 0. -1.
         23    2    1    0    0    0  0.11841040809E+01  0.28876229355E+02  0.11868863248E+01  0.96075141774E+02  0.91617604441E+02 0.  0.
         11    1    3    3    0    0 -0.20441961103E+02  0.53374536113E+02  0.17196471472E+02  0.59686124940E+02  0.51100000000E-03 0.  1.
         22    1    1    0    0    0 -0.11841040809E+01 -0.28876229355E+02 -0.11868863248E+01  0.28924858226E+02  0.00000000000E+00 0.  1.
</event>
<event>
 5    1  0.8752570E-005  0.9118800E+02  0.7818608E-02  0.1130116E+00
         25   -1    0    0    0    0  0.00000000000E+00  0.00000000000E+00  0.99999998245E-14  0.12500000000E+03  0.12500000000E+03 0.  0.
        -11    1    3    3    0    0  0.56626486142E+02 -0.13321820449E+02 -0.30857840217E+01  0.58254200673E+02  0.51100000000E-03 0.  1.
         23    2    1    0    0    0  0.22146213516E+02 -0.21883377698E+02 -0.20974756951E+01  0.93795250412E+02  0.88452318245E+02 0.  0.
         11    1    3    3    0    0 -0.34480272626E+02 -0.85615572493E+01  0.98830832652E+00  0.35541049738E+02  0.51100000000E-03 0. -1.
         22    1    1    0    0    0 -0.22146213516E+02  0.21883377698E+02  0.20974756951E+01  0.31204749588E+02  0.00000000000E+00 0.  1.
</event>
<event>
 5    1  0.8752570E-005  0.9118800E+02  0.7818608E-02  0.1130116E+00
         25   -1    0    0    0    0  0.00000000000E+00  0.00000000000E+00  0.99999998245E-14  0.12500000000E+03  0.12500000000E+03 0.  0.
        -11    1    3    3    0    0  0.27107533873E+02 -0.19609093028E+02  0.41601160228E+02  0.53385311226E+02  0.51100000000E-03 0.  1.
         23    2    1    0    0    0 -0.94671624731E+01 -0.19242085740E+02  0.12095968080E+02  0.10037892219E+03  0.97312540541E+02 0.  0.
         11    1    3    3    0    0 -0.36574696346E+02  0.36700728794E+00 -0.29505192148E+02  0.46993610961E+02  0.51100000000E-03 0. -1.
         22    1    1    0    0    0  0.94671624731E+01  0.19242085740E+02 -0.12095968080E+02  0.24621077814E+02  0.00000000000E+00 0. -1.
</event>
<event>
 5    1  0.8752570E-005  0.9118800E+02  0.7818608E-02  0.1130116E+00
         25   -1    0    0    0    0  0.00000000000E+00  0.00000000000E+00  0.99999998245E-14  0.12500000000E+03  0.12500000000E+03 0.  0.
        -11    1    3    3    0    0  0.44420382882E+02 -0.30285304667E+02 -0.20699163489E+02  0.57609248073E+02  0.51100000000E-03 0. -1.
         23    2    1    0    0    0  0.13904496177E+02  0.71657960695E+01 -0.72715391908E+01  0.10775010349E+03  0.10636035856E+03 0.  0.
         11    1    3    3    0    0 -0.30515886705E+02  0.37451100737E+02  0.13427624298E+02  0.50140855421E+02  0.51100000000E-03 0.  1.
         22    1    1    0    0    0 -0.13904496177E+02 -0.71657960695E+01  0.72715391908E+01  0.17249896505E+02  0.00000000000E+00 0. -1.
</event>
<event>
 5    1  0.8752570E-005  0.9118800E+02  0.7818608E-02  0.1130116E+00
         25   -1    0    0    0    0  0.00000000000E+00  0.00000000000E+00  0.99999998245E-14  0.12500000000E+03  0.12500000000E+03 0.  0.
        -11    1    3    3    0    0 -0.44991130579E+02  0.12110364715E+02 -0.24727956662E+02  0.52747839816E+02  0.51100000000E-03 0. -1.
         23    2    1    0    0    0 -0.37103195986E+00  0.76304053953E+00 -0.26175305802E+02  0.98810946382E+02  0.95277156735E+02 0.  0.
         11    1    3    3    0    0  0.44620098619E+02 -0.11347324176E+02 -0.14473491402E+01  0.46063106566E+02  0.51100000000E-03 0.  1.
         22    1    1    0    0    0  0.37103195986E+00 -0.76304053953E+00  0.26175305802E+02  0.26189053618E+02  0.00000000000E+00 0.  1.
</event>
<event>
 5    1  0.8752570E-005  0.9118800E+02  0.7818608E-02  0.1130116E+00
         25   -1    0    0    0    0  0.00000000000E+00  0.00000000000E+00  0.99999998245E-14  0.12500000000E+03  0.12500000000E+03 0.  0.
        -11    1    3    3    0    0  0.47129483654E+01 -0.29229605674E+02  0.16231624092E+02  0.33764587234E+02  0.51100000000E-03 0.  1.
         23    2    1    0    0    0  0.15720141886E+02  0.22196572070E+02 -0.13982583283E+02  0.94416944106E+02  0.89326569544E+02 0.  0.
         11    1    3    3    0    0  0.11007193520E+02  0.51426177744E+02 -0.30214207375E+02  0.60652356872E+02  0.51100000000E-03 0. -1.
         22    1    1    0    0    0 -0.15720141886E+02 -0.22196572070E+02  0.13982583283E+02  0.30583055894E+02  0.00000000000E+00 0. -1.
</event>
<event>
 5    1  0.8752570E-005  0.9118800E+02  0.7818608E-02  0.1130116E+00
         25   -1    0    0    0    0  0.00000000000E+00  0.00000000000E+00  0.99999998245E-14  0.12500000000E+03  0.12500000000E+03 0.  0.
        -11    1    3    3    0    0  0.22602526177E+02 -0.24548875427E+02  0.10454508098E+02  0.34968817740E+02  0.51100000000E-03 0. -1.
         23    2    1    0    0    0 -0.67810170549E+00  0.29635334998E+02  0.92219577057E+01  0.93955557562E+02  0.88678573457E+02 0.  0.
         11    1    3    3    0    0 -0.23280627882E+02  0.54184210425E+02 -0.12325503921E+01  0.58986739821E+02  0.51100000000E-03 0.  1.
         22    1    1    0    0    0  0.67810170549E+00 -0.29635334998E+02 -0.92219577057E+01  0.31044442438E+02  0.00000000000E+00 0.  1.
</event>
<event>
 5    1  0.8752570E-005  0.9118800E+02  0.7818608E-02  0.1130116E+00
         25   -1    0    0    0    0  0.00000000000E+00  0.00000000000E+00  0.99999998245E-14  0.12500000000E+03  0.12500000000E+03 0.  0.
        -11    1    3    3    0    0  0.47953979951E+02 -0.13416046493E+02 -0.21266355402E+02  0.54146397563E+02  0.51100000000E-03 0.  1.
         23    2    1    0    0    0  0.15812317169E+02  0.12919130509E+02 -0.21013415882E+02  0.95699881325E+02  0.91104172963E+02 0.  0.
         11    1    3    3    0    0 -0.32141662782E+02  0.26335177002E+02  0.25293951982E+00  0.41553483762E+02  0.51100000000E-03 0. -1.
         22    1    1    0    0    0 -0.15812317169E+02 -0.12919130509E+02  0.21013415882E+02  0.29300118675E+02  0.00000000000E+00 0.  1.
</event>
<event>
 5    1  0.8752570E-005  0.9118800E+02  0.7818608E-02  0.1130116E+00
         25   -1    0    0    0    0  0.00000000000E+00  0.00000000000E+00  0.99999998245E-14  0.12500000000E+03  0.12500000000E+03 0.  0.
        -11    1    3    3    0    0  0.32321328766E+01  0.32373361461E+02 -0.24159654408E+02  0.40523698210E+02  0.51100000000E-03 0.  1.
         23    2    1    0    0    0  0.24397680003E+02 -0.30898056203E+01  0.13955936988E+02  0.96723475010E+02  0.92497939179E+02 0.  0.
         11    1    3    3    0    0  0.21165547127E+02 -0.35463167082E+02  0.38115591396E+02  0.56199776800E+02  0.51100000000E-03 0. -1.
         22    1    1    0    0    0 -0.24397680003E+02  0.30898056203E+01 -0.13955936988E+02  0.28276524990E+02  0.00000000000E+00 0. -1.
</event>
<event>
 5    1  0.8752570E-005  0.9118800E+02  0.7818608E-02  0.1130116E+00
         25   -1    0    0    0    0  0.00000000000E+00  0.00000000000E+00  0.99999998245E-14  0.12500000000E+03  0.12500000000E+03 0.  0.
        -11    1    3    3    0    0 -0.10882462606E+02  0.37314279221E+01  0.60822837403E+02  0.61901285098E+02  0.51100000000E-03 0.  1.
         23    2    1    0    0    0 -0.75896157238E+01  0.68069423410E+01  0.25078804409E+02  0.97928185109E+02  0.94111881701E+02 0.  0.
         11    1    3    3    0    0  0.32928468818E+01  0.30755144189E+01 -0.35744032994E+02  0.36026900012E+02  0.51100000000E-03 0. -1.
         22    1    1    0    0    0  0.75896157238E+01 -0.68069423410E+01 -0.25078804409E+02  0.27071814891E+02  0.00000000000E+00 0.  1.
</event>
<event>
 5    1  0.8752570E-005  0.9118800E+02  0.7818608E-02  0.1130116E+00
         25   -1    0    0    0    0  0.00000000000E+00  0.00000000000E+00  0.99999998245E-14  0.12500000000E+03  0.12500000000E+03 0.  0.
        -11    1    3    3    0    0  0.42088970172E+02 -0.37876197397E+02 -0.62549794977E+01  0.56966766699E+02  0.51100000000E-03 0.  1.
         23    2    1    0    0    0  0.27588965299E+02 -0.73979921397E+01  0.10397421609E+02  0.94602834505E+02  0.89586319415E+02 0.  0.
         11    1    3    3    0    0 -0.14500004873E+02  0.30478205257E+02  0.16652401107E+02  0.37636067806E+02  0.51100000000E-03 0. -1.
         22    1    1    0    0    0 -0.27588965299E+02  0.73979921397E+01 -0.10397421609E+02  0.30397165495E+02  0.00000000000E+00 0.  1.
</event>
<event>
 5    1  0.8752570E-005  0.9118800E+02  0.7818608E-02  0.1130116E+00
         25   -1    0    0    0    0  0.00000000000E+00  0.00000000000E+00  0.99999998245E-14  0.12500000000E+03  0.12500000000E+03 0.  0.
        -11    1    3    3    0    0  0.45259197850E+02 -0.24690332150E+02  0.13960214425E+02  0.53412499275E+02  0.51100000000E-03 0. -1.
         23    2    1    0    0    0  0.17058538671E+01 -0.14314353964E+02  0.21798811536E+02  0.98865753288E+02  0.95349034195E+02 0.  0.
         11    1    3    3    0    0 -0.43553343983E+02  0.10375978186E+02  0.78385971117E+01  0.45453254013E+02  0.51100000000E-03 0.  1.
         22    1    1    0    0    0 -0.17058538671E+01  0.14314353964E+02 -0.21798811536E+02  0.26134246712E+02  0.00000000000E+00 0. -1.
</event>
<event>
 5    1  0.8752570E-005  0.9118800E+02  0.7818608E-02  0.1130116E+00
         25   -1    0    0    0    0  0.00000000000E+00  0.00000000000E+00  0.99999998245E-14  0.12500000000E+03  0.12500000000E+03 0.  0.
        -11    1    3    3    0    0  0.15185942247E+02  0.34261230108E+01  0.37187846406E+02  0.40314849391E+02  0.51100000000E-03 0. -1.
         23    2    1    0    0    0 -0.15425059343E+02 -0.24504297805E+02 -0.77343022122E-01  0.96044878716E+02  0.91576305227E+02 0.  0.
         11    1    3    3    0    0 -0.30611001590E+02 -0.27930420815E+02 -0.37265189428E+02  0.55730029325E+02  0.51100000000E-03 0.  1.
         22    1    1    0    0    0  0.15425059343E+02  0.24504297805E+02  0.77343022122E-01  0.28955121284E+02  0.00000000000E+00 0.  1.
</event>
<event>
 5    1  0.8752570E-005  0.9118800E+02  0.7818608E-02  0.1130116E+00
         25   -1    0    0    0    0  0.00000000000E+00  0.00000000000E+00  0.99999998245E-14  0.12500000000E+03  0.12500000000E+03 0.  0.
        -11    1    3    3    0    0  0.17429375777E+02  0.38682690341E+02  0.44140042045E+02  0.61224806933E+02  0.51100000000E-03 0.  1.
         23    2    1    0    0    0  0.16092857425E+02  0.14237660949E+02  0.18967807253E+02  0.96338723661E+02  0.91976523718E+02 0.  0.
         11    1    3    3    0    0 -0.13365183525E+01 -0.24445029391E+02 -0.25172234793E+02  0.35113916728E+02  0.51100000000E-03 0. -1.
         22    1    1    0    0    0 -0.16092857425E+02 -0.14237660949E+02 -0.18967807253E+02  0.28661276339E+02  0.00000000000E+00 0.  1.
</event>
<event>
 5    1  0.8752570E-005  0.9118800E+02  0.7818608E-02  0.1130116E+00
         25   -1    0    0    0    0  0.00000000000E+00  0.00000000000E+00  0.99999998245E-14  0.12500000000E+03  0.12500000000E+03 0.  0.
        -11    1    3    3    0    0  0.28489113463E+02 -0.43476678467E+02  0.83682099422E+01  0.52648628608E+02  0.51100000000E-03 0. -1.
         23    2    1    0    0    0 -0.87984708334E+01 -0.20747173241E+02  0.16501464461E+02  0.97068716179E+02  0.92963320965E+02 0.  0.
         11    1    3    3    0    0 -0.37287584297E+02  0.22729505226E+02  0.81332545189E+01  0.44420087571E+02  0.51100000000E-03 0.  1.
         22    1    1    0    0    0  0.87984708334E+01  0.20747173241E+02 -0.16501464461E+02  0.27931283821E+02  0.00000000000E+00 0. -1.
</event>
<event>
 5    1  0.8752570E-005  0.9118800E+02  0.7818608E-02  0.1130116E+00
         25   -1    0    0    0    0  0.00000000000E+00  0.00000000000E+00  0.99999998245E-14  0.12500000000E+03  0.12500000000E+03 0.  0.
        -11    1    3    3    0    0  0.26475452627E+02 -0.25416873728E+02  0.22714534095E+02  0.43161523621E+02  0.51100000000E-03 0.  1.
         23    2    1    0    0    0 -0.12133724738E+02  0.64820577340E+01  0.28279740184E+02  0.93551819554E+02  0.88107632408E+02 0.  0.
         11    1    3    3    0    0 -0.38609177365E+02  0.31898931462E+02  0.55652060891E+01  0.50390295933E+02  0.51100000000E-03 0. -1.
         22    1    1    0    0    0  0.12133724738E+02 -0.64820577340E+01 -0.28279740184E+02  0.31448180446E+02  0.00000000000E+00 0. -1.
</event>
<event>
 5    1  0.8752570E-005  0.9118800E+02  0.7818608E-02  0.1130116E+00
         25   -1    0    0    0    0  0.00000000000E+00  0.00000000000E+00  0.99999998245E-14  0.12500000000E+03  0.12500000000E+03 0.  0.
        -11    1    3    3    0    0 -0.26884496852E+02 -0.38856836965E+02  0.18507337898E+02  0.50745950639E+02  0.51100000000E-03 0.  1.
         23    2    1    0    0    0 -0.18332161386E+02 -0.18988212667E+02 -0.17910269860E+02  0.93103321053E+02  0.87469024594E+02 0.  0.
         11    1    3    3    0    0  0.85523354666E+01  0.19868624298E+02 -0.36417607758E+02  0.42357370415E+02  0.51100000000E-03 0. -1.
         22    1    1    0    0    0  0.18332161386E+02  0.18988212667E+02  0.17910269860E+02  0.31896678947E+02  0.00000000000E+00 0.  1.
</event>
<event>
 5    1  0.8752570E-005  0.9118800E+02  0.7818608E-02  0.1130116E+00
         25   -1    0    0    0    0  0.00000000000E+00  0.00000000000E+00  0.99999998245E-14  0.12500000000E+03  0.12500000000E+03 0.  0.
        -11    1    3    3    0    0  0.30737152427E+02  0.11694663245E+02  0.22357966708E+02  0.39767026081E+02  0.51100000000E-03 0.  1.
         23    2    1    0    0    0 -0.85239347442E+01 -0.26223116933E+02  0.94219649899E+01  0.95860975489E+02  0.91324935654E+02 0.  0.
         11    1    3    3    0    0 -0.39261087171E+02 -0.37917780178E+02 -0.12936001718E+02  0.56093949408E+02  0.51100000000E-03 0. -1.
         22    1    1    0    0    0  0.85239347442E+01  0.26223116933E+02 -0.94219649899E+01  0.29139024511E+02  0.00000000000E+00 0. -1.
</event>
<event>
 5    1  0.8752570E-005  0.9118800E+02  0.7818608E-02  0.1130116E+00
         25   -1    0    0    0    0  0.00000000000E+00  0.00000000000E+00  0.99999998245E-14  0.12500000000E+03  0.12500000000E+03 0.  0.
        -11    1    3    3    0    0 -0.16714316096E+02  0.45370000902E+02  0.22304315196E+02  0.53247420792E+02  0.51100000000E-03 0. -1.
         23    2    1    0    0    0 -0.22612010780E+02  0.36627676057E+01  0.18527163436E+02  0.95538589935E+02  0.90882602756E+02 0.  0.
         11    1    3    3    0    0 -0.58976946833E+01 -0.41707233296E+02 -0.37771517600E+01  0.42291169143E+02  0.51100000000E-03 0.  1.
         22    1    1    0    0    0  0.22612010780E+02 -0.36627676057E+01 -0.18527163436E+02  0.29461410065E+02  0.00000000000E+00 0. -1.
</event>
<event>
 5    1  0.8752570E-005  0.9118800E+02  0.7818608E-02  0.1130116E+00
         25   -1    0    0    0    0  0.00000000000E+00  0.00000000000E+00  0.99999998245E-14  0.12500000000E+03  0.12500000000E+03 0.  0.
        -11    1    3    3    0    0  0.98942034286E+01 -0.53723649843E+01 -0.52493029442E+02  0.53686829923E+02  0.51100000000E-03 0.  1.
         23    2    1    0    0    0  0.15709199692E+02 -0.20421295880E+02 -0.13440834674E+02  0.95940331779E+02  0.91433489186E+02 0.  0.
         11    1    3    3    0    0  0.58149962633E+01 -0.15048930896E+02  0.39052194767E+02  0.42253501856E+02  0.51100000000E-03 0. -1.
         22    1    1    0    0    0 -0.15709199692E+02  0.20421295880E+02  0.13440834674E+02  0.29059668221E+02  0.00000000000E+00 0. -1.
</event>
<event>
 5    1  0.8752570E-005  0.9118800E+02  0.7818608E-02  0.1130116E+00
         25   -1    0    0    0    0  0.00000000000E+00  0.00000000000E+00  0.99999998245E-14  0.12500000000E+03  0.12500000000E+03 0.  0.
        -11    1    3    3    0    0  0.92505241704E+01  0.33518412238E+01 -0.29915541810E+02  0.31492009765E+02  0.51100000000E-03 0.  1.
         23    2    1    0    0    0 -0.17036635122E+02 -0.22258650909E+02  0.17880088468E+02  0.91752563404E+02  0.85516903891E+02 0.  0.
         11    1    3    3    0    0 -0.26287159293E+02 -0.25610492133E+02  0.47795630278E+02  0.60260553639E+02  0.51100000000E-03 0. -1.
         22    1    1    0    0    0  0.17036635122E+02  0.22258650909E+02 -0.17880088468E+02  0.33247436596E+02  0.00000000000E+00 0. -1.
</event>
<event>
 5    1  0.8752570E-005  0.9118800E+02  0.7818608E-02  0.1130116E+00
         25   -1    0    0    0    0  0.00000000000E+00  0.00000000000E+00  0.99999998245E-14  0.12500000000E+03  0.12500000000E+03 0.  0.
        -11    1    3    3    0    0  0.31211538028E+02  0.22905426653E+02  0.45722679638E+02  0.59911452243E+02  0.51100000000E-03 0.  1.
         23    2    1    0    0    0  0.25286482067E+02  0.14286425133E+02  0.15110470223E+02  0.92261117479E+02  0.86257054029E+02 0.  0.
         11    1    3    3    0    0 -0.59250559617E+01 -0.86190015206E+01 -0.30612209415E+02  0.32349665236E+02  0.51100000000E-03 0. -1.
         22    1    1    0    0    0 -0.25286482067E+02 -0.14286425133E+02 -0.15110470223E+02  0.32738882521E+02  0.00000000000E+00 0.  1.
</event>
<event>
 5    1  0.8752570E-005  0.9118800E+02  0.7818608E-02  0.1130116E+00
         25   -1    0    0    0    0  0.00000000000E+00  0.00000000000E+00  0.99999998245E-14  0.12500000000E+03  0.12500000000E+03 0.  0.
        -11    1    3    3    0    0  0.87070984984E+01 -0.20768982737E+02  0.24599795922E+02  0.33351374302E+02  0.51100000000E-03 0.  1.
         23    2    1    0    0    0 -0.62421528270E+01  0.13638550946E+02 -0.25184184143E+02  0.95687584972E+02  0.91087300120E+02 0.  0.
         11    1    3    3    0    0 -0.14949251325E+02  0.34407533683E+02 -0.49783980065E+02  0.62336210670E+02  0.51100000000E-03 0. -1.
         22    1    1    0    0    0  0.62421528270E+01 -0.13638550946E+02  0.25184184143E+02  0.29312415028E+02  0.00000000000E+00 0. -1.
</event>
<event>
 5    1  0.8752570E-005  0.9118800E+02  0.7818608E-02  0.1130116E+00
         25   -1    0    0    0    0  0.00000000000E+00  0.00000000000E+00  0.99999998245E-14  0.12500000000E+03  0.12500000000E+03 0.  0.
        -11    1    3    3    0    0 -0.23078676475E+02  0.17976707268E+02 -0.42615415619E+02  0.51690047017E+02  0.51100000000E-03 0.  1.
         23    2    1    0    0    0  0.13766251497E+02  0.16828667736E+02 -0.22613825597E+02  0.93629650206E+02  0.88217983153E+02 0.  0.
         11    1    3    3    0    0  0.36844927971E+02 -0.11480395319E+01  0.20001590022E+02  0.41939603189E+02  0.51100000000E-03 0. -1.
         22    1    1    0    0    0 -0.13766251497E+02 -0.16828667736E+02  0.22613825597E+02  0.31370349794E+02  0.00000000000E+00 0.  1.
</event>
<event>
 5    1  0.8752570E-005  0.9118800E+02  0.7818608E-02  0.1130116E+00
         25   -1    0    0    0    0  0.00000000000E+00  0.00000000000E+00  0.99999998245E-14  0.12500000000E+03  0.12500000000E+03 0.  0.
        -11    1    3    3    0    0  0.85354395139E+01  0.35247396441E+02  0.44823999087E+02  0.57657814544E+02  0.51100000000E-03 0.  1.
         23    2    1    0    0    0 -0.61680867468E+01  0.34436934444E+01  0.27236520345E+02  0.96862260944E+02  0.92685302158E+02 0.  0.
         11    1    3    3    0    0 -0.14703526261E+02 -0.31803702997E+02 -0.17587478742E+02  0.39204446400E+02  0.51100000000E-03 0. -1.
         22    1    1    0    0    0  0.61680867468E+01 -0.34436934444E+01 -0.27236520345E+02  0.28137739056E+02  0.00000000000E+00 0.  1.
</event>
<event>
 5    1  0.8752570E-005  0.9118800E+02  0.7818608E-02  0.1130116E+00
         25   -1    0    0    0    0  0.00000000000E+00  0.00000000000E+00  0.99999998245E-14  0.12500000000E+03  0.12500000000E+03 0.  0.
        -11    1    3    3    0    0  0.25302497080E+02 -0.27969360760E+02  0.16647305424E+01  0.37752785697E+02  0.51100000000E-03 0.  1.
         23    2    1    0    0    0  0.29150237578E+02  0.19971109563E+02  0.13316582165E+02  0.87238737726E+02  0.78642764647E+02 0.  0.
         11    1    3    3    0    0  0.38477404975E+01  0.47940470323E+02  0.11651851622E+02  0.49485952029E+02  0.51100000000E-03 0. -1.
         22    1    1    0    0    0 -0.29150237578E+02 -0.19971109563E+02 -0.13316582165E+02  0.37761262274E+02  0.00000000000E+00 0.  1.
</event>
<event>
 5    1  0.8752570E-005  0.9118800E+02  0.7818608E-02  0.1130116E+00
         25   -1    0    0    0    0  0.00000000000E+00  0.00000000000E+00  0.99999998245E-14  0.12500000000E+03  0.12500000000E+03 0.  0.
        -11    1    3    3    0    0  0.41334881273E+02  0.61370875144E+01 -0.17160053824E+02  0.45174148587E+02  0.51100000000E-03 0.  1.
         23    2    1    0    0    0  0.21012410854E+01  0.27800398162E+02  0.72298643643E+01  0.96198120013E+02  0.91785238482E+02 0.  0.
         11    1    3    3    0    0 -0.39233640188E+02  0.21663310648E+02  0.24389918188E+02  0.51023971426E+02  0.51100000000E-03 0. -1.
         22    1    1    0    0    0 -0.21012410854E+01 -0.27800398162E+02 -0.72298643643E+01  0.28801879987E+02  0.00000000000E+00 0. -1.
</event>
<event>
 5    1  0.8752570E-005  0.9118800E+02  0.7818608E-02  0.1130116E+00
         25   -1    0    0    0    0  0.00000000000E+00  0.00000000000E+00  0.99999998245E-14  0.12500000000E+03  0.12500000000E+03 0.  0.
        -11    1    3    3    0    0 -0.13225525995E+01  0.58421418125E+02 -0.10527579583E+02  0.59377109842E+02  0.51100000000E-03 0.  1.
         23    2    1    0    0    0  0.81063692484E+01  0.32512099433E+02  0.51573053131E+01  0.91097970119E+02  0.84554671839E+02 0.  0.
         11    1    3    3    0    0  0.94289218479E+01 -0.25909318691E+02  0.15684884896E+02  0.31720860277E+02  0.51100000000E-03 0. -1.
         22    1    1    0    0    0 -0.81063692484E+01 -0.32512099433E+02 -0.51573053131E+01  0.33902029881E+02  0.00000000000E+00 0.  1.
</event>
<event>
 5    1  0.8752570E-005  0.9118800E+02  0.7818608E-02  0.1130116E+00
         25   -1    0    0    0    0  0.00000000000E+00  0.00000000000E+00  0.99999998245E-14  0.12500000000E+03  0.12500000000E+03 0.  0.
        -11    1    3    3    0    0  0.29997694384E+01 -0.20625404740E+02  0.27586817961E+02  0.34575113346E+02  0.51100000000E-03 0.  1.
         23    2    1    0    0    0  0.23784974173E+01  0.12159652083E+02 -0.25315104846E+02  0.96815448875E+02  0.92622147561E+02 0.  0.
         11    1    3    3    0    0 -0.62127202107E+00  0.32785056823E+02 -0.52901922807E+02  0.62240335529E+02  0.51100000000E-03 0. -1.
         22    1    1    0    0    0 -0.23784974173E+01 -0.12159652083E+02  0.25315104846E+02  0.28184551125E+02  0.00000000000E+00 0. -1.
</event>
<event>
 5    1  0.8752570E-005  0.9118800E+02  0.7818608E-02  0.1130116E+00
         25   -1    0    0    0    0  0.00000000000E+00  0.00000000000E+00  0.99999998245E-14  0.12500000000E+03  0.12500000000E+03 0.  0.
        -11    1    3    3    0    0  0.35650575978E+02  0.15680439195E+02 -0.16109900614E+02  0.42146988492E+02  0.51100000000E-03 0. -1.
         23    2    1    0    0    0 -0.77016278649E+01  0.29190930467E+02  0.82854533024E+01  0.93693862747E+02  0.88308921898E+02 0.  0.
         11    1    3    3    0    0 -0.43352203843E+02  0.13510491272E+02  0.24395353916E+02  0.51546874255E+02  0.51100000000E-03 0.  1.
         22    1    1    0    0    0  0.77016278649E+01 -0.29190930467E+02 -0.82854533024E+01  0.31306137253E+02  0.00000000000E+00 0. -1.
</event>
<event>
 5    1  0.8752570E-005  0.9118800E+02  0.7818608E-02  0.1130116E+00
         25   -1    0    0    0    0  0.00000000000E+00  0.00000000000E+00  0.99999998245E-14  0.12500000000E+03  0.12500000000E+03 0.  0.
        -11    1    3    3    0    0 -0.34716411911E+02  0.46906445783E+02 -0.88211029798E+01  0.59019113599E+02  0.51100000000E-03 0. -1.
         23    2    1    0    0    0 -0.52503449098E+01  0.26041392327E+02 -0.13105473206E+02  0.95377818041E+02  0.90661207307E+02 0.  0.
         11    1    3    3    0    0  0.29466067002E+02 -0.20865053455E+02 -0.42843702265E+01  0.36358704442E+02  0.51100000000E-03 0.  1.
         22    1    1    0    0    0  0.52503449098E+01 -0.26041392327E+02  0.13105473206E+02  0.29622181959E+02  0.00000000000E+00 0. -1.
</event>
<event>
 5    1  0.8752570E-005  0.9118800E+02  0.7818608E-02  0.1130116E+00
         25   -1    0    0    0    0  0.00000000000E+00  0.00000000000E+00  0.99999998245E-14  0.12500000000E+03  0.12500000000E+03 0.  0.
        -11    1    3    3    0    0  0.13616355772E+02  0.52472957881E+02  0.14036314040E+02  0.55998522886E+02  0.51100000000E-03 0.  1.
         23    2    1    0    0    0  0.22753626294E+02  0.19929072166E+02 -0.42915138020E+01  0.94449836046E+02  0.89372585346E+02 0.  0.
         11    1    3    3    0    0  0.91372705226E+01 -0.32543885716E+02 -0.18327827842E+02  0.38451313160E+02  0.51100000000E-03 0. -1.
         22    1    1    0    0    0 -0.22753626294E+02 -0.19929072166E+02  0.42915138020E+01  0.30550163954E+02  0.00000000000E+00 0. -1.
</event>
<event>
 5    1  0.8752570E-005  0.9118800E+02  0.7818608E-02  0.1130116E+00
         25   -1    0    0    0    0  0.00000000000E+00  0.00000000000E+00  0.99999998245E-14  0.12500000000E+03  0.12500000000E+03 0.  0.
        -11    1    3    3    0    0 -0.43592182520E+02  0.31382256637E+02 -0.26819652292E+02  0.60036806693E+02  0.51100000000E-03 0. -1.
         23    2    1    0    0    0 -0.27220129914E+02  0.59439078710E+01 -0.67748062771E+01  0.96326606176E+02  0.91960054066E+02 0.  0.
         11    1    3    3    0    0  0.16372052606E+02 -0.25438348766E+02  0.20044846015E+02  0.36289799483E+02  0.51100000000E-03 0.  1.
         22    1    1    0    0    0  0.27220129914E+02 -0.59439078710E+01  0.67748062771E+01  0.28673393824E+02  0.00000000000E+00 0. -1.
</event>
<event>
 5    1  0.8752570E-005  0.9118800E+02  0.7818608E-02  0.1130116E+00
         25   -1    0    0    0    0  0.00000000000E+00  0.00000000000E+00  0.99999998245E-14  0.12500000000E+03  0.12500000000E+03 0.  0.
        -11    1    3    3    0    0 -0.26126879675E+02 -0.20337419065E+02  0.38411813596E+01  0.33331353562E+02  0.51100000000E-03 0.  1.
         23    2    1    0    0    0  0.20688277146E+01  0.31979585080E+02  0.34949078538E+01  0.92763556479E+02  0.86982119540E+02 0.  0.
         11    1    3    3    0    0  0.28195707390E+02  0.52317004145E+02 -0.34627350581E+00  0.59432202917E+02  0.51100000000E-03 0. -1.
         22    1    1    0    0    0 -0.20688277146E+01 -0.31979585080E+02 -0.34949078538E+01  0.32236443521E+02  0.00000000000E+00 0. -1.
</event>
<event>
 5    1  0.8752570E-005  0.9118800E+02  0.7818608E-02  0.1130116E+00
         25   -1    0    0    0    0  0.00000000000E+00  0.00000000000E+00  0.99999998245E-14  0.12500000000E+03  0.12500000000E+03 0.  0.
        -11    1    3    3    0    0  0.34509760745E+02  0.31959542437E+02 -0.27090892729E+01  0.47113428069E+02  0.51100000000E-03 0.  1.
         23    2    1    0    0    0  0.11176864435E+02 -0.14319973626E+02  0.14534644335E+02  0.10173543834E+03  0.99039686920E+02 0.  0.
         11    1    3    3    0    0 -0.23332896310E+02 -0.46279516063E+02  0.17243733607E+02  0.54622010272E+02  0.51100000000E-03 0. -1.
         22    1    1    0    0    0 -0.11176864435E+02  0.14319973626E+02 -0.14534644335E+02  0.23264561659E+02  0.00000000000E+00 0. -1.
</event>
<event>
 5    1  0.8752570E-005  0.9118800E+02  0.7818608E-02  0.1130116E+00
         25   -1    0    0    0    0  0.00000000000E+00  0.00000000000E+00  0.99999998245E-14  0.12500000000E+03  0.12500000000E+03 0.  0.
        -11    1    3    3    0    0 -0.96811575417E+01 -0.16085866466E+02 -0.38313332040E+02  0.42666044152E+02  0.51100000000E-03 0. -1.
         23    2    1    0    0    0  0.76011188532E+01 -0.21187705541E+02  0.14335287131E+02  0.98312993217E+02  0.94621605906E+02 0.  0.
         11    1    3    3    0    0  0.17282276395E+02 -0.51018390754E+01  0.52648619171E+02  0.55646949065E+02  0.51100000000E-03 0.  1.
         22    1    1    0    0    0 -0.76011188532E+01  0.21187705541E+02 -0.14335287131E+02  0.26687006783E+02  0.00000000000E+00 0.  1.
</event>
<event>
 5    1  0.8752570E-005  0.9118800E+02  0.7818608E-02  0.1130116E+00
         25   -1    0    0    0    0  0.00000000000E+00  0.00000000000E+00  0.99999998245E-14  0.12500000000E+03  0.12500000000E+03 0.  0.
        -11    1    3    3    0    0 -0.47483641923E+02  0.36982741494E+02 -0.13895215828E+02  0.61769704888E+02  0.51100000000E-03 0. -1.
         23    2    1    0    0    0 -0.25956310420E+02  0.11680963029E+02 -0.65373067559E+01  0.95795354350E+02  0.91235073231E+02 0.  0.
         11    1    3    3    0    0  0.21527331503E+02 -0.25301778466E+02  0.73579090725E+01  0.34025649462E+02  0.51100000000E-03 0.  1.
         22    1    1    0    0    0  0.25956310420E+02 -0.11680963029E+02  0.65373067559E+01  0.29204645650E+02  0.00000000000E+00 0. -1.
</event>
<event>
 5    1  0.8752570E-005  0.9118800E+02  0.7818608E-02  0.1130116E+00
         25   -1    0    0    0    0  0.00000000000E+00  0.00000000000E+00  0.99999998245E-14  0.12500000000E+03  0.12500000000E+03 0.  0.
        -11    1    3    3    0    0  0.28973321123E+01 -0.22712950688E+02  0.28487484899E+02  0.36548727180E+02  0.51100000000E-03 0.  1.
         23    2    1    0    0    0 -0.41083122232E+00  0.30455704731E+02  0.10962041366E+02  0.92628946821E+02  0.86788459517E+02 0.  0.
         11    1    3    3    0    0 -0.33081633346E+01  0.53168655419E+02 -0.17525443533E+02  0.56080219642E+02  0.51100000000E-03 0. -1.
         22    1    1    0    0    0  0.41083122232E+00 -0.30455704731E+02 -0.10962041366E+02  0.32371053179E+02  0.00000000000E+00 0. -1.
</event>
<event>
 5    1  0.8752570E-005  0.9118800E+02  0.7818608E-02  0.1130116E+00
         25   -1    0    0    0    0  0.00000000000E+00  0.00000000000E+00  0.99999998245E-14  0.12500000000E+03  0.12500000000E+03 0.  0.
        -11    1    3    3    0    0 -0.36083060272E+02 -0.11755788177E+02  0.41452243424E+02  0.56200304976E+02  0.51100000000E-03 0.  1.
         23    2    1    0    0    0 -0.53328707853E+01  0.94544966311E+01  0.26365327156E+02  0.96487590537E+02  0.92178618097E+02 0.  0.
         11    1    3    3    0    0  0.30750189487E+02  0.21210284808E+02 -0.15086916269E+02  0.40287285561E+02  0.51100000000E-03 0. -1.
         22    1    1    0    0    0  0.53328707853E+01 -0.94544966311E+01 -0.26365327156E+02  0.28512409463E+02  0.00000000000E+00 0.  1.
</event>
<event>
 5    1  0.8752570E-005  0.9118800E+02  0.7818608E-02  0.1130116E+00
         25   -1    0    0    0    0  0.00000000000E+00  0.00000000000E+00  0.99999998245E-14  0.12500000000E+03  0.12500000000E+03 0.  0.
        -11    1    3    3    0    0  0.46563873835E+02  0.16244210682E+01  0.35788794356E+02  0.58750922478E+02  0.51100000000E-03 0. -1.
         23    2    1    0    0    0  0.13058456073E+02 -0.97315332929E+01  0.23912024242E+02  0.96068859016E+02  0.91609032055E+02 0.  0.
         11    1    3    3    0    0 -0.33505417762E+02 -0.11355954361E+02 -0.11876770114E+02  0.37317936538E+02  0.51100000000E-03 0.  1.
         22    1    1    0    0    0 -0.13058456073E+02  0.97315332929E+01 -0.23912024242E+02  0.28931140984E+02  0.00000000000E+00 0. -1.
</event>
<event>
 5    1  0.8752570E-005  0.9118800E+02  0.7818608E-02  0.1130116E+00
         25   -1    0    0    0    0  0.00000000000E+00  0.00000000000E+00  0.99999998245E-14  0.12500000000E+03  0.12500000000E+03 0.  0.
        -11    1    3    3    0    0  0.30967660366E+02  0.24846116648E+02 -0.37016348140E+01  0.39875150176E+02  0.51100000000E-03 0.  1.
         23    2    1    0    0    0 -0.22984762582E+02  0.16158898851E+02 -0.10629967134E+02  0.94959934682E+02  0.90083204153E+02 0.  0.
         11    1    3    3    0    0 -0.53952422948E+02 -0.86872177969E+01 -0.69283323204E+01  0.55084784505E+02  0.51100000000E-03 0. -1.
         22    1    1    0    0    0  0.22984762582E+02 -0.16158898851E+02  0.10629967134E+02  0.30040065318E+02  0.00000000000E+00 0. -1.
</event>
<event>
 5    1  0.8752570E-005  0.9118800E+02  0.7818608E-02  0.1130116E+00
         25   -1    0    0    0    0  0.00000000000E+00  0.00000000000E+00  0.99999998245E-14  0.12500000000E+03  0.12500000000E+03 0.  0.
        -11    1    3    3    0    0  0.31349786889E+02 -0.15290535752E+02  0.51302314230E+02  0.62036578461E+02  0.51100000000E-03 0.  1.
         23    2    1    0    0    0  0.10587529421E+02 -0.10528066011E+02  0.24974091992E+02  0.95902900076E+02  0.91382301454E+02 0.  0.
         11    1    3    3    0    0 -0.20762257468E+02  0.47624697404E+01 -0.26328222239E+02  0.33866321615E+02  0.51100000000E-03 0. -1.
         22    1    1    0    0    0 -0.10587529421E+02  0.10528066011E+02 -0.24974091992E+02  0.29097099924E+02  0.00000000000E+00 0.  1.
</event>
<event>
 5    1  0.8752570E-005  0.9118800E+02  0.7818608E-02  0.1130116E+00
         25   -1    0    0    0    0  0.00000000000E+00  0.00000000000E+00  0.99999998245E-14  0.12500000000E+03  0.12500000000E+03 0.  0.
        -11    1    3    3    0    0  0.23720088551E+02 -0.32420088847E+02 -0.11244602636E+02  0.41715055441E+02  0.51100000000E-03 0.  1.
         23    2    1    0    0    0 -0.20648686275E+02 -0.15532363136E+02  0.14135755325E+02  0.95547629500E+02  0.90895034930E+02 0.  0.
         11    1    3    3    0    0 -0.44368774827E+02  0.16887725712E+02  0.25380357961E+02  0.53832574059E+02  0.51100000000E-03 0. -1.
         22    1    1    0    0    0  0.20648686275E+02  0.15532363136E+02 -0.14135755325E+02  0.29452370500E+02  0.00000000000E+00 0. -1.
</event>
<event>
 5    1  0.8752570E-005  0.9118800E+02  0.7818608E-02  0.1130116E+00
         25   -1    0    0    0    0  0.00000000000E+00  0.00000000000E+00  0.99999998245E-14  0.12500000000E+03  0.12500000000E+03 0.  0.
        -11    1    3    3    0    0  0.64324184629E+01 -0.33634460757E+02 -0.38527103377E+02  0.51546005205E+02  0.51100000000E-03 0. -1.
         23    2    1    0    0    0 -0.16321206970E+02  0.11483767031E+01 -0.24743933134E+02  0.95335833183E+02  0.90603301793E+02 0.  0.
         11    1    3    3    0    0 -0.22753625433E+02  0.34782837460E+02  0.13783170243E+02  0.43789827978E+02  0.51100000000E-03 0.  1.
         22    1    1    0    0    0  0.16321206970E+02 -0.11483767031E+01  0.24743933134E+02  0.29664166817E+02  0.00000000000E+00 0. -1.
</event>
<event>
 5    1  0.8752570E-005  0.9118800E+02  0.7818608E-02  0.1130116E+00
         25   -1    0    0    0    0  0.00000000000E+00  0.00000000000E+00  0.99999998245E-14  0.12500000000E+03  0.12500000000E+03 0.  0.
        -11    1    3    3    0    0 -0.52320190846E+02  0.24067626364E+02  0.15061725708E+02  0.59527376816E+02  0.51100000000E-03 0.  1.
         23    2    1    0    0    0 -0.17999951879E+02  0.17582158408E+02  0.17200915217E+02  0.94520465124E+02  0.89471315409E+02 0.  0.
         11    1    3    3    0    0  0.34320238967E+02 -0.64854679559E+01  0.21391895086E+01  0.34993088308E+02  0.51100000000E-03 0. -1.
         22    1    1    0    0    0  0.17999951879E+02 -0.17582158408E+02 -0.17200915217E+02  0.30479534876E+02  0.00000000000E+00 0.  1.
</event>
<event>
 5    1  0.8752570E-005  0.9118800E+02  0.7818608E-02  0.1130116E+00
         25   -1    0    0    0    0  0.00000000000E+00  0.00000000000E+00  0.99999998245E-14  0.12500000000E+03  0.12500000000E+03 0.  0.
        -11    1    3    3    0    0  0.78669186686E+01 -0.22556290379E+02  0.35516954443E+02  0.42803372509E+02  0.51100000000E-03 0.  1.
         23    2    1    0    0    0 -0.27036279138E+02  0.45557819535E+00 -0.45577987875E+00  0.97956041776E+02  0.94148873833E+02 0.  0.
         11    1    3    3    0    0 -0.34903197807E+02  0.23011868575E+02 -0.35972734321E+02  0.55152669267E+02  0.51100000000E-03 0. -1.
         22    1    1    0    0    0  0.27036279138E+02 -0.45557819535E+00  0.45577987875E+00  0.27043958224E+02  0.00000000000E+00 0.  1.
</event>
<event>
 5    1  0.8752570E-005  0.9118800E+02  0.7818608E-02  0.1130116E+00
         25   -1    0    0    0    0  0.00000000000E+00  0.00000000000E+00  0.99999998245E-14  0.12500000000E+03  0.12500000000E+03 0.  0.
        -11    1    3    3    0    0 -0.54269320946E+02  0.16643109424E+02  0.12037738064E+02  0.58026368361E+02  0.51100000000E-03 0.  1.
         23    2    1    0    0    0 -0.29489189933E+02 -0.82741550223E+01  0.36476327202E+01  0.94155564705E+02  0.88960053823E+02 0.  0.
         11    1    3    3    0    0  0.24780131013E+02 -0.24917264446E+02 -0.83901053438E+01  0.36129196344E+02  0.51100000000E-03 0. -1.
         22    1    1    0    0    0  0.29489189933E+02  0.82741550223E+01 -0.36476327202E+01  0.30844435295E+02  0.00000000000E+00 0.  1.
</event>
<event>
 5    1  0.8752570E-005  0.9118800E+02  0.7818608E-02  0.1130116E+00
         25   -1    0    0    0    0  0.00000000000E+00  0.00000000000E+00  0.99999998245E-14  0.12500000000E+03  0.12500000000E+03 0.  0.
        -11    1    3    3    0    0  0.17919658717E+02 -0.40118544067E+02 -0.72840452789E+01  0.44538399864E+02  0.51100000000E-03 0.  1.
         23    2    1    0    0    0 -0.25559286034E+02 -0.11523105892E+02 -0.39723231980E+01  0.96683248358E+02  0.92443561645E+02 0.  0.
         11    1    3    3    0    0 -0.43478944750E+02  0.28595438176E+02  0.33117220808E+01  0.52144848494E+02  0.51100000000E-03 0. -1.
         22    1    1    0    0    0  0.25559286034E+02  0.11523105892E+02  0.39723231980E+01  0.28316751642E+02  0.00000000000E+00 0. -1.
</event>
<event>
 5    1  0.8752570E-005  0.9118800E+02  0.7818608E-02  0.1130116E+00
         25   -1    0    0    0    0  0.00000000000E+00  0.00000000000E+00  0.99999998245E-14  0.12500000000E+03  0.12500000000E+03 0.  0.
        -11    1    3    3    0    0  0.44636408366E+02 -0.15707541122E+02  0.21478970987E+02  0.51966162018E+02  0.51100000000E-03 0. -1.
         23    2    1    0    0    0  0.26855383094E+02 -0.28515553515E+02  0.30187305786E+02  0.75546771349E+02  0.57111232147E+02 0.  0.
         11    1    3    3    0    0 -0.17781025273E+02 -0.12808012393E+02  0.87083347986E+01  0.23580609331E+02  0.51100000000E-03 0.  1.
         22    1    1    0    0    0 -0.26855383094E+02  0.28515553515E+02 -0.30187305786E+02  0.49453228651E+02  0.00000000000E+00 0. -1.
</event>
<event>
 5    1  0.8752570E-005  0.9118800E+02  0.7818608E-02  0.1130116E+00
         25   -1    0    0    0    0  0.00000000000E+00  0.00000000000E+00  0.99999998245E-14  0.12500000000E+03  0.12500000000E+03 0.  0.
        -11    1    3    3    0    0  0.75809570632E+01 -0.23742256005E+02 -0.27873234065E+02  0.37390945531E+02  0.51100000000E-03 0.  1.
         23    2    1    0    0    0  0.11940543628E+02  0.99426905859E+01  0.22203209644E+02  0.97899885670E+02  0.94074286696E+02 0.  0.
         11    1    3    3    0    0  0.43595865649E+01  0.33684946591E+02  0.50076443709E+02  0.60508940138E+02  0.51100000000E-03 0. -1.
         22    1    1    0    0    0 -0.11940543628E+02 -0.99426905859E+01 -0.22203209644E+02  0.27100114330E+02  0.00000000000E+00 0. -1.
</event>
<event>
 5    1  0.8752570E-005  0.9118800E+02  0.7818608E-02  0.1130116E+00
         25   -1    0    0    0    0  0.00000000000E+00  0.00000000000E+00  0.99999998245E-14  0.12500000000E+03  0.12500000000E+03 0.  0.
        -11    1    3    3    0    0  0.25384291243E+01 -0.30113059135E+02 -0.25757814649E+02  0.39707744442E+02  0.51100000000E-03 0.  1.
         23    2    1    0    0    0 -0.14609406488E+02 -0.97282707370E+01  0.23477203652E+02  0.95686980695E+02  0.91086470860E+02 0.  0.
         11    1    3    3    0    0 -0.17147835612E+02  0.20384788398E+02  0.49235018301E+02  0.55979236254E+02  0.51100000000E-03 0. -1.
         22    1    1    0    0    0  0.14609406488E+02  0.97282707370E+01 -0.23477203652E+02  0.29313019305E+02  0.00000000000E+00 0. -1.
</event>
<event>
 5    1  0.8752570E-005  0.9118800E+02  0.7818608E-02  0.1130116E+00
         25   -1    0    0    0    0  0.00000000000E+00  0.00000000000E+00  0.99999998245E-14  0.12500000000E+03  0.12500000000E+03 0.  0.
        -11    1    3    3    0    0  0.24308426012E+02  0.33022776923E+02  0.54945257404E+01  0.41371405394E+02  0.51100000000E-03 0.  1.
         23    2    1    0    0    0  0.17698407503E+02 -0.21355231065E+02 -0.40341474708E+01  0.96972266096E+02  0.92833542020E+02 0.  0.
         11    1    3    3    0    0 -0.66100185095E+01 -0.54378007988E+02 -0.95286732111E+01  0.55600860702E+02  0.51100000000E-03 0. -1.
         22    1    1    0    0    0 -0.17698407503E+02  0.21355231065E+02  0.40341474708E+01  0.28027733904E+02  0.00000000000E+00 0. -1.
</event>
<event>
 5    1  0.8752570E-005  0.9118800E+02  0.7818608E-02  0.1130116E+00
         25   -1    0    0    0    0  0.00000000000E+00  0.00000000000E+00  0.99999998245E-14  0.12500000000E+03  0.12500000000E+03 0.  0.
        -11    1    3    3    0    0  0.33091542982E+02 -0.10493966551E+02  0.94248749343E+00  0.34728400968E+02  0.51100000000E-03 0.  1.
         23    2    1    0    0    0 -0.25027983453E+02  0.13839519772E+01 -0.14520834001E+02  0.96031570653E+02  0.91558138159E+02 0.  0.
         11    1    3    3    0    0 -0.58119526434E+02  0.11877918528E+02 -0.15463321494E+02  0.61303169685E+02  0.51100000000E-03 0. -1.
         22    1    1    0    0    0  0.25027983453E+02 -0.13839519772E+01  0.14520834001E+02  0.28968429347E+02  0.00000000000E+00 0. -1.
</event>
<event>
 5    1  0.8752570E-005  0.9118800E+02  0.7818608E-02  0.1130116E+00
         25   -1    0    0    0    0  0.00000000000E+00  0.00000000000E+00  0.99999998245E-14  0.12500000000E+03  0.12500000000E+03 0.  0.
        -11    1    3    3    0    0 -0.23162462737E+02  0.42321424393E+02 -0.89608978952E+01  0.49070361055E+02  0.51100000000E-03 0.  1.
         23    2    1    0    0    0 -0.25326708588E+02  0.13527217723E+01  0.13943728238E+02  0.96056959710E+02  0.91592794080E+02 0.  0.
         11    1    3    3    0    0 -0.21642458502E+01 -0.40968702621E+02  0.22904626134E+02  0.46986598654E+02  0.51100000000E-03 0. -1.
         22    1    1    0    0    0  0.25326708588E+02 -0.13527217723E+01 -0.13943728238E+02  0.28943040290E+02  0.00000000000E+00 0. -1.
</event>
<event>
 5    1  0.8752570E-005  0.9118800E+02  0.7818608E-02  0.1130116E+00
         25   -1    0    0    0    0  0.00000000000E+00  0.00000000000E+00  0.99999998245E-14  0.12500000000E+03  0.12500000000E+03 0.  0.
        -11    1    3    3    0    0  0.15791697544E+02 -0.15271394631E+02  0.31445831100E+02  0.38359268751E+02  0.51100000000E-03 0.  1.
         23    2    1    0    0    0 -0.30213201304E+02 -0.52174070351E+01  0.12208991682E+01  0.94315322000E+02  0.89184250291E+02 0.  0.
         11    1    3    3    0    0 -0.46004898848E+02  0.10053987596E+02 -0.30224931932E+02  0.55956053249E+02  0.51100000000E-03 0. -1.
         22    1    1    0    0    0  0.30213201304E+02  0.52174070351E+01 -0.12208991682E+01  0.30684678000E+02  0.00000000000E+00 0. -1.
</event>
<event>
 5    1  0.8752570E-005  0.9118800E+02  0.7818608E-02  0.1130116E+00
         25   -1    0    0    0    0  0.00000000000E+00  0.00000000000E+00  0.99999998245E-14  0.12500000000E+03  0.12500000000E+03 0.  0.
        -11    1    3    3    0    0 -0.30317208710E+02 -0.35577584667E+01  0.24181168539E+02  0.38942517914E+02  0.51100000000E-03 0.  1.
         23    2    1    0    0    0  0.48204710130E+01  0.21086642583E+02 -0.16280760348E+02  0.97927013580E+02  0.94110325655E+02 0.  0.
         11    1    3    3    0    0  0.35137679723E+02  0.24644401050E+02 -0.40461928887E+02  0.58984495666E+02  0.51100000000E-03 0. -1.
         22    1    1    0    0    0 -0.48204710130E+01 -0.21086642583E+02  0.16280760348E+02  0.27072986420E+02  0.00000000000E+00 0. -1.
</event>
<event>
 5    1  0.8752570E-005  0.9118800E+02  0.7818608E-02  0.1130116E+00
         25   -1    0    0    0    0  0.00000000000E+00  0.00000000000E+00  0.99999998245E-14  0.12500000000E+03  0.12500000000E+03 0.  0.
        -11    1    3    3    0    0 -0.28251209867E+02  0.15267514242E+02 -0.52577924380E+02  0.61608976476E+02  0.51100000000E-03 0. -1.
         23    2    1    0    0    0 -0.84017874488E+01  0.10643207722E+02 -0.30306128509E+02  0.91798654724E+02  0.85584249024E+02 0.  0.
         11    1    3    3    0    0  0.19849422418E+02 -0.46243065202E+01  0.22271795871E+02  0.30189678248E+02  0.51100000000E-03 0.  1.
         22    1    1    0    0    0  0.84017874488E+01 -0.10643207722E+02  0.30306128509E+02  0.33201345276E+02  0.00000000000E+00 0. -1.
</event>
<event>
 5    1  0.8752570E-005  0.9118800E+02  0.7818608E-02  0.1130116E+00
         25   -1    0    0    0    0  0.00000000000E+00  0.00000000000E+00  0.99999998245E-14  0.12500000000E+03  0.12500000000E+03 0.  0.
        -11    1    3    3    0    0  0.23954019281E+02 -0.23833086116E+02  0.45562388728E+02  0.56725146984E+02  0.51100000000E-03 0. -1.
         23    2    1    0    0    0  0.22970308543E+02 -0.14726804288E+02  0.63606757455E+01  0.96982647609E+02  0.92847519634E+02 0.  0.
         11    1    3    3    0    0 -0.98371073868E+00  0.91062818278E+01 -0.39201712982E+02  0.40257500625E+02  0.51100000000E-03 0.  1.
         22    1    1    0    0    0 -0.22970308543E+02  0.14726804288E+02 -0.63606757455E+01  0.28017352391E+02  0.00000000000E+00 0. -1.
</event>
<event>
 5    1  0.8752570E-005  0.9118800E+02  0.7818608E-02  0.1130116E+00
         25   -1    0    0    0    0  0.00000000000E+00  0.00000000000E+00  0.99999998245E-14  0.12500000000E+03  0.12500000000E+03 0.  0.
        -11    1    3    3    0    0 -0.34721536728E+01  0.24721470487E+02 -0.33852646990E+02  0.42061962183E+02  0.51100000000E-03 0.  1.
         23    2    1    0    0    0  0.29201255809E+02  0.34940340424E+01  0.26736929304E+01  0.95469164445E+02  0.90787064669E+02 0.  0.
         11    1    3    3    0    0  0.32673409482E+02 -0.21227436445E+02  0.36526339920E+02  0.53407202262E+02  0.51100000000E-03 0. -1.
         22    1    1    0    0    0 -0.29201255809E+02 -0.34940340424E+01 -0.26736929304E+01  0.29530835555E+02  0.00000000000E+00 0. -1.
</event>
<event>
 5    1  0.8752570E-005  0.9118800E+02  0.7818608E-02  0.1130116E+00
         25   -1    0    0    0    0  0.00000000000E+00  0.00000000000E+00  0.99999998245E-14  0.12500000000E+03  0.12500000000E+03 0.  0.
        -11    1    3    3    0    0 -0.18435355844E+02 -0.52199727093E+02 -0.25982187295E+02  0.61153478319E+02  0.51100000000E-03 0. -1.
         23    2    1    0    0    0 -0.10870785662E+02 -0.19139677652E+02 -0.19312082763E+02  0.95717619937E+02  0.91128508076E+02 0.  0.
         11    1    3    3    0    0  0.75645701822E+01  0.33060049440E+02  0.66701045322E+01  0.34564141618E+02  0.51100000000E-03 0.  1.
         22    1    1    0    0    0  0.10870785662E+02  0.19139677652E+02  0.19312082763E+02  0.29282380063E+02  0.00000000000E+00 0. -1.
</event>
<event>
 5    1  0.8752570E-005  0.9118800E+02  0.7818608E-02  0.1130116E+00
         25   -1    0    0    0    0  0.00000000000E+00  0.00000000000E+00  0.99999998245E-14  0.12500000000E+03  0.12500000000E+03 0.  0.
        -11    1    3    3    0    0  0.14864741644E+02 -0.29091130049E+02 -0.94194106340E+01  0.33999701302E+02  0.51100000000E-03 0.  1.
         23    2    1    0    0    0 -0.37641656507E+01  0.28998269994E+02  0.20548026347E+00  0.95757721911E+02  0.91183498933E+02 0.  0.
         11    1    3    3    0    0 -0.18628907294E+02  0.58089400044E+02  0.96248908974E+01  0.61758020609E+02  0.51100000000E-03 0. -1.
         22    1    1    0    0    0  0.37641656507E+01 -0.28998269994E+02 -0.20548026347E+00  0.29242278089E+02  0.00000000000E+00 0. -1.
</event>
<event>
 5    1  0.8752570E-005  0.9118800E+02  0.7818608E-02  0.1130116E+00
         25   -1    0    0    0    0  0.00000000000E+00  0.00000000000E+00  0.99999998245E-14  0.12500000000E+03  0.12500000000E+03 0.  0.
        -11    1    3    3    0    0  0.84015805555E+01 -0.48566787240E+02  0.26098974143E+01  0.49357177223E+02  0.51100000000E-03 0.  1.
         23    2    1    0    0    0  0.16129691794E+02 -0.10468848877E+02  0.24409406097E+02  0.93926170816E+02  0.88637140657E+02 0.  0.
         11    1    3    3    0    0  0.77281112380E+01  0.38097938363E+02  0.21799508683E+02  0.44568993593E+02  0.51100000000E-03 0. -1.
         22    1    1    0    0    0 -0.16129691794E+02  0.10468848877E+02 -0.24409406097E+02  0.31073829184E+02  0.00000000000E+00 0.  1.
</event>
<event>
 5    1  0.8752570E-005  0.9118800E+02  0.7818608E-02  0.1130116E+00
         25   -1    0    0    0    0  0.00000000000E+00  0.00000000000E+00  0.99999998245E-14  0.12500000000E+03  0.12500000000E+03 0.  0.
        -11    1    3    3    0    0  0.42759960086E+02  0.12528814984E+02  0.20937194405E+02  0.49231610793E+02  0.51100000000E-03 0.  1.
         23    2    1    0    0    0 -0.25513901821E+01  0.22262419813E+02  0.19006453977E+02  0.95616837805E+02  0.90990161288E+02 0.  0.
         11    1    3    3    0    0 -0.45311350268E+02  0.97336048285E+01 -0.19307404278E+01  0.46385227012E+02  0.51100000000E-03 0. -1.
         22    1    1    0    0    0  0.25513901821E+01 -0.22262419813E+02 -0.19006453977E+02  0.29383162195E+02  0.00000000000E+00 0. -1.
</event>
<event>
 5    1  0.8752570E-005  0.9118800E+02  0.7818608E-02  0.1130116E+00
         25   -1    0    0    0    0  0.00000000000E+00  0.00000000000E+00  0.99999998245E-14  0.12500000000E+03  0.12500000000E+03 0.  0.
        -11    1    3    3    0    0  0.53519596423E+02 -0.19139425098E+02  0.22069495181E+01  0.56881767033E+02  0.51100000000E-03 0. -1.
         23    2    1    0    0    0  0.17331554284E+02 -0.21016074793E+02 -0.11237887221E+02  0.95532250124E+02  0.90873882557E+02 0.  0.
         11    1    3    3    0    0 -0.36188042139E+02 -0.18766496951E+01 -0.13444836739E+02  0.38650483091E+02  0.51100000000E-03 0.  1.
         22    1    1    0    0    0 -0.17331554284E+02  0.21016074793E+02  0.11237887221E+02  0.29467749876E+02  0.00000000000E+00 0. -1.
</event>
<event>
 5    1  0.8752570E-005  0.9118800E+02  0.7818608E-02  0.1130116E+00
         25   -1    0    0    0    0  0.00000000000E+00  0.00000000000E+00  0.99999998245E-14  0.12500000000E+03  0.12500000000E+03 0.  0.
        -11    1    3    3    0    0  0.40679544788E+00  0.31615769206E+02 -0.34431222241E+02  0.46746458800E+02  0.51100000000E-03 0.  1.
         23    2    1    0    0    0 -0.17849077564E+02 -0.11594864246E+02 -0.19918787702E+02  0.95848867084E+02  0.91308360905E+02 0.  0.
         11    1    3    3    0    0 -0.18255873012E+02 -0.43210633452E+02  0.14512434540E+02  0.49102408284E+02  0.51100000000E-03 0. -1.
         22    1    1    0    0    0  0.17849077564E+02  0.11594864246E+02  0.19918787702E+02  0.29151132916E+02  0.00000000000E+00 0. -1.
</event>
<event>
 5    1  0.8752570E-005  0.9118800E+02  0.7818608E-02  0.1130116E+00
         25   -1    0    0    0    0  0.00000000000E+00  0.00000000000E+00  0.99999998245E-14  0.12500000000E+03  0.12500000000E+03 0.  0.
        -11    1    3    3    0    0  0.13454609617E+02 -0.34331729142E+02  0.55232046383E+00  0.36878167036E+02  0.51100000000E-03 0. -1.
         23    2    1    0    0    0 -0.11136144138E+02  0.14232209608E+02  0.22991409017E+02  0.95756635194E+02  0.91182009182E+02 0.  0.
         11    1    3    3    0    0 -0.24590753756E+02  0.48563938750E+02  0.22439088553E+02  0.58878468157E+02  0.51100000000E-03 0.  1.
         22    1    1    0    0    0  0.11136144138E+02 -0.14232209608E+02 -0.22991409017E+02  0.29243364806E+02  0.00000000000E+00 0.  1.
</event>
<event>
 5    1  0.8752570E-005  0.9118800E+02  0.7818608E-02  0.1130116E+00
         25   -1    0    0    0    0  0.00000000000E+00  0.00000000000E+00  0.99999998245E-14  0.12500000000E+03  0.12500000000E+03 0.  0.
        -11    1    3    3    0    0  0.29143073692E+02 -0.71384843733E+01  0.37465267726E+02  0.47999197800E+02  0.51100000000E-03 0.  1.
         23    2    1    0    0    0  0.21105417176E+02  0.17687370518E+02 -0.41832002033E+01  0.97147156807E+02  0.93068733749E+02 0.  0.
         11    1    3    3    0    0 -0.80376565163E+01  0.24825854891E+02 -0.41648467930E+02  0.49147959007E+02  0.51100000000E-03 0. -1.
         22    1    1    0    0    0 -0.21105417176E+02 -0.17687370518E+02  0.41832002033E+01  0.27852843193E+02  0.00000000000E+00 0. -1.
</event>
<event>
 5    1  0.8752570E-005  0.9118800E+02  0.7818608E-02  0.1130116E+00
         25   -1    0    0    0    0  0.00000000000E+00  0.00000000000E+00  0.99999998245E-14  0.12500000000E+03  0.12500000000E+03 0.  0.
        -11    1    3    3    0    0  0.59826732361E+01  0.54478512848E+02 -0.22388123535E+02  0.59202439282E+02  0.51100000000E-03 0.  1.
         23    2    1    0    0    0 -0.11210536039E+02  0.25074116246E+02 -0.13448835787E+02  0.94418001899E+02  0.89328049765E+02 0.  0.
         11    1    3    3    0    0 -0.17193209276E+02 -0.29404396602E+02  0.89392877482E+01  0.35215562617E+02  0.51100000000E-03 0. -1.
         22    1    1    0    0    0  0.11210536039E+02 -0.25074116246E+02  0.13448835787E+02  0.30581998101E+02  0.00000000000E+00 0.  1.
</event>
<event>
 5    1  0.8752570E-005  0.9118800E+02  0.7818608E-02  0.1130116E+00
         25   -1    0    0    0    0  0.00000000000E+00  0.00000000000E+00  0.99999998245E-14  0.12500000000E+03  0.12500000000E+03 0.  0.
        -11    1    3    3    0    0  0.14636462505E+02 -0.27293059699E+02  0.18413545384E+02  0.36030484263E+02  0.51100000000E-03 0.  1.
         23    2    1    0    0    0 -0.30154546995E+02  0.11461421887E+01 -0.56669227859E+01  0.94296183295E+02  0.89157421585E+02 0.  0.
         11    1    3    3    0    0 -0.44791009500E+02  0.28439201888E+02 -0.24080468170E+02  0.58265699031E+02  0.51100000000E-03 0. -1.
         22    1    1    0    0    0  0.30154546995E+02 -0.11461421887E+01  0.56669227859E+01  0.30703816705E+02  0.00000000000E+00 0. -1.
</event>
<event>
 5    1  0.8752570E-005  0.9118800E+02  0.7818608E-02  0.1130116E+00
         25   -1    0    0    0    0  0.00000000000E+00  0.00000000000E+00  0.99999998245E-14  0.12500000000E+03  0.12500000000E+03 0.  0.
        -11    1    3    3    0    0 -0.15873407065E+02  0.55002293606E+02  0.15372095388E+02  0.59274941338E+02  0.51100000000E-03 0. -1.
         23    2    1    0    0    0 -0.20187808465E+02  0.38939118400E+02  0.12064807046E+01  0.81122236291E+02  0.68231657409E+02 0.  0.
         11    1    3    3    0    0 -0.43144013998E+01 -0.16063175206E+02 -0.14165614683E+02  0.21847294953E+02  0.51100000000E-03 0.  1.
         22    1    1    0    0    0  0.20187808465E+02 -0.38939118400E+02 -0.12064807046E+01  0.43877763709E+02  0.00000000000E+00 0. -1.
</event>
<event>
 5    1  0.8752570E-005  0.9118800E+02  0.7818608E-02  0.1130116E+00
         25   -1    0    0    0    0  0.00000000000E+00  0.00000000000E+00  0.99999998245E-14  0.12500000000E+03  0.12500000000E+03 0.  0.
        -11    1    3    3    0    0  0.37109658559E+02  0.34551041278E+02  0.16928392962E+02  0.53455324340E+02  0.51100000000E-03 0.  1.
         23    2    1    0    0    0  0.12874614877E+02  0.10775087211E+01  0.26181529633E+02  0.95804294370E+02  0.91247321016E+02 0.  0.
         11    1    3    3    0    0 -0.24235043682E+02 -0.33473532557E+02  0.92531366712E+01  0.42348970030E+02  0.51100000000E-03 0. -1.
         22    1    1    0    0    0 -0.12874614877E+02 -0.10775087211E+01 -0.26181529633E+02  0.29195705630E+02  0.00000000000E+00 0.  1.
</event>
<event>
 5    1  0.8752570E-005  0.9118800E+02  0.7818608E-02  0.1130116E+00
         25   -1    0    0    0    0  0.00000000000E+00  0.00000000000E+00  0.99999998245E-14  0.12500000000E+03  0.12500000000E+03 0.  0.
        -11    1    3    3    0    0  0.85513149471E+01  0.28395511275E+02  0.45675619922E+02  0.54458170217E+02  0.51100000000E-03 0.  1.
         23    2    1    0    0    0  0.15618811097E+02 -0.61765252988E+01  0.23429534159E+02  0.96172239148E+02  0.91749985215E+02 0.  0.
         11    1    3    3    0    0  0.70674961501E+01 -0.34572036573E+02 -0.22246085764E+02  0.41714068930E+02  0.51100000000E-03 0. -1.
         22    1    1    0    0    0 -0.15618811097E+02  0.61765252988E+01 -0.23429534159E+02  0.28827760852E+02  0.00000000000E+00 0.  1.
</event>
<event>
 5    1  0.8752570E-005  0.9118800E+02  0.7818608E-02  0.1130116E+00
         25   -1    0    0    0    0  0.00000000000E+00  0.00000000000E+00  0.99999998245E-14  0.12500000000E+03  0.12500000000E+03 0.  0.
        -11    1    3    3    0    0  0.32619757497E+02 -0.84504629433E+01 -0.41658484139E+01  0.33953102898E+02  0.51100000000E-03 0. -1.
         23    2    1    0    0    0 -0.23629838782E+02  0.33165205804E+01  0.17542696505E+02  0.95383876177E+02  0.90669559634E+02 0.  0.
         11    1    3    3    0    0 -0.56249596280E+02  0.11766983524E+02  0.21708544919E+02  0.61430773279E+02  0.51100000000E-03 0.  1.
         22    1    1    0    0    0  0.23629838782E+02 -0.33165205804E+01 -0.17542696505E+02  0.29616123823E+02  0.00000000000E+00 0.  1.
</event>
<event>
 5    1  0.8752570E-005  0.9118800E+02  0.7818608E-02  0.1130116E+00
         25   -1    0    0    0    0  0.00000000000E+00  0.00000000000E+00  0.99999998245E-14  0.12500000000E+03  0.12500000000E+03 0.  0.
        -11    1    3    3    0    0 -0.17179495921E+01  0.10377984688E+02 -0.43137699846E+02  0.44401746196E+02  0.51100000000E-03 0. -1.
         23    2    1    0    0    0 -0.31152104948E+02 -0.86397247793E+01 -0.14913297402E+02  0.89397964576E+02  0.82002994725E+02 0.  0.
         11    1    3    3    0    0 -0.29434155356E+02 -0.19017709468E+02  0.28224402444E+02  0.44996218380E+02  0.51100000000E-03 0.  1.
         22    1    1    0    0    0  0.31152104948E+02  0.86397247793E+01  0.14913297402E+02  0.35602035424E+02  0.00000000000E+00 0. -1.
</event>
<event>
 5    1  0.8752570E-005  0.9118800E+02  0.7818608E-02  0.1130116E+00
         25   -1    0    0    0    0  0.00000000000E+00  0.00000000000E+00  0.99999998245E-14  0.12500000000E+03  0.12500000000E+03 0.  0.
        -11    1    3    3    0    0 -0.11254148662E+02 -0.41703266034E+02  0.95849456279E+01  0.44245784465E+02  0.51100000000E-03 0. -1.
         23    2    1    0    0    0 -0.24087073611E+02  0.90315838354E+01 -0.54686178973E+01  0.98700524655E+02  0.95132177331E+02 0.  0.
         11    1    3    3    0    0 -0.12832924949E+02  0.50734849869E+02 -0.15053563525E+02  0.54454740189E+02  0.51100000000E-03 0.  1.
         22    1    1    0    0    0  0.24087073611E+02 -0.90315838354E+01  0.54686178973E+01  0.26299475345E+02  0.00000000000E+00 0.  1.
</event>
<event>
 5    1  0.8752570E-005  0.9118800E+02  0.7818608E-02  0.1130116E+00
         25   -1    0    0    0    0  0.00000000000E+00  0.00000000000E+00  0.99999998245E-14  0.12500000000E+03  0.12500000000E+03 0.  0.
        -11    1    3    3    0    0  0.38813445878E+01  0.18710852272E+02 -0.48962101656E+02  0.52558997587E+02  0.51100000000E-03 0.  1.
         23    2    1    0    0    0 -0.22511117052E+01  0.28913739942E+02 -0.84367906381E+01  0.94796501897E+02  0.89856137656E+02 0.  0.
         11    1    3    3    0    0 -0.61324562930E+01  0.10202887670E+02  0.40525311018E+02  0.42237504310E+02  0.51100000000E-03 0. -1.
         22    1    1    0    0    0  0.22511117052E+01 -0.28913739942E+02  0.84367906381E+01  0.30203498103E+02  0.00000000000E+00 0.  1.
</event>
<event>
 5    1  0.8752570E-005  0.9118800E+02  0.7818608E-02  0.1130116E+00
         25   -1    0    0    0    0  0.00000000000E+00  0.00000000000E+00  0.99999998245E-14  0.12500000000E+03  0.12500000000E+03 0.  0.
        -11    1    3    3    0    0 -0.30817136420E+02 -0.13836032611E+02  0.52060764303E+01  0.34179451833E+02  0.51100000000E-03 0.  1.
         23    2    1    0    0    0  0.28412737058E+02 -0.75290809092E+01  0.10038075932E+02  0.93939838138E+02  0.88656412823E+02 0.  0.
         11    1    3    3    0    0  0.59229873478E+02  0.63069517018E+01  0.48319995013E+01  0.59760386306E+02  0.51100000000E-03 0. -1.
         22    1    1    0    0    0 -0.28412737058E+02  0.75290809092E+01 -0.10038075932E+02  0.31060161862E+02  0.00000000000E+00 0. -1.
</event>
<event>
 5    1  0.8752570E-005  0.9118800E+02  0.7818608E-02  0.1130116E+00
         25   -1    0    0    0    0  0.00000000000E+00  0.00000000000E+00  0.99999998245E-14  0.12500000000E+03  0.12500000000E+03 0.  0.
        -11    1    3    3    0    0 -0.55953804913E+01 -0.13943879521E+02 -0.38015422040E+02  0.40876795032E+02  0.51100000000E-03 0.  1.
         23    2    1    0    0    0 -0.22612550154E+02 -0.10626302866E+02  0.14453284036E+02  0.96135780688E+02  0.91700300828E+02 0.  0.
         11    1    3    3    0    0 -0.17017169663E+02  0.33175766554E+01  0.52468706076E+02  0.55258985656E+02  0.51100000000E-03 0. -1.
         22    1    1    0    0    0  0.22612550154E+02  0.10626302866E+02 -0.14453284036E+02  0.28864219312E+02  0.00000000000E+00 0. -1.
</event>
<event>
 5    1  0.8752570E-005  0.9118800E+02  0.7818608E-02  0.1130116E+00
         25   -1    0    0    0    0  0.00000000000E+00  0.00000000000E+00  0.99999998245E-14  0.12500000000E+03  0.12500000000E+03 0.  0.
        -11    1    3    3    0    0  0.19950204006E+02  0.60317646152E+01 -0.38130393039E+02  0.43454800630E+02  0.51100000000E-03 0.  1.
         23    2    1    0    0    0 -0.25871015291E+02  0.26941954080E+01 -0.16133262123E+02  0.94391990136E+02  0.89291643137E+02 0.  0.
         11    1    3    3    0    0 -0.45821219297E+02 -0.33375692072E+01  0.21997130915E+02  0.50937189506E+02  0.51100000000E-03 0. -1.
         22    1    1    0    0    0  0.25871015291E+02 -0.26941954080E+01  0.16133262123E+02  0.30608009864E+02  0.00000000000E+00 0. -1.
</event>
<event>
 5    1  0.8752570E-005  0.9118800E+02  0.7818608E-02  0.1130116E+00
         25   -1    0    0    0    0  0.00000000000E+00  0.00000000000E+00  0.99999998245E-14  0.12500000000E+03  0.12500000000E+03 0.  0.
        -11    1    3    3    0    0 -0.36957531027E+02  0.14026065510E+02  0.43178889161E+02  0.58540636166E+02  0.51100000000E-03 0.  1.
         23    2    1    0    0    0 -0.64906272810E+01 -0.99966941256E+00  0.28854047812E+02  0.95408047436E+02  0.90702876796E+02 0.  0.
         11    1    3    3    0    0  0.30466903746E+02 -0.15025734923E+02 -0.14324841350E+02  0.36867411270E+02  0.51100000000E-03 0. -1.
         22    1    1    0    0    0  0.64906272810E+01  0.99966941256E+00 -0.28854047812E+02  0.29591952564E+02  0.00000000000E+00 0.  1.
</event>
<event>
 5    1  0.8752570E-005  0.9118800E+02  0.7818608E-02  0.1130116E+00
         25   -1    0    0    0    0  0.00000000000E+00  0.00000000000E+00  0.99999998245E-14  0.12500000000E+03  0.12500000000E+03 0.  0.
        -11    1    3    3    0    0 -0.15813472475E+02 -0.53022194406E+01  0.60019491795E+02  0.62293810594E+02  0.51100000000E-03 0.  1.
         23    2    1    0    0    0 -0.44884734897E+01 -0.50129162612E+00  0.28780322018E+02  0.95867464528E+02  0.91333817023E+02 0.  0.
         11    1    3    3    0    0  0.11324998985E+02  0.48009278145E+01 -0.31239169776E+02  0.33573653934E+02  0.51100000000E-03 0. -1.
         22    1    1    0    0    0  0.44884734897E+01  0.50129162612E+00 -0.28780322018E+02  0.29132535472E+02  0.00000000000E+00 0.  1.
</event>
<event>
 5    1  0.8752570E-005  0.9118800E+02  0.7818608E-02  0.1130116E+00
         25   -1    0    0    0    0  0.00000000000E+00  0.00000000000E+00  0.99999998245E-14  0.12500000000E+03  0.12500000000E+03 0.  0.
        -11    1    3    3    0    0 -0.83886623020E+01  0.27644859926E+02 -0.17456201805E+02  0.33753917065E+02  0.51100000000E-03 0. -1.
         23    2    1    0    0    0  0.42992430393E+01 -0.98630511828E+01  0.28571700483E+02  0.94469599776E+02  0.89400223400E+02 0.  0.
         11    1    3    3    0    0  0.12687905341E+02 -0.37507911109E+02  0.46027902288E+02  0.60715682710E+02  0.51100000000E-03 0.  1.
         22    1    1    0    0    0 -0.42992430393E+01  0.98630511828E+01 -0.28571700483E+02  0.30530400224E+02  0.00000000000E+00 0.  1.
</event>
<event>
 5    1  0.8752570E-005  0.9118800E+02  0.7818608E-02  0.1130116E+00
         25   -1    0    0    0    0  0.00000000000E+00  0.00000000000E+00  0.99999998245E-14  0.12500000000E+03  0.12500000000E+03 0.  0.
        -11    1    3    3    0    0 -0.30812496310E+02  0.19439469678E+01  0.16247078464E+02  0.34887768882E+02  0.51100000000E-03 0.  1.
         23    2    1    0    0    0  0.18897787648E+02  0.81074107344E+01 -0.19684686697E+02  0.96533469176E+02  0.92240811433E+02 0.  0.
         11    1    3    3    0    0  0.49710283958E+02  0.61634637666E+01 -0.35931765162E+02  0.61645700294E+02  0.51100000000E-03 0. -1.
         22    1    1    0    0    0 -0.18897787648E+02 -0.81074107344E+01  0.19684686697E+02  0.28466530824E+02  0.00000000000E+00 0. -1.
</event>
<event>
 5    1  0.8752570E-005  0.9118800E+02  0.7818608E-02  0.1130116E+00
         25   -1    0    0    0    0  0.00000000000E+00  0.00000000000E+00  0.99999998245E-14  0.12500000000E+03  0.12500000000E+03 0.  0.
        -11    1    3    3    0    0  0.61744204562E+01  0.85188587124E+01  0.36964911620E+02  0.38433047147E+02  0.51100000000E-03 0. -1.
         23    2    1    0    0    0  0.40347604928E+01  0.22421110005E+02 -0.18499656876E+02  0.95653402742E+02  0.91040379423E+02 0.  0.
         11    1    3    3    0    0 -0.21396599634E+01  0.13902251293E+02 -0.55464568495E+02  0.57220355595E+02  0.51100000000E-03 0.  1.
         22    1    1    0    0    0 -0.40347604928E+01 -0.22421110005E+02  0.18499656876E+02  0.29346597258E+02  0.00000000000E+00 0.  1.
</event>
<event>
 5    1  0.8752570E-005  0.9118800E+02  0.7818608E-02  0.1130116E+00
         25   -1    0    0    0    0  0.00000000000E+00  0.00000000000E+00  0.99999998245E-14  0.12500000000E+03  0.12500000000E+03 0.  0.
        -11    1    3    3    0    0 -0.25273469227E+02 -0.21060136929E+02  0.50725537833E+02  0.60459555101E+02  0.51100000000E-03 0.  1.
         23    2    1    0    0    0 -0.51059607770E+01 -0.18868176566E+02  0.22961307671E+02  0.94845388871E+02  0.89924119221E+02 0.  0.
         11    1    3    3    0    0  0.20167508450E+02  0.21919603626E+01 -0.27764230162E+02  0.34385833770E+02  0.51100000000E-03 0. -1.
         22    1    1    0    0    0  0.51059607770E+01  0.18868176566E+02 -0.22961307671E+02  0.30154611129E+02  0.00000000000E+00 0.  1.
</event>
<event>
 5    1  0.8752570E-005  0.9118800E+02  0.7818608E-02  0.1130116E+00
         25   -1    0    0    0    0  0.00000000000E+00  0.00000000000E+00  0.99999998245E-14  0.12500000000E+03  0.12500000000E+03 0.  0.
        -11    1    3    3    0    0 -0.18497780267E+02 -0.97693815140E+00 -0.32095679724E+02  0.37057454583E+02  0.51100000000E-03 0. -1.
         23    2    1    0    0    0  0.70454324151E+01  0.27890790359E+02  0.10381693900E+02  0.94417098355E+02  0.89326785394E+02 0.  0.
         11    1    3    3    0    0  0.25543212682E+02  0.28867728510E+02  0.42477373624E+02  0.57359643773E+02  0.51100000000E-03 0.  1.
         22    1    1    0    0    0 -0.70454324151E+01 -0.27890790359E+02 -0.10381693900E+02  0.30582901645E+02  0.00000000000E+00 0.  1.
</event>
<event>
 5    1  0.8752570E-005  0.9118800E+02  0.7818608E-02  0.1130116E+00
         25   -1    0    0    0    0  0.00000000000E+00  0.00000000000E+00  0.99999998245E-14  0.12500000000E+03  0.12500000000E+03 0.  0.
        -11    1    3    3    0    0 -0.24200798448E+02  0.41553601119E+01  0.21156138639E+01  0.24645922289E+02  0.51100000000E-03 0.  1.
         23    2    1    0    0    0  0.14748418932E+01 -0.37368190947E+02  0.26449307713E+02  0.79194730306E+02  0.64604044583E+02 0.  0.
         11    1    3    3    0    0  0.25675640341E+02 -0.41523551059E+02  0.24333693849E+02  0.54548808017E+02  0.51100000000E-03 0. -1.
         22    1    1    0    0    0 -0.14748418932E+01  0.37368190947E+02 -0.26449307713E+02  0.45805269694E+02  0.00000000000E+00 0. -1.
</event>
<event>
 5    1  0.8752570E-005  0.9118800E+02  0.7818608E-02  0.1130116E+00
         25   -1    0    0    0    0  0.00000000000E+00  0.00000000000E+00  0.99999998245E-14  0.12500000000E+03  0.12500000000E+03 0.  0.
        -11    1    3    3    0    0 -0.13067467216E+02  0.14955411990E+02 -0.50803423633E+02  0.54547327161E+02  0.51100000000E-03 0.  1.
         23    2    1    0    0    0 -0.21190294291E+02  0.16139820508E+02 -0.94053364613E+01  0.96751411856E+02  0.92535684814E+02 0.  0.
         11    1    3    3    0    0 -0.81228270753E+01  0.11844085177E+01  0.41398087172E+02  0.42204084696E+02  0.51100000000E-03 0. -1.
         22    1    1    0    0    0  0.21190294291E+02 -0.16139820508E+02  0.94053364613E+01  0.28248588144E+02  0.00000000000E+00 0.  1.
</event>
<event>
 5    1  0.8752570E-005  0.9118800E+02  0.7818608E-02  0.1130116E+00
         25   -1    0    0    0    0  0.00000000000E+00  0.00000000000E+00  0.99999998245E-14  0.12500000000E+03  0.12500000000E+03 0.  0.
        -11    1    3    3    0    0  0.43753500286E+01  0.34568904074E+02  0.29301876571E+02  0.45527494853E+02  0.51100000000E-03 0.  1.
         23    2    1    0    0    0 -0.16379840549E+01  0.21870577835E+02 -0.19093636098E+02  0.95921277434E+02  0.91407436014E+02 0.  0.
         11    1    3    3    0    0 -0.60133340835E+01 -0.12698326239E+02 -0.48395512669E+02  0.50393782581E+02  0.51100000000E-03 0. -1.
         22    1    1    0    0    0  0.16379840549E+01 -0.21870577835E+02  0.19093636098E+02  0.29078722566E+02  0.00000000000E+00 0. -1.
</event>
<event>
 5    1  0.8752570E-005  0.9118800E+02  0.7818608E-02  0.1130116E+00
         25   -1    0    0    0    0  0.00000000000E+00  0.00000000000E+00  0.99999998245E-14  0.12500000000E+03  0.12500000000E+03 0.  0.
        -11    1    3    3    0    0  0.40365753901E+02  0.64822411798E+01  0.19049932337E+02  0.45103364187E+02  0.51100000000E-03 0.  1.
         23    2    1    0    0    0  0.20744686215E+02 -0.12721342029E+02 -0.20454140721E+02  0.93210907188E+02  0.87622638610E+02 0.  0.
         11    1    3    3    0    0 -0.19621067686E+02 -0.19203583209E+02 -0.39504073058E+02  0.48107543001E+02  0.51100000000E-03 0. -1.
         22    1    1    0    0    0 -0.20744686215E+02  0.12721342029E+02  0.20454140721E+02  0.31789092812E+02  0.00000000000E+00 0. -1.
</event>
<event>
 5    1  0.8752570E-005  0.9118800E+02  0.7818608E-02  0.1130116E+00
         25   -1    0    0    0    0  0.00000000000E+00  0.00000000000E+00  0.99999998245E-14  0.12500000000E+03  0.12500000000E+03 0.  0.
        -11    1    3    3    0    0 -0.38743090926E+02  0.54650843411E+01  0.62455807225E+01  0.39621982790E+02  0.51100000000E-03 0.  1.
         23    2    1    0    0    0  0.14840119575E+02  0.71974722728E+01  0.23808448777E+02  0.96036661289E+02  0.91565087900E+02 0.  0.
         11    1    3    3    0    0  0.53583210501E+02  0.17323879317E+01  0.17562868055E+02  0.56414678499E+02  0.51100000000E-03 0. -1.
         22    1    1    0    0    0 -0.14840119575E+02 -0.71974722728E+01 -0.23808448777E+02  0.28963338711E+02  0.00000000000E+00 0. -1.
</event>
<event>
 5    1  0.8752570E-005  0.9118800E+02  0.7818608E-02  0.1130116E+00
         25   -1    0    0    0    0  0.00000000000E+00  0.00000000000E+00  0.99999998245E-14  0.12500000000E+03  0.12500000000E+03 0.  0.
        -11    1    3    3    0    0 -0.24528799027E+02  0.10305510400E+02 -0.47938837097E+02  0.54826979023E+02  0.51100000000E-03 0.  1.
         23    2    1    0    0    0 -0.14516497767E+02  0.26640191053E+02 -0.20152911490E+02  0.88577914279E+02  0.80743288079E+02 0.  0.
         11    1    3    3    0    0  0.10012301260E+02  0.16334680653E+02  0.27785925607E+02  0.33750935256E+02  0.51100000000E-03 0. -1.
         22    1    1    0    0    0  0.14516497767E+02 -0.26640191053E+02  0.20152911490E+02  0.36422085721E+02  0.00000000000E+00 0.  1.
</event>
<event>
 5    1  0.8752570E-005  0.9118800E+02  0.7818608E-02  0.1130116E+00
         25   -1    0    0    0    0  0.00000000000E+00  0.00000000000E+00  0.99999998245E-14  0.12500000000E+03  0.12500000000E+03 0.  0.
        -11    1    3    3    0    0 -0.46797205608E+02  0.23572620342E+00 -0.24506173844E+01  0.46861919992E+02  0.51100000000E-03 0.  1.
         23    2    1    0    0    0 -0.74521531774E+01 -0.28442201791E+02 -0.31585817783E+00  0.95596034347E+02  0.90961577530E+02 0.  0.
         11    1    3    3    0    0  0.39345052430E+02 -0.28677927995E+02  0.21347592065E+01  0.48734114355E+02  0.51100000000E-03 0. -1.
         22    1    1    0    0    0  0.74521531774E+01  0.28442201791E+02  0.31585817783E+00  0.29403965653E+02  0.00000000000E+00 0.  1.
</event>
<event>
 5    1  0.8752570E-005  0.9118800E+02  0.7818608E-02  0.1130116E+00
         25   -1    0    0    0    0  0.00000000000E+00  0.00000000000E+00  0.99999998245E-14  0.12500000000E+03  0.12500000000E+03 0.  0.
        -11    1    3    3    0    0 -0.39370423627E+02 -0.25602852007E+01 -0.47232965120E+02  0.61542979382E+02  0.51100000000E-03 0.  1.
         23    2    1    0    0    0 -0.19130972212E+02 -0.87260536148E+01 -0.20523302556E+02  0.95617283017E+02  0.90990772907E+02 0.  0.
         11    1    3    3    0    0  0.20239451415E+02 -0.61657684142E+01  0.26709662564E+02  0.34074303635E+02  0.51100000000E-03 0. -1.
         22    1    1    0    0    0  0.19130972212E+02  0.87260536148E+01  0.20523302556E+02  0.29382716983E+02  0.00000000000E+00 0.  1.
</event>
<event>
 5    1  0.8752570E-005  0.9118800E+02  0.7818608E-02  0.1130116E+00
         25   -1    0    0    0    0  0.00000000000E+00  0.00000000000E+00  0.99999998245E-14  0.12500000000E+03  0.12500000000E+03 0.  0.
        -11    1    3    3    0    0 -0.96709523263E+01 -0.39090241033E+02  0.12880615119E+02  0.42278653113E+02  0.51100000000E-03 0. -1.
         23    2    1    0    0    0 -0.10272963858E+02  0.15837468457E+01 -0.25038462002E+02  0.97889732205E+02  0.94060794443E+02 0.  0.
         11    1    3    3    0    0 -0.60201153189E+00  0.40673987879E+02 -0.37919077121E+02  0.55611079092E+02  0.51100000000E-03 0.  1.
         22    1    1    0    0    0  0.10272963858E+02 -0.15837468457E+01  0.25038462002E+02  0.27110267795E+02  0.00000000000E+00 0.  1.
</event>
<event>
 5    1  0.8752570E-005  0.9118800E+02  0.7818608E-02  0.1130116E+00
         25   -1    0    0    0    0  0.00000000000E+00  0.00000000000E+00  0.99999998245E-14  0.12500000000E+03  0.12500000000E+03 0.  0.
        -11    1    3    3    0    0 -0.17248871241E+02  0.33706696776E+02  0.48322436450E+01  0.38170872999E+02  0.51100000000E-03 0. -1.
         23    2    1    0    0    0  0.28907627441E+02  0.18506480745E+01  0.96706336229E+01  0.94461549201E+02  0.89388966322E+02 0.  0.
         11    1    3    3    0    0  0.46156498681E+02 -0.31856048701E+02  0.48383899779E+01  0.56290676202E+02  0.51100000000E-03 0.  1.
         22    1    1    0    0    0 -0.28907627441E+02 -0.18506480745E+01 -0.96706336229E+01  0.30538450799E+02  0.00000000000E+00 0.  1.
</event>
<event>
 5    1  0.8752570E-005  0.9118800E+02  0.7818608E-02  0.1130116E+00
         25   -1    0    0    0    0  0.00000000000E+00  0.00000000000E+00  0.99999998245E-14  0.12500000000E+03  0.12500000000E+03 0.  0.
        -11    1    3    3    0    0 -0.48853543139E+02 -0.24349656622E+02 -0.12212073685E+02  0.55934865681E+02  0.51100000000E-03 0.  1.
         23    2    1    0    0    0 -0.22392636361E+02  0.47145954984E+01 -0.18287296624E+02  0.95706949771E+02  0.91113870748E+02 0.  0.
         11    1    3    3    0    0  0.26460906778E+02  0.29064252120E+02 -0.60752229391E+01  0.39772084090E+02  0.51100000000E-03 0. -1.
         22    1    1    0    0    0  0.22392636361E+02 -0.47145954984E+01  0.18287296624E+02  0.29293050229E+02  0.00000000000E+00 0.  1.
</event>
<event>
 5    1  0.8752570E-005  0.9118800E+02  0.7818608E-02  0.1130116E+00
         25   -1    0    0    0    0  0.00000000000E+00  0.00000000000E+00  0.99999998245E-14  0.12500000000E+03  0.12500000000E+03 0.  0.
        -11    1    3    3    0    0 -0.30314121221E+01 -0.10798563423E+02 -0.37491054144E+02  0.39132819635E+02  0.51100000000E-03 0. -1.
         23    2    1    0    0    0 -0.12436588318E+02  0.19668366723E+02  0.12619705855E+02  0.98527932563E+02  0.94905127052E+02 0.  0.
         11    1    3    3    0    0 -0.94051761959E+01  0.30466930146E+02  0.50110759999E+02  0.59395112928E+02  0.51100000000E-03 0.  1.
         22    1    1    0    0    0  0.12436588318E+02 -0.19668366723E+02 -0.12619705855E+02  0.26472067437E+02  0.00000000000E+00 0.  1.
</event>
<event>
 5    1  0.8752570E-005  0.9118800E+02  0.7818608E-02  0.1130116E+00
         25   -1    0    0    0    0  0.00000000000E+00  0.00000000000E+00  0.99999998245E-14  0.12500000000E+03  0.12500000000E+03 0.  0.
        -11    1    3    3    0    0 -0.13247900467E+01 -0.24328333481E+02  0.29769528597E+02  0.38468788800E+02  0.51100000000E-03 0. -1.
         23    2    1    0    0    0  0.22174390532E+02  0.19071820416E+02  0.70723586340E+00  0.95743579986E+02  0.91164110244E+02 0.  0.
         11    1    3    3    0    0  0.23499180579E+02  0.43400153897E+02 -0.29062292733E+02  0.57274791186E+02  0.51100000000E-03 0.  1.
         22    1    1    0    0    0 -0.22174390532E+02 -0.19071820416E+02 -0.70723586340E+00  0.29256420014E+02  0.00000000000E+00 0.  1.
</event>
<event>
 5    1  0.8752570E-005  0.9118800E+02  0.7818608E-02  0.1130116E+00
         25   -1    0    0    0    0  0.00000000000E+00  0.00000000000E+00  0.99999998245E-14  0.12500000000E+03  0.12500000000E+03 0.  0.
        -11    1    3    3    0    0 -0.14278445853E+02 -0.31576606178E+02  0.15618231876E+02  0.38011646121E+02  0.51100000000E-03 0.  1.
         23    2    1    0    0    0  0.30192163533E+02  0.25537185976E-01  0.11389347249E+02  0.92731057940E+02  0.86935404094E+02 0.  0.
         11    1    3    3    0    0  0.44470609385E+02  0.31602143364E+02 -0.42288846265E+01  0.54719411818E+02  0.51100000000E-03 0. -1.
         22    1    1    0    0    0 -0.30192163533E+02 -0.25537185976E-01 -0.11389347249E+02  0.32268942060E+02  0.00000000000E+00 0. -1.
</event>
<event>
 5    1  0.8752570E-005  0.9118800E+02  0.7818608E-02  0.1130116E+00
         25   -1    0    0    0    0  0.00000000000E+00  0.00000000000E+00  0.99999998245E-14  0.12500000000E+03  0.12500000000E+03 0.  0.
        -11    1    3    3    0    0 -0.24727885385E+02  0.38447768091E+02  0.83869454800E+01  0.46476230931E+02  0.51100000000E-03 0.  1.
         23    2    1    0    0    0 -0.12988294763E+02  0.39894830075E+01 -0.25433047509E+02  0.96165096131E+02  0.91740253067E+02 0.  0.
         11    1    3    3    0    0  0.11739590622E+02 -0.34458285083E+02 -0.33819992989E+02  0.49688865200E+02  0.51100000000E-03 0. -1.
         22    1    1    0    0    0  0.12988294763E+02 -0.39894830075E+01  0.25433047509E+02  0.28834903869E+02  0.00000000000E+00 0.  1.
</event>
<event>
 5    1  0.8752570E-005  0.9118800E+02  0.7818608E-02  0.1130116E+00
         25   -1    0    0    0    0  0.00000000000E+00  0.00000000000E+00  0.99999998245E-14  0.12500000000E+03  0.12500000000E+03 0.  0.
        -11    1    3    3    0    0 -0.87556131013E+01 -0.40583772822E+02 -0.30826015156E+02  0.51710217442E+02  0.51100000000E-03 0. -1.
         23    2    1    0    0    0  0.21853442562E+02 -0.17329703188E+02 -0.10460365856E+02  0.95212237106E+02  0.90432622855E+02 0.  0.
         11    1    3    3    0    0  0.30609055664E+02  0.23254069634E+02  0.20365649300E+02  0.43502019664E+02  0.51100000000E-03 0.  1.
         22    1    1    0    0    0 -0.21853442562E+02  0.17329703188E+02  0.10460365856E+02  0.29787762894E+02  0.00000000000E+00 0. -1.
</event>
<event>
 5    1  0.8752570E-005  0.9118800E+02  0.7818608E-02  0.1130116E+00
         25   -1    0    0    0    0  0.00000000000E+00  0.00000000000E+00  0.99999998245E-14  0.12500000000E+03  0.12500000000E+03 0.  0.
        -11    1    3    3    0    0 -0.24399326629E+02 -0.11027154372E+02  0.19459697918E+02  0.33099926236E+02  0.51100000000E-03 0. -1.
         23    2    1    0    0    0 -0.14517302867E+02 -0.20378368201E+02 -0.30885758662E+02  0.85251288560E+02  0.75417651381E+02 0.  0.
         11    1    3    3    0    0  0.98820237622E+01 -0.93512138285E+01 -0.50345456580E+02  0.52151362324E+02  0.51100000000E-03 0.  1.
         22    1    1    0    0    0  0.14517302867E+02  0.20378368201E+02  0.30885758662E+02  0.39748711440E+02  0.00000000000E+00 0.  1.
</event>
<event>
 5    1  0.8752570E-005  0.9118800E+02  0.7818608E-02  0.1130116E+00
         25   -1    0    0    0    0  0.00000000000E+00  0.00000000000E+00  0.99999998245E-14  0.12500000000E+03  0.12500000000E+03 0.  0.
        -11    1    3    3    0    0  0.26175896131E+01  0.15029960139E+02 -0.30214441111E+02  0.33847657660E+02  0.51100000000E-03 0.  1.
         23    2    1    0    0    0 -0.11374302037E+02 -0.23997483715E+02  0.14431662425E+02  0.94775393273E+02  0.89826768383E+02 0.  0.
         11    1    3    3    0    0 -0.13991891650E+02 -0.39027443854E+02  0.44646103536E+02  0.60927735613E+02  0.51100000000E-03 0. -1.
         22    1    1    0    0    0  0.11374302037E+02  0.23997483715E+02 -0.14431662425E+02  0.30224606727E+02  0.00000000000E+00 0. -1.
</event>
<event>
 5    1  0.8752570E-005  0.9118800E+02  0.7818608E-02  0.1130116E+00
         25   -1    0    0    0    0  0.00000000000E+00  0.00000000000E+00  0.99999998245E-14  0.12500000000E+03  0.12500000000E+03 0.  0.
        -11    1    3    3    0    0 -0.31541004165E+02 -0.11096793352E+02  0.26215149083E+02  0.42487737150E+02  0.51100000000E-03 0.  1.
         23    2    1    0    0    0 -0.10003066790E+02 -0.18449315867E+02 -0.21254153527E+02  0.95130657133E+02  0.90319788990E+02 0.  0.
         11    1    3    3    0    0  0.21537937375E+02 -0.73525225146E+01 -0.47469302610E+02  0.52642919982E+02  0.51100000000E-03 0. -1.
         22    1    1    0    0    0  0.10003066790E+02  0.18449315867E+02  0.21254153527E+02  0.29869342867E+02  0.00000000000E+00 0. -1.
</event>
<event>
 5    1  0.8752570E-005  0.9118800E+02  0.7818608E-02  0.1130116E+00
         25   -1    0    0    0    0  0.00000000000E+00  0.00000000000E+00  0.99999998245E-14  0.12500000000E+03  0.12500000000E+03 0.  0.
        -11    1    3    3    0    0  0.11307426959E+02  0.45987655122E+02  0.37427536006E+02  0.60361765877E+02  0.51100000000E-03 0. -1.
         23    2    1    0    0    0 -0.62306618880E+01  0.22712864198E+02  0.17179340322E+02  0.95848240507E+02  0.91307503124E+02 0.  0.
         11    1    3    3    0    0 -0.17538088847E+02 -0.23274790924E+02 -0.20248195683E+02  0.35486474630E+02  0.51100000000E-03 0.  1.
         22    1    1    0    0    0  0.62306618880E+01 -0.22712864198E+02 -0.17179340322E+02  0.29151759493E+02  0.00000000000E+00 0. -1.
</event>
<event>
 5    1  0.8752570E-005  0.9118800E+02  0.7818608E-02  0.1130116E+00
         25   -1    0    0    0    0  0.00000000000E+00  0.00000000000E+00  0.99999998245E-14  0.12500000000E+03  0.12500000000E+03 0.  0.
        -11    1    3    3    0    0  0.25158383140E+02 -0.23443713181E+02 -0.47872636945E+02  0.58943543313E+02  0.51100000000E-03 0.  1.
         23    2    1    0    0    0  0.21209096735E+02 -0.60798242059E+00 -0.15647757365E+02  0.98636241970E+02  0.95047674840E+02 0.  0.
         11    1    3    3    0    0 -0.39492864050E+01  0.22835730760E+02  0.32224879580E+02  0.39692698657E+02  0.51100000000E-03 0. -1.
         22    1    1    0    0    0 -0.21209096735E+02  0.60798242059E+00  0.15647757365E+02  0.26363758030E+02  0.00000000000E+00 0.  1.
</event>
<event>
 5    1  0.8752570E-005  0.9118800E+02  0.7818608E-02  0.1130116E+00
         25   -1    0    0    0    0  0.00000000000E+00  0.00000000000E+00  0.99999998245E-14  0.12500000000E+03  0.12500000000E+03 0.  0.
        -11    1    3    3    0    0 -0.20844553080E+01  0.18373744236E+02 -0.17435483414E+02  0.25415261426E+02  0.51100000000E-03 0.  1.
         23    2    1    0    0    0  0.94441659516E+00 -0.18388188332E+02  0.32589272802E+02  0.87569022260E+02  0.79166000057E+02 0.  0.
         11    1    3    3    0    0  0.30288719032E+01 -0.36761932569E+02  0.50024756215E+02  0.62153760834E+02  0.51100000000E-03 0. -1.
         22    1    1    0    0    0 -0.94441659516E+00  0.18388188332E+02 -0.32589272802E+02  0.37430977740E+02  0.00000000000E+00 0. -1.
</event>
<event>
 5    1  0.8752570E-005  0.9118800E+02  0.7818608E-02  0.1130116E+00
         25   -1    0    0    0    0  0.00000000000E+00  0.00000000000E+00  0.99999998245E-14  0.12500000000E+03  0.12500000000E+03 0.  0.
        -11    1    3    3    0    0  0.52632559770E+02 -0.25663878825E+02 -0.16307686068E+02  0.60784551076E+02  0.51100000000E-03 0. -1.
         23    2    1    0    0    0  0.36140976199E+02 -0.69514059390E+01 -0.62932256327E+01  0.87662393033E+02  0.79313291814E+02 0.  0.
         11    1    3    3    0    0 -0.16491583572E+02  0.18712472886E+02  0.10014460435E+02  0.26877841957E+02  0.51100000000E-03 0.  1.
         22    1    1    0    0    0 -0.36140976199E+02  0.69514059390E+01  0.62932256327E+01  0.37337606967E+02  0.00000000000E+00 0. -1.
</event>
<event>
 5    1  0.8752570E-005  0.9118800E+02  0.7818608E-02  0.1130116E+00
         25   -1    0    0    0    0  0.00000000000E+00  0.00000000000E+00  0.99999998245E-14  0.12500000000E+03  0.12500000000E+03 0.  0.
        -11    1    3    3    0    0 -0.39594983664E+02 -0.29656960474E+01 -0.18199933819E+02  0.43678320432E+02  0.51100000000E-03 0.  1.
         23    2    1    0    0    0 -0.19186386937E+02  0.32061363391E+02 -0.12578243571E+01  0.87615102136E+02  0.79238724965E+02 0.  0.
         11    1    3    3    0    0  0.20408596728E+02  0.35027059438E+02  0.16942109462E+02  0.43936781705E+02  0.51100000000E-03 0. -1.
         22    1    1    0    0    0  0.19186386937E+02 -0.32061363391E+02  0.12578243571E+01  0.37384897864E+02  0.00000000000E+00 0.  1.
</event>
<event>
 5    1  0.8752570E-005  0.9118800E+02  0.7818608E-02  0.1130116E+00
         25   -1    0    0    0    0  0.00000000000E+00  0.00000000000E+00  0.99999998245E-14  0.12500000000E+03  0.12500000000E+03 0.  0.
        -11    1    3    3    0    0  0.20992771880E+02 -0.20975564995E+02  0.30224967732E+02  0.42358227922E+02  0.51100000000E-03 0. -1.
         23    2    1    0    0    0  0.23366518192E+02  0.11325773119E+02 -0.12669686420E+02  0.96107297407E+02  0.91661466014E+02 0.  0.
         11    1    3    3    0    0  0.23737463115E+01  0.32301338114E+02 -0.42894654151E+02  0.53749069485E+02  0.51100000000E-03 0.  1.
         22    1    1    0    0    0 -0.23366518192E+02 -0.11325773119E+02  0.12669686420E+02  0.28892702593E+02  0.00000000000E+00 0. -1.
</event>
<event>
 5    1  0.8752570E-005  0.9118800E+02  0.7818608E-02  0.1130116E+00
         25   -1    0    0    0    0  0.00000000000E+00  0.00000000000E+00  0.99999998245E-14  0.12500000000E+03  0.12500000000E+03 0.  0.
        -11    1    3    3    0    0 -0.28970814371E+02  0.28277477217E+01  0.17634834222E+02  0.34033683620E+02  0.51100000000E-03 0.  1.
         23    2    1    0    0    0  0.85936915946E+01 -0.28680314335E+02 -0.13546234437E+02  0.92137978866E+02  0.86078421898E+02 0.  0.
         11    1    3    3    0    0  0.37564505965E+02 -0.31508062057E+02 -0.31181068659E+02  0.58104295246E+02  0.51100000000E-03 0. -1.
         22    1    1    0    0    0 -0.85936915946E+01  0.28680314335E+02  0.13546234437E+02  0.32862021134E+02  0.00000000000E+00 0. -1.
</event>
<event>
 5    1  0.8752570E-005  0.9118800E+02  0.7818608E-02  0.1130116E+00
         25   -1    0    0    0    0  0.00000000000E+00  0.00000000000E+00  0.99999998245E-14  0.12500000000E+03  0.12500000000E+03 0.  0.
        -11    1    3    3    0    0  0.88386137316E+01  0.11037963758E+02 -0.32637116094E+02  0.35568793679E+02  0.51100000000E-03 0. -1.
         23    2    1    0    0    0  0.15580386904E+01 -0.25051675112E+02  0.14988171671E+02  0.95765445095E+02  0.91194085738E+02 0.  0.
         11    1    3    3    0    0 -0.72805750412E+01 -0.36089638869E+02  0.47625287765E+02  0.60196651415E+02  0.51100000000E-03 0.  1.
         22    1    1    0    0    0 -0.15580386904E+01  0.25051675112E+02 -0.14988171671E+02  0.29234554905E+02  0.00000000000E+00 0.  1.
</event>
<event>
 5    1  0.8752570E-005  0.9118800E+02  0.7818608E-02  0.1130116E+00
         25   -1    0    0    0    0  0.00000000000E+00  0.00000000000E+00  0.99999998245E-14  0.12500000000E+03  0.12500000000E+03 0.  0.
        -11    1    3    3    0    0  0.17963524481E+02  0.73851355069E+01 -0.12330147142E+02  0.23005672497E+02  0.51100000000E-03 0.  1.
         23    2    1    0    0    0 -0.26398136567E+02  0.37555347450E+02 -0.14959818339E+02  0.76718928129E+02  0.59621573546E+02 0.  0.
         11    1    3    3    0    0 -0.44361661048E+02  0.30170211943E+02 -0.26296711972E+01  0.53713255631E+02  0.51100000000E-03 0. -1.
         22    1    1    0    0    0  0.26398136567E+02 -0.37555347450E+02  0.14959818339E+02  0.48281071871E+02  0.00000000000E+00 0. -1.
</event>
<event>
 5    1  0.8752570E-005  0.9118800E+02  0.7818608E-02  0.1130116E+00
         25   -1    0    0    0    0  0.00000000000E+00  0.00000000000E+00  0.99999998245E-14  0.12500000000E+03  0.12500000000E+03 0.  0.
        -11    1    3    3    0    0  0.62273945887E+01  0.23441824626E+02  0.22673644058E+02  0.33202314984E+02  0.51100000000E-03 0.  1.
         23    2    1    0    0    0 -0.16640745915E+02 -0.18543884551E+02 -0.16588533313E+02  0.95067250104E+02  0.90231992807E+02 0.  0.
         11    1    3    3    0    0 -0.22868140504E+02 -0.41985709177E+02 -0.39262177372E+02  0.61864935120E+02  0.51100000000E-03 0. -1.
         22    1    1    0    0    0  0.16640745915E+02  0.18543884551E+02  0.16588533313E+02  0.29932749896E+02  0.00000000000E+00 0. -1.
</event>
<event>
 5    1  0.8752570E-005  0.9118800E+02  0.7818608E-02  0.1130116E+00
         25   -1    0    0    0    0  0.00000000000E+00  0.00000000000E+00  0.99999998245E-14  0.12500000000E+03  0.12500000000E+03 0.  0.
        -11    1    3    3    0    0  0.17530890694E+02  0.83652050419E+01  0.29360829165E+02  0.35204645623E+02  0.51100000000E-03 0.  1.
         23    2    1    0    0    0 -0.15888190616E+01  0.11105216664E+02 -0.27523136576E+02  0.95278404650E+02  0.90524036380E+02 0.  0.
         11    1    3    3    0    0 -0.19119709756E+02  0.27400116217E+01 -0.56883965742E+02  0.60073759027E+02  0.51100000000E-03 0. -1.
         22    1    1    0    0    0  0.15888190616E+01 -0.11105216664E+02  0.27523136576E+02  0.29721595350E+02  0.00000000000E+00 0. -1.
</event>
<event>
 5    1  0.8752570E-005  0.9118800E+02  0.7818608E-02  0.1130116E+00
         25   -1    0    0    0    0  0.00000000000E+00  0.00000000000E+00  0.99999998245E-14  0.12500000000E+03  0.12500000000E+03 0.  0.
        -11    1    3    3    0    0  0.17430110503E+02  0.32341394592E+02  0.26142922009E+01  0.36832174525E+02  0.51100000000E-03 0. -1.
         23    2    1    0    0    0 -0.20432752263E+02 -0.65287491096E+01 -0.20049807034E+02  0.95638176282E+02  0.91019470831E+02 0.  0.
         11    1    3    3    0    0 -0.37862862766E+02 -0.38870143701E+02 -0.22664099235E+02  0.58806001756E+02  0.51100000000E-03 0.  1.
         22    1    1    0    0    0  0.20432752263E+02  0.65287491096E+01  0.20049807034E+02  0.29361823718E+02  0.00000000000E+00 0.  1.
</event>
<event>
 5    1  0.8752570E-005  0.9118800E+02  0.7818608E-02  0.1130116E+00
         25   -1    0    0    0    0  0.00000000000E+00  0.00000000000E+00  0.99999998245E-14  0.12500000000E+03  0.12500000000E+03 0.  0.
        -11    1    3    3    0    0  0.26549495798E+02 -0.45471091529E+02 -0.18879655514E+02  0.55936904496E+02  0.51100000000E-03 0.  1.
         23    2    1    0    0    0  0.21774741589E+02 -0.18529158400E+02  0.90249620801E+01  0.95018021699E+02  0.90163770024E+02 0.  0.
         11    1    3    3    0    0 -0.47747542092E+01  0.26941933130E+02  0.27904617594E+02  0.39081117203E+02  0.51100000000E-03 0. -1.
         22    1    1    0    0    0 -0.21774741589E+02  0.18529158400E+02 -0.90249620801E+01  0.29981978301E+02  0.00000000000E+00 0.  1.
</event>
<event>
 5    1  0.8752570E-005  0.9118800E+02  0.7818608E-02  0.1130116E+00
         25   -1    0    0    0    0  0.00000000000E+00  0.00000000000E+00  0.99999998245E-14  0.12500000000E+03  0.12500000000E+03 0.  0.
        -11    1    3    3    0    0 -0.31502929585E+02 -0.10121836271E+02 -0.28774090941E+01  0.33213937215E+02  0.51100000000E-03 0.  1.
         23    2    1    0    0    0  0.60240572090E+01 -0.41787555883E+02 -0.57029909077E+01  0.82397028306E+02  0.70528413256E+02 0.  0.
         11    1    3    3    0    0  0.37526986795E+02 -0.31665719611E+02 -0.28255818136E+01  0.49183091091E+02  0.51100000000E-03 0. -1.
         22    1    1    0    0    0 -0.60240572090E+01  0.41787555883E+02  0.57029909077E+01  0.42602971694E+02  0.00000000000E+00 0.  1.
</event>
<event>
 5    1  0.8752570E-005  0.9118800E+02  0.7818608E-02  0.1130116E+00
         25   -1    0    0    0    0  0.00000000000E+00  0.00000000000E+00  0.99999998245E-14  0.12500000000E+03  0.12500000000E+03 0.  0.
        -11    1    3    3    0    0  0.16188394937E+02  0.25857907170E+02  0.20198171549E+02  0.36587725101E+02  0.51100000000E-03 0. -1.
         23    2    1    0    0    0  0.10203701532E+02 -0.14179995776E+02 -0.23214302898E+02  0.95946744344E+02  0.91442255473E+02 0.  0.
         11    1    3    3    0    0 -0.59846934056E+01 -0.40037902946E+02 -0.43412474448E+02  0.59359019243E+02  0.51100000000E-03 0.  1.
         22    1    1    0    0    0 -0.10203701532E+02  0.14179995776E+02  0.23214302898E+02  0.29053255656E+02  0.00000000000E+00 0.  1.
</event>
<event>
 5    1  0.8752570E-005  0.9118800E+02  0.7818608E-02  0.1130116E+00
         25   -1    0    0    0    0  0.00000000000E+00  0.00000000000E+00  0.99999998245E-14  0.12500000000E+03  0.12500000000E+03 0.  0.
        -11    1    3    3    0    0 -0.24031790552E+02  0.36107681884E+02  0.35697042610E+02  0.56174464835E+02  0.51100000000E-03 0.  1.
         23    2    1    0    0    0  0.35341226267E+01  0.82678536926E+01  0.27320137909E+02  0.96238265651E+02  0.91839895539E+02 0.  0.
         11    1    3    3    0    0  0.27565913179E+02 -0.27839828192E+02 -0.83769047008E+01  0.40063800815E+02  0.51100000000E-03 0. -1.
         22    1    1    0    0    0 -0.35341226267E+01 -0.82678536926E+01 -0.27320137909E+02  0.28761734349E+02  0.00000000000E+00 0.  1.
</event>
<event>
 5    1  0.8752570E-005  0.9118800E+02  0.7818608E-02  0.1130116E+00
         25   -1    0    0    0    0  0.00000000000E+00  0.00000000000E+00  0.99999998245E-14  0.12500000000E+03  0.12500000000E+03 0.  0.
        -11    1    3    3    0    0 -0.98637834021E+01  0.28754087073E+02 -0.46367905243E+02  0.55444335899E+02  0.51100000000E-03 0. -1.
         23    2    1    0    0    0  0.14015473705E+02  0.29509181378E+01 -0.23803566341E+02  0.97219589787E+02  0.93165967214E+02 0.  0.
         11    1    3    3    0    0  0.23879257107E+02 -0.25803168935E+02  0.22564338902E+02  0.41775253888E+02  0.51100000000E-03 0.  1.
         22    1    1    0    0    0 -0.14015473705E+02 -0.29509181378E+01  0.23803566341E+02  0.27780410213E+02  0.00000000000E+00 0. -1.
</event>
<event>
 5    1  0.8752570E-005  0.9118800E+02  0.7818608E-02  0.1130116E+00
         25   -1    0    0    0    0  0.00000000000E+00  0.00000000000E+00  0.99999998245E-14  0.12500000000E+03  0.12500000000E+03 0.  0.
        -11    1    3    3    0    0  0.55211834924E+02  0.19195443377E+01  0.24413454461E+02  0.60399073876E+02  0.51100000000E-03 0. -1.
         23    2    1    0    0    0  0.23202866127E+02  0.88012398750E+01  0.19356429746E+02  0.93527691658E+02  0.88073395043E+02 0.  0.
         11    1    3    3    0    0 -0.32008968797E+02  0.68816955373E+01 -0.50570247141E+01  0.33128617782E+02  0.51100000000E-03 0.  1.
         22    1    1    0    0    0 -0.23202866127E+02 -0.88012398750E+01 -0.19356429746E+02  0.31472308342E+02  0.00000000000E+00 0. -1.
</event>
<event>
 5    1  0.8752570E-005  0.9118800E+02  0.7818608E-02  0.1130116E+00
         25   -1    0    0    0    0  0.00000000000E+00  0.00000000000E+00  0.99999998245E-14  0.12500000000E+03  0.12500000000E+03 0.  0.
        -11    1    3    3    0    0 -0.17737175051E+01 -0.39078538457E+02 -0.17379661865E+02  0.42805734295E+02  0.51100000000E-03 0. -1.
         23    2    1    0    0    0  0.24145335588E+02  0.77430201866E+01 -0.13009918850E+02  0.96500709119E+02  0.92196406002E+02 0.  0.
         11    1    3    3    0    0  0.25919053093E+02  0.46821558644E+02  0.43697430145E+01  0.53694974824E+02  0.51100000000E-03 0.  1.
         22    1    1    0    0    0 -0.24145335588E+02 -0.77430201866E+01  0.13009918850E+02  0.28499290881E+02  0.00000000000E+00 0.  1.
</event>
<event>
 5    1  0.8752570E-005  0.9118800E+02  0.7818608E-02  0.1130116E+00
         25   -1    0    0    0    0  0.00000000000E+00  0.00000000000E+00  0.99999998245E-14  0.12500000000E+03  0.12500000000E+03 0.  0.
        -11    1    3    3    0    0  0.11494296789E+02 -0.29202552138E+02  0.32411359992E+02  0.45115453747E+02  0.51100000000E-03 0.  1.
         23    2    1    0    0    0 -0.92598298517E+01  0.77966171163E+01  0.35345267343E+02  0.87639330695E+02  0.79276936582E+02 0.  0.
         11    1    3    3    0    0 -0.20754126640E+02  0.36999169254E+02  0.29339073513E+01  0.42523876948E+02  0.51100000000E-03 0. -1.
         22    1    1    0    0    0  0.92598298517E+01 -0.77966171163E+01 -0.35345267343E+02  0.37360669305E+02  0.00000000000E+00 0.  1.
</event>
<event>
 5    1  0.8752570E-005  0.9118800E+02  0.7818608E-02  0.1130116E+00
         25   -1    0    0    0    0  0.00000000000E+00  0.00000000000E+00  0.99999998245E-14  0.12500000000E+03  0.12500000000E+03 0.  0.
        -11    1    3    3    0    0  0.18706499476E+02  0.24641383793E+02  0.38550438469E+02  0.49429416589E+02  0.51100000000E-03 0.  1.
         23    2    1    0    0    0 -0.15131164920E+02 -0.30095941014E+01  0.25781094145E+02  0.94955456006E+02  0.90076989301E+02 0.  0.
         11    1    3    3    0    0 -0.33837664396E+02 -0.27650977895E+02 -0.12769344324E+02  0.45526039417E+02  0.51100000000E-03 0. -1.
         22    1    1    0    0    0  0.15131164920E+02  0.30095941014E+01 -0.25781094145E+02  0.30044543994E+02  0.00000000000E+00 0.  1.
</event>
<event>
 5    1  0.8752570E-005  0.9118800E+02  0.7818608E-02  0.1130116E+00
         25   -1    0    0    0    0  0.00000000000E+00  0.00000000000E+00  0.99999998245E-14  0.12500000000E+03  0.12500000000E+03 0.  0.
        -11    1    3    3    0    0  0.44525645528E+02 -0.43023430555E+02  0.84035372013E+01  0.62483342773E+02  0.51100000000E-03 0. -1.
         23    2    1    0    0    0  0.20951847826E+02 -0.18842433055E+02  0.39472471193E+01  0.96546564872E+02  0.92258556341E+02 0.  0.
         11    1    3    3    0    0 -0.23573797702E+02  0.24180997500E+02 -0.44562900820E+01  0.34063222099E+02  0.51100000000E-03 0.  1.
         22    1    1    0    0    0 -0.20951847826E+02  0.18842433055E+02 -0.39472471193E+01  0.28453435128E+02  0.00000000000E+00 0. -1.
</event>
<event>
 5    1  0.8752570E-005  0.9118800E+02  0.7818608E-02  0.1130116E+00
         25   -1    0    0    0    0  0.00000000000E+00  0.00000000000E+00  0.99999998245E-14  0.12500000000E+03  0.12500000000E+03 0.  0.
        -11    1    3    3    0    0 -0.20701659311E+02  0.37845334070E+02 -0.32231248783E+02  0.53848689933E+02  0.51100000000E-03 0. -1.
         23    2    1    0    0    0 -0.16779838173E+02  0.23419566113E+02  0.65871269510E+01  0.95446162898E+02  0.90755389506E+02 0.  0.
         11    1    3    3    0    0  0.39218211386E+01 -0.14425767957E+02  0.38818375734E+02  0.41597472965E+02  0.51100000000E-03 0.  1.
         22    1    1    0    0    0  0.16779838173E+02 -0.23419566113E+02 -0.65871269510E+01  0.29553837102E+02  0.00000000000E+00 0. -1.
</event>
<event>
 5    1  0.8752570E-005  0.9118800E+02  0.7818608E-02  0.1130116E+00
         25   -1    0    0    0    0  0.00000000000E+00  0.00000000000E+00  0.99999998245E-14  0.12500000000E+03  0.12500000000E+03 0.  0.
        -11    1    3    3    0    0  0.10460155584E+02 -0.29887527719E+02  0.24070835499E+02  0.39775423189E+02  0.51100000000E-03 0. -1.
         23    2    1    0    0    0  0.20904510680E+02  0.26682562360E+01 -0.20265031420E+02  0.95763213984E+02  0.91191027497E+02 0.  0.
         11    1    3    3    0    0  0.10444355096E+02  0.32555783955E+02 -0.44335866920E+02  0.55987790794E+02  0.51100000000E-03 0.  1.
         22    1    1    0    0    0 -0.20904510680E+02 -0.26682562360E+01  0.20265031420E+02  0.29236786016E+02  0.00000000000E+00 0.  1.
</event>
<event>
 5    1  0.8752570E-005  0.9118800E+02  0.7818608E-02  0.1130116E+00
         25   -1    0    0    0    0  0.00000000000E+00  0.00000000000E+00  0.99999998245E-14  0.12500000000E+03  0.12500000000E+03 0.  0.
        -11    1    3    3    0    0  0.43173252850E+02 -0.44421297877E+00 -0.35307983347E+02  0.55774373821E+02  0.51100000000E-03 0. -1.
         23    2    1    0    0    0  0.23120317219E+02 -0.17699334039E+02 -0.59727750794E+01  0.95276448128E+02  0.90521334679E+02 0.  0.
         11    1    3    3    0    0 -0.20052935631E+02 -0.17255121060E+02  0.29335208267E+02  0.39502074307E+02  0.51100000000E-03 0.  1.
         22    1    1    0    0    0 -0.23120317219E+02  0.17699334039E+02  0.59727750794E+01  0.29723551872E+02  0.00000000000E+00 0. -1.
</event>
<event>
 5    1  0.8752570E-005  0.9118800E+02  0.7818608E-02  0.1130116E+00
         25   -1    0    0    0    0  0.00000000000E+00  0.00000000000E+00  0.99999998245E-14  0.12500000000E+03  0.12500000000E+03 0.  0.
        -11    1    3    3    0    0  0.52014515608E+02  0.64376026294E+01  0.31914613111E+02  0.61363630042E+02  0.51100000000E-03 0. -1.
         23    2    1    0    0    0  0.24990521578E+02  0.11512469391E+02  0.14694060087E+02  0.93807396356E+02  0.88469481117E+02 0.  0.
         11    1    3    3    0    0 -0.27023994030E+02  0.50748667612E+01 -0.17220553024E+02  0.32443766315E+02  0.51100000000E-03 0.  1.
         22    1    1    0    0    0 -0.24990521578E+02 -0.11512469391E+02 -0.14694060087E+02  0.31192603644E+02  0.00000000000E+00 0. -1.
</event>
<event>
 5    1  0.8752570E-005  0.9118800E+02  0.7818608E-02  0.1130116E+00
         25   -1    0    0    0    0  0.00000000000E+00  0.00000000000E+00  0.99999998245E-14  0.12500000000E+03  0.12500000000E+03 0.  0.
        -11    1    3    3    0    0 -0.14633757620E+02 -0.14016539527E+02 -0.29896145382E+02  0.36116336350E+02  0.51100000000E-03 0.  1.
         23    2    1    0    0    0 -0.14069165062E+02  0.79478821994E+01  0.24992190436E+02  0.95238954659E+02  0.90469545509E+02 0.  0.
         11    1    3    3    0    0  0.56459255772E+00  0.21964421726E+02  0.54888335818E+02  0.59122618309E+02  0.51100000000E-03 0. -1.
         22    1    1    0    0    0  0.14069165062E+02 -0.79478821994E+01 -0.24992190436E+02  0.29761045341E+02  0.00000000000E+00 0. -1.
</event>
<event>
 5    1  0.8752570E-005  0.9118800E+02  0.7818608E-02  0.1130116E+00
         25   -1    0    0    0    0  0.00000000000E+00  0.00000000000E+00  0.99999998245E-14  0.12500000000E+03  0.12500000000E+03 0.  0.
        -11    1    3    3    0    0  0.33381204981E+02 -0.33484951067E+02 -0.36103346984E+02  0.59489481907E+02  0.51100000000E-03 0. -1.
         23    2    1    0    0    0  0.14853567254E+02 -0.23848701831E+02 -0.57685762322E+01  0.96317853794E+02  0.91948156309E+02 0.  0.
         11    1    3    3    0    0 -0.18527637726E+02  0.96362492355E+01  0.30334770752E+02  0.36828371887E+02  0.51100000000E-03 0.  1.
         22    1    1    0    0    0 -0.14853567254E+02  0.23848701831E+02  0.57685762322E+01  0.28682146206E+02  0.00000000000E+00 0. -1.
</event>
<event>
 5    1  0.8752570E-005  0.9118800E+02  0.7818608E-02  0.1130116E+00
         25   -1    0    0    0    0  0.00000000000E+00  0.00000000000E+00  0.99999998245E-14  0.12500000000E+03  0.12500000000E+03 0.  0.
        -11    1    3    3    0    0  0.34693261172E+02 -0.25616487231E+02 -0.41909061541E+02  0.60134817105E+02  0.51100000000E-03 0.  1.
         23    2    1    0    0    0  0.49275088546E+01 -0.12981650321E+02 -0.24447178225E+02  0.96884735254E+02  0.92715607173E+02 0.  0.
         11    1    3    3    0    0 -0.29765752317E+02  0.12634836911E+02  0.17461883315E+02  0.36749918149E+02  0.51100000000E-03 0. -1.
         22    1    1    0    0    0 -0.49275088546E+01  0.12981650321E+02  0.24447178225E+02  0.28115264746E+02  0.00000000000E+00 0.  1.
</event>
<event>
 5    1  0.8752570E-005  0.9118800E+02  0.7818608E-02  0.1130116E+00
         25   -1    0    0    0    0  0.00000000000E+00  0.00000000000E+00  0.99999998245E-14  0.12500000000E+03  0.12500000000E+03 0.  0.
        -11    1    3    3    0    0 -0.39216589298E+02  0.46263529749E+02  0.12013272909E+02  0.61826966505E+02  0.51100000000E-03 0. -1.
         23    2    1    0    0    0 -0.15434093952E+02  0.26879613550E+02  0.93561030406E+01  0.92623132567E+02  0.86780084937E+02 0.  0.
         11    1    3    3    0    0  0.23782495347E+02 -0.19383916199E+02 -0.26571698680E+01  0.30796166061E+02  0.51100000000E-03 0.  1.
         22    1    1    0    0    0  0.15434093952E+02 -0.26879613550E+02 -0.93561030406E+01  0.32376867433E+02  0.00000000000E+00 0. -1.
</event>
<event>
 5    1  0.8752570E-005  0.9118800E+02  0.7818608E-02  0.1130116E+00
         25   -1    0    0    0    0  0.00000000000E+00  0.00000000000E+00  0.99999998245E-14  0.12500000000E+03  0.12500000000E+03 0.  0.
        -11    1    3    3    0    0 -0.81752930805E+00 -0.23181342348E+02 -0.56179200148E+02  0.60779482696E+02  0.51100000000E-03 0. -1.
         23    2    1    0    0    0  0.16110721375E+01 -0.10142657469E+01 -0.29006671555E+02  0.95930922218E+02  0.91420624338E+02 0.  0.
         11    1    3    3    0    0  0.24286014456E+01  0.22167076601E+02  0.27172528594E+02  0.35151439522E+02  0.51100000000E-03 0.  1.
         22    1    1    0    0    0 -0.16110721375E+01  0.10142657469E+01  0.29006671555E+02  0.29069077782E+02  0.00000000000E+00 0. -1.
</event>
<event>
 5    1  0.8752570E-005  0.9118800E+02  0.7818608E-02  0.1130116E+00
         25   -1    0    0    0    0  0.00000000000E+00  0.00000000000E+00  0.99999998245E-14  0.12500000000E+03  0.12500000000E+03 0.  0.
        -11    1    3    3    0    0 -0.34645120625E+02 -0.12211711176E+02  0.99306056273E+01  0.38052952597E+02  0.51100000000E-03 0.  1.
         23    2    1    0    0    0  0.67461044664E+01  0.27920787740E+02  0.35011322840E+01  0.96063202652E+02  0.91601313654E+02 0.  0.
         11    1    3    3    0    0  0.41391225091E+02  0.40132498916E+02 -0.64294733432E+01  0.58010250055E+02  0.51100000000E-03 0. -1.
         22    1    1    0    0    0 -0.67461044664E+01 -0.27920787740E+02 -0.35011322840E+01  0.28936797348E+02  0.00000000000E+00 0. -1.
</event>
<event>
 5    1  0.8752570E-005  0.9118800E+02  0.7818608E-02  0.1130116E+00
         25   -1    0    0    0    0  0.00000000000E+00  0.00000000000E+00  0.99999998245E-14  0.12500000000E+03  0.12500000000E+03 0.  0.
        -11    1    3    3    0    0 -0.31295190078E+02  0.19618296311E+02  0.12172170402E+02  0.38889949919E+02  0.51100000000E-03 0. -1.
         23    2    1    0    0    0  0.10813504532E+02  0.98611910493E+01 -0.25086925310E+02  0.95956432887E+02  0.91455498587E+02 0.  0.
         11    1    3    3    0    0  0.42108694610E+02 -0.97571052617E+01 -0.37259095711E+02  0.57066482968E+02  0.51100000000E-03 0.  1.
         22    1    1    0    0    0 -0.10813504532E+02 -0.98611910493E+01  0.25086925310E+02  0.29043567113E+02  0.00000000000E+00 0.  1.
</event>
<event>
 5    1  0.8752570E-005  0.9118800E+02  0.7818608E-02  0.1130116E+00
         25   -1    0    0    0    0  0.00000000000E+00  0.00000000000E+00  0.99999998245E-14  0.12500000000E+03  0.12500000000E+03 0.  0.
        -11    1    3    3    0    0  0.16638035745E+01 -0.60886562673E+02 -0.13643540143E+02  0.62418650613E+02  0.51100000000E-03 0. -1.
         23    2    1    0    0    0  0.29917667396E+01 -0.27541732443E+02 -0.63669716745E+01  0.96574025566E+02  0.92295755003E+02 0.  0.
         11    1    3    3    0    0  0.13279631651E+01  0.33344830230E+02  0.72765684681E+01  0.34155374953E+02  0.51100000000E-03 0.  1.
         22    1    1    0    0    0 -0.29917667396E+01  0.27541732443E+02  0.63669716745E+01  0.28425974434E+02  0.00000000000E+00 0. -1.
</event>
<event>
 5    1  0.8752570E-005  0.9118800E+02  0.7818608E-02  0.1130116E+00
         25   -1    0    0    0    0  0.00000000000E+00  0.00000000000E+00  0.99999998245E-14  0.12500000000E+03  0.12500000000E+03 0.  0.
        -11    1    3    3    0    0 -0.38327665884E+02  0.17773132738E+02 -0.17125709849E+02  0.45587105167E+02  0.51100000000E-03 0. -1.
         23    2    1    0    0    0 -0.37374489373E+01  0.20301080199E+02  0.19905610210E+02  0.96323603789E+02  0.91955972874E+02 0.  0.
         11    1    3    3    0    0  0.34590216947E+02  0.25279474612E+01  0.37031320059E+02  0.50736498622E+02  0.51100000000E-03 0.  1.
         22    1    1    0    0    0  0.37374489373E+01 -0.20301080199E+02 -0.19905610210E+02  0.28676396211E+02  0.00000000000E+00 0. -1.
</event>
<event>
 5    1  0.8752570E-005  0.9118800E+02  0.7818608E-02  0.1130116E+00
         25   -1    0    0    0    0  0.00000000000E+00  0.00000000000E+00  0.99999998245E-14  0.12500000000E+03  0.12500000000E+03 0.  0.
        -11    1    3    3    0    0  0.27796239629E+02 -0.14267566110E+02  0.48927316356E+02  0.58052361418E+02  0.51100000000E-03 0.  1.
         23    2    1    0    0    0  0.16415332496E+02 -0.19417925156E+02  0.12293856359E+02  0.96757162634E+02  0.92543452812E+02 0.  0.
         11    1    3    3    0    0 -0.11380907133E+02 -0.51503590468E+01 -0.36633459997E+02  0.38704801215E+02  0.51100000000E-03 0. -1.
         22    1    1    0    0    0 -0.16415332496E+02  0.19417925156E+02 -0.12293856359E+02  0.28242837366E+02  0.00000000000E+00 0.  1.
</event>
<event>
 5    1  0.8752570E-005  0.9118800E+02  0.7818608E-02  0.1130116E+00
         25   -1    0    0    0    0  0.00000000000E+00  0.00000000000E+00  0.99999998245E-14  0.12500000000E+03  0.12500000000E+03 0.  0.
        -11    1    3    3    0    0  0.40673321479E+02  0.19611209788E+02  0.28091809707E+02  0.53179586331E+02  0.51100000000E-03 0. -1.
         23    2    1    0    0    0  0.51269118645E+01 -0.16507819535E+00  0.30637033596E+02  0.93936511728E+02  0.88651722668E+02 0.  0.
         11    1    3    3    0    0 -0.35546409614E+02 -0.19776287983E+02  0.25452238889E+01  0.40756925397E+02  0.51100000000E-03 0.  1.
         22    1    1    0    0    0 -0.51269118645E+01  0.16507819535E+00 -0.30637033596E+02  0.31063488272E+02  0.00000000000E+00 0. -1.
</event>
<event>
 5    1  0.8752570E-005  0.9118800E+02  0.7818608E-02  0.1130116E+00
         25   -1    0    0    0    0  0.00000000000E+00  0.00000000000E+00  0.99999998245E-14  0.12500000000E+03  0.12500000000E+03 0.  0.
        -11    1    3    3    0    0  0.26795822829E+02  0.25882379347E+02 -0.69214501404E+01  0.37892217593E+02  0.51100000000E-03 0. -1.
         23    2    1    0    0    0 -0.11988701619E+02 -0.18950973160E+02 -0.15427969005E+02  0.97780694758E+02  0.93915779769E+02 0.  0.
         11    1    3    3    0    0 -0.38784524448E+02 -0.44833352507E+02 -0.85065188649E+01  0.59888477165E+02  0.51100000000E-03 0.  1.
         22    1    1    0    0    0  0.11988701619E+02  0.18950973160E+02  0.15427969005E+02  0.27219305242E+02  0.00000000000E+00 0.  1.
</event>
<event>
 5    1  0.8752570E-005  0.9118800E+02  0.7818608E-02  0.1130116E+00
         25   -1    0    0    0    0  0.00000000000E+00  0.00000000000E+00  0.99999998245E-14  0.12500000000E+03  0.12500000000E+03 0.  0.
        -11    1    3    3    0    0 -0.25101678472E+02  0.35959563115E+01  0.24155144351E+02  0.35021367232E+02  0.51100000000E-03 0. -1.
         23    2    1    0    0    0  0.75216423101E+01  0.22782619551E+02 -0.20418481898E+02  0.93495440652E+02  0.88027610232E+02 0.  0.
         11    1    3    3    0    0  0.32623320782E+02  0.19186663240E+02 -0.44573626250E+02  0.58474073421E+02  0.51100000000E-03 0.  1.
         22    1    1    0    0    0 -0.75216423101E+01 -0.22782619551E+02  0.20418481898E+02  0.31504559348E+02  0.00000000000E+00 0.  1.
</event>
<event>
 5    1  0.8752570E-005  0.9118800E+02  0.7818608E-02  0.1130116E+00
         25   -1    0    0    0    0  0.00000000000E+00  0.00000000000E+00  0.99999998245E-14  0.12500000000E+03  0.12500000000E+03 0.  0.
        -11    1    3    3    0    0 -0.13853174892E+02  0.15733306345E+01 -0.32708136119E+02  0.35555702672E+02  0.51100000000E-03 0.  1.
         23    2    1    0    0    0  0.25706175485E+02 -0.90379675815E+00  0.13101983951E+02  0.96133301365E+02  0.91696921111E+02 0.  0.
         11    1    3    3    0    0  0.39559350377E+02 -0.24771273927E+01  0.45810120070E+02  0.60577598693E+02  0.51100000000E-03 0. -1.
         22    1    1    0    0    0 -0.25706175485E+02  0.90379675815E+00 -0.13101983951E+02  0.28866698635E+02  0.00000000000E+00 0. -1.
</event>
<event>
 5    1  0.8752570E-005  0.9118800E+02  0.7818608E-02  0.1130116E+00
         25   -1    0    0    0    0  0.00000000000E+00  0.00000000000E+00  0.99999998245E-14  0.12500000000E+03  0.12500000000E+03 0.  0.
        -11    1    3    3    0    0  0.60602217928E+01 -0.72021938609E+01  0.13863037681E+02  0.16756541964E+02  0.51100000000E-03 0.  1.
         23    2    1    0    0    0  0.23623155415E+02  0.16130507618E+02 -0.38692978669E+02  0.76881465670E+02  0.59961374380E+02 0.  0.
         11    1    3    3    0    0  0.17562933623E+02  0.23332701478E+02 -0.52556016350E+02  0.60124923706E+02  0.51100000000E-03 0. -1.
         22    1    1    0    0    0 -0.23623155415E+02 -0.16130507618E+02  0.38692978669E+02  0.48118534330E+02  0.00000000000E+00 0. -1.
</event>
<event>
 5    1  0.8752570E-005  0.9118800E+02  0.7818608E-02  0.1130116E+00
         25   -1    0    0    0    0  0.00000000000E+00  0.00000000000E+00  0.99999998245E-14  0.12500000000E+03  0.12500000000E+03 0.  0.
        -11    1    3    3    0    0 -0.61173059296E+00  0.38720760469E+02 -0.18433365023E+02  0.42888931579E+02  0.51100000000E-03 0.  1.
         23    2    1    0    0    0  0.24593219502E+02  0.52265015988E+01  0.14301455514E+02  0.96074675555E+02  0.91616968346E+02 0.  0.
         11    1    3    3    0    0  0.25204950095E+02 -0.33494258870E+02  0.32734820537E+02  0.53185743977E+02  0.51100000000E-03 0. -1.
         22    1    1    0    0    0 -0.24593219502E+02 -0.52265015988E+01 -0.14301455514E+02  0.28925324445E+02  0.00000000000E+00 0. -1.
</event>
<event>
 5    1  0.8752570E-005  0.9118800E+02  0.7818608E-02  0.1130116E+00
         25   -1    0    0    0    0  0.00000000000E+00  0.00000000000E+00  0.99999998245E-14  0.12500000000E+03  0.12500000000E+03 0.  0.
        -11    1    3    3    0    0 -0.97482236973E+01 -0.41690848977E+02 -0.10586301293E+02  0.44104699625E+02  0.51100000000E-03 0.  1.
         23    2    1    0    0    0 -0.30932291491E+02  0.74259960116E+00  0.41800798906E+01  0.93777713426E+02  0.88427531665E+02 0.  0.
         11    1    3    3    0    0 -0.21184067794E+02  0.42433448578E+02  0.14766381184E+02  0.49673013801E+02  0.51100000000E-03 0. -1.
         22    1    1    0    0    0  0.30932291491E+02 -0.74259960116E+00 -0.41800798906E+01  0.31222286574E+02  0.00000000000E+00 0.  1.
</event>
<event>
 5    1  0.8752570E-005  0.9118800E+02  0.7818608E-02  0.1130116E+00
         25   -1    0    0    0    0  0.00000000000E+00  0.00000000000E+00  0.99999998245E-14  0.12500000000E+03  0.12500000000E+03 0.  0.
        -11    1    3    3    0    0  0.14749030840E+02 -0.30872266379E+02  0.28436624959E+01  0.34332450520E+02  0.51100000000E-03 0. -1.
         23    2    1    0    0    0 -0.18348475746E+02  0.19857003335E+02 -0.98600088462E+01  0.96221763117E+02  0.91817431783E+02 0.  0.
         11    1    3    3    0    0 -0.33097506586E+02  0.50729269713E+02 -0.12703671342E+02  0.61889312597E+02  0.51100000000E-03 0.  1.
         22    1    1    0    0    0  0.18348475746E+02 -0.19857003335E+02  0.98600088462E+01  0.28778236883E+02  0.00000000000E+00 0.  1.
</event>
<event>
 5    1  0.8752570E-005  0.9118800E+02  0.7818608E-02  0.1130116E+00
         25   -1    0    0    0    0  0.00000000000E+00  0.00000000000E+00  0.99999998245E-14  0.12500000000E+03  0.12500000000E+03 0.  0.
        -11    1    3    3    0    0 -0.10811639512E+02 -0.37415428209E+02  0.24859892211E+02  0.46204112999E+02  0.51100000000E-03 0.  1.
         23    2    1    0    0    0  0.26718759553E+02 -0.11452269767E+02  0.80630783200E+01  0.94832802138E+02  0.89906621194E+02 0.  0.
         11    1    3    3    0    0  0.37530399065E+02  0.25963158442E+02 -0.16796813891E+02  0.48628689139E+02  0.51100000000E-03 0. -1.
         22    1    1    0    0    0 -0.26718759553E+02  0.11452269767E+02 -0.80630783200E+01  0.30167197862E+02  0.00000000000E+00 0. -1.
</event>
<event>
 5    1  0.8752570E-005  0.9118800E+02  0.7818608E-02  0.1130116E+00
         25   -1    0    0    0    0  0.00000000000E+00  0.00000000000E+00  0.99999998245E-14  0.12500000000E+03  0.12500000000E+03 0.  0.
        -11    1    3    3    0    0 -0.18434681426E+02  0.27944008248E+02 -0.11042714500E+02  0.35251193172E+02  0.51100000000E-03 0. -1.
         23    2    1    0    0    0  0.75278311951E+01 -0.23090554351E+02  0.13116011467E+02  0.97397976531E+02  0.93405000577E+02 0.  0.
         11    1    3    3    0    0  0.25962512621E+02 -0.51034562599E+02  0.24158725968E+02  0.62146783360E+02  0.51100000000E-03 0.  1.
         22    1    1    0    0    0 -0.75278311951E+01  0.23090554351E+02 -0.13116011467E+02  0.27602023469E+02  0.00000000000E+00 0.  1.
</event>
<event>
 5    1  0.8752570E-005  0.9118800E+02  0.7818608E-02  0.1130116E+00
         25   -1    0    0    0    0  0.00000000000E+00  0.00000000000E+00  0.99999998245E-14  0.12500000000E+03  0.12500000000E+03 0.  0.
        -11    1    3    3    0    0 -0.51911315530E+01 -0.35094303747E+02 -0.11617890382E+01  0.35495179340E+02  0.51100000000E-03 0. -1.
         23    2    1    0    0    0  0.95040814706E+01  0.24473853417E+02 -0.87708709157E+01  0.97319226126E+02  0.93299552686E+02 0.  0.
         11    1    3    3    0    0  0.14695213024E+02  0.59568157164E+02 -0.76090818775E+01  0.61824046786E+02  0.51100000000E-03 0.  1.
         22    1    1    0    0    0 -0.95040814706E+01 -0.24473853417E+02  0.87708709157E+01  0.27680773874E+02  0.00000000000E+00 0.  1.
</event>
<event>
 5    1  0.8752570E-005  0.9118800E+02  0.7818608E-02  0.1130116E+00
         25   -1    0    0    0    0  0.00000000000E+00  0.00000000000E+00  0.99999998245E-14  0.12500000000E+03  0.12500000000E+03 0.  0.
        -11    1    3    3    0    0  0.15599073793E+02 -0.23024032146E+02  0.24035109376E+02  0.36757633798E+02  0.51100000000E-03 0. -1.
         23    2    1    0    0    0 -0.92788683330E+01  0.18193201844E+02 -0.15747446029E+02  0.99211009184E+02  0.95800586094E+02 0.  0.
         11    1    3    3    0    0 -0.24877942126E+02  0.41217233991E+02 -0.39782555405E+02  0.62453375386E+02  0.51100000000E-03 0.  1.
         22    1    1    0    0    0  0.92788683330E+01 -0.18193201844E+02  0.15747446029E+02  0.25788990816E+02  0.00000000000E+00 0.  1.
</event>
<event>
 5    1  0.8752570E-005  0.9118800E+02  0.7818608E-02  0.1130116E+00
         25   -1    0    0    0    0  0.00000000000E+00  0.00000000000E+00  0.99999998245E-14  0.12500000000E+03  0.12500000000E+03 0.  0.
        -11    1    3    3    0    0 -0.40161962036E+02  0.28026379946E+01  0.32308441986E+02  0.51620474601E+02  0.51100000000E-03 0.  1.
         23    2    1    0    0    0 -0.27192074486E+02  0.15317717256E+01 -0.10074108564E+02  0.95961355011E+02  0.91462225824E+02 0.  0.
         11    1    3    3    0    0  0.12969887550E+02 -0.12708662691E+01 -0.42382550549E+02  0.44340880409E+02  0.51100000000E-03 0. -1.
         22    1    1    0    0    0  0.27192074486E+02 -0.15317717256E+01  0.10074108564E+02  0.29038644989E+02  0.00000000000E+00 0.  1.
</event>
<event>
 5    1  0.8752570E-005  0.9118800E+02  0.7818608E-02  0.1130116E+00
         25   -1    0    0    0    0  0.00000000000E+00  0.00000000000E+00  0.99999998245E-14  0.12500000000E+03  0.12500000000E+03 0.  0.
        -11    1    3    3    0    0 -0.56751893514E+02 -0.63066527378E+00 -0.13855705851E+02  0.58422219583E+02  0.51100000000E-03 0.  1.
         23    2    1    0    0    0 -0.31501424821E+02  0.15187655763E+02 -0.10923488999E+02  0.88362215334E+02  0.80408667651E+02 0.  0.
         11    1    3    3    0    0  0.25250468693E+02  0.15818321037E+02  0.29322168520E+01  0.29939995751E+02  0.51100000000E-03 0. -1.
         22    1    1    0    0    0  0.31501424821E+02 -0.15187655763E+02  0.10923488999E+02  0.36637784666E+02  0.00000000000E+00 0.  1.
</event>
<event>
 5    1  0.8752570E-005  0.9118800E+02  0.7818608E-02  0.1130116E+00
         25   -1    0    0    0    0  0.00000000000E+00  0.00000000000E+00  0.99999998245E-14  0.12500000000E+03  0.12500000000E+03 0.  0.
        -11    1    3    3    0    0  0.98078425681E+01 -0.39432736253E+02 -0.39609090894E+02  0.56745172006E+02  0.51100000000E-03 0.  1.
         23    2    1    0    0    0  0.16226399368E+02 -0.42511427141E+01 -0.23889057062E+02  0.95810013735E+02  0.91255155656E+02 0.  0.
         11    1    3    3    0    0  0.64185568001E+01  0.35181593539E+02  0.15720033832E+02  0.39064841729E+02  0.51100000000E-03 0. -1.
         22    1    1    0    0    0 -0.16226399368E+02  0.42511427141E+01  0.23889057062E+02  0.29189986265E+02  0.00000000000E+00 0.  1.
</event>
<event>
 5    1  0.8752570E-005  0.9118800E+02  0.7818608E-02  0.1130116E+00
         25   -1    0    0    0    0  0.00000000000E+00  0.00000000000E+00  0.99999998245E-14  0.12500000000E+03  0.12500000000E+03 0.  0.
        -11    1    3    3    0    0  0.20183535979E+02 -0.22145704509E+02  0.22501026613E+02  0.37471369760E+02  0.51100000000E-03 0. -1.
         23    2    1    0    0    0 -0.21208216732E+02  0.17206061190E+02  0.98474717895E+01  0.95968815055E+02  0.91472420783E+02 0.  0.
         11    1    3    3    0    0 -0.41391752711E+02  0.39351765699E+02 -0.12653554823E+02  0.58497445295E+02  0.51100000000E-03 0.  1.
         22    1    1    0    0    0  0.21208216732E+02 -0.17206061190E+02 -0.98474717895E+01  0.29031184945E+02  0.00000000000E+00 0.  1.
</event>
<event>
 5    1  0.8752570E-005  0.9118800E+02  0.7818608E-02  0.1130116E+00
         25   -1    0    0    0    0  0.00000000000E+00  0.00000000000E+00  0.99999998245E-14  0.12500000000E+03  0.12500000000E+03 0.  0.
        -11    1    3    3    0    0  0.16194267395E+02 -0.74421654797E+01  0.37880736718E+02  0.41863950340E+02  0.51100000000E-03 0.  1.
         23    2    1    0    0    0  0.64548912704E+01 -0.24101515733E+02 -0.13416371907E+02  0.96670726852E+02  0.92426628809E+02 0.  0.
         11    1    3    3    0    0 -0.97393761242E+01 -0.16659350253E+02 -0.51297108625E+02  0.54806776513E+02  0.51100000000E-03 0. -1.
         22    1    1    0    0    0 -0.64548912704E+01  0.24101515733E+02  0.13416371907E+02  0.28329273148E+02  0.00000000000E+00 0. -1.
</event>
<event>
 5    1  0.8752570E-005  0.9118800E+02  0.7818608E-02  0.1130116E+00
         25   -1    0    0    0    0  0.00000000000E+00  0.00000000000E+00  0.99999998245E-14  0.12500000000E+03  0.12500000000E+03 0.  0.
        -11    1    3    3    0    0 -0.21355026049E+02  0.12782624090E+02  0.22926260708E+02  0.33838529024E+02  0.51100000000E-03 0. -1.
         23    2    1    0    0    0 -0.17797799531E+02 -0.85859328884E+00 -0.30818342045E+02  0.89401277313E+02  0.82008044290E+02 0.  0.
         11    1    3    3    0    0  0.35572265180E+01 -0.13641217379E+02 -0.53744602753E+02  0.55562748289E+02  0.51100000000E-03 0.  1.
         22    1    1    0    0    0  0.17797799531E+02  0.85859328884E+00  0.30818342045E+02  0.35598722687E+02  0.00000000000E+00 0.  1.
</event>
<event>
 5    1  0.8752570E-005  0.9118800E+02  0.7818608E-02  0.1130116E+00
         25   -1    0    0    0    0  0.00000000000E+00  0.00000000000E+00  0.99999998245E-14  0.12500000000E+03  0.12500000000E+03 0.  0.
        -11    1    3    3    0    0 -0.42734923869E+02  0.96500863797E+01  0.29706565555E+02  0.52932767948E+02  0.51100000000E-03 0.  1.
         23    2    1    0    0    0 -0.23471158327E+02 -0.16208216194E+02  0.44932004829E+00  0.96472759792E+02  0.92158504480E+02 0.  0.
         11    1    3    3    0    0  0.19263765542E+02 -0.25858302573E+02 -0.29257245507E+02  0.43539991844E+02  0.51100000000E-03 0. -1.
         22    1    1    0    0    0  0.23471158327E+02  0.16208216194E+02 -0.44932004829E+00  0.28527240208E+02  0.00000000000E+00 0.  1.
</event>
<event>
 5    1  0.8752570E-005  0.9118800E+02  0.7818608E-02  0.1130116E+00
         25   -1    0    0    0    0  0.00000000000E+00  0.00000000000E+00  0.99999998245E-14  0.12500000000E+03  0.12500000000E+03 0.  0.
        -11    1    3    3    0    0  0.46688039389E+02  0.30696194603E+02 -0.59404058128E+01  0.56190015186E+02  0.51100000000E-03 0.  1.
         23    2    1    0    0    0  0.14321186372E+02  0.18877896813E+02 -0.20567732591E+02  0.93623209356E+02  0.88208856352E+02 0.  0.
         11    1    3    3    0    0 -0.32366853017E+02 -0.11818297790E+02 -0.14627326778E+02  0.37433194170E+02  0.51100000000E-03 0. -1.
         22    1    1    0    0    0 -0.14321186372E+02 -0.18877896813E+02  0.20567732591E+02  0.31376790644E+02  0.00000000000E+00 0.  1.
</event>
<event>
 5    1  0.8752570E-005  0.9118800E+02  0.7818608E-02  0.1130116E+00
         25   -1    0    0    0    0  0.00000000000E+00  0.00000000000E+00  0.99999998245E-14  0.12500000000E+03  0.12500000000E+03 0.  0.
        -11    1    3    3    0    0  0.19438170840E+02  0.55226178662E+01 -0.32653971147E+02  0.38400828450E+02  0.51100000000E-03 0. -1.
         23    2    1    0    0    0 -0.27343024159E+02  0.10998485900E+02 -0.33029987066E+00  0.95525998571E+02  0.90865282935E+02 0.  0.
         11    1    3    3    0    0 -0.46781194999E+02  0.54758680337E+01  0.32323671277E+02  0.57125170121E+02  0.51100000000E-03 0.  1.
         22    1    1    0    0    0  0.27343024159E+02 -0.10998485900E+02  0.33029987066E+00  0.29474001429E+02  0.00000000000E+00 0.  1.
</event>
<event>
 5    1  0.8752570E-005  0.9118800E+02  0.7818608E-02  0.1130116E+00
         25   -1    0    0    0    0  0.00000000000E+00  0.00000000000E+00  0.99999998245E-14  0.12500000000E+03  0.12500000000E+03 0.  0.
        -11    1    3    3    0    0 -0.58048637646E+02  0.21522464318E+02  0.13630411757E+01  0.61925105445E+02  0.51100000000E-03 0. -1.
         23    2    1    0    0    0 -0.30514852329E+02  0.53031544022E+01 -0.13690388238E+01  0.93997517413E+02  0.88737699729E+02 0.  0.
         11    1    3    3    0    0  0.27533785317E+02 -0.16219309916E+02 -0.27320799995E+01  0.32072411968E+02  0.51100000000E-03 0.  1.
         22    1    1    0    0    0  0.30514852329E+02 -0.53031544022E+01  0.13690388238E+01  0.31002482587E+02  0.00000000000E+00 0. -1.
</event>
<event>
 5    1  0.8752570E-005  0.9118800E+02  0.7818608E-02  0.1130116E+00
         25   -1    0    0    0    0  0.00000000000E+00  0.00000000000E+00  0.99999998245E-14  0.12500000000E+03  0.12500000000E+03 0.  0.
        -11    1    3    3    0    0  0.26896765106E+02  0.47978300467E+01 -0.50145309717E+02  0.57105229473E+02  0.51100000000E-03 0.  1.
         23    2    1    0    0    0  0.22489281913E+02 -0.10680841159E+02 -0.14565816545E+02  0.96155395991E+02  0.91727035261E+02 0.  0.
         11    1    3    3    0    0 -0.44074831937E+01 -0.15478671206E+02  0.35579493172E+02  0.39050166517E+02  0.51100000000E-03 0. -1.
         22    1    1    0    0    0 -0.22489281913E+02  0.10680841159E+02  0.14565816545E+02  0.28844604009E+02  0.00000000000E+00 0. -1.
</event>
<event>
 5    1  0.8752570E-005  0.9118800E+02  0.7818608E-02  0.1130116E+00
         25   -1    0    0    0    0  0.00000000000E+00  0.00000000000E+00  0.99999998245E-14  0.12500000000E+03  0.12500000000E+03 0.  0.
        -11    1    3    3    0    0  0.35880035874E+02 -0.46496741241E+02 -0.64096881227E+01  0.59079675206E+02  0.51100000000E-03 0.  1.
         23    2    1    0    0    0  0.95607125620E+01 -0.29526714097E+02  0.70625063210E+01  0.93170562908E+02  0.87565065677E+02 0.  0.
         11    1    3    3    0    0 -0.26319323312E+02  0.16970027144E+02  0.13472194444E+02  0.34090887702E+02  0.51100000000E-03 0. -1.
         22    1    1    0    0    0 -0.95607125620E+01  0.29526714097E+02 -0.70625063210E+01  0.31829437092E+02  0.00000000000E+00 0.  1.
</event>
<event>
 5    1  0.8752570E-005  0.9118800E+02  0.7818608E-02  0.1130116E+00
         25   -1    0    0    0    0  0.00000000000E+00  0.00000000000E+00  0.99999998245E-14  0.12500000000E+03  0.12500000000E+03 0.  0.
        -11    1    3    3    0    0  0.20132612327E+02  0.40629244884E+02  0.57070508755E+01  0.45701510357E+02  0.51100000000E-03 0.  1.
         23    2    1    0    0    0  0.17372125317E+02 -0.86916777955E+01  0.19993377856E+02  0.97124003892E+02  0.93037632026E+02 0.  0.
         11    1    3    3    0    0 -0.27604870103E+01 -0.49320922680E+02  0.14286326980E+02  0.51422493535E+02  0.51100000000E-03 0. -1.
         22    1    1    0    0    0 -0.17372125317E+02  0.86916777955E+01 -0.19993377856E+02  0.27875996108E+02  0.00000000000E+00 0.  1.
</event>
<event>
 5    1  0.8752570E-005  0.9118800E+02  0.7818608E-02  0.1130116E+00
         25   -1    0    0    0    0  0.00000000000E+00  0.00000000000E+00  0.99999998245E-14  0.12500000000E+03  0.12500000000E+03 0.  0.
        -11    1    3    3    0    0  0.16533274499E+02 -0.27974702985E+02  0.10641228901E+02  0.34193112253E+02  0.51100000000E-03 0. -1.
         23    2    1    0    0    0 -0.79105010411E+01  0.25768242501E+02 -0.92615065333E+01  0.96498178100E+02  0.92192974380E+02 0.  0.
         11    1    3    3    0    0 -0.24443775540E+02  0.53742945486E+02 -0.19902735435E+02  0.62305065847E+02  0.51100000000E-03 0.  1.
         22    1    1    0    0    0  0.79105010411E+01 -0.25768242501E+02  0.92615065333E+01  0.28501821900E+02  0.00000000000E+00 0.  1.
</event>
<event>
 5    1  0.8752570E-005  0.9118800E+02  0.7818608E-02  0.1130116E+00
         25   -1    0    0    0    0  0.00000000000E+00  0.00000000000E+00  0.99999998245E-14  0.12500000000E+03  0.12500000000E+03 0.  0.
        -11    1    3    3    0    0  0.19434491477E+02 -0.21915122548E+02 -0.36593709437E+02  0.46872930631E+02  0.51100000000E-03 0.  1.
         23    2    1    0    0    0 -0.91708662974E+01  0.15338380235E+02 -0.23201328149E+02  0.95713956827E+02  0.91123483289E+02 0.  0.
         11    1    3    3    0    0 -0.28605357775E+02  0.37253502783E+02  0.13392381289E+02  0.48841026196E+02  0.51100000000E-03 0. -1.
         22    1    1    0    0    0  0.91708662974E+01 -0.15338380235E+02  0.23201328149E+02  0.29286043173E+02  0.00000000000E+00 0. -1.
</event>
<event>
 5    1  0.8752570E-005  0.9118800E+02  0.7818608E-02  0.1130116E+00
         25   -1    0    0    0    0  0.00000000000E+00  0.00000000000E+00  0.99999998245E-14  0.12500000000E+03  0.12500000000E+03 0.  0.
        -11    1    3    3    0    0 -0.25183992697E+02 -0.17313202151E+01 -0.22090263792E+02  0.33544160632E+02  0.51100000000E-03 0.  1.
         23    2    1    0    0    0  0.13516697613E+02  0.28312808024E+02  0.99519897298E+01  0.92085591116E+02  0.86002312638E+02 0.  0.
         11    1    3    3    0    0  0.38700690310E+02  0.30044128239E+02  0.32042253522E+02  0.58541430484E+02  0.51100000000E-03 0. -1.
         22    1    1    0    0    0 -0.13516697613E+02 -0.28312808024E+02 -0.99519897298E+01  0.32914408884E+02  0.00000000000E+00 0. -1.
</event>
<event>
 5    1  0.8752570E-005  0.9118800E+02  0.7818608E-02  0.1130116E+00
         25   -1    0    0    0    0  0.00000000000E+00  0.00000000000E+00  0.99999998245E-14  0.12500000000E+03  0.12500000000E+03 0.  0.
        -11    1    3    3    0    0  0.17601057998E+02 -0.16888574894E+02  0.52623720900E+02  0.58002389660E+02  0.51100000000E-03 0.  1.
         23    2    1    0    0    0 -0.13549053725E+01 -0.20662692201E+02  0.18437552092E+02  0.97274092536E+02  0.93239064420E+02 0.  0.
         11    1    3    3    0    0 -0.18955963371E+02 -0.37741173070E+01 -0.34186168808E+02  0.39271702876E+02  0.51100000000E-03 0. -1.
         22    1    1    0    0    0  0.13549053725E+01  0.20662692201E+02 -0.18437552092E+02  0.27725907464E+02  0.00000000000E+00 0.  1.
</event>
<event>
 5    1  0.8752570E-005  0.9118800E+02  0.7818608E-02  0.1130116E+00
         25   -1    0    0    0    0  0.00000000000E+00  0.00000000000E+00  0.99999998245E-14  0.12500000000E+03  0.12500000000E+03 0.  0.
        -11    1    3    3    0    0 -0.10853324087E+02 -0.25441183762E+02  0.25570187551E+02  0.37668062953E+02  0.51100000000E-03 0. -1.
         23    2    1    0    0    0 -0.14540047386E+02  0.47109093907E+01 -0.24436103867E+02  0.96177633382E+02  0.91757334015E+02 0.  0.
         11    1    3    3    0    0 -0.36867232995E+01  0.30152093153E+02 -0.50006291418E+02  0.58509570429E+02  0.51100000000E-03 0.  1.
         22    1    1    0    0    0  0.14540047386E+02 -0.47109093907E+01  0.24436103867E+02  0.28822366618E+02  0.00000000000E+00 0.  1.
</event>
<event>
 5    1  0.8752570E-005  0.9118800E+02  0.7818608E-02  0.1130116E+00
         25   -1    0    0    0    0  0.00000000000E+00  0.00000000000E+00  0.99999998245E-14  0.12500000000E+03  0.12500000000E+03 0.  0.
        -11    1    3    3    0    0 -0.86954534726E+01 -0.17544311664E+02  0.35395852669E+02  0.40450960054E+02  0.51100000000E-03 0.  1.
         23    2    1    0    0    0 -0.20106164053E+02 -0.14916289797E+02 -0.17388589867E+02  0.94518586126E+02  0.89468690230E+02 0.  0.
         11    1    3    3    0    0 -0.11410710580E+02  0.26280218670E+01 -0.52784442536E+02  0.54067626071E+02  0.51100000000E-03 0. -1.
         22    1    1    0    0    0  0.20106164053E+02  0.14916289797E+02  0.17388589867E+02  0.30481413874E+02  0.00000000000E+00 0. -1.
</event>
<event>
 5    1  0.8752570E-005  0.9118800E+02  0.7818608E-02  0.1130116E+00
         25   -1    0    0    0    0  0.00000000000E+00  0.00000000000E+00  0.99999998245E-14  0.12500000000E+03  0.12500000000E+03 0.  0.
        -11    1    3    3    0    0  0.28638315261E+02 -0.28083925863E+02  0.25879038257E+02  0.47734522248E+02  0.51100000000E-03 0.  1.
         23    2    1    0    0    0  0.10213289340E+02  0.16399398008E+02  0.21520692472E+02  0.96079561921E+02  0.91623634944E+02 0.  0.
         11    1    3    3    0    0 -0.18425025921E+02  0.44483323871E+02 -0.43583457842E+01  0.48345039673E+02  0.51100000000E-03 0. -1.
         22    1    1    0    0    0 -0.10213289340E+02 -0.16399398008E+02 -0.21520692472E+02  0.28920438079E+02  0.00000000000E+00 0. -1.
</event>
<event>
 5    1  0.8752570E-005  0.9118800E+02  0.7818608E-02  0.1130116E+00
         25   -1    0    0    0    0  0.00000000000E+00  0.00000000000E+00  0.99999998245E-14  0.12500000000E+03  0.12500000000E+03 0.  0.
        -11    1    3    3    0    0 -0.69672792976E+01  0.42973453073E+02 -0.44670045149E+02  0.62375264197E+02  0.51100000000E-03 0.  1.
         23    2    1    0    0    0 -0.59437264842E+01  0.20105909081E+02 -0.22601752652E+02  0.94171203601E+02  0.88982025714E+02 0.  0.
         11    1    3    3    0    0  0.10235528134E+01 -0.22867543992E+02  0.22068292497E+02  0.31795939404E+02  0.51100000000E-03 0. -1.
         22    1    1    0    0    0  0.59437264842E+01 -0.20105909081E+02  0.22601752652E+02  0.30828796399E+02  0.00000000000E+00 0.  1.
</event>
<event>
 5    1  0.8752570E-005  0.9118800E+02  0.7818608E-02  0.1130116E+00
         25   -1    0    0    0    0  0.00000000000E+00  0.00000000000E+00  0.99999998245E-14  0.12500000000E+03  0.12500000000E+03 0.  0.
        -11    1    3    3    0    0 -0.28239457082E+02  0.30584617781E+02 -0.22700919997E+02  0.47415372507E+02  0.51100000000E-03 0. -1.
         23    2    1    0    0    0  0.17678253356E+02  0.17484378785E+02 -0.15487063431E+02  0.95707112178E+02  0.91114093556E+02 0.  0.
         11    1    3    3    0    0  0.45917710438E+02 -0.13100238996E+02  0.72138565659E+01  0.48291739671E+02  0.51100000000E-03 0.  1.
         22    1    1    0    0    0 -0.17678253356E+02 -0.17484378785E+02  0.15487063431E+02  0.29292887822E+02  0.00000000000E+00 0. -1.
</event>
<event>
 5    1  0.8752570E-005  0.9118800E+02  0.7818608E-02  0.1130116E+00
         25   -1    0    0    0    0  0.00000000000E+00  0.00000000000E+00  0.99999998245E-14  0.12500000000E+03  0.12500000000E+03 0.  0.
        -11    1    3    3    0    0 -0.25354263047E+01  0.36751377900E+02  0.11656571996E+02  0.38638941950E+02  0.51100000000E-03 0. -1.
         23    2    1    0    0    0 -0.79687662318E+01 -0.21493157858E+02  0.15605284992E+02  0.97269475489E+02  0.93232874418E+02 0.  0.
         11    1    3    3    0    0 -0.54333399271E+01 -0.58244535758E+02  0.39487129959E+01  0.58630533539E+02  0.51100000000E-03 0.  1.
         22    1    1    0    0    0  0.79687662318E+01  0.21493157858E+02 -0.15605284992E+02  0.27730524511E+02  0.00000000000E+00 0.  1.
</event>
<event>
 5    1  0.8752570E-005  0.9118800E+02  0.7818608E-02  0.1130116E+00
         25   -1    0    0    0    0  0.00000000000E+00  0.00000000000E+00  0.99999998245E-14  0.12500000000E+03  0.12500000000E+03 0.  0.
        -11    1    3    3    0    0  0.33802862163E+01  0.51800958412E+02 -0.25296571591E+02  0.57746706935E+02  0.51100000000E-03 0.  1.
         23    2    1    0    0    0 -0.47064526794E+01  0.28545069730E+02  0.37531300004E+01  0.95827106974E+02  0.91278566725E+02 0.  0.
         11    1    3    3    0    0 -0.80867388956E+01 -0.23255888682E+02  0.29049701591E+02  0.38080400039E+02  0.51100000000E-03 0. -1.
         22    1    1    0    0    0  0.47064526794E+01 -0.28545069730E+02 -0.37531300004E+01  0.29172893026E+02  0.00000000000E+00 0.  1.
</event>
<event>
 5    1  0.8752570E-005  0.9118800E+02  0.7818608E-02  0.1130116E+00
         25   -1    0    0    0    0  0.00000000000E+00  0.00000000000E+00  0.99999998245E-14  0.12500000000E+03  0.12500000000E+03 0.  0.
        -11    1    3    3    0    0 -0.13303441478E+02  0.45069837012E+02 -0.28945098651E+02  0.55191398783E+02  0.51100000000E-03 0.  1.
         23    2    1    0    0    0  0.15018687554E+02  0.23332566358E+02 -0.10987299917E+02  0.95155563531E+02  0.90354252157E+02 0.  0.
         11    1    3    3    0    0  0.28322129032E+02 -0.21737270654E+02  0.17957798735E+02  0.39964164748E+02  0.51100000000E-03 0. -1.
         22    1    1    0    0    0 -0.15018687554E+02 -0.23332566358E+02  0.10987299917E+02  0.29844436469E+02  0.00000000000E+00 0.  1.
</event>
<event>
 5    1  0.8752570E-005  0.9118800E+02  0.7818608E-02  0.1130116E+00
         25   -1    0    0    0    0  0.00000000000E+00  0.00000000000E+00  0.99999998245E-14  0.12500000000E+03  0.12500000000E+03 0.  0.
        -11    1    3    3    0    0  0.43826986110E+01 -0.20861018793E+02 -0.52914643868E+02  0.57046907788E+02  0.51100000000E-03 0. -1.
         23    2    1    0    0    0  0.11403979069E+02 -0.22773079455E+02 -0.15450926104E+02  0.95210824047E+02  0.90430669641E+02 0.  0.
         11    1    3    3    0    0  0.70212804580E+01 -0.19120606627E+01  0.37463717764E+02  0.38163916259E+02  0.51100000000E-03 0.  1.
         22    1    1    0    0    0 -0.11403979069E+02  0.22773079455E+02  0.15450926104E+02  0.29789175953E+02  0.00000000000E+00 0. -1.
</event>
<event>
 5    1  0.8752570E-005  0.9118800E+02  0.7818608E-02  0.1130116E+00
         25   -1    0    0    0    0  0.00000000000E+00  0.00000000000E+00  0.99999998245E-14  0.12500000000E+03  0.12500000000E+03 0.  0.
        -11    1    3    3    0    0  0.91830428129E+01 -0.37885494865E+02  0.45164720067E+02  0.59661469437E+02  0.51100000000E-03 0. -1.
         23    2    1    0    0    0  0.16946662651E+01 -0.28602072989E+02  0.13839602978E+02  0.93180429236E+02  0.87579148825E+02 0.  0.
         11    1    3    3    0    0 -0.74883765478E+01  0.92834218754E+01 -0.31325117089E+02  0.33518959798E+02  0.51100000000E-03 0.  1.
         22    1    1    0    0    0 -0.16946662651E+01  0.28602072989E+02 -0.13839602978E+02  0.31819570764E+02  0.00000000000E+00 0. -1.
</event>
<event>
 5    1  0.8752570E-005  0.9118800E+02  0.7818608E-02  0.1130116E+00
         25   -1    0    0    0    0  0.00000000000E+00  0.00000000000E+00  0.99999998245E-14  0.12500000000E+03  0.12500000000E+03 0.  0.
        -11    1    3    3    0    0  0.11480702686E+02  0.28855339497E+02  0.15090369051E+02  0.34527617787E+02  0.51100000000E-03 0.  1.
         23    2    1    0    0    0 -0.38016009643E+01 -0.29059839454E+02  0.49438443487E+01  0.95278492032E+02  0.90524157041E+02 0.  0.
         11    1    3    3    0    0 -0.15282303650E+02 -0.57915178951E+02 -0.10146524703E+02  0.60750874245E+02  0.51100000000E-03 0. -1.
         22    1    1    0    0    0  0.38016009643E+01  0.29059839454E+02 -0.49438443487E+01  0.29721507968E+02  0.00000000000E+00 0. -1.
</event>
<event>
 5    1  0.8752570E-005  0.9118800E+02  0.7818608E-02  0.1130116E+00
         25   -1    0    0    0    0  0.00000000000E+00  0.00000000000E+00  0.99999998245E-14  0.12500000000E+03  0.12500000000E+03 0.  0.
        -11    1    3    3    0    0 -0.13946561595E+02  0.18663532987E+02 -0.52584121458E+02  0.57514553581E+02  0.51100000000E-03 0. -1.
         23    2    1    0    0    0  0.10629572610E+02  0.13501425067E+02 -0.21749273212E+02  0.97281645469E+02  0.93249189633E+02 0.  0.
         11    1    3    3    0    0  0.24576134204E+02 -0.51621079199E+01  0.30834848246E+02  0.39767091888E+02  0.51100000000E-03 0.  1.
         22    1    1    0    0    0 -0.10629572610E+02 -0.13501425067E+02  0.21749273212E+02  0.27718354531E+02  0.00000000000E+00 0. -1.
</event>
<event>
 5    1  0.8752570E-005  0.9118800E+02  0.7818608E-02  0.1130116E+00
         25   -1    0    0    0    0  0.00000000000E+00  0.00000000000E+00  0.99999998245E-14  0.12500000000E+03  0.12500000000E+03 0.  0.
        -11    1    3    3    0    0 -0.42848223563E+01 -0.75073831817E+01 -0.35486363209E+02  0.36523998671E+02  0.51100000000E-03 0. -1.
         23    2    1    0    0    0 -0.40568081628E+01  0.21904147007E+02  0.17194402867E+02  0.96859338342E+02  0.92681360508E+02 0.  0.
         11    1    3    3    0    0  0.22801419349E+00  0.29411530188E+02  0.52680766077E+02  0.60335339671E+02  0.51100000000E-03 0.  1.
         22    1    1    0    0    0  0.40568081628E+01 -0.21904147007E+02 -0.17194402867E+02  0.28140661658E+02  0.00000000000E+00 0.  1.
</event>
<event>
 5    1  0.8752570E-005  0.9118800E+02  0.7818608E-02  0.1130116E+00
         25   -1    0    0    0    0  0.00000000000E+00  0.00000000000E+00  0.99999998245E-14  0.12500000000E+03  0.12500000000E+03 0.  0.
        -11    1    3    3    0    0 -0.32282909395E+02  0.59513008661E+01  0.35265784278E+02  0.48179661290E+02  0.51100000000E-03 0. -1.
         23    2    1    0    0    0 -0.20771211529E+02 -0.21373572746E+02 -0.11915692559E+01  0.95172283399E+02  0.90377380189E+02 0.  0.
         11    1    3    3    0    0  0.11511697867E+02 -0.27324873613E+02 -0.36457353534E+02  0.46992622109E+02  0.51100000000E-03 0.  1.
         22    1    1    0    0    0  0.20771211529E+02  0.21373572746E+02  0.11915692559E+01  0.29827716601E+02  0.00000000000E+00 0. -1.
</event>
<event>
 5    1  0.8752570E-005  0.9118800E+02  0.7818608E-02  0.1130116E+00
         25   -1    0    0    0    0  0.00000000000E+00  0.00000000000E+00  0.99999998245E-14  0.12500000000E+03  0.12500000000E+03 0.  0.
        -11    1    3    3    0    0  0.43303246347E+02 -0.27230149667E+02  0.89736935402E+01  0.51934375620E+02  0.51100000000E-03 0. -1.
         23    2    1    0    0    0  0.13434925602E+02 -0.37190751330E+02  0.12283033389E+02  0.83593211671E+02  0.72617511096E+02 0.  0.
         11    1    3    3    0    0 -0.29868320745E+02 -0.99606016639E+01  0.33093398484E+01  0.31658836051E+02  0.51100000000E-03 0.  1.
         22    1    1    0    0    0 -0.13434925602E+02  0.37190751330E+02 -0.12283033389E+02  0.41406788329E+02  0.00000000000E+00 0. -1.
</event>
<event>
 5    1  0.8752570E-005  0.9118800E+02  0.7818608E-02  0.1130116E+00
         25   -1    0    0    0    0  0.00000000000E+00  0.00000000000E+00  0.99999998245E-14  0.12500000000E+03  0.12500000000E+03 0.  0.
        -11    1    3    3    0    0  0.55744208496E+02  0.28018612734E+00 -0.45276139868E+01  0.55928477306E+02  0.51100000000E-03 0.  1.
         23    2    1    0    0    0  0.21507959376E+02 -0.14257819060E+02 -0.15736252528E+02  0.94775715649E+02  0.89827216991E+02 0.  0.
         11    1    3    3    0    0 -0.34236249120E+02 -0.14538005188E+02 -0.11208638541E+02  0.38847238343E+02  0.51100000000E-03 0. -1.
         22    1    1    0    0    0 -0.21507959376E+02  0.14257819060E+02  0.15736252528E+02  0.30224284351E+02  0.00000000000E+00 0.  1.
</event>
<event>
 5    1  0.8752570E-005  0.9118800E+02  0.7818608E-02  0.1130116E+00
         25   -1    0    0    0    0  0.00000000000E+00  0.00000000000E+00  0.99999998245E-14  0.12500000000E+03  0.12500000000E+03 0.  0.
        -11    1    3    3    0    0  0.26598275843E+02 -0.34690312291E+02 -0.22488452244E+02  0.49159094065E+02  0.51100000000E-03 0.  1.
         23    2    1    0    0    0 -0.12149289867E+02 -0.26175119308E+02  0.24829665129E+01  0.96036104582E+02  0.91564327909E+02 0.  0.
         11    1    3    3    0    0 -0.38747565710E+02  0.85151929830E+01  0.24971418757E+02  0.46877010517E+02  0.51100000000E-03 0. -1.
         22    1    1    0    0    0  0.12149289867E+02  0.26175119308E+02 -0.24829665129E+01  0.28963895418E+02  0.00000000000E+00 0. -1.
</event>
<event>
 5    1  0.8752570E-005  0.9118800E+02  0.7818608E-02  0.1130116E+00
         25   -1    0    0    0    0  0.00000000000E+00  0.00000000000E+00  0.99999998245E-14  0.12500000000E+03  0.12500000000E+03 0.  0.
        -11    1    3    3    0    0 -0.33455730913E+02  0.23082574801E+02 -0.40592398860E+02  0.57444181915E+02  0.51100000000E-03 0. -1.
         23    2    1    0    0    0 -0.23500930157E+02 -0.51543489514E+01 -0.17929453537E+02  0.94994561568E+02  0.90131239823E+02 0.  0.
         11    1    3    3    0    0  0.99548007563E+01 -0.28236923752E+02  0.22662945324E+02  0.37550379653E+02  0.51100000000E-03 0.  1.
         22    1    1    0    0    0  0.23500930157E+02  0.51543489514E+01  0.17929453537E+02  0.30005438432E+02  0.00000000000E+00 0. -1.
</event>
<event>
 5    1  0.8752570E-005  0.9118800E+02  0.7818608E-02  0.1130116E+00
         25   -1    0    0    0    0  0.00000000000E+00  0.00000000000E+00  0.99999998245E-14  0.12500000000E+03  0.12500000000E+03 0.  0.
        -11    1    3    3    0    0 -0.43755000323E+02 -0.15166432929E+02 -0.41220725553E+02  0.61997330236E+02  0.51100000000E-03 0.  1.
         23    2    1    0    0    0 -0.18083607964E+02 -0.49138976288E+01 -0.23942364558E+02  0.94596051448E+02  0.89576854500E+02 0.  0.
         11    1    3    3    0    0  0.25671392359E+02  0.10252535300E+02  0.17278360995E+02  0.32598721212E+02  0.51100000000E-03 0. -1.
         22    1    1    0    0    0  0.18083607964E+02  0.49138976288E+01  0.23942364558E+02  0.30403948552E+02  0.00000000000E+00 0.  1.
</event>
<event>
 5    1  0.8752570E-005  0.9118800E+02  0.7818608E-02  0.1130116E+00
         25   -1    0    0    0    0  0.00000000000E+00  0.00000000000E+00  0.99999998245E-14  0.12500000000E+03  0.12500000000E+03 0.  0.
        -11    1    3    3    0    0  0.54902432322E+00 -0.50114700514E+02  0.21312179197E+02  0.54460936621E+02  0.51100000000E-03 0.  1.
         23    2    1    0    0    0  0.12559445760E+02 -0.14224560323E+02  0.26230240603E+02  0.92625576202E+02  0.86783604733E+02 0.  0.
         11    1    3    3    0    0  0.12010421437E+02  0.35890140191E+02  0.49180614066E+01  0.38164639580E+02  0.51100000000E-03 0. -1.
         22    1    1    0    0    0 -0.12559445760E+02  0.14224560323E+02 -0.26230240603E+02  0.32374423798E+02  0.00000000000E+00 0.  1.
</event>
<event>
 5    1  0.8752570E-005  0.9118800E+02  0.7818608E-02  0.1130116E+00
         25   -1    0    0    0    0  0.00000000000E+00  0.00000000000E+00  0.99999998245E-14  0.12500000000E+03  0.12500000000E+03 0.  0.
        -11    1    3    3    0    0  0.49362299269E+02  0.13056177666E+00  0.18883509264E+02  0.52851116903E+02  0.51100000000E-03 0. -1.
         23    2    1    0    0    0  0.26539375974E+02  0.52843316844E+01 -0.15024687990E+02  0.94048362117E+02  0.88809293034E+02 0.  0.
         11    1    3    3    0    0 -0.22822923295E+02  0.51537699077E+01 -0.33908197254E+02  0.41197245214E+02  0.51100000000E-03 0.  1.
         22    1    1    0    0    0 -0.26539375974E+02 -0.52843316844E+01  0.15024687990E+02  0.30951637883E+02  0.00000000000E+00 0. -1.
</event>
<event>
 5    1  0.8752570E-005  0.9118800E+02  0.7818608E-02  0.1130116E+00
         25   -1    0    0    0    0  0.00000000000E+00  0.00000000000E+00  0.99999998245E-14  0.12500000000E+03  0.12500000000E+03 0.  0.
        -11    1    3    3    0    0 -0.31604152619E+02 -0.11424597191E+02  0.50889756505E+02  0.60984516077E+02  0.51100000000E-03 0. -1.
         23    2    1    0    0    0 -0.18713528718E+02 -0.13694603560E+02  0.20596261644E+02  0.93984772813E+02  0.88719745283E+02 0.  0.
         11    1    3    3    0    0  0.12890623901E+02 -0.22700063690E+01 -0.30293494861E+02  0.33000256735E+02  0.51100000000E-03 0.  1.
         22    1    1    0    0    0  0.18713528718E+02  0.13694603560E+02 -0.20596261644E+02  0.31015227187E+02  0.00000000000E+00 0. -1.
</event>
<event>
 5    1  0.8752570E-005  0.9118800E+02  0.7818608E-02  0.1130116E+00
         25   -1    0    0    0    0  0.00000000000E+00  0.00000000000E+00  0.99999998245E-14  0.12500000000E+03  0.12500000000E+03 0.  0.
        -11    1    3    3    0    0 -0.20897342320E+02 -0.30481979482E+02 -0.19351935121E+01  0.37008039172E+02  0.51100000000E-03 0. -1.
         23    2    1    0    0    0  0.65115988064E+01  0.16349683342E+02 -0.23706278638E+02  0.95475421912E+02  0.90795679842E+02 0.  0.
         11    1    3    3    0    0  0.27408941127E+02  0.46831662824E+02 -0.21771085126E+02  0.58467382739E+02  0.51100000000E-03 0.  1.
         22    1    1    0    0    0 -0.65115988064E+01 -0.16349683342E+02  0.23706278638E+02  0.29524578088E+02  0.00000000000E+00 0.  1.
</event>
<event>
 5    1  0.8752570E-005  0.9118800E+02  0.7818608E-02  0.1130116E+00
         25   -1    0    0    0    0  0.00000000000E+00  0.00000000000E+00  0.99999998245E-14  0.12500000000E+03  0.12500000000E+03 0.  0.
        -11    1    3    3    0    0 -0.48095518115E+01 -0.35312200109E+01  0.41014817074E+02  0.41446550198E+02  0.51100000000E-03 0. -1.
         23    2    1    0    0    0  0.15399498068E+02 -0.21672666409E+02 -0.77875953034E+01  0.97296288143E+02  0.93268815988E+02 0.  0.
         11    1    3    3    0    0  0.20209049880E+02 -0.18141446398E+02 -0.48802412378E+02  0.55849737946E+02  0.51100000000E-03 0.  1.
         22    1    1    0    0    0 -0.15399498068E+02  0.21672666409E+02  0.77875953034E+01  0.27703711857E+02  0.00000000000E+00 0.  1.
</event>
<event>
 5    1  0.8752570E-005  0.9118800E+02  0.7818608E-02  0.1130116E+00
         25   -1    0    0    0    0  0.00000000000E+00  0.00000000000E+00  0.99999998245E-14  0.12500000000E+03  0.12500000000E+03 0.  0.
        -11    1    3    3    0    0  0.90250321363E+01 -0.20120265010E+02  0.54380927851E+01  0.22712312135E+02  0.51100000000E-03 0.  1.
         23    2    1    0    0    0 -0.13191056497E+01  0.39980041428E+02  0.96799241619E+01  0.83843655603E+02  0.73047340135E+02 0.  0.
         11    1    3    3    0    0 -0.10344137786E+02  0.60100306438E+02  0.42418313768E+01  0.61131343468E+02  0.51100000000E-03 0. -1.
         22    1    1    0    0    0  0.13191056497E+01 -0.39980041428E+02 -0.96799241619E+01  0.41156344397E+02  0.00000000000E+00 0. -1.
</event>
<event>
 5    1  0.8752570E-005  0.9118800E+02  0.7818608E-02  0.1130116E+00
         25   -1    0    0    0    0  0.00000000000E+00  0.00000000000E+00  0.99999998245E-14  0.12500000000E+03  0.12500000000E+03 0.  0.
        -11    1    3    3    0    0  0.64183277387E+01 -0.16519784257E+02  0.28374226321E+02  0.33454370752E+02  0.51100000000E-03 0.  1.
         23    2    1    0    0    0 -0.16198695613E+02  0.15794192497E+02 -0.19252347533E+02  0.95292978242E+02  0.90544158069E+02 0.  0.
         11    1    3    3    0    0 -0.22617023352E+02  0.32313976754E+02 -0.47626573853E+02  0.61838607490E+02  0.51100000000E-03 0. -1.
         22    1    1    0    0    0  0.16198695613E+02 -0.15794192497E+02  0.19252347533E+02  0.29707021758E+02  0.00000000000E+00 0. -1.
</event>
<event>
 5    1  0.8752570E-005  0.9118800E+02  0.7818608E-02  0.1130116E+00
         25   -1    0    0    0    0  0.00000000000E+00  0.00000000000E+00  0.99999998245E-14  0.12500000000E+03  0.12500000000E+03 0.  0.
        -11    1    3    3    0    0 -0.15621886222E+02  0.34478645980E+02  0.14989882664E+01  0.37882282452E+02  0.51100000000E-03 0. -1.
         23    2    1    0    0    0  0.22867034277E+02 -0.68613529801E+01  0.16077552568E+02  0.96216895269E+02  0.91810804470E+02 0.  0.
         11    1    3    3    0    0  0.38488920499E+02 -0.41339998960E+02  0.14578564302E+02  0.58334612817E+02  0.51100000000E-03 0.  1.
         22    1    1    0    0    0 -0.22867034277E+02  0.68613529801E+01 -0.16077552568E+02  0.28783104731E+02  0.00000000000E+00 0.  1.
</event>
<event>
 5    1  0.8752570E-005  0.9118800E+02  0.7818608E-02  0.1130116E+00
         25   -1    0    0    0    0  0.00000000000E+00  0.00000000000E+00  0.99999998245E-14  0.12500000000E+03  0.12500000000E+03 0.  0.
        -11    1    3    3    0    0 -0.31575508228E+02  0.16170010510E+02 -0.67120572411E+01  0.36104482719E+02  0.51100000000E-03 0. -1.
         23    2    1    0    0    0  0.23279670970E+02  0.88841767823E+01  0.15413476243E+02  0.95700735035E+02  0.91105344293E+02 0.  0.
         11    1    3    3    0    0  0.54855179198E+02 -0.72858337274E+01  0.22125533484E+02  0.59596252316E+02  0.51100000000E-03 0.  1.
         22    1    1    0    0    0 -0.23279670970E+02 -0.88841767823E+01 -0.15413476243E+02  0.29299264965E+02  0.00000000000E+00 0.  1.
</event>
<event>
 5    1  0.8752570E-005  0.9118800E+02  0.7818608E-02  0.1130116E+00
         25   -1    0    0    0    0  0.00000000000E+00  0.00000000000E+00  0.99999998245E-14  0.12500000000E+03  0.12500000000E+03 0.  0.
        -11    1    3    3    0    0  0.28872117453E+02  0.23416304440E+02  0.10078336341E+02  0.38516169897E+02  0.51100000000E-03 0.  1.
         23    2    1    0    0    0 -0.22790621644E+02  0.15152529045E+02 -0.11762324984E+02  0.95211346784E+02  0.90431392204E+02 0.  0.
         11    1    3    3    0    0 -0.51662739098E+02 -0.82637753957E+01 -0.21840661325E+02  0.56695176887E+02  0.51100000000E-03 0. -1.
         22    1    1    0    0    0  0.22790621644E+02 -0.15152529045E+02  0.11762324984E+02  0.29788653216E+02  0.00000000000E+00 0. -1.
</event>
<event>
 5    1  0.8752570E-005  0.9118800E+02  0.7818608E-02  0.1130116E+00
         25   -1    0    0    0    0  0.00000000000E+00  0.00000000000E+00  0.99999998245E-14  0.12500000000E+03  0.12500000000E+03 0.  0.
        -11    1    3    3    0    0  0.14146624700E+02  0.82785478034E+01  0.18409390093E+02  0.24648873970E+02  0.51100000000E-03 0.  1.
         23    2    1    0    0    0 -0.22347078716E+02 -0.34010160298E+02 -0.23436273939E+01  0.84237572202E+02  0.73718335918E+02 0.  0.
         11    1    3    3    0    0 -0.36493703417E+02 -0.42288708101E+02 -0.20753017487E+02  0.59588698232E+02  0.51100000000E-03 0. -1.
         22    1    1    0    0    0  0.22347078716E+02  0.34010160298E+02  0.23436273939E+01  0.40762427798E+02  0.00000000000E+00 0. -1.
</event>
<event>
 5    1  0.8752570E-005  0.9118800E+02  0.7818608E-02  0.1130116E+00
         25   -1    0    0    0    0  0.00000000000E+00  0.00000000000E+00  0.99999998245E-14  0.12500000000E+03  0.12500000000E+03 0.  0.
        -11    1    3    3    0    0 -0.36460880116E+02 -0.11976157880E+02  0.42668732063E+02  0.57388542694E+02  0.51100000000E-03 0. -1.
         23    2    1    0    0    0 -0.88583399811E+01  0.95811121473E+01  0.25415081885E+02  0.96430885831E+02  0.92101690851E+02 0.  0.
         11    1    3    3    0    0  0.27602540135E+02  0.21557270027E+02 -0.17253650178E+02  0.39042343137E+02  0.51100000000E-03 0.  1.
         22    1    1    0    0    0  0.88583399811E+01 -0.95811121473E+01 -0.25415081885E+02  0.28569114169E+02  0.00000000000E+00 0. -1.
</event>
<event>
 5    1  0.8752570E-005  0.9118800E+02  0.7818608E-02  0.1130116E+00
         25   -1    0    0    0    0  0.00000000000E+00  0.00000000000E+00  0.99999998245E-14  0.12500000000E+03  0.12500000000E+03 0.  0.
        -11    1    3    3    0    0  0.16539169032E+01 -0.50114134536E+02  0.66534710367E+01  0.50580931175E+02  0.51100000000E-03 0.  1.
         23    2    1    0    0    0  0.25293711003E+01 -0.19737519947E+02 -0.24053063129E+02  0.93782741029E+02  0.88434638333E+02 0.  0.
         11    1    3    3    0    0  0.87545419712E+00  0.30376614589E+02 -0.30706534165E+02  0.43201809854E+02  0.51100000000E-03 0. -1.
         22    1    1    0    0    0 -0.25293711003E+01  0.19737519947E+02  0.24053063129E+02  0.31217258971E+02  0.00000000000E+00 0. -1.
</event>
<event>
 5    1  0.8752570E-005  0.9118800E+02  0.7818608E-02  0.1130116E+00
         25   -1    0    0    0    0  0.00000000000E+00  0.00000000000E+00  0.99999998245E-14  0.12500000000E+03  0.12500000000E+03 0.  0.
        -11    1    3    3    0    0  0.34424393306E+02  0.29726716966E+02  0.13619354680E+02  0.47478451726E+02  0.51100000000E-03 0. -1.
         23    2    1    0    0    0 -0.45591283976E+01  0.14364760491E+02  0.29165644320E+02  0.92170641122E+02  0.86125839796E+02 0.  0.
         11    1    3    3    0    0 -0.38983521704E+02 -0.15361956475E+02  0.15546289641E+02  0.44692189397E+02  0.51100000000E-03 0.  1.
         22    1    1    0    0    0  0.45591283976E+01 -0.14364760491E+02 -0.29165644320E+02  0.32829358878E+02  0.00000000000E+00 0. -1.
</event>
<event>
 5    1  0.8752570E-005  0.9118800E+02  0.7818608E-02  0.1130116E+00
         25   -1    0    0    0    0  0.00000000000E+00  0.00000000000E+00  0.99999998245E-14  0.12500000000E+03  0.12500000000E+03 0.  0.
        -11    1    3    3    0    0 -0.32190833734E+02  0.11029942731E+02 -0.92914285160E+01  0.35273787113E+02  0.51100000000E-03 0.  1.
         23    2    1    0    0    0  0.17155206646E+02 -0.14706931261E+02  0.16899692203E+02  0.96783080629E+02  0.92578454066E+02 0.  0.
         11    1    3    3    0    0  0.49346040380E+02 -0.25736873993E+02  0.26191120719E+02  0.61509293517E+02  0.51100000000E-03 0. -1.
         22    1    1    0    0    0 -0.17155206646E+02  0.14706931261E+02 -0.16899692203E+02  0.28216919371E+02  0.00000000000E+00 0. -1.
</event>
<event>
 5    1  0.8752570E-005  0.9118800E+02  0.7818608E-02  0.1130116E+00
         25   -1    0    0    0    0  0.00000000000E+00  0.00000000000E+00  0.99999998245E-14  0.12500000000E+03  0.12500000000E+03 0.  0.
        -11    1    3    3    0    0  0.25806177732E+02  0.23873600592E+02  0.60835257852E+01  0.35677960993E+02  0.51100000000E-03 0.  1.
         23    2    1    0    0    0 -0.26164205521E+02 -0.76333720996E+01  0.83479929660E+01  0.96495210811E+02  0.92188951089E+02 0.  0.
         11    1    3    3    0    0 -0.51970383252E+02 -0.31506972692E+02  0.22644671808E+01  0.60817249818E+02  0.51100000000E-03 0. -1.
         22    1    1    0    0    0  0.26164205521E+02  0.76333720996E+01 -0.83479929660E+01  0.28504789189E+02  0.00000000000E+00 0. -1.
</event>
<event>
 5    1  0.8752570E-005  0.9118800E+02  0.7818608E-02  0.1130116E+00
         25   -1    0    0    0    0  0.00000000000E+00  0.00000000000E+00  0.99999998245E-14  0.12500000000E+03  0.12500000000E+03 0.  0.
        -11    1    3    3    0    0  0.28030906310E+02 -0.15197648644E+02  0.16047963163E+02  0.35696461376E+02  0.51100000000E-03 0.  1.
         23    2    1    0    0    0 -0.24587584230E+02 -0.66541772649E+01 -0.12997532733E+02  0.96403440233E+02  0.92064434275E+02 0.  0.
         11    1    3    3    0    0 -0.52618490540E+02  0.85434713786E+01 -0.29045495896E+02  0.60706978857E+02  0.51100000000E-03 0. -1.
         22    1    1    0    0    0  0.24587584230E+02  0.66541772649E+01  0.12997532733E+02  0.28596559767E+02  0.00000000000E+00 0. -1.
</event>
<event>
 5    1  0.8752570E-005  0.9118800E+02  0.7818608E-02  0.1130116E+00
         25   -1    0    0    0    0  0.00000000000E+00  0.00000000000E+00  0.99999998245E-14  0.12500000000E+03  0.12500000000E+03 0.  0.
        -11    1    3    3    0    0 -0.10880845288E+02  0.11716093308E+01 -0.52431102075E+02  0.53561048605E+02  0.51100000000E-03 0. -1.
         23    2    1    0    0    0 -0.22700046837E+02 -0.13552703286E+02 -0.17419905063E+02  0.93338967402E+02  0.87805135673E+02 0.  0.
         11    1    3    3    0    0 -0.11819201549E+02 -0.14724312617E+02  0.35011197012E+02  0.39777918797E+02  0.51100000000E-03 0.  1.
         22    1    1    0    0    0  0.22700046837E+02  0.13552703286E+02  0.17419905063E+02  0.31661032598E+02  0.00000000000E+00 0. -1.
</event>
<event>
 5    1  0.8752570E-005  0.9118800E+02  0.7818608E-02  0.1130116E+00
         25   -1    0    0    0    0  0.00000000000E+00  0.00000000000E+00  0.99999998245E-14  0.12500000000E+03  0.12500000000E+03 0.  0.
        -11    1    3    3    0    0 -0.30788693439E+02  0.20876291993E+02 -0.41989385272E+02  0.56096984650E+02  0.51100000000E-03 0.  1.
         23    2    1    0    0    0 -0.16820550530E+02 -0.10430061545E+02 -0.20217763875E+02  0.96707331691E+02  0.92476120824E+02 0.  0.
         11    1    3    3    0    0  0.13968142910E+02 -0.31306353539E+02  0.21771621397E+02  0.40610347041E+02  0.51100000000E-03 0. -1.
         22    1    1    0    0    0  0.16820550530E+02  0.10430061545E+02  0.20217763875E+02  0.28292668309E+02  0.00000000000E+00 0.  1.
</event>
<event>
 5    1  0.8752570E-005  0.9118800E+02  0.7818608E-02  0.1130116E+00
         25   -1    0    0    0    0  0.00000000000E+00  0.00000000000E+00  0.99999998245E-14  0.12500000000E+03  0.12500000000E+03 0.  0.
        -11    1    3    3    0    0 -0.11834349743E+02  0.28293824921E+02 -0.25731801568E+02  0.40033960267E+02  0.51100000000E-03 0.  1.
         23    2    1    0    0    0  0.26369890836E+02 -0.72817879245E+01 -0.14593031155E+01  0.97604286035E+02  0.93680689091E+02 0.  0.
         11    1    3    3    0    0  0.38204240579E+02 -0.35575612846E+02  0.24272498452E+02  0.57570325767E+02  0.51100000000E-03 0. -1.
         22    1    1    0    0    0 -0.26369890836E+02  0.72817879245E+01  0.14593031155E+01  0.27395713965E+02  0.00000000000E+00 0. -1.
</event>
<event>
 5    1  0.8752570E-005  0.9118800E+02  0.7818608E-02  0.1130116E+00
         25   -1    0    0    0    0  0.00000000000E+00  0.00000000000E+00  0.99999998245E-14  0.12500000000E+03  0.12500000000E+03 0.  0.
        -11    1    3    3    0    0 -0.21650962517E+02  0.15932730146E+02 -0.38672920837E+02  0.47097886090E+02  0.51100000000E-03 0. -1.
         23    2    1    0    0    0 -0.26628090838E+02  0.10842436428E+02  0.86678213017E+01  0.94970934488E+02  0.90098466258E+02 0.  0.
         11    1    3    3    0    0 -0.49771283212E+01 -0.50902937172E+01  0.47340742139E+02  0.47873048398E+02  0.51100000000E-03 0.  1.
         22    1    1    0    0    0  0.26628090838E+02 -0.10842436428E+02 -0.86678213017E+01  0.30029065512E+02  0.00000000000E+00 0. -1.
</event>
<event>
 5    1  0.8752570E-005  0.9118800E+02  0.7818608E-02  0.1130116E+00
         25   -1    0    0    0    0  0.00000000000E+00  0.00000000000E+00  0.99999998245E-14  0.12500000000E+03  0.12500000000E+03 0.  0.
        -11    1    3    3    0    0 -0.59530101854E+01 -0.58452453588E+02  0.46602898956E+01  0.58939341385E+02  0.51100000000E-03 0.  1.
         23    2    1    0    0    0 -0.12269777064E+02 -0.23172261035E+02  0.12993914657E+02  0.95736662378E+02  0.91154624646E+02 0.  0.
         11    1    3    3    0    0 -0.63167668785E+01  0.35280192552E+02  0.83336247614E+01  0.36797320993E+02  0.51100000000E-03 0. -1.
         22    1    1    0    0    0  0.12269777064E+02  0.23172261035E+02 -0.12993914657E+02  0.29263337622E+02  0.00000000000E+00 0.  1.
</event>
<event>
 5    1  0.8752570E-005  0.9118800E+02  0.7818608E-02  0.1130116E+00
         25   -1    0    0    0    0  0.00000000000E+00  0.00000000000E+00  0.99999998245E-14  0.12500000000E+03  0.12500000000E+03 0.  0.
        -11    1    3    3    0    0  0.24841976974E+02  0.48233636880E+02 -0.14319650376E+02  0.56112921273E+02  0.51100000000E-03 0. -1.
         23    2    1    0    0    0  0.23641283110E+02  0.96314244301E+01 -0.16176229893E+02  0.94778401479E+02  0.89830954407E+02 0.  0.
         11    1    3    3    0    0 -0.12006938635E+01 -0.38602212450E+02 -0.18565795168E+01  0.38665480206E+02  0.51100000000E-03 0.  1.
         22    1    1    0    0    0 -0.23641283110E+02 -0.96314244301E+01  0.16176229893E+02  0.30221598521E+02  0.00000000000E+00 0. -1.
</event>
<event>
 5    1  0.8752570E-005  0.9118800E+02  0.7818608E-02  0.1130116E+00
         25   -1    0    0    0    0  0.00000000000E+00  0.00000000000E+00  0.99999998245E-14  0.12500000000E+03  0.12500000000E+03 0.  0.
        -11    1    3    3    0    0 -0.63997083750E+01 -0.40258599852E+02  0.15154132381E+02  0.43489755780E+02  0.51100000000E-03 0. -1.
         23    2    1    0    0    0 -0.39289380409E+01  0.10579011601E+02  0.26990265984E+02  0.95745487554E+02  0.91166725775E+02 0.  0.
         11    1    3    3    0    0  0.24707703341E+01  0.50837611453E+02  0.11836133602E+02  0.52255731774E+02  0.51100000000E-03 0.  1.
         22    1    1    0    0    0  0.39289380409E+01 -0.10579011601E+02 -0.26990265984E+02  0.29254512446E+02  0.00000000000E+00 0.  1.
</event>
<event>
 5    1  0.8752570E-005  0.9118800E+02  0.7818608E-02  0.1130116E+00
         25   -1    0    0    0    0  0.00000000000E+00  0.00000000000E+00  0.99999998245E-14  0.12500000000E+03  0.12500000000E+03 0.  0.
        -11    1    3    3    0    0 -0.25319520668E+02 -0.76690853943E+01 -0.37230273770E+01  0.26716173580E+02  0.51100000000E-03 0. -1.
         23    2    1    0    0    0  0.27361762861E+02  0.17451366996E+02 -0.19453394681E+02  0.87162837824E+02  0.78522031661E+02 0.  0.
         11    1    3    3    0    0  0.52681283529E+02  0.25120452390E+02 -0.15730367304E+02  0.60446664245E+02  0.51100000000E-03 0.  1.
         22    1    1    0    0    0 -0.27361762861E+02 -0.17451366996E+02  0.19453394681E+02  0.37837162176E+02  0.00000000000E+00 0.  1.
</event>
<event>
 5    1  0.8752570E-005  0.9118800E+02  0.7818608E-02  0.1130116E+00
         25   -1    0    0    0    0  0.00000000000E+00  0.00000000000E+00  0.99999998245E-14  0.12500000000E+03  0.12500000000E+03 0.  0.
        -11    1    3    3    0    0 -0.15355528319E+02  0.49945620780E+02 -0.75475665268E+01  0.52795104373E+02  0.51100000000E-03 0.  1.
         23    2    1    0    0    0  0.98236207291E+01  0.22904216292E+02  0.14837053692E+02  0.95995779438E+02  0.91509261059E+02 0.  0.
         11    1    3    3    0    0  0.25179149048E+02 -0.27041404488E+02  0.22384620219E+02  0.43200675065E+02  0.51100000000E-03 0. -1.
         22    1    1    0    0    0 -0.98236207291E+01 -0.22904216292E+02 -0.14837053692E+02  0.29004220562E+02  0.00000000000E+00 0.  1.
</event>
<event>
 5    1  0.8752570E-005  0.9118800E+02  0.7818608E-02  0.1130116E+00
         25   -1    0    0    0    0  0.00000000000E+00  0.00000000000E+00  0.99999998245E-14  0.12500000000E+03  0.12500000000E+03 0.  0.
        -11    1    3    3    0    0  0.37404737303E+02  0.20449880320E+02  0.55182591211E+01  0.42985615755E+02  0.51100000000E-03 0. -1.
         23    2    1    0    0    0  0.10487596389E+02 -0.10518072854E+02 -0.26224061776E+02  0.94861636564E+02  0.89946701668E+02 0.  0.
         11    1    3    3    0    0 -0.26917140914E+02 -0.30967953175E+02 -0.31742320897E+02  0.51876020809E+02  0.51100000000E-03 0.  1.
         22    1    1    0    0    0 -0.10487596389E+02  0.10518072854E+02  0.26224061776E+02  0.30138363436E+02  0.00000000000E+00 0.  1.
</event>
<event>
 5    1  0.8752570E-005  0.9118800E+02  0.7818608E-02  0.1130116E+00
         25   -1    0    0    0    0  0.00000000000E+00  0.00000000000E+00  0.99999998245E-14  0.12500000000E+03  0.12500000000E+03 0.  0.
        -11    1    3    3    0    0 -0.33220114434E+02  0.24550824404E+02  0.11877745928E+01  0.41324687424E+02  0.51100000000E-03 0. -1.
         23    2    1    0    0    0  0.21323663499E+02  0.18079603703E+02  0.58132090413E+01  0.96445419029E+02  0.92121413131E+02 0.  0.
         11    1    3    3    0    0  0.54543777933E+02 -0.64712207006E+01  0.46254344485E+01  0.55120731605E+02  0.51100000000E-03 0.  1.
         22    1    1    0    0    0 -0.21323663499E+02 -0.18079603703E+02 -0.58132090413E+01  0.28554580971E+02  0.00000000000E+00 0.  1.
</event>
<event>
 5    1  0.8752570E-005  0.9118800E+02  0.7818608E-02  0.1130116E+00
         25   -1    0    0    0    0  0.00000000000E+00  0.00000000000E+00  0.99999998245E-14  0.12500000000E+03  0.12500000000E+03 0.  0.
        -11    1    3    3    0    0  0.23829996628E+02 -0.47200598026E+02 -0.20076022585E+02  0.56558039891E+02  0.51100000000E-03 0. -1.
         23    2    1    0    0    0  0.13560042377E+02 -0.88500325305E+01 -0.23559524286E+02  0.96412432604E+02  0.92076642809E+02 0.  0.
         11    1    3    3    0    0 -0.10269954251E+02  0.38350565495E+02 -0.34835017010E+01  0.39854392713E+02  0.51100000000E-03 0.  1.
         22    1    1    0    0    0 -0.13560042377E+02  0.88500325305E+01  0.23559524286E+02  0.28587567396E+02  0.00000000000E+00 0. -1.
</event>
<event>
 5    1  0.8752570E-005  0.9118800E+02  0.7818608E-02  0.1130116E+00
         25   -1    0    0    0    0  0.00000000000E+00  0.00000000000E+00  0.99999998245E-14  0.12500000000E+03  0.12500000000E+03 0.  0.
        -11    1    3    3    0    0 -0.21023843820E+02 -0.60436791234E+01  0.29575962533E+02  0.36786758845E+02  0.51100000000E-03 0. -1.
         23    2    1    0    0    0  0.28658597255E+02  0.10419374787E+01 -0.22852019820E+01  0.96231562808E+02  0.91830772087E+02 0.  0.
         11    1    3    3    0    0  0.49682441075E+02  0.70856166021E+01 -0.31861164515E+02  0.59444803964E+02  0.51100000000E-03 0.  1.
         22    1    1    0    0    0 -0.28658597255E+02 -0.10419374787E+01  0.22852019820E+01  0.28768437192E+02  0.00000000000E+00 0.  1.
</event>
<event>
 5    1  0.8752570E-005  0.9118800E+02  0.7818608E-02  0.1130116E+00
         25   -1    0    0    0    0  0.00000000000E+00  0.00000000000E+00  0.99999998245E-14  0.12500000000E+03  0.12500000000E+03 0.  0.
        -11    1    3    3    0    0  0.33285728452E+02 -0.31343476235E+02 -0.26271848378E+01  0.45795800261E+02  0.51100000000E-03 0.  1.
         23    2    1    0    0    0 -0.11834432393E+02 -0.11561169354E+02  0.19178038794E+02  0.99671920742E+02  0.96400104697E+02 0.  0.
         11    1    3    3    0    0 -0.45120160845E+02  0.19782306881E+02  0.21805223632E+02  0.53876120481E+02  0.51100000000E-03 0. -1.
         22    1    1    0    0    0  0.11834432393E+02  0.11561169354E+02 -0.19178038794E+02  0.25328079258E+02  0.00000000000E+00 0. -1.
</event>
<event>
 5    1  0.8752570E-005  0.9118800E+02  0.7818608E-02  0.1130116E+00
         25   -1    0    0    0    0  0.00000000000E+00  0.00000000000E+00  0.99999998245E-14  0.12500000000E+03  0.12500000000E+03 0.  0.
        -11    1    3    3    0    0 -0.20829556641E+02  0.11866593516E+02  0.51636443645E+02  0.56929858458E+02  0.51100000000E-03 0. -1.
         23    2    1    0    0    0 -0.39052831834E+01  0.22404618267E+02  0.18145869545E+02  0.95905486119E+02  0.91385838781E+02 0.  0.
         11    1    3    3    0    0  0.16924273457E+02  0.10538024751E+02 -0.33490574100E+02  0.38975627660E+02  0.51100000000E-03 0.  1.
         22    1    1    0    0    0  0.39052831834E+01 -0.22404618267E+02 -0.18145869545E+02  0.29094513881E+02  0.00000000000E+00 0.  1.
</event>
<event>
 5    1  0.8752570E-005  0.9118800E+02  0.7818608E-02  0.1130116E+00
         25   -1    0    0    0    0  0.00000000000E+00  0.00000000000E+00  0.99999998245E-14  0.12500000000E+03  0.12500000000E+03 0.  0.
        -11    1    3    3    0    0  0.16313187373E+02  0.31107161943E+02  0.70542834676E+01  0.35826505857E+02  0.51100000000E-03 0.  1.
         23    2    1    0    0    0  0.54648814587E+00 -0.27355222869E+02  0.83565290320E+01  0.96391636800E+02  0.92048406830E+02 0.  0.
         11    1    3    3    0    0 -0.15766699227E+02 -0.58462384812E+02  0.13022455644E+01  0.60565130943E+02  0.51100000000E-03 0. -1.
         22    1    1    0    0    0 -0.54648814587E+00  0.27355222869E+02 -0.83565290320E+01  0.28608363200E+02  0.00000000000E+00 0. -1.
</event>
<event>
 5    1  0.8752570E-005  0.9118800E+02  0.7818608E-02  0.1130116E+00
         25   -1    0    0    0    0  0.00000000000E+00  0.00000000000E+00  0.99999998245E-14  0.12500000000E+03  0.12500000000E+03 0.  0.
        -11    1    3    3    0    0 -0.33087317983E+02 -0.38991899359E+02 -0.20356137149E+02  0.55040995147E+02  0.51100000000E-03 0. -1.
         23    2    1    0    0    0  0.49544102637E+00 -0.28728490888E+02  0.11942439352E+01  0.96242429360E+02  0.91845562441E+02 0.  0.
         11    1    3    3    0    0  0.33582759009E+02  0.10263408471E+02  0.21550381085E+02  0.41201434213E+02  0.51100000000E-03 0.  1.
         22    1    1    0    0    0 -0.49544102637E+00  0.28728490888E+02 -0.11942439352E+01  0.28757570640E+02  0.00000000000E+00 0. -1.
</event>
<event>
 5    1  0.8752570E-005  0.9118800E+02  0.7818608E-02  0.1130116E+00
         25   -1    0    0    0    0  0.00000000000E+00  0.00000000000E+00  0.99999998245E-14  0.12500000000E+03  0.12500000000E+03 0.  0.
        -11    1    3    3    0    0  0.11496141252E+02  0.10712846396E+02 -0.57241944481E+02  0.59359637380E+02  0.51100000000E-03 0.  1.
         23    2    1    0    0    0  0.18581536473E+02  0.13537937670E+01 -0.23973733662E+02  0.94638080414E+02  0.89635484622E+02 0.  0.
         11    1    3    3    0    0  0.70853952209E+01 -0.93590526286E+01  0.33268210819E+02  0.35278443034E+02  0.51100000000E-03 0. -1.
         22    1    1    0    0    0 -0.18581536473E+02 -0.13537937670E+01  0.23973733662E+02  0.30361919586E+02  0.00000000000E+00 0.  1.
</event>
<event>
 5    1  0.8752570E-005  0.9118800E+02  0.7818608E-02  0.1130116E+00
         25   -1    0    0    0    0  0.00000000000E+00  0.00000000000E+00  0.99999998245E-14  0.12500000000E+03  0.12500000000E+03 0.  0.
        -11    1    3    3    0    0  0.21242016549E+02 -0.27021173931E+02 -0.16791457117E+02  0.38253367695E+02  0.51100000000E-03 0. -1.
         23    2    1    0    0    0  0.12717834586E+02  0.26498563434E+02  0.18117717534E+01  0.95551745425E+02  0.90900695026E+02 0.  0.
         11    1    3    3    0    0 -0.85241819627E+01  0.53519737365E+02  0.18603228870E+02  0.57298377729E+02  0.51100000000E-03 0.  1.
         22    1    1    0    0    0 -0.12717834586E+02 -0.26498563434E+02 -0.18117717534E+01  0.29448254575E+02  0.00000000000E+00 0.  1.
</event>
<event>
 5    1  0.8752570E-005  0.9118800E+02  0.7818608E-02  0.1130116E+00
         25   -1    0    0    0    0  0.00000000000E+00  0.00000000000E+00  0.99999998245E-14  0.12500000000E+03  0.12500000000E+03 0.  0.
        -11    1    3    3    0    0  0.89028218274E+00 -0.43374377284E+02 -0.13336593095E+02  0.45387155923E+02  0.51100000000E-03 0.  1.
         23    2    1    0    0    0  0.26868465550E+02  0.56319668275E+00 -0.91881654863E+01  0.96598344827E+02  0.92328685720E+02 0.  0.
         11    1    3    3    0    0  0.25978183368E+02  0.43937573966E+02  0.41484276085E+01  0.51211188905E+02  0.51100000000E-03 0. -1.
         22    1    1    0    0    0 -0.26868465550E+02 -0.56319668275E+00  0.91881654863E+01  0.28401655173E+02  0.00000000000E+00 0.  1.
</event>
<event>
 5    1  0.8752570E-005  0.9118800E+02  0.7818608E-02  0.1130116E+00
         25   -1    0    0    0    0  0.00000000000E+00  0.00000000000E+00  0.99999998245E-14  0.12500000000E+03  0.12500000000E+03 0.  0.
        -11    1    3    3    0    0 -0.24483932389E+02 -0.44544130682E+01 -0.25882219415E+02  0.35905348114E+02  0.51100000000E-03 0. -1.
         23    2    1    0    0    0  0.17786491919E+02 -0.17379872655E+02  0.14868623514E+02  0.96025955866E+02  0.91550472235E+02 0.  0.
         11    1    3    3    0    0  0.42270424309E+02 -0.12925459587E+02  0.40750842929E+02  0.60120607752E+02  0.51100000000E-03 0.  1.
         22    1    1    0    0    0 -0.17786491919E+02  0.17379872655E+02 -0.14868623514E+02  0.28974044134E+02  0.00000000000E+00 0.  1.
</event>
<event>
 5    1  0.8752570E-005  0.9118800E+02  0.7818608E-02  0.1130116E+00
         25   -1    0    0    0    0  0.00000000000E+00  0.00000000000E+00  0.99999998245E-14  0.12500000000E+03  0.12500000000E+03 0.  0.
        -11    1    3    3    0    0  0.25322380625E+02  0.28223987040E+02  0.14718409495E+02  0.40674906063E+02  0.51100000000E-03 0.  1.
         23    2    1    0    0    0 -0.27122817644E+01  0.12667027044E+01 -0.27071871215E+02  0.97763127581E+02  0.93892395300E+02 0.  0.
         11    1    3    3    0    0 -0.28034662389E+02 -0.26957284336E+02 -0.41790280709E+02  0.57088221518E+02  0.51100000000E-03 0. -1.
         22    1    1    0    0    0  0.27122817644E+01 -0.12667027044E+01  0.27071871215E+02  0.27236872419E+02  0.00000000000E+00 0. -1.
</event>
<event>
 5    1  0.8752570E-005  0.9118800E+02  0.7818608E-02  0.1130116E+00
         25   -1    0    0    0    0  0.00000000000E+00  0.00000000000E+00  0.99999998245E-14  0.12500000000E+03  0.12500000000E+03 0.  0.
        -11    1    3    3    0    0 -0.59184567900E+02  0.94735001410E+01 -0.37494812325E+01  0.60055132106E+02  0.51100000000E-03 0.  1.
         23    2    1    0    0    0 -0.27890010177E+02  0.81545538218E+01 -0.13637594105E+02  0.92901193345E+02  0.87179689929E+02 0.  0.
         11    1    3    3    0    0  0.31294557723E+02 -0.13189463192E+01 -0.98881128726E+01  0.32846061239E+02  0.51100000000E-03 0. -1.
         22    1    1    0    0    0  0.27890010177E+02 -0.81545538218E+01  0.13637594105E+02  0.32098806655E+02  0.00000000000E+00 0.  1.
</event>
<event>
 5    1  0.8752570E-005  0.9118800E+02  0.7818608E-02  0.1130116E+00
         25   -1    0    0    0    0  0.00000000000E+00  0.00000000000E+00  0.99999998245E-14  0.12500000000E+03  0.12500000000E+03 0.  0.
        -11    1    3    3    0    0 -0.34357306725E+02 -0.30290683896E+02  0.54776003838E+01  0.46129753549E+02  0.51100000000E-03 0. -1.
         23    2    1    0    0    0  0.20330581533E+01 -0.15591839448E+02 -0.24756729318E+02  0.95671951491E+02  0.91065843612E+02 0.  0.
         11    1    3    3    0    0  0.36390364878E+02  0.14698844449E+02 -0.30234329702E+02  0.49542197942E+02  0.51100000000E-03 0.  1.
         22    1    1    0    0    0 -0.20330581533E+01  0.15591839448E+02  0.24756729318E+02  0.29328048509E+02  0.00000000000E+00 0. -1.
</event>
<event>
 5    1  0.8752570E-005  0.9118800E+02  0.7818608E-02  0.1130116E+00
         25   -1    0    0    0    0  0.00000000000E+00  0.00000000000E+00  0.99999998245E-14  0.12500000000E+03  0.12500000000E+03 0.  0.
        -11    1    3    3    0    0  0.37793292463E+02 -0.18730182729E+02 -0.12001175560E+02  0.43854086644E+02  0.51100000000E-03 0. -1.
         23    2    1    0    0    0 -0.75075201019E-01  0.23476242101E+02 -0.19464828486E+01  0.10144308223E+03  0.98670008395E+02 0.  0.
         11    1    3    3    0    0 -0.37868367664E+02  0.42206424831E+02  0.10054692711E+02  0.57588995583E+02  0.51100000000E-03 0.  1.
         22    1    1    0    0    0  0.75075201019E-01 -0.23476242101E+02  0.19464828486E+01  0.23556917773E+02  0.00000000000E+00 0.  1.
</event>
<event>
 5    1  0.8752570E-005  0.9118800E+02  0.7818608E-02  0.1130116E+00
         25   -1    0    0    0    0  0.00000000000E+00  0.00000000000E+00  0.99999998245E-14  0.12500000000E+03  0.12500000000E+03 0.  0.
        -11    1    3    3    0    0 -0.20670572617E+02 -0.26147978981E+01  0.25631503107E+02  0.33031556006E+02  0.51100000000E-03 0.  1.
         23    2    1    0    0    0  0.10257174534E+02  0.13089257436E+02 -0.25342987419E+02  0.94688198652E+02  0.89705349133E+02 0.  0.
         11    1    3    3    0    0  0.30927747151E+02  0.15704055334E+02 -0.50974490526E+02  0.61656642646E+02  0.51100000000E-03 0. -1.
         22    1    1    0    0    0 -0.10257174534E+02 -0.13089257436E+02  0.25342987419E+02  0.30311801348E+02  0.00000000000E+00 0. -1.
</event>
<event>
 5    1  0.8752570E-005  0.9118800E+02  0.7818608E-02  0.1130116E+00
         25   -1    0    0    0    0  0.00000000000E+00  0.00000000000E+00  0.99999998245E-14  0.12500000000E+03  0.12500000000E+03 0.  0.
        -11    1    3    3    0    0 -0.32088238999E+02  0.54717471519E+01 -0.88893939884E+01  0.33743390830E+02  0.51100000000E-03 0.  1.
         23    2    1    0    0    0  0.26102180396E+02 -0.13704749508E+02 -0.45988775763E+01  0.95162210949E+02  0.90363448016E+02 0.  0.
         11    1    3    3    0    0  0.58190419395E+02 -0.19176496660E+02  0.42905164121E+01  0.61418820119E+02  0.51100000000E-03 0. -1.
         22    1    1    0    0    0 -0.26102180396E+02  0.13704749508E+02  0.45988775763E+01  0.29837789051E+02  0.00000000000E+00 0. -1.
</event>
<event>
 5    1  0.8752570E-005  0.9118800E+02  0.7818608E-02  0.1130116E+00
         25   -1    0    0    0    0  0.00000000000E+00  0.00000000000E+00  0.99999998245E-14  0.12500000000E+03  0.12500000000E+03 0.  0.
        -11    1    3    3    0    0  0.33954642919E+02 -0.37238984027E+02 -0.65002900330E+01  0.50812532685E+02  0.51100000000E-03 0. -1.
         23    2    1    0    0    0 -0.38217017597E+01 -0.25463566432E+02  0.14332825575E+02  0.95530888905E+02  0.90872010136E+02 0.  0.
         11    1    3    3    0    0 -0.37776344679E+02  0.11775417595E+02  0.20833115608E+02  0.44718356220E+02  0.51100000000E-03 0.  1.
         22    1    1    0    0    0  0.38217017597E+01  0.25463566432E+02 -0.14332825575E+02  0.29469111095E+02  0.00000000000E+00 0. -1.
</event>
<event>
 5    1  0.8752570E-005  0.9118800E+02  0.7818608E-02  0.1130116E+00
         25   -1    0    0    0    0  0.00000000000E+00  0.00000000000E+00  0.99999998245E-14  0.12500000000E+03  0.12500000000E+03 0.  0.
        -11    1    3    3    0    0  0.27088794580E+02  0.28373447923E+02 -0.15593081695E+01  0.39259225426E+02  0.51100000000E-03 0. -1.
         23    2    1    0    0    0  0.12381323029E+02 -0.24366478168E+02  0.11173579732E+02  0.95472533087E+02  0.90791702659E+02 0.  0.
         11    1    3    3    0    0 -0.14707471551E+02 -0.52739926091E+02  0.12732887902E+02  0.56213307661E+02  0.51100000000E-03 0.  1.
         22    1    1    0    0    0 -0.12381323029E+02  0.24366478168E+02 -0.11173579732E+02  0.29527466913E+02  0.00000000000E+00 0.  1.
</event>
<event>
 5    1  0.8752570E-005  0.9118800E+02  0.7818608E-02  0.1130116E+00
         25   -1    0    0    0    0  0.00000000000E+00  0.00000000000E+00  0.99999998245E-14  0.12500000000E+03  0.12500000000E+03 0.  0.
        -11    1    3    3    0    0  0.31839060995E+02  0.26635742880E+02  0.79868621770E+01  0.42272669321E+02  0.51100000000E-03 0.  1.
         23    2    1    0    0    0  0.11299138342E+02 -0.22913593101E+02 -0.79766010561E+01  0.98235668503E+02  0.94519400790E+02 0.  0.
         11    1    3    3    0    0 -0.20539922653E+02 -0.49549335981E+02 -0.15963463233E+02  0.55962999182E+02  0.51100000000E-03 0. -1.
         22    1    1    0    0    0 -0.11299138342E+02  0.22913593101E+02  0.79766010561E+01  0.26764331497E+02  0.00000000000E+00 0. -1.
</event>
<event>
 5    1  0.8752570E-005  0.9118800E+02  0.7818608E-02  0.1130116E+00
         25   -1    0    0    0    0  0.00000000000E+00  0.00000000000E+00  0.99999998245E-14  0.12500000000E+03  0.12500000000E+03 0.  0.
        -11    1    3    3    0    0  0.18552389644E+02  0.46647736132E+02 -0.22845515825E+02  0.55155417153E+02  0.51100000000E-03 0. -1.
         23    2    1    0    0    0  0.24728379400E+02  0.11318586205E+02  0.23165911629E+00  0.97803367720E+02  0.93945952175E+02 0.  0.
         11    1    3    3    0    0  0.61759897554E+01 -0.35329149927E+02  0.23077174941E+02  0.42647950567E+02  0.51100000000E-03 0.  1.
         22    1    1    0    0    0 -0.24728379400E+02 -0.11318586205E+02 -0.23165911629E+00  0.27196632280E+02  0.00000000000E+00 0. -1.
</event>
<event>
 5    1  0.8752570E-005  0.9118800E+02  0.7818608E-02  0.1130116E+00
         25   -1    0    0    0    0  0.00000000000E+00  0.00000000000E+00  0.99999998245E-14  0.12500000000E+03  0.12500000000E+03 0.  0.
        -11    1    3    3    0    0  0.41847882130E+02  0.29533264538E+02  0.34461728945E+02  0.61733861981E+02  0.51100000000E-03 0.  1.
         23    2    1    0    0    0  0.14765481799E+02  0.18185260648E+02  0.18466487251E+02  0.95171585544E+02  0.90376414987E+02 0.  0.
         11    1    3    3    0    0 -0.27082400331E+02 -0.11348003890E+02 -0.15995241694E+02  0.33437723563E+02  0.51100000000E-03 0. -1.
         22    1    1    0    0    0 -0.14765481799E+02 -0.18185260648E+02 -0.18466487251E+02  0.29828414456E+02  0.00000000000E+00 0.  1.
</event>
<event>
 5    1  0.8752570E-005  0.9118800E+02  0.7818608E-02  0.1130116E+00
         25   -1    0    0    0    0  0.00000000000E+00  0.00000000000E+00  0.99999998245E-14  0.12500000000E+03  0.12500000000E+03 0.  0.
        -11    1    3    3    0    0 -0.26925687760E+02  0.13997506809E+02  0.53353335220E+02  0.61379974239E+02  0.51100000000E-03 0.  1.
         23    2    1    0    0    0 -0.56686568514E+01  0.33918587704E+01  0.28435406977E+02  0.95807351159E+02  0.91251508424E+02 0.  0.
         11    1    3    3    0    0  0.21257030909E+02 -0.10605648038E+02 -0.24917928243E+02  0.34427376919E+02  0.51100000000E-03 0. -1.
         22    1    1    0    0    0  0.56686568514E+01 -0.33918587704E+01 -0.28435406977E+02  0.29192648841E+02  0.00000000000E+00 0.  1.
</event>
<event>
 5    1  0.8752570E-005  0.9118800E+02  0.7818608E-02  0.1130116E+00
         25   -1    0    0    0    0  0.00000000000E+00  0.00000000000E+00  0.99999998245E-14  0.12500000000E+03  0.12500000000E+03 0.  0.
        -11    1    3    3    0    0 -0.84663093984E+01  0.41970890466E+02  0.91233731152E+01  0.43777505395E+02  0.51100000000E-03 0.  1.
         23    2    1    0    0    0 -0.23838659564E+02 -0.52116736691E+00 -0.16761762336E+02  0.95853645480E+02  0.91314902234E+02 0.  0.
         11    1    3    3    0    0 -0.15372350165E+02 -0.42492057833E+02 -0.25885135451E+02  0.52076140084E+02  0.51100000000E-03 0. -1.
         22    1    1    0    0    0  0.23838659564E+02  0.52116736691E+00  0.16761762336E+02  0.29146354520E+02  0.00000000000E+00 0. -1.
</event>
<event>
 5    1  0.8752570E-005  0.9118800E+02  0.7818608E-02  0.1130116E+00
         25   -1    0    0    0    0  0.00000000000E+00  0.00000000000E+00  0.99999998245E-14  0.12500000000E+03  0.12500000000E+03 0.  0.
        -11    1    3    3    0    0 -0.24653495727E+02  0.20122450098E+02 -0.96807593473E+01  0.33262966664E+02  0.51100000000E-03 0.  1.
         23    2    1    0    0    0  0.18329332648E+02 -0.20700943440E+02  0.98056941742E+01  0.95663246041E+02  0.91053893438E+02 0.  0.
         11    1    3    3    0    0  0.42982828375E+02 -0.40823393539E+02  0.19486453522E+02  0.62400279376E+02  0.51100000000E-03 0. -1.
         22    1    1    0    0    0 -0.18329332648E+02  0.20700943440E+02 -0.98056941742E+01  0.29336753959E+02  0.00000000000E+00 0. -1.
</event>
<event>
 5    1  0.8752570E-005  0.9118800E+02  0.7818608E-02  0.1130116E+00
         25   -1    0    0    0    0  0.00000000000E+00  0.00000000000E+00  0.99999998245E-14  0.12500000000E+03  0.12500000000E+03 0.  0.
        -11    1    3    3    0    0  0.20995992624E+02 -0.47646714747E+02 -0.91246669097E+01  0.52861145266E+02  0.51100000000E-03 0.  1.
         23    2    1    0    0    0 -0.10978603773E+02 -0.24567642014E+02  0.94885715956E+01  0.96467005662E+02  0.92150699485E+02 0.  0.
         11    1    3    3    0    0 -0.31974596397E+02  0.23079072733E+02  0.18613238505E+02  0.43605860396E+02  0.51100000000E-03 0. -1.
         22    1    1    0    0    0  0.10978603773E+02  0.24567642014E+02 -0.94885715956E+01  0.28532994338E+02  0.00000000000E+00 0.  1.
</event>
<event>
 5    1  0.8752570E-005  0.9118800E+02  0.7818608E-02  0.1130116E+00
         25   -1    0    0    0    0  0.00000000000E+00  0.00000000000E+00  0.99999998245E-14  0.12500000000E+03  0.12500000000E+03 0.  0.
        -11    1    3    3    0    0  0.31732298071E+02  0.22583466394E+01  0.45633620833E+02  0.55627926628E+02  0.51100000000E-03 0.  1.
         23    2    1    0    0    0 -0.35444355903E+00 -0.13443077849E+02  0.24275995072E+02  0.97248136837E+02  0.93204260682E+02 0.  0.
         11    1    3    3    0    0 -0.32086741630E+02 -0.15701424489E+02 -0.21357625761E+02  0.41620210209E+02  0.51100000000E-03 0. -1.
         22    1    1    0    0    0  0.35444355903E+00  0.13443077849E+02 -0.24275995072E+02  0.27751863163E+02  0.00000000000E+00 0.  1.
</event>
<event>
 5    1  0.8752570E-005  0.9118800E+02  0.7818608E-02  0.1130116E+00
         25   -1    0    0    0    0  0.00000000000E+00  0.00000000000E+00  0.99999998245E-14  0.12500000000E+03  0.12500000000E+03 0.  0.
        -11    1    3    3    0    0  0.26271655405E+02 -0.28960471736E+02 -0.40689341153E+02  0.56431651444E+02  0.51100000000E-03 0. -1.
         23    2    1    0    0    0  0.36055365557E+01  0.10574538129E+01 -0.28909563059E+02  0.95847282482E+02  0.91306191579E+02 0.  0.
         11    1    3    3    0    0 -0.22666118849E+02  0.30017925549E+02  0.11779778095E+02  0.39415631039E+02  0.51100000000E-03 0.  1.
         22    1    1    0    0    0 -0.36055365557E+01 -0.10574538129E+01  0.28909563059E+02  0.29152717518E+02  0.00000000000E+00 0. -1.
</event>
<event>
 5    1  0.8752570E-005  0.9118800E+02  0.7818608E-02  0.1130116E+00
         25   -1    0    0    0    0  0.00000000000E+00  0.00000000000E+00  0.99999998245E-14  0.12500000000E+03  0.12500000000E+03 0.  0.
        -11    1    3    3    0    0 -0.37100417833E+02 -0.24662760097E+02 -0.22924901680E+02  0.50102333841E+02  0.51100000000E-03 0. -1.
         23    2    1    0    0    0 -0.78759103472E+01  0.12953215193E+02 -0.22659015357E+02  0.97737448311E+02  0.93858201974E+02 0.  0.
         11    1    3    3    0    0  0.29224507485E+02  0.37615975290E+02  0.26588632322E+00  0.47635114470E+02  0.51100000000E-03 0.  1.
         22    1    1    0    0    0  0.78759103472E+01 -0.12953215193E+02  0.22659015357E+02  0.27262551689E+02  0.00000000000E+00 0.  1.
</event>
<event>
 5    1  0.8752570E-005  0.9118800E+02  0.7818608E-02  0.1130116E+00
         25   -1    0    0    0    0  0.00000000000E+00  0.00000000000E+00  0.99999998245E-14  0.12500000000E+03  0.12500000000E+03 0.  0.
        -11    1    3    3    0    0 -0.17582978847E+02 -0.30640393147E+02 -0.34385784329E+02  0.49298853957E+02  0.51100000000E-03 0. -1.
         23    2    1    0    0    0  0.12760858074E+02  0.11035723977E+01 -0.28690153291E+02  0.93580543183E+02  0.88148373756E+02 0.  0.
         11    1    3    3    0    0  0.30343836921E+02  0.31743965544E+02  0.56956310382E+01  0.44281689226E+02  0.51100000000E-03 0.  1.
         22    1    1    0    0    0 -0.12760858074E+02 -0.11035723977E+01  0.28690153291E+02  0.31419456817E+02  0.00000000000E+00 0. -1.
</event>
<event>
 5    1  0.8752570E-005  0.9118800E+02  0.7818608E-02  0.1130116E+00
         25   -1    0    0    0    0  0.00000000000E+00  0.00000000000E+00  0.99999998245E-14  0.12500000000E+03  0.12500000000E+03 0.  0.
        -11    1    3    3    0    0  0.37021067527E+02  0.33223590604E+02 -0.97364652347E+01  0.50686932922E+02  0.51100000000E-03 0. -1.
         23    2    1    0    0    0 -0.75373009850E+01  0.22562102749E+02 -0.15112868498E+02  0.96817413518E+02  0.92624798944E+02 0.  0.
         11    1    3    3    0    0 -0.44558368512E+02 -0.10661487855E+02 -0.53764032632E+01  0.46130480596E+02  0.51100000000E-03 0.  1.
         22    1    1    0    0    0  0.75373009850E+01 -0.22562102749E+02  0.15112868498E+02  0.28182586482E+02  0.00000000000E+00 0.  1.
</event>
<event>
 5    1  0.8752570E-005  0.9118800E+02  0.7818608E-02  0.1130116E+00
         25   -1    0    0    0    0  0.00000000000E+00  0.00000000000E+00  0.99999998245E-14  0.12500000000E+03  0.12500000000E+03 0.  0.
        -11    1    3    3    0    0 -0.22876373793E+02 -0.51776925833E+02 -0.24964730417E+02  0.61866115861E+02  0.51100000000E-03 0. -1.
         23    2    1    0    0    0 -0.47911352749E+01 -0.24849886191E+02 -0.13825548620E+02  0.96162218955E+02  0.91736332709E+02 0.  0.
         11    1    3    3    0    0  0.18085238518E+02  0.26927039642E+02  0.11139181797E+02  0.34296103095E+02  0.51100000000E-03 0.  1.
         22    1    1    0    0    0  0.47911352749E+01  0.24849886191E+02  0.13825548620E+02  0.28837781045E+02  0.00000000000E+00 0. -1.
</event>
<event>
 5    1  0.8752570E-005  0.9118800E+02  0.7818608E-02  0.1130116E+00
         25   -1    0    0    0    0  0.00000000000E+00  0.00000000000E+00  0.99999998245E-14  0.12500000000E+03  0.12500000000E+03 0.  0.
        -11    1    3    3    0    0 -0.16771080451E+02 -0.31799630418E+02 -0.16290166048E+02  0.39469673730E+02  0.51100000000E-03 0.  1.
         23    2    1    0    0    0 -0.26610660085E+02  0.17863953395E+02  0.89805882490E+00  0.92936709921E+02  0.87230599449E+02 0.  0.
         11    1    3    3    0    0 -0.98395796336E+01  0.49663583813E+02  0.17188224873E+02  0.53467036191E+02  0.51100000000E-03 0. -1.
         22    1    1    0    0    0  0.26610660085E+02 -0.17863953395E+02 -0.89805882490E+00  0.32063290079E+02  0.00000000000E+00 0. -1.
</event>
<event>
 5    1  0.8752570E-005  0.9118800E+02  0.7818608E-02  0.1130116E+00
         25   -1    0    0    0    0  0.00000000000E+00  0.00000000000E+00  0.99999998245E-14  0.12500000000E+03  0.12500000000E+03 0.  0.
        -11    1    3    3    0    0  0.13188689321E+02  0.29768193522E+02  0.16060329297E+02  0.36304559617E+02  0.51100000000E-03 0.  1.
         23    2    1    0    0    0 -0.43791967812E+01 -0.26792863406E+02  0.10863804668E+02  0.95758639809E+02  0.91184757236E+02 0.  0.
         11    1    3    3    0    0 -0.17567886103E+02 -0.56561056929E+02 -0.51965246286E+01  0.59454080192E+02  0.51100000000E-03 0. -1.
         22    1    1    0    0    0  0.43791967812E+01  0.26792863406E+02 -0.10863804668E+02  0.29241360191E+02  0.00000000000E+00 0. -1.
</event>
<event>
 5    1  0.8752570E-005  0.9118800E+02  0.7818608E-02  0.1130116E+00
         25   -1    0    0    0    0  0.00000000000E+00  0.00000000000E+00  0.99999998245E-14  0.12500000000E+03  0.12500000000E+03 0.  0.
        -11    1    3    3    0    0  0.14729547855E+02  0.69506002267E+01  0.33272948395E+02  0.37045371083E+02  0.51100000000E-03 0.  1.
         23    2    1    0    0    0 -0.10102665357E+02  0.21881022684E+02 -0.17301561523E+02  0.95332053793E+02  0.90598087443E+02 0.  0.
         11    1    3    3    0    0 -0.24832213211E+02  0.14930422457E+02 -0.50574509918E+02  0.58286682711E+02  0.51100000000E-03 0. -1.
         22    1    1    0    0    0  0.10102665357E+02 -0.21881022684E+02  0.17301561523E+02  0.29667946207E+02  0.00000000000E+00 0. -1.
</event>
<event>
 5    1  0.8752570E-005  0.9118800E+02  0.7818608E-02  0.1130116E+00
         25   -1    0    0    0    0  0.00000000000E+00  0.00000000000E+00  0.99999998245E-14  0.12500000000E+03  0.12500000000E+03 0.  0.
        -11    1    3    3    0    0  0.48107069264E+02 -0.28615550573E+02  0.19540429384E+02  0.59287167486E+02  0.51100000000E-03 0. -1.
         23    2    1    0    0    0  0.18658098898E+02 -0.58529440485E+01  0.20697756095E+02  0.96525823701E+02  0.92230450098E+02 0.  0.
         11    1    3    3    0    0 -0.29448970366E+02  0.22762606524E+02  0.11573267114E+01  0.37238656216E+02  0.51100000000E-03 0.  1.
         22    1    1    0    0    0 -0.18658098898E+02  0.58529440485E+01 -0.20697756095E+02  0.28474176299E+02  0.00000000000E+00 0. -1.
</event>
<event>
 5    1  0.8752570E-005  0.9118800E+02  0.7818608E-02  0.1130116E+00
         25   -1    0    0    0    0  0.00000000000E+00  0.00000000000E+00  0.99999998245E-14  0.12500000000E+03  0.12500000000E+03 0.  0.
        -11    1    3    3    0    0 -0.26662940319E+01  0.25867328259E+02 -0.36828405739E+02  0.45083913590E+02  0.51100000000E-03 0.  1.
         23    2    1    0    0    0  0.21212772544E+02 -0.13202925818E+02 -0.15495737381E+02  0.95599033245E+02  0.90965698542E+02 0.  0.
         11    1    3    3    0    0  0.23879066576E+02 -0.39070254077E+02  0.21332668357E+02  0.50515119654E+02  0.51100000000E-03 0. -1.
         22    1    1    0    0    0 -0.21212772544E+02  0.13202925818E+02  0.15495737381E+02  0.29400966755E+02  0.00000000000E+00 0. -1.
</event>
<event>
 5    1  0.8752570E-005  0.9118800E+02  0.7818608E-02  0.1130116E+00
         25   -1    0    0    0    0  0.00000000000E+00  0.00000000000E+00  0.99999998245E-14  0.12500000000E+03  0.12500000000E+03 0.  0.
        -11    1    3    3    0    0  0.15547388113E+02 -0.10323176433E+02 -0.14789924934E+02  0.23812415430E+02  0.51100000000E-03 0.  1.
         23    2    1    0    0    0 -0.39754099723E+02 -0.11397673591E+02  0.66091627262E+01  0.83119498093E+02  0.71797454852E+02 0.  0.
         11    1    3    3    0    0 -0.55301487836E+02 -0.10744971578E+01  0.21399087660E+02  0.59307082663E+02  0.51100000000E-03 0. -1.
         22    1    1    0    0    0  0.39754099723E+02  0.11397673591E+02 -0.66091627262E+01  0.41880501907E+02  0.00000000000E+00 0. -1.
</event>
<event>
 5    1  0.8752570E-005  0.9118800E+02  0.7818608E-02  0.1130116E+00
         25   -1    0    0    0    0  0.00000000000E+00  0.00000000000E+00  0.99999998245E-14  0.12500000000E+03  0.12500000000E+03 0.  0.
        -11    1    3    3    0    0  0.26616089605E+02 -0.52775810979E+02  0.57063618478E+01  0.59382362837E+02  0.51100000000E-03 0.  1.
         23    2    1    0    0    0  0.99636805527E+01 -0.21721089900E+02  0.16176173407E+02  0.96142604714E+02  0.91709602434E+02 0.  0.
         11    1    3    3    0    0 -0.16652409053E+02  0.31054721078E+02  0.10469811559E+02  0.36760241877E+02  0.51100000000E-03 0. -1.
         22    1    1    0    0    0 -0.99636805527E+01  0.21721089900E+02 -0.16176173407E+02  0.28857395286E+02  0.00000000000E+00 0.  1.
</event>
<event>
 5    1  0.8752570E-005  0.9118800E+02  0.7818608E-02  0.1130116E+00
         25   -1    0    0    0    0  0.00000000000E+00  0.00000000000E+00  0.99999998245E-14  0.12500000000E+03  0.12500000000E+03 0.  0.
        -11    1    3    3    0    0 -0.48515856910E+02 -0.10453923583E+02  0.39757163668E+01  0.49788344127E+02  0.51100000000E-03 0. -1.
         23    2    1    0    0    0 -0.17324439270E+02  0.66193221745E+01  0.27068652954E+02  0.92187447603E+02  0.86150228675E+02 0.  0.
         11    1    3    3    0    0  0.31191417640E+02  0.17073245758E+02  0.23092936587E+02  0.42399103476E+02  0.51100000000E-03 0.  1.
         22    1    1    0    0    0  0.17324439270E+02 -0.66193221745E+01 -0.27068652954E+02  0.32812552397E+02  0.00000000000E+00 0.  1.
</event>
<event>
 5    1  0.8752570E-005  0.9118800E+02  0.7818608E-02  0.1130116E+00
         25   -1    0    0    0    0  0.00000000000E+00  0.00000000000E+00  0.99999998245E-14  0.12500000000E+03  0.12500000000E+03 0.  0.
        -11    1    3    3    0    0 -0.38137898588E+02  0.22824989841E+02  0.20525546521E+02  0.48956894613E+02  0.51100000000E-03 0.  1.
         23    2    1    0    0    0 -0.20547811144E+02 -0.18862279391E+02  0.95759742248E+01  0.95509367437E+02  0.90842401219E+02 0.  0.
         11    1    3    3    0    0  0.17590087443E+02 -0.41687269232E+02 -0.10949572296E+02  0.46552472823E+02  0.51100000000E-03 0. -1.
         22    1    1    0    0    0  0.20547811144E+02  0.18862279391E+02 -0.95759742248E+01  0.29490632563E+02  0.00000000000E+00 0. -1.
</event>
<event>
 5    1  0.8752570E-005  0.9118800E+02  0.7818608E-02  0.1130116E+00
         25   -1    0    0    0    0  0.00000000000E+00  0.00000000000E+00  0.99999998245E-14  0.12500000000E+03  0.12500000000E+03 0.  0.
        -11    1    3    3    0    0 -0.21639037024E+02  0.31052333871E+01  0.35219522130E+02  0.41452444284E+02  0.51100000000E-03 0.  1.
         23    2    1    0    0    0  0.67951619243E+01  0.27235445760E+02 -0.52044737706E+01  0.96451264852E+02  0.92129345015E+02 0.  0.
         11    1    3    3    0    0  0.28434198949E+02  0.24130212373E+02 -0.40423995901E+02  0.54998820568E+02  0.51100000000E-03 0. -1.
         22    1    1    0    0    0 -0.67951619243E+01 -0.27235445760E+02  0.52044737706E+01  0.28548735148E+02  0.00000000000E+00 0. -1.
</event>
<event>
 5    1  0.8752570E-005  0.9118800E+02  0.7818608E-02  0.1130116E+00
         25   -1    0    0    0    0  0.00000000000E+00  0.00000000000E+00  0.99999998245E-14  0.12500000000E+03  0.12500000000E+03 0.  0.
        -11    1    3    3    0    0  0.44198030560E+02 -0.97570641025E+01  0.41678110998E+01  0.45453678123E+02  0.51100000000E-03 0.  1.
         23    2    1    0    0    0  0.10913898808E+02  0.19031962862E+02 -0.19697653945E+02  0.95515658927E+02  0.90851057957E+02 0.  0.
         11    1    3    3    0    0 -0.33284131752E+02  0.28789026965E+02 -0.23865465044E+02  0.50061980805E+02  0.51100000000E-03 0. -1.
         22    1    1    0    0    0 -0.10913898808E+02 -0.19031962862E+02  0.19697653945E+02  0.29484341073E+02  0.00000000000E+00 0. -1.
</event>
<event>
 5    1  0.8752570E-005  0.9118800E+02  0.7818608E-02  0.1130116E+00
         25   -1    0    0    0    0  0.00000000000E+00  0.00000000000E+00  0.99999998245E-14  0.12500000000E+03  0.12500000000E+03 0.  0.
        -11    1    3    3    0    0 -0.27297887386E+02 -0.41113300724E+01  0.32973596076E+02  0.43003903650E+02  0.51100000000E-03 0.  1.
         23    2    1    0    0    0  0.15304717033E+02  0.20554986326E+02  0.14288610385E+02  0.95658796666E+02  0.91047785072E+02 0.  0.
         11    1    3    3    0    0  0.42602604419E+02  0.24666316399E+02 -0.18684985692E+02  0.52654893016E+02  0.51100000000E-03 0. -1.
         22    1    1    0    0    0 -0.15304717033E+02 -0.20554986326E+02 -0.14288610385E+02  0.29341203334E+02  0.00000000000E+00 0. -1.
</event>
<event>
 5    1  0.8752570E-005  0.9118800E+02  0.7818608E-02  0.1130116E+00
         25   -1    0    0    0    0  0.00000000000E+00  0.00000000000E+00  0.99999998245E-14  0.12500000000E+03  0.12500000000E+03 0.  0.
        -11    1    3    3    0    0 -0.45874264748E+02  0.12734737500E+02  0.33724265580E+01  0.47728345524E+02  0.51100000000E-03 0. -1.
         23    2    1    0    0    0 -0.14203575274E+02 -0.11818864016E+01 -0.27455961693E+02  0.94065096759E+02  0.88832844094E+02 0.  0.
         11    1    3    3    0    0  0.31670689474E+02 -0.13916623901E+02 -0.30828388251E+02  0.46336751235E+02  0.51100000000E-03 0.  1.
         22    1    1    0    0    0  0.14203575274E+02  0.11818864016E+01  0.27455961693E+02  0.30934903241E+02  0.00000000000E+00 0. -1.
</event>
<event>
 5    1  0.8752570E-005  0.9118800E+02  0.7818608E-02  0.1130116E+00
         25   -1    0    0    0    0  0.00000000000E+00  0.00000000000E+00  0.99999998245E-14  0.12500000000E+03  0.12500000000E+03 0.  0.
        -11    1    3    3    0    0 -0.22180370185E+02  0.19776161810E+02 -0.30169754021E+02  0.42347130427E+02  0.51100000000E-03 0.  1.
         23    2    1    0    0    0 -0.13493035355E+02  0.62193141380E+01  0.22842519978E+02  0.97750732296E+02  0.93875891868E+02 0.  0.
         11    1    3    3    0    0  0.86873348293E+01 -0.13556847672E+02  0.53012273999E+02  0.55403601869E+02  0.51100000000E-03 0. -1.
         22    1    1    0    0    0  0.13493035355E+02 -0.62193141380E+01 -0.22842519978E+02  0.27249267704E+02  0.00000000000E+00 0. -1.
</event>
<event>
 5    1  0.8752570E-005  0.9118800E+02  0.7818608E-02  0.1130116E+00
         25   -1    0    0    0    0  0.00000000000E+00  0.00000000000E+00  0.99999998245E-14  0.12500000000E+03  0.12500000000E+03 0.  0.
        -11    1    3    3    0    0  0.38043013318E+02  0.14983248523E+02  0.32596996362E+02  0.52290847867E+02  0.51100000000E-03 0.  1.
         23    2    1    0    0    0  0.17005347340E+02  0.23265519178E+02 -0.45972954711E+01  0.95817790584E+02  0.91265807649E+02 0.  0.
         11    1    3    3    0    0 -0.21037665978E+02  0.82822706555E+01 -0.37194291833E+02  0.43526942716E+02  0.51100000000E-03 0. -1.
         22    1    1    0    0    0 -0.17005347340E+02 -0.23265519178E+02  0.45972954711E+01  0.29182209416E+02  0.00000000000E+00 0. -1.
</event>
<event>
 5    1  0.8752570E-005  0.9118800E+02  0.7818608E-02  0.1130116E+00
         25   -1    0    0    0    0  0.00000000000E+00  0.00000000000E+00  0.99999998245E-14  0.12500000000E+03  0.12500000000E+03 0.  0.
        -11    1    3    3    0    0  0.32146950477E+02 -0.19102325249E+02 -0.14260925315E+02  0.40021234939E+02  0.51100000000E-03 0.  1.
         23    2    1    0    0    0 -0.51679174645E+01  0.23946904091E+02 -0.13567086392E+02  0.96995939229E+02  0.92865412330E+02 0.  0.
         11    1    3    3    0    0 -0.37314867942E+02  0.43049229340E+02  0.69383892310E+00  0.56974704291E+02  0.51100000000E-03 0. -1.
         22    1    1    0    0    0  0.51679174645E+01 -0.23946904091E+02  0.13567086392E+02  0.28004060771E+02  0.00000000000E+00 0. -1.
</event>
<event>
 5    1  0.8752570E-005  0.9118800E+02  0.7818608E-02  0.1130116E+00
         25   -1    0    0    0    0  0.00000000000E+00  0.00000000000E+00  0.99999998245E-14  0.12500000000E+03  0.12500000000E+03 0.  0.
        -11    1    3    3    0    0  0.12041400474E+01 -0.57248370464E+02  0.75437818935E+01  0.57755818059E+02  0.51100000000E-03 0. -1.
         23    2    1    0    0    0 -0.71395630260E+01 -0.20635901753E+02  0.17962095812E+02  0.96725440988E+02  0.92500595928E+02 0.  0.
         11    1    3    3    0    0 -0.83437030734E+01  0.36612468711E+02  0.10418313918E+02  0.38969622930E+02  0.51100000000E-03 0.  1.
         22    1    1    0    0    0  0.71395630260E+01  0.20635901753E+02 -0.17962095812E+02  0.28274559012E+02  0.00000000000E+00 0. -1.
</event>
<event>
 5    1  0.8752570E-005  0.9118800E+02  0.7818608E-02  0.1130116E+00
         25   -1    0    0    0    0  0.00000000000E+00  0.00000000000E+00  0.99999998245E-14  0.12500000000E+03  0.12500000000E+03 0.  0.
        -11    1    3    3    0    0  0.22892532073E+02 -0.19465407196E+02  0.49700998679E+02  0.58078906428E+02  0.51100000000E-03 0.  1.
         23    2    1    0    0    0 -0.42590726909E+01 -0.13965615490E+02  0.28549931588E+02  0.92933246035E+02  0.87225635616E+02 0.  0.
         11    1    3    3    0    0 -0.27151604763E+02  0.54997917057E+01 -0.21151067091E+02  0.34854339606E+02  0.51100000000E-03 0. -1.
         22    1    1    0    0    0  0.42590726909E+01  0.13965615490E+02 -0.28549931588E+02  0.32066753965E+02  0.00000000000E+00 0.  1.
</event>
<event>
 5    1  0.8752570E-005  0.9118800E+02  0.7818608E-02  0.1130116E+00
         25   -1    0    0    0    0  0.00000000000E+00  0.00000000000E+00  0.99999998245E-14  0.12500000000E+03  0.12500000000E+03 0.  0.
        -11    1    3    3    0    0 -0.13819624139E+02 -0.43207128248E+02  0.22212558499E+02  0.50509758445E+02  0.51100000000E-03 0. -1.
         23    2    1    0    0    0 -0.28631807673E+02 -0.41337101490E+01  0.52974049185E+01  0.95590299745E+02  0.90953696661E+02 0.  0.
         11    1    3    3    0    0 -0.14812183534E+02  0.39073418099E+02 -0.16915153580E+02  0.45080541300E+02  0.51100000000E-03 0.  1.
         22    1    1    0    0    0  0.28631807673E+02  0.41337101490E+01 -0.52974049185E+01  0.29409700255E+02  0.00000000000E+00 0. -1.
</event>
<event>
 5    1  0.8752570E-005  0.9118800E+02  0.7818608E-02  0.1130116E+00
         25   -1    0    0    0    0  0.00000000000E+00  0.00000000000E+00  0.99999998245E-14  0.12500000000E+03  0.12500000000E+03 0.  0.
        -11    1    3    3    0    0  0.26864543061E+01 -0.17697847923E+02  0.31048230164E+02  0.35838853977E+02  0.51100000000E-03 0.  1.
         23    2    1    0    0    0 -0.18227976381E+02  0.21916065485E+02 -0.81378875985E+01  0.95355468230E+02  0.90630387053E+02 0.  0.
         11    1    3    3    0    0 -0.20914430688E+02  0.39613913408E+02 -0.39186117763E+02  0.59516614252E+02  0.51100000000E-03 0. -1.
         22    1    1    0    0    0  0.18227976381E+02 -0.21916065485E+02  0.81378875985E+01  0.29644531770E+02  0.00000000000E+00 0. -1.
</event>
<event>
 5    1  0.8752570E-005  0.9118800E+02  0.7818608E-02  0.1130116E+00
         25   -1    0    0    0    0  0.00000000000E+00  0.00000000000E+00  0.99999998245E-14  0.12500000000E+03  0.12500000000E+03 0.  0.
        -11    1    3    3    0    0 -0.71587207534E+01 -0.38369263237E+02 -0.10728693139E+02  0.40479037797E+02  0.51100000000E-03 0. -1.
         23    2    1    0    0    0  0.22114178411E+00  0.14547033312E+02 -0.25261347106E+02  0.95848658016E+02  0.91308074692E+02 0.  0.
         11    1    3    3    0    0  0.73798625375E+01  0.52916296550E+02 -0.14532653967E+02  0.55369620219E+02  0.51100000000E-03 0.  1.
         22    1    1    0    0    0 -0.22114178411E+00 -0.14547033312E+02  0.25261347106E+02  0.29151341984E+02  0.00000000000E+00 0.  1.
</event>
<event>
 5    1  0.8752570E-005  0.9118800E+02  0.7818608E-02  0.1130116E+00
         25   -1    0    0    0    0  0.00000000000E+00  0.00000000000E+00  0.99999998245E-14  0.12500000000E+03  0.12500000000E+03 0.  0.
        -11    1    3    3    0    0 -0.86543707922E+01 -0.28926636253E+02 -0.47732015703E+02  0.56480029587E+02  0.51100000000E-03 0. -1.
         23    2    1    0    0    0 -0.73021867862E+00 -0.29075736844E+02 -0.11246521224E+02  0.93816415665E+02  0.88482223730E+02 0.  0.
         11    1    3    3    0    0  0.79241521136E+01 -0.14910059082E+00  0.36485494479E+02  0.37336386078E+02  0.51100000000E-03 0.  1.
         22    1    1    0    0    0  0.73021867862E+00  0.29075736844E+02  0.11246521224E+02  0.31183584335E+02  0.00000000000E+00 0. -1.
</event>
<event>
 5    1  0.8752570E-005  0.9118800E+02  0.7818608E-02  0.1130116E+00
         25   -1    0    0    0    0  0.00000000000E+00  0.00000000000E+00  0.99999998245E-14  0.12500000000E+03  0.12500000000E+03 0.  0.
        -11    1    3    3    0    0  0.15237614483E+02  0.29182618004E+02  0.68059920909E+01  0.33617430260E+02  0.51100000000E-03 0.  1.
         23    2    1    0    0    0 -0.30716019994E+02  0.17766800327E+02 -0.15883134518E+02  0.86123181197E+02  0.76849172405E+02 0.  0.
         11    1    3    3    0    0 -0.45953634477E+02 -0.11415817677E+02 -0.22689126609E+02  0.52505750937E+02  0.51100000000E-03 0. -1.
         22    1    1    0    0    0  0.30716019994E+02 -0.17766800327E+02  0.15883134518E+02  0.38876818803E+02  0.00000000000E+00 0. -1.
</event>
<event>
 5    1  0.8752570E-005  0.9118800E+02  0.7818608E-02  0.1130116E+00
         25   -1    0    0    0    0  0.00000000000E+00  0.00000000000E+00  0.99999998245E-14  0.12500000000E+03  0.12500000000E+03 0.  0.
        -11    1    3    3    0    0  0.83203980801E+01 -0.27668698436E+02 -0.36696504954E+02  0.46705667466E+02  0.51100000000E-03 0.  1.
         23    2    1    0    0    0  0.27747362165E+02  0.52079870079E+01 -0.50108380619E+01  0.96326881337E+02  0.91960428088E+02 0.  0.
         11    1    3    3    0    0  0.19426964085E+02  0.32876685444E+02  0.31685666892E+02  0.49621213871E+02  0.51100000000E-03 0. -1.
         22    1    1    0    0    0 -0.27747362165E+02 -0.52079870079E+01  0.50108380619E+01  0.28673118663E+02  0.00000000000E+00 0. -1.
</event>
<event>
 5    1  0.8752570E-005  0.9118800E+02  0.7818608E-02  0.1130116E+00
         25   -1    0    0    0    0  0.00000000000E+00  0.00000000000E+00  0.99999998245E-14  0.12500000000E+03  0.12500000000E+03 0.  0.
        -11    1    3    3    0    0  0.22404010744E+02 -0.38124311685E+02 -0.21436894030E+02  0.49142072247E+02  0.51100000000E-03 0. -1.
         23    2    1    0    0    0  0.20833176078E+02  0.31867486781E+01 -0.26883346943E+02  0.90840214645E+02  0.84172760804E+02 0.  0.
         11    1    3    3    0    0 -0.15708346664E+01  0.41311060363E+02 -0.54464529129E+01  0.41698142398E+02  0.51100000000E-03 0.  1.
         22    1    1    0    0    0 -0.20833176078E+02 -0.31867486781E+01  0.26883346943E+02  0.34159785355E+02  0.00000000000E+00 0. -1.
</event>
<event>
 5    1  0.8752570E-005  0.9118800E+02  0.7818608E-02  0.1130116E+00
         25   -1    0    0    0    0  0.00000000000E+00  0.00000000000E+00  0.99999998245E-14  0.12500000000E+03  0.12500000000E+03 0.  0.
        -11    1    3    3    0    0  0.27643617610E+02 -0.22390271798E+02 -0.17387639598E+02  0.39595755794E+02  0.51100000000E-03 0. -1.
         23    2    1    0    0    0 -0.94299953057E+01  0.20924113629E+01  0.23260838044E+02  0.99813305431E+02  0.96583261271E+02 0.  0.
         11    1    3    3    0    0 -0.37073612916E+02  0.24482683161E+02  0.40648477643E+02  0.60217549638E+02  0.51100000000E-03 0.  1.
         22    1    1    0    0    0  0.94299953057E+01 -0.20924113629E+01 -0.23260838044E+02  0.25186694569E+02  0.00000000000E+00 0.  1.
</event>
<event>
 5    1  0.8752570E-005  0.9118800E+02  0.7818608E-02  0.1130116E+00
         25   -1    0    0    0    0  0.00000000000E+00  0.00000000000E+00  0.99999998245E-14  0.12500000000E+03  0.12500000000E+03 0.  0.
        -11    1    3    3    0    0 -0.29051103143E+02 -0.45244439939E+02 -0.21668655987E+02  0.57970307846E+02  0.51100000000E-03 0.  1.
         23    2    1    0    0    0 -0.52540515883E+00 -0.21659509888E+02 -0.20758567632E+02  0.94994524679E+02  0.90131188662E+02 0.  0.
         11    1    3    3    0    0  0.28525697984E+02  0.23584930051E+02  0.91008835595E+00  0.37024216833E+02  0.51100000000E-03 0. -1.
         22    1    1    0    0    0  0.52540515883E+00  0.21659509888E+02  0.20758567632E+02  0.30005475321E+02  0.00000000000E+00 0.  1.
</event>
<event>
 5    1  0.8752570E-005  0.9118800E+02  0.7818608E-02  0.1130116E+00
         25   -1    0    0    0    0  0.00000000000E+00  0.00000000000E+00  0.99999998245E-14  0.12500000000E+03  0.12500000000E+03 0.  0.
        -11    1    3    3    0    0 -0.12088421673E+02  0.91110915160E+01 -0.38086428937E+02  0.40984362830E+02  0.51100000000E-03 0. -1.
         23    2    1    0    0    0  0.29813258637E+02 -0.22346502553E+01 -0.72380029840E+01  0.94239428816E+02  0.89077815443E+02 0.  0.
         11    1    3    3    0    0  0.41901680311E+02 -0.11345741771E+02  0.30848425953E+02  0.53255065986E+02  0.51100000000E-03 0.  1.
         22    1    1    0    0    0 -0.29813258637E+02  0.22346502553E+01  0.72380029840E+01  0.30760571184E+02  0.00000000000E+00 0.  1.
</event>
<event>
 5    1  0.8752570E-005  0.9118800E+02  0.7818608E-02  0.1130116E+00
         25   -1    0    0    0    0  0.00000000000E+00  0.00000000000E+00  0.99999998245E-14  0.12500000000E+03  0.12500000000E+03 0.  0.
        -11    1    3    3    0    0  0.13882354303E+02  0.22104878584E+02  0.41367382497E+02  0.48914269423E+02  0.51100000000E-03 0.  1.
         23    2    1    0    0    0 -0.21244357232E+02  0.12241445117E+00  0.21153932833E+02  0.95019563482E+02  0.90165907474E+02 0.  0.
         11    1    3    3    0    0 -0.35126711536E+02 -0.21982464133E+02 -0.20213449665E+02  0.46105294059E+02  0.51100000000E-03 0. -1.
         22    1    1    0    0    0  0.21244357232E+02 -0.12241445117E+00 -0.21153932833E+02  0.29980436518E+02  0.00000000000E+00 0.  1.
</event>
<event>
 5    1  0.8752570E-005  0.9118800E+02  0.7818608E-02  0.1130116E+00
         25   -1    0    0    0    0  0.00000000000E+00  0.00000000000E+00  0.99999998245E-14  0.12500000000E+03  0.12500000000E+03 0.  0.
        -11    1    3    3    0    0 -0.32459133202E+02  0.48263105006E+02 -0.31273280871E+01  0.58246912487E+02  0.51100000000E-03 0. -1.
         23    2    1    0    0    0 -0.24578879519E+02  0.82970677844E+01 -0.15122114735E+01  0.99014437937E+02  0.95543756908E+02 0.  0.
         11    1    3    3    0    0  0.78802536836E+01 -0.39966037222E+02  0.16151166135E+01  0.40767525449E+02  0.51100000000E-03 0.  1.
         22    1    1    0    0    0  0.24578879519E+02 -0.82970677844E+01  0.15122114735E+01  0.25985562063E+02  0.00000000000E+00 0. -1.
</event>
<event>
 5    1  0.8752570E-005  0.9118800E+02  0.7818608E-02  0.1130116E+00
         25   -1    0    0    0    0  0.00000000000E+00  0.00000000000E+00  0.99999998245E-14  0.12500000000E+03  0.12500000000E+03 0.  0.
        -11    1    3    3    0    0  0.28136782862E+02 -0.33822653946E+02  0.23035669736E+02  0.49661781585E+02  0.51100000000E-03 0.  1.
         23    2    1    0    0    0  0.26216481213E+02  0.94174055722E+01  0.43494638050E+01  0.96805864967E+02  0.92609212510E+02 0.  0.
         11    1    3    3    0    0 -0.19203016489E+01  0.43240059518E+02 -0.18686205931E+02  0.47144083382E+02  0.51100000000E-03 0. -1.
         22    1    1    0    0    0 -0.26216481213E+02 -0.94174055722E+01 -0.43494638050E+01  0.28194135033E+02  0.00000000000E+00 0.  1.
</event>
<event>
 5    1  0.8752570E-005  0.9118800E+02  0.7818608E-02  0.1130116E+00
         25   -1    0    0    0    0  0.00000000000E+00  0.00000000000E+00  0.99999998245E-14  0.12500000000E+03  0.12500000000E+03 0.  0.
        -11    1    3    3    0    0 -0.72596301494E+01  0.38352844930E+02  0.21404694197E+02  0.44517455881E+02  0.51100000000E-03 0. -1.
         23    2    1    0    0    0 -0.29678823605E+02 -0.36686062497E+01  0.68339825074E+01  0.94324365380E+02  0.89196924527E+02 0.  0.
         11    1    3    3    0    0 -0.22419193456E+02 -0.42021451180E+02 -0.14570711689E+02  0.49806909500E+02  0.51100000000E-03 0.  1.
         22    1    1    0    0    0  0.29678823605E+02  0.36686062497E+01 -0.68339825074E+01  0.30675634620E+02  0.00000000000E+00 0. -1.
</event>
<event>
 5    1  0.8752570E-005  0.9118800E+02  0.7818608E-02  0.1130116E+00
         25   -1    0    0    0    0  0.00000000000E+00  0.00000000000E+00  0.99999998245E-14  0.12500000000E+03  0.12500000000E+03 0.  0.
        -11    1    3    3    0    0 -0.10671495665E+01 -0.41220118330E+02  0.40648043524E+02  0.57900780702E+02  0.51100000000E-03 0.  1.
         23    2    1    0    0    0 -0.15345062785E+02 -0.11112225103E+02  0.21543277876E+02  0.96310884987E+02  0.91938681993E+02 0.  0.
         11    1    3    3    0    0 -0.14277913218E+02  0.30107893227E+02 -0.19104765648E+02  0.38410104284E+02  0.51100000000E-03 0. -1.
         22    1    1    0    0    0  0.15345062785E+02  0.11112225103E+02 -0.21543277876E+02  0.28689115013E+02  0.00000000000E+00 0.  1.
</event>
<event>
 5    1  0.8752570E-005  0.9118800E+02  0.7818608E-02  0.1130116E+00
         25   -1    0    0    0    0  0.00000000000E+00  0.00000000000E+00  0.99999998245E-14  0.12500000000E+03  0.12500000000E+03 0.  0.
        -11    1    3    3    0    0 -0.37573791024E+02 -0.16758804714E+02  0.12232450530E+02  0.42921791128E+02  0.51100000000E-03 0. -1.
         23    2    1    0    0    0  0.12604622149E+02 -0.12532752764E+02 -0.16371210859E+02  0.10083467492E+03  0.97896214070E+02 0.  0.
         11    1    3    3    0    0  0.50178413173E+02  0.42260519500E+01 -0.28603661390E+02  0.57912883789E+02  0.51100000000E-03 0.  1.
         22    1    1    0    0    0 -0.12604622149E+02  0.12532752764E+02  0.16371210859E+02  0.24165325083E+02  0.00000000000E+00 0.  1.
</event>
<event>
 5    1  0.8752570E-005  0.9118800E+02  0.7818608E-02  0.1130116E+00
         25   -1    0    0    0    0  0.00000000000E+00  0.00000000000E+00  0.99999998245E-14  0.12500000000E+03  0.12500000000E+03 0.  0.
        -11    1    3    3    0    0 -0.24266912892E+02  0.33490134609E+02 -0.45318620984E+02  0.61353480632E+02  0.51100000000E-03 0.  1.
         23    2    1    0    0    0 -0.16710480886E+02  0.88359937287E+01 -0.19153457438E+02  0.98089595163E+02  0.94326023932E+02 0.  0.
         11    1    3    3    0    0  0.75564320056E+01 -0.24654140881E+02  0.26165163546E+02  0.36736114531E+02  0.51100000000E-03 0. -1.
         22    1    1    0    0    0  0.16710480886E+02 -0.88359937287E+01  0.19153457438E+02  0.26910404837E+02  0.00000000000E+00 0.  1.
</event>
<event>
 5    1  0.8752570E-005  0.9118800E+02  0.7818608E-02  0.1130116E+00
         25   -1    0    0    0    0  0.00000000000E+00  0.00000000000E+00  0.99999998245E-14  0.12500000000E+03  0.12500000000E+03 0.  0.
        -11    1    3    3    0    0  0.19840880242E+02  0.27111032492E+02  0.28861685196E+02  0.44290692974E+02  0.51100000000E-03 0.  1.
         23    2    1    0    0    0  0.11876982034E+02 -0.22116710383E+02  0.57903653314E+01  0.99236849745E+02  0.95834296763E+02 0.  0.
         11    1    3    3    0    0 -0.79638982079E+01 -0.49227742875E+02 -0.23071319864E+02  0.54946156770E+02  0.51100000000E-03 0. -1.
         22    1    1    0    0    0 -0.11876982034E+02  0.22116710383E+02 -0.57903653314E+01  0.25763150255E+02  0.00000000000E+00 0.  1.
</event>
<event>
 5    1  0.8752570E-005  0.9118800E+02  0.7818608E-02  0.1130116E+00
         25   -1    0    0    0    0  0.00000000000E+00  0.00000000000E+00  0.99999998245E-14  0.12500000000E+03  0.12500000000E+03 0.  0.
        -11    1    3    3    0    0  0.11438149164E+02 -0.19947899720E+02  0.53446175175E+02  0.58182846274E+02  0.51100000000E-03 0. -1.
         23    2    1    0    0    0  0.20653332147E+02 -0.96381405402E+01  0.18907683533E+02  0.95386584485E+02  0.90673293319E+02 0.  0.
         11    1    3    3    0    0  0.92151829830E+01  0.10309759180E+02 -0.34538491641E+02  0.37203738211E+02  0.51100000000E-03 0.  1.
         22    1    1    0    0    0 -0.20653332147E+02  0.96381405402E+01 -0.18907683533E+02  0.29613415515E+02  0.00000000000E+00 0. -1.
</event>
<event>
 5    1  0.8752570E-005  0.9118800E+02  0.7818608E-02  0.1130116E+00
         25   -1    0    0    0    0  0.00000000000E+00  0.00000000000E+00  0.99999998245E-14  0.12500000000E+03  0.12500000000E+03 0.  0.
        -11    1    3    3    0    0  0.29320087027E+02  0.12068679208E+02 -0.68113791628E+01  0.32430162001E+02  0.51100000000E-03 0. -1.
         23    2    1    0    0    0 -0.15708573453E+02  0.33147459125E+02  0.13188071723E+02  0.86020023574E+02  0.76681196479E+02 0.  0.
         11    1    3    3    0    0 -0.45028660480E+02  0.21078779918E+02  0.19999450886E+02  0.53589861573E+02  0.51100000000E-03 0.  1.
         22    1    1    0    0    0  0.15708573453E+02 -0.33147459125E+02 -0.13188071723E+02  0.38979976426E+02  0.00000000000E+00 0. -1.
</event>
<event>
 5    1  0.8752570E-005  0.9118800E+02  0.7818608E-02  0.1130116E+00
         25   -1    0    0    0    0  0.00000000000E+00  0.00000000000E+00  0.99999998245E-14  0.12500000000E+03  0.12500000000E+03 0.  0.
        -11    1    3    3    0    0  0.10920692338E+02  0.37947477606E+02 -0.36877610563E+02  0.54029905968E+02  0.51100000000E-03 0.  1.
         23    2    1    0    0    0  0.25813331294E+02  0.10287613767E+02 -0.97030688655E+01  0.95566810997E+02  0.90921409740E+02 0.  0.
         11    1    3    3    0    0  0.14892638956E+02 -0.27659863839E+02  0.27174541698E+02  0.41536905029E+02  0.51100000000E-03 0. -1.
         22    1    1    0    0    0 -0.25813331294E+02 -0.10287613767E+02  0.97030688655E+01  0.29433189003E+02  0.00000000000E+00 0. -1.
</event>
<event>
 5    1  0.8752570E-005  0.9118800E+02  0.7818608E-02  0.1130116E+00
         25   -1    0    0    0    0  0.00000000000E+00  0.00000000000E+00  0.99999998245E-14  0.12500000000E+03  0.12500000000E+03 0.  0.
        -11    1    3    3    0    0  0.25376937125E+02 -0.29806854354E+02 -0.69210162370E+01  0.39753464884E+02  0.51100000000E-03 0. -1.
         23    2    1    0    0    0  0.14284692897E+02  0.22886163840E+02  0.10047231831E+02  0.96211533317E+02  0.91803503905E+02 0.  0.
         11    1    3    3    0    0 -0.11092244228E+02  0.52693018194E+02  0.16968248068E+02  0.56458068433E+02  0.51100000000E-03 0.  1.
         22    1    1    0    0    0 -0.14284692897E+02 -0.22886163840E+02 -0.10047231831E+02  0.28788466683E+02  0.00000000000E+00 0.  1.
</event>
<event>
 5    1  0.8752570E-005  0.9118800E+02  0.7818608E-02  0.1130116E+00
         25   -1    0    0    0    0  0.00000000000E+00  0.00000000000E+00  0.99999998245E-14  0.12500000000E+03  0.12500000000E+03 0.  0.
        -11    1    3    3    0    0 -0.58607718965E+02 -0.54592170871E+01  0.18204982739E+02  0.61612410846E+02  0.51100000000E-03 0.  1.
         23    2    1    0    0    0 -0.30191492743E+02 -0.37336564658E+01  0.17098884236E+02  0.90102460448E+02  0.83069941086E+02 0.  0.
         11    1    3    3    0    0  0.28416226222E+02  0.17255606213E+01 -0.11060985028E+01  0.28490049602E+02  0.51100000000E-03 0. -1.
         22    1    1    0    0    0  0.30191492743E+02  0.37336564658E+01 -0.17098884236E+02  0.34897539552E+02  0.00000000000E+00 0.  1.
</event>
<event>
 5    1  0.8752570E-005  0.9118800E+02  0.7818608E-02  0.1130116E+00
         25   -1    0    0    0    0  0.00000000000E+00  0.00000000000E+00  0.99999998245E-14  0.12500000000E+03  0.12500000000E+03 0.  0.
        -11    1    3    3    0    0 -0.23565318121E+01 -0.92835903943E+01 -0.45941145069E+02  0.46928958046E+02  0.51100000000E-03 0.  1.
         23    2    1    0    0    0 -0.13574228865E+02 -0.32348598507E+02 -0.15745410587E+02  0.86547308688E+02  0.77535973405E+02 0.  0.
         11    1    3    3    0    0 -0.11217697053E+02 -0.23065008112E+02  0.30195734482E+02  0.39618350642E+02  0.51100000000E-03 0. -1.
         22    1    1    0    0    0  0.13574228865E+02  0.32348598507E+02  0.15745410587E+02  0.38452691312E+02  0.00000000000E+00 0. -1.
</event>
<event>
 5    1  0.8752570E-005  0.9118800E+02  0.7818608E-02  0.1130116E+00
         25   -1    0    0    0    0  0.00000000000E+00  0.00000000000E+00  0.99999998245E-14  0.12500000000E+03  0.12500000000E+03 0.  0.
        -11    1    3    3    0    0 -0.30498245367E+02 -0.24110359856E+02 -0.62872221388E+01  0.39382503543E+02  0.51100000000E-03 0.  1.
         23    2    1    0    0    0  0.74777905711E+01  0.12754139308E+02 -0.25363907895E+02  0.95641640969E+02  0.91024228874E+02 0.  0.
         11    1    3    3    0    0  0.37976035938E+02  0.36864499164E+02 -0.19076685756E+02  0.56259137426E+02  0.51100000000E-03 0. -1.
         22    1    1    0    0    0 -0.74777905711E+01 -0.12754139308E+02  0.25363907895E+02  0.29358359031E+02  0.00000000000E+00 0. -1.
</event>
<event>
 5    1  0.8752570E-005  0.9118800E+02  0.7818608E-02  0.1130116E+00
         25   -1    0    0    0    0  0.00000000000E+00  0.00000000000E+00  0.99999998245E-14  0.12500000000E+03  0.12500000000E+03 0.  0.
        -11    1    3    3    0    0 -0.16002224406E+02  0.35743811109E+02 -0.26175601574E+02  0.47104706098E+02  0.51100000000E-03 0.  1.
         23    2    1    0    0    0 -0.14060170265E+02  0.17136651707E+02  0.18875458313E+02  0.95885808510E+02  0.91358919255E+02 0.  0.
         11    1    3    3    0    0  0.19420541413E+01 -0.18607159402E+02  0.45051059887E+02  0.48781102412E+02  0.51100000000E-03 0. -1.
         22    1    1    0    0    0  0.14060170265E+02 -0.17136651707E+02 -0.18875458313E+02  0.29114191490E+02  0.00000000000E+00 0. -1.
</event>
<event>
 5    1  0.8752570E-005  0.9118800E+02  0.7818608E-02  0.1130116E+00
         25   -1    0    0    0    0  0.00000000000E+00  0.00000000000E+00  0.99999998245E-14  0.12500000000E+03  0.12500000000E+03 0.  0.
        -11    1    3    3    0    0  0.24313457514E+02 -0.19096500164E+02 -0.44798634462E+02  0.54431040636E+02  0.51100000000E-03 0.  1.
         23    2    1    0    0    0 -0.77778159584E+01 -0.20918805546E+02 -0.20060277581E+02  0.94991574796E+02  0.90127097474E+02 0.  0.
         11    1    3    3    0    0 -0.32091273472E+02 -0.18223053826E+01  0.24738356881E+02  0.40560534161E+02  0.51100000000E-03 0. -1.
         22    1    1    0    0    0  0.77778159584E+01  0.20918805546E+02  0.20060277581E+02  0.30008425204E+02  0.00000000000E+00 0.  1.
</event>
<event>
 5    1  0.8752570E-005  0.9118800E+02  0.7818608E-02  0.1130116E+00
         25   -1    0    0    0    0  0.00000000000E+00  0.00000000000E+00  0.99999998245E-14  0.12500000000E+03  0.12500000000E+03 0.  0.
        -11    1    3    3    0    0 -0.48457979881E+01 -0.32796019353E+02 -0.39361699602E+02  0.51462647030E+02  0.51100000000E-03 0.  1.
         23    2    1    0    0    0  0.22679048122E+02 -0.16298549275E+02 -0.89534635198E+01  0.95671746707E+02  0.91065562518E+02 0.  0.
         11    1    3    3    0    0  0.27524846110E+02  0.16497470078E+02  0.30408236082E+02  0.44209099677E+02  0.51100000000E-03 0. -1.
         22    1    1    0    0    0 -0.22679048122E+02  0.16298549275E+02  0.89534635198E+01  0.29328253293E+02  0.00000000000E+00 0.  1.
</event>
<event>
 5    1  0.8752570E-005  0.9118800E+02  0.7818608E-02  0.1130116E+00
         25   -1    0    0    0    0  0.00000000000E+00  0.00000000000E+00  0.99999998245E-14  0.12500000000E+03  0.12500000000E+03 0.  0.
        -11    1    3    3    0    0  0.28727526983E+02  0.56955772791E+01  0.44781060534E+02  0.53507511528E+02  0.51100000000E-03 0. -1.
         23    2    1    0    0    0  0.66571487871E+01 -0.20350291910E+02  0.20082345200E+02  0.95644377037E+02  0.91027986133E+02 0.  0.
         11    1    3    3    0    0 -0.22070378196E+02 -0.26045869189E+02 -0.24698715334E+02  0.42136865509E+02  0.51100000000E-03 0.  1.
         22    1    1    0    0    0 -0.66571487871E+01  0.20350291910E+02 -0.20082345200E+02  0.29355622963E+02  0.00000000000E+00 0. -1.
</event>
<event>
 5    1  0.8752570E-005  0.9118800E+02  0.7818608E-02  0.1130116E+00
         25   -1    0    0    0    0  0.00000000000E+00  0.00000000000E+00  0.99999998245E-14  0.12500000000E+03  0.12500000000E+03 0.  0.
        -11    1    3    3    0    0  0.14325768764E+02 -0.52192506410E+02  0.16645763144E+02  0.56624789685E+02  0.51100000000E-03 0.  1.
         23    2    1    0    0    0  0.23599583821E+02 -0.16998981892E+02  0.20300177366E+01  0.95844782390E+02  0.91302768838E+02 0.  0.
         11    1    3    3    0    0  0.92738150568E+01  0.35193524517E+02 -0.14615745407E+02  0.39219992704E+02  0.51100000000E-03 0. -1.
         22    1    1    0    0    0 -0.23599583821E+02  0.16998981892E+02 -0.20300177366E+01  0.29155217610E+02  0.00000000000E+00 0.  1.
</event>
<event>
 5    1  0.8752570E-005  0.9118800E+02  0.7818608E-02  0.1130116E+00
         25   -1    0    0    0    0  0.00000000000E+00  0.00000000000E+00  0.99999998245E-14  0.12500000000E+03  0.12500000000E+03 0.  0.
        -11    1    3    3    0    0 -0.30283805581E+02  0.20663085243E+02  0.34435364182E+02  0.50297776082E+02  0.51100000000E-03 0. -1.
         23    2    1    0    0    0  0.13027227395E+02  0.76356626206E+01  0.23888688608E+02  0.96739047421E+02  0.92518981054E+02 0.  0.
         11    1    3    3    0    0  0.43311032976E+02 -0.13027422622E+02 -0.10546675574E+02  0.46441271339E+02  0.51100000000E-03 0.  1.
         22    1    1    0    0    0 -0.13027227395E+02 -0.76356626206E+01 -0.23888688608E+02  0.28260952579E+02  0.00000000000E+00 0. -1.
</event>
<event>
 5    1  0.8752570E-005  0.9118800E+02  0.7818608E-02  0.1130116E+00
         25   -1    0    0    0    0  0.00000000000E+00  0.00000000000E+00  0.99999998245E-14  0.12500000000E+03  0.12500000000E+03 0.  0.
        -11    1    3    3    0    0  0.23279743156E+02 -0.10162983502E+02  0.21664210095E+02  0.33385186451E+02  0.51100000000E-03 0. -1.
         23    2    1    0    0    0 -0.12566358746E+02  0.14348364088E+02 -0.22622604256E+02  0.95409948505E+02  0.90705496671E+02 0.  0.
         11    1    3    3    0    0 -0.35846101902E+02  0.24511347589E+02 -0.44286814351E+02  0.62024762054E+02  0.51100000000E-03 0.  1.
         22    1    1    0    0    0  0.12566358746E+02 -0.14348364088E+02  0.22622604256E+02  0.29590051495E+02  0.00000000000E+00 0.  1.
</event>
<event>
 5    1  0.8752570E-005  0.9118800E+02  0.7818608E-02  0.1130116E+00
         25   -1    0    0    0    0  0.00000000000E+00  0.00000000000E+00  0.99999998245E-14  0.12500000000E+03  0.12500000000E+03 0.  0.
        -11    1    3    3    0    0 -0.21800750011E+02  0.26425961337E+02  0.40531239538E+01  0.34496839677E+02  0.51100000000E-03 0.  1.
         23    2    1    0    0    0  0.13745974677E+02 -0.15579159665E+02  0.24207735924E+02  0.93098957474E+02  0.87462788479E+02 0.  0.
         11    1    3    3    0    0  0.35546724688E+02 -0.42005121002E+02  0.20154611970E+02  0.58602117798E+02  0.51100000000E-03 0. -1.
         22    1    1    0    0    0 -0.13745974677E+02  0.15579159665E+02 -0.24207735924E+02  0.31901042526E+02  0.00000000000E+00 0. -1.
</event>
<event>
 5    1  0.8752570E-005  0.9118800E+02  0.7818608E-02  0.1130116E+00
         25   -1    0    0    0    0  0.00000000000E+00  0.00000000000E+00  0.99999998245E-14  0.12500000000E+03  0.12500000000E+03 0.  0.
        -11    1    3    3    0    0 -0.39031654788E+02  0.13403158908E+02 -0.15975986897E+01  0.41299722348E+02  0.51100000000E-03 0.  1.
         23    2    1    0    0    0  0.12296571820E+02  0.27199000336E+02  0.45566124652E+01  0.94804735223E+02  0.89867590407E+02 0.  0.
         11    1    3    3    0    0  0.51328226608E+02  0.13795841429E+02  0.61542111550E+01  0.53505012874E+02  0.51100000000E-03 0. -1.
         22    1    1    0    0    0 -0.12296571820E+02 -0.27199000336E+02 -0.45566124652E+01  0.30195264777E+02  0.00000000000E+00 0. -1.
</event>
<event>
 5    1  0.8752570E-005  0.9118800E+02  0.7818608E-02  0.1130116E+00
         25   -1    0    0    0    0  0.00000000000E+00  0.00000000000E+00  0.99999998245E-14  0.12500000000E+03  0.12500000000E+03 0.  0.
        -11    1    3    3    0    0 -0.35946737769E+02  0.38361602227E+01  0.46722058117E+01  0.36451523822E+02  0.51100000000E-03 0.  1.
         23    2    1    0    0    0  0.17236580282E+02 -0.21452762108E+02 -0.72624356759E+01  0.96538382445E+02  0.92247469404E+02 0.  0.
         11    1    3    3    0    0  0.53183318051E+02 -0.25288922331E+02 -0.11934641488E+02  0.60086858624E+02  0.51100000000E-03 0. -1.
         22    1    1    0    0    0 -0.17236580282E+02  0.21452762108E+02  0.72624356759E+01  0.28461617555E+02  0.00000000000E+00 0. -1.
</event>
<event>
 5    1  0.8752570E-005  0.9118800E+02  0.7818608E-02  0.1130116E+00
         25   -1    0    0    0    0  0.00000000000E+00  0.00000000000E+00  0.99999998245E-14  0.12500000000E+03  0.12500000000E+03 0.  0.
        -11    1    3    3    0    0 -0.41389271018E+02  0.37846072397E+02  0.80700759793E+01  0.56661477900E+02  0.51100000000E-03 0.  1.
         23    2    1    0    0    0 -0.13810620127E+02  0.85650415830E+01  0.20572144411E+02  0.98783472936E+02  0.95241105801E+02 0.  0.
         11    1    3    3    0    0  0.27578650891E+02 -0.29281030814E+02  0.12502068431E+02  0.42121995036E+02  0.51100000000E-03 0. -1.
         22    1    1    0    0    0  0.13810620127E+02 -0.85650415830E+01 -0.20572144411E+02  0.26216527064E+02  0.00000000000E+00 0. -1.
</event>
<event>
 5    1  0.8752570E-005  0.9118800E+02  0.7818608E-02  0.1130116E+00
         25   -1    0    0    0    0  0.00000000000E+00  0.00000000000E+00  0.99999998245E-14  0.12500000000E+03  0.12500000000E+03 0.  0.
        -11    1    3    3    0    0 -0.25416508677E+02  0.25239872665E+02 -0.36606110721E+02  0.51215792758E+02  0.51100000000E-03 0.  1.
         23    2    1    0    0    0 -0.11617302360E+02 -0.12171071735E+02 -0.28496704430E+02  0.91906815435E+02  0.85742077527E+02 0.  0.
         11    1    3    3    0    0  0.13799206317E+02 -0.37410944399E+02  0.81094062913E+01  0.40691022677E+02  0.51100000000E-03 0. -1.
         22    1    1    0    0    0  0.11617302360E+02  0.12171071735E+02  0.28496704430E+02  0.33093184565E+02  0.00000000000E+00 0.  1.
</event>
<event>
 5    1  0.8752570E-005  0.9118800E+02  0.7818608E-02  0.1130116E+00
         25   -1    0    0    0    0  0.00000000000E+00  0.00000000000E+00  0.99999998245E-14  0.12500000000E+03  0.12500000000E+03 0.  0.
        -11    1    3    3    0    0 -0.46285399396E+02  0.34870982341E+02  0.10341109093E+02  0.58866477254E+02  0.51100000000E-03 0.  1.
         23    2    1    0    0    0 -0.27204743689E+02  0.84070298593E+01 -0.68064704045E+01  0.95723656826E+02  0.91136788437E+02 0.  0.
         11    1    3    3    0    0  0.19080655707E+02 -0.26463952482E+02 -0.17147579498E+02  0.36857179573E+02  0.51100000000E-03 0. -1.
         22    1    1    0    0    0  0.27204743689E+02 -0.84070298593E+01  0.68064704045E+01  0.29276343174E+02  0.00000000000E+00 0.  1.
</event>
<event>
 5    1  0.8752570E-005  0.9118800E+02  0.7818608E-02  0.1130116E+00
         25   -1    0    0    0    0  0.00000000000E+00  0.00000000000E+00  0.99999998245E-14  0.12500000000E+03  0.12500000000E+03 0.  0.
        -11    1    3    3    0    0  0.50486636040E+02 -0.49143904831E+01 -0.44018566467E+01  0.50915891377E+02  0.51100000000E-03 0.  1.
         23    2    1    0    0    0  0.19613759731E+02  0.21726491302E+02  0.98561591051E+01  0.94114989601E+02  0.88903022447E+02 0.  0.
         11    1    3    3    0    0 -0.30872876310E+02  0.26640881785E+02  0.14258015752E+02  0.43199098224E+02  0.51100000000E-03 0. -1.
         22    1    1    0    0    0 -0.19613759731E+02 -0.21726491302E+02 -0.98561591051E+01  0.30885010399E+02  0.00000000000E+00 0.  1.
</event>
<event>
 5    1  0.8752570E-005  0.9118800E+02  0.7818608E-02  0.1130116E+00
         25   -1    0    0    0    0  0.00000000000E+00  0.00000000000E+00  0.99999998245E-14  0.12500000000E+03  0.12500000000E+03 0.  0.
        -11    1    3    3    0    0  0.15806864080E+02 -0.26149844514E+02  0.29787274511E+01  0.30700881707E+02  0.51100000000E-03 0. -1.
         23    2    1    0    0    0 -0.36960405818E+02 -0.52388885511E+01 -0.15260723191E+01  0.87638971532E+02  0.79276370269E+02 0.  0.
         11    1    3    3    0    0 -0.52767269897E+02  0.20910955962E+02 -0.45047997702E+01  0.56938089825E+02  0.51100000000E-03 0.  1.
         22    1    1    0    0    0  0.36960405818E+02  0.52388885511E+01  0.15260723191E+01  0.37361028468E+02  0.00000000000E+00 0.  1.
</event>
<event>
 5    1  0.8752570E-005  0.9118800E+02  0.7818608E-02  0.1130116E+00
         25   -1    0    0    0    0  0.00000000000E+00  0.00000000000E+00  0.99999998245E-14  0.12500000000E+03  0.12500000000E+03 0.  0.
        -11    1    3    3    0    0 -0.46035828893E+02 -0.50930891931E+01  0.37162229944E+02  0.59382391616E+02  0.51100000000E-03 0.  1.
         23    2    1    0    0    0 -0.27911333641E+02 -0.55064704837E+01  0.52708943801E+01  0.96066523016E+02  0.91605844541E+02 0.  0.
         11    1    3    3    0    0  0.18124495252E+02 -0.41338129067E+00 -0.31891335564E+02  0.36684131400E+02  0.51100000000E-03 0. -1.
         22    1    1    0    0    0  0.27911333641E+02  0.55064704837E+01 -0.52708943801E+01  0.28933476984E+02  0.00000000000E+00 0.  1.
</event>
<event>
 5    1  0.8752570E-005  0.9118800E+02  0.7818608E-02  0.1130116E+00
         25   -1    0    0    0    0  0.00000000000E+00  0.00000000000E+00  0.99999998245E-14  0.12500000000E+03  0.12500000000E+03 0.  0.
        -11    1    3    3    0    0  0.61260240873E+01 -0.32382446726E+02  0.13434716987E+02  0.35589923404E+02  0.51100000000E-03 0. -1.
         23    2    1    0    0    0 -0.17149509446E+02  0.22784979563E+02  0.45047992138E+01  0.96128661550E+02  0.91690595960E+02 0.  0.
         11    1    3    3    0    0 -0.23275533533E+02  0.55167426289E+02 -0.89299177735E+01  0.60538738146E+02  0.51100000000E-03 0.  1.
         22    1    1    0    0    0  0.17149509446E+02 -0.22784979563E+02 -0.45047992138E+01  0.28871338450E+02  0.00000000000E+00 0.  1.
</event>
<event>
 5    1  0.8752570E-005  0.9118800E+02  0.7818608E-02  0.1130116E+00
         25   -1    0    0    0    0  0.00000000000E+00  0.00000000000E+00  0.99999998245E-14  0.12500000000E+03  0.12500000000E+03 0.  0.
        -11    1    3    3    0    0  0.20557813388E+02  0.19043448308E+02 -0.38939202483E+02  0.47974348407E+02  0.51100000000E-03 0.  1.
         23    2    1    0    0    0 -0.21022296947E+02  0.51743809326E+01 -0.19266448402E+02  0.96018847142E+02  0.91540765703E+02 0.  0.
         11    1    3    3    0    0 -0.41580110335E+02 -0.13869067376E+02  0.19672754081E+02  0.48044498735E+02  0.51100000000E-03 0. -1.
         22    1    1    0    0    0  0.21022296947E+02 -0.51743809326E+01  0.19266448402E+02  0.28981152858E+02  0.00000000000E+00 0.  1.
</event>
<event>
 5    1  0.8752570E-005  0.9118800E+02  0.7818608E-02  0.1130116E+00
         25   -1    0    0    0    0  0.00000000000E+00  0.00000000000E+00  0.99999998245E-14  0.12500000000E+03  0.12500000000E+03 0.  0.
        -11    1    3    3    0    0 -0.19311423976E+02  0.23764576217E+02  0.15180957125E+02  0.34178174882E+02  0.51100000000E-03 0. -1.
         23    2    1    0    0    0  0.24177377817E+02 -0.96110814894E+01 -0.13108195916E+02  0.95866800971E+02  0.91332908870E+02 0.  0.
         11    1    3    3    0    0  0.43488801793E+02 -0.33375657706E+02 -0.28289153041E+02  0.61688626089E+02  0.51100000000E-03 0.  1.
         22    1    1    0    0    0 -0.24177377817E+02  0.96110814894E+01  0.13108195916E+02  0.29133199029E+02  0.00000000000E+00 0.  1.
</event>
<event>
 5    1  0.8752570E-005  0.9118800E+02  0.7818608E-02  0.1130116E+00
         25   -1    0    0    0    0  0.00000000000E+00  0.00000000000E+00  0.99999998245E-14  0.12500000000E+03  0.12500000000E+03 0.  0.
        -11    1    3    3    0    0 -0.16686813668E+02  0.48883934053E+02 -0.25241139818E+02  0.57490902745E+02  0.51100000000E-03 0. -1.
         23    2    1    0    0    0 -0.20644558277E+02  0.13263897588E+02 -0.19215792310E+02  0.93833103462E+02  0.88505795661E+02 0.  0.
         11    1    3    3    0    0 -0.39577446090E+01 -0.35620036464E+02  0.60253475079E+01  0.36342200717E+02  0.51100000000E-03 0.  1.
         22    1    1    0    0    0  0.20644558277E+02 -0.13263897588E+02  0.19215792310E+02  0.31166896538E+02  0.00000000000E+00 0.  1.
</event>
<event>
 5    1  0.8752570E-005  0.9118800E+02  0.7818608E-02  0.1130116E+00
         25   -1    0    0    0    0  0.00000000000E+00  0.00000000000E+00  0.99999998245E-14  0.12500000000E+03  0.12500000000E+03 0.  0.
        -11    1    3    3    0    0  0.30217521490E+02  0.25246856508E+02  0.36536969193E+02  0.53716407983E+02  0.51100000000E-03 0.  1.
         23    2    1    0    0    0 -0.84645952697E+01  0.19141981699E+02  0.19396778116E+02  0.96464060595E+02  0.92146704492E+02 0.  0.
         11    1    3    3    0    0 -0.38682116760E+02 -0.61048748090E+01 -0.17140191077E+02  0.42747652612E+02  0.51100000000E-03 0. -1.
         22    1    1    0    0    0  0.84645952697E+01 -0.19141981699E+02 -0.19396778116E+02  0.28535939405E+02  0.00000000000E+00 0.  1.
</event>
<event>
 5    1  0.8752570E-005  0.9118800E+02  0.7818608E-02  0.1130116E+00
         25   -1    0    0    0    0  0.00000000000E+00  0.00000000000E+00  0.99999998245E-14  0.12500000000E+03  0.12500000000E+03 0.  0.
        -11    1    3    3    0    0  0.33788764904E+02  0.13816427382E+02  0.17062898001E+02  0.40295369310E+02  0.51100000000E-03 0.  1.
         23    2    1    0    0    0  0.12546340152E+02 -0.21217044924E+02 -0.18206829500E+02  0.94355876795E+02  0.89241073497E+02 0.  0.
         11    1    3    3    0    0 -0.21242424753E+02 -0.35033472307E+02 -0.35269727502E+02  0.54060507485E+02  0.51100000000E-03 0. -1.
         22    1    1    0    0    0 -0.12546340152E+02  0.21217044924E+02  0.18206829500E+02  0.30644123205E+02  0.00000000000E+00 0. -1.
</event>
<event>
 5    1  0.8752570E-005  0.9118800E+02  0.7818608E-02  0.1130116E+00
         25   -1    0    0    0    0  0.00000000000E+00  0.00000000000E+00  0.99999998245E-14  0.12500000000E+03  0.12500000000E+03 0.  0.
        -11    1    3    3    0    0  0.89482538811E+01  0.55798514950E+02 -0.15714337944E+02  0.58655655614E+02  0.51100000000E-03 0. -1.
         23    2    1    0    0    0  0.15024077573E+02  0.18185536000E+02 -0.15532249808E+02  0.96756639530E+02  0.92542746244E+02 0.  0.
         11    1    3    3    0    0  0.60758236922E+01 -0.37612978950E+02  0.18208813636E+00  0.38100983916E+02  0.51100000000E-03 0.  1.
         22    1    1    0    0    0 -0.15024077573E+02 -0.18185536000E+02  0.15532249808E+02  0.28243360470E+02  0.00000000000E+00 0. -1.
</event>
<event>
 5    1  0.8752570E-005  0.9118800E+02  0.7818608E-02  0.1130116E+00
         25   -1    0    0    0    0  0.00000000000E+00  0.00000000000E+00  0.99999998245E-14  0.12500000000E+03  0.12500000000E+03 0.  0.
        -11    1    3    3    0    0 -0.41064584255E+02 -0.19025067136E+02 -0.22377746190E+02  0.50487788468E+02  0.51100000000E-03 0. -1.
         23    2    1    0    0    0 -0.13914468917E+02  0.18602421290E+02 -0.14674033661E+02  0.97522922517E+02  0.93572061158E+02 0.  0.
         11    1    3    3    0    0  0.27150115338E+02  0.37627488426E+02  0.77037125282E+01  0.47035134050E+02  0.51100000000E-03 0.  1.
         22    1    1    0    0    0  0.13914468917E+02 -0.18602421290E+02  0.14674033661E+02  0.27477077483E+02  0.00000000000E+00 0. -1.
</event>
<event>
 5    1  0.8752570E-005  0.9118800E+02  0.7818608E-02  0.1130116E+00
         25   -1    0    0    0    0  0.00000000000E+00  0.00000000000E+00  0.99999998245E-14  0.12500000000E+03  0.12500000000E+03 0.  0.
        -11    1    3    3    0    0  0.28358197195E+02  0.20840331336E+02  0.20554438750E+02  0.40755266051E+02  0.51100000000E-03 0. -1.
         23    2    1    0    0    0 -0.61790540448E+01 -0.19379225716E+02  0.23585038863E+02  0.93855351079E+02  0.88537211215E+02 0.  0.
         11    1    3    3    0    0 -0.34537251239E+02 -0.40219557052E+02  0.30306001134E+01  0.53100085028E+02  0.51100000000E-03 0.  1.
         22    1    1    0    0    0  0.61790540448E+01  0.19379225716E+02 -0.23585038863E+02  0.31144648921E+02  0.00000000000E+00 0.  1.
</event>
<event>
 5    1  0.8752570E-005  0.9118800E+02  0.7818608E-02  0.1130116E+00
         25   -1    0    0    0    0  0.00000000000E+00  0.00000000000E+00  0.99999998245E-14  0.12500000000E+03  0.12500000000E+03 0.  0.
        -11    1    3    3    0    0 -0.47596055009E+02 -0.26816702288E+02  0.79367264168E+01  0.55204271579E+02  0.51100000000E-03 0. -1.
         23    2    1    0    0    0 -0.81156879621E+01 -0.23843323255E+02  0.15378204922E+02  0.95489702787E+02  0.90815338445E+02 0.  0.
         11    1    3    3    0    0  0.39480367047E+02  0.29733790330E+01  0.74414785053E+01  0.40285431208E+02  0.51100000000E-03 0.  1.
         22    1    1    0    0    0  0.81156879621E+01  0.23843323255E+02 -0.15378204922E+02  0.29510297213E+02  0.00000000000E+00 0.  1.
</event>
<event>
 5    1  0.8752570E-005  0.9118800E+02  0.7818608E-02  0.1130116E+00
         25   -1    0    0    0    0  0.00000000000E+00  0.00000000000E+00  0.99999998245E-14  0.12500000000E+03  0.12500000000E+03 0.  0.
        -11    1    3    3    0    0 -0.40545289196E+02 -0.20576937758E+02  0.40439952252E+02  0.60849984239E+02  0.51100000000E-03 0. -1.
         23    2    1    0    0    0 -0.26386837076E+02 -0.49705297519E+01  0.13817938046E+02  0.94802206228E+02  0.89864072671E+02 0.  0.
         11    1    3    3    0    0  0.14158452121E+02  0.15606408006E+02 -0.26622014206E+02  0.33952221989E+02  0.51100000000E-03 0.  1.
         22    1    1    0    0    0  0.26386837076E+02  0.49705297519E+01 -0.13817938046E+02  0.30197793772E+02  0.00000000000E+00 0. -1.
</event>
<event>
 5    1  0.8752570E-005  0.9118800E+02  0.7818608E-02  0.1130116E+00
         25   -1    0    0    0    0  0.00000000000E+00  0.00000000000E+00  0.99999998245E-14  0.12500000000E+03  0.12500000000E+03 0.  0.
        -11    1    3    3    0    0  0.43304710943E+02  0.28961068612E+02 -0.30536368187E+02  0.60386350008E+02  0.51100000000E-03 0.  1.
         23    2    1    0    0    0  0.16814745170E+02  0.24111331716E+02 -0.11183994753E+02  0.93548867891E+02  0.88103444728E+02 0.  0.
         11    1    3    3    0    0 -0.26489965773E+02 -0.48497368962E+01  0.19352373433E+02  0.33162517883E+02  0.51100000000E-03 0. -1.
         22    1    1    0    0    0 -0.16814745170E+02 -0.24111331716E+02  0.11183994753E+02  0.31451132109E+02  0.00000000000E+00 0.  1.
</event>
<event>
 5    1  0.8752570E-005  0.9118800E+02  0.7818608E-02  0.1130116E+00
         25   -1    0    0    0    0  0.00000000000E+00  0.00000000000E+00  0.99999998245E-14  0.12500000000E+03  0.12500000000E+03 0.  0.
        -11    1    3    3    0    0  0.22198463773E+02 -0.19680112440E+02  0.52459125637E+02  0.60266395963E+02  0.51100000000E-03 0.  1.
         23    2    1    0    0    0  0.93475603704E+01 -0.18578457876E+02  0.16551811724E+02  0.98419961376E+02  0.94762810976E+02 0.  0.
         11    1    3    3    0    0 -0.12850903402E+02  0.11016545642E+01 -0.35907313913E+02  0.38153565413E+02  0.51100000000E-03 0. -1.
         22    1    1    0    0    0 -0.93475603704E+01  0.18578457876E+02 -0.16551811724E+02  0.26580038624E+02  0.00000000000E+00 0.  1.
</event>
<event>
 5    1  0.8752570E-005  0.9118800E+02  0.7818608E-02  0.1130116E+00
         25   -1    0    0    0    0  0.00000000000E+00  0.00000000000E+00  0.99999998245E-14  0.12500000000E+03  0.12500000000E+03 0.  0.
        -11    1    3    3    0    0 -0.36432340641E+02  0.39008528197E+02  0.19245259724E+02  0.56739410807E+02  0.51100000000E-03 0.  1.
         23    2    1    0    0    0 -0.29986036837E+01  0.27586223393E+02 -0.56537649905E+00  0.97245522961E+02  0.93200755041E+02 0.  0.
         11    1    3    3    0    0  0.33433736957E+02 -0.11422304804E+02 -0.19810636223E+02  0.40506112153E+02  0.51100000000E-03 0. -1.
         22    1    1    0    0    0  0.29986036837E+01 -0.27586223393E+02  0.56537649905E+00  0.27754477039E+02  0.00000000000E+00 0.  1.
</event>
<event>
 5    1  0.8752570E-005  0.9118800E+02  0.7818608E-02  0.1130116E+00
         25   -1    0    0    0    0  0.00000000000E+00  0.00000000000E+00  0.99999998245E-14  0.12500000000E+03  0.12500000000E+03 0.  0.
        -11    1    3    3    0    0  0.20174443978E+02  0.93121606777E+01 -0.41365830930E+02  0.46955899470E+02  0.51100000000E-03 0.  1.
         23    2    1    0    0    0  0.22292844948E+02  0.15079156834E+02  0.81717255558E+01  0.96872984423E+02  0.92699763245E+02 0.  0.
         11    1    3    3    0    0  0.21184009707E+01  0.57669961564E+01  0.49537556485E+02  0.49917084953E+02  0.51100000000E-03 0. -1.
         22    1    1    0    0    0 -0.22292844948E+02 -0.15079156834E+02 -0.81717255558E+01  0.28127015577E+02  0.00000000000E+00 0. -1.
</event>
<event>
 5    1  0.8752570E-005  0.9118800E+02  0.7818608E-02  0.1130116E+00
         25   -1    0    0    0    0  0.00000000000E+00  0.00000000000E+00  0.99999998245E-14  0.12500000000E+03  0.12500000000E+03 0.  0.
        -11    1    3    3    0    0 -0.13702053398E+02 -0.34851878460E+02  0.44837864407E+01  0.37716097898E+02  0.51100000000E-03 0. -1.
         23    2    1    0    0    0  0.76871487338E+01  0.84817694180E+01 -0.27191726748E+02  0.95497073507E+02  0.90825483080E+02 0.  0.
         11    1    3    3    0    0  0.21389202132E+02  0.43333647878E+02 -0.31675513189E+02  0.57780975609E+02  0.51100000000E-03 0.  1.
         22    1    1    0    0    0 -0.76871487338E+01 -0.84817694180E+01  0.27191726748E+02  0.29502926493E+02  0.00000000000E+00 0.  1.
</event>
<event>
 5    1  0.8752570E-005  0.9118800E+02  0.7818608E-02  0.1130116E+00
         25   -1    0    0    0    0  0.00000000000E+00  0.00000000000E+00  0.99999998245E-14  0.12500000000E+03  0.12500000000E+03 0.  0.
        -11    1    3    3    0    0  0.16922064679E+02  0.34404076116E+02 -0.37312966029E+01  0.38521673134E+02  0.51100000000E-03 0. -1.
         23    2    1    0    0    0 -0.32100418112E+01 -0.15293786874E+02 -0.24430611953E+02  0.95998981297E+02  0.91513634636E+02 0.  0.
         11    1    3    3    0    0 -0.20132106491E+02 -0.49697862990E+02 -0.20699315351E+02  0.57477308164E+02  0.51100000000E-03 0.  1.
         22    1    1    0    0    0  0.32100418112E+01  0.15293786874E+02  0.24430611953E+02  0.29001018703E+02  0.00000000000E+00 0. -1.
</event>
<event>
 5    1  0.8752570E-005  0.9118800E+02  0.7818608E-02  0.1130116E+00
         25   -1    0    0    0    0  0.00000000000E+00  0.00000000000E+00  0.99999998245E-14  0.12500000000E+03  0.12500000000E+03 0.  0.
        -11    1    3    3    0    0  0.57455698133E+02 -0.19391946370E+02  0.37726374078E+01  0.60757202250E+02  0.51100000000E-03 0.  1.
         23    2    1    0    0    0  0.29100008740E+02 -0.42486879741E+01  0.10815647973E+02  0.93665672191E+02  0.88269009555E+02 0.  0.
         11    1    3    3    0    0 -0.28355689393E+02  0.15143258396E+02  0.70430105650E+01  0.32908469941E+02  0.51100000000E-03 0. -1.
         22    1    1    0    0    0 -0.29100008740E+02  0.42486879741E+01 -0.10815647973E+02  0.31334327809E+02  0.00000000000E+00 0.  1.
</event>
<event>
 5    1  0.8752570E-005  0.9118800E+02  0.7818608E-02  0.1130116E+00
         25   -1    0    0    0    0  0.00000000000E+00  0.00000000000E+00  0.99999998245E-14  0.12500000000E+03  0.12500000000E+03 0.  0.
        -11    1    3    3    0    0  0.12061894263E+02  0.36788664820E+02  0.14560812271E+02  0.41363176942E+02  0.51100000000E-03 0. -1.
         23    2    1    0    0    0  0.27834849661E+02 -0.12387459852E+02  0.22740106047E+01  0.94448418348E+02  0.89370602477E+02 0.  0.
         11    1    3    3    0    0  0.15772955397E+02 -0.49176124672E+02 -0.12286801666E+02  0.53085241406E+02  0.51100000000E-03 0.  1.
         22    1    1    0    0    0 -0.27834849661E+02  0.12387459852E+02 -0.22740106047E+01  0.30551581652E+02  0.00000000000E+00 0.  1.
</event>
<event>
 5    1  0.8752570E-005  0.9118800E+02  0.7818608E-02  0.1130116E+00
         25   -1    0    0    0    0  0.00000000000E+00  0.00000000000E+00  0.99999998245E-14  0.12500000000E+03  0.12500000000E+03 0.  0.
        -11    1    3    3    0    0 -0.27499136514E+02  0.21567145265E+02  0.47379175233E+02  0.58873852515E+02  0.51100000000E-03 0.  1.
         23    2    1    0    0    0 -0.78569347622E+01  0.23408430539E+02  0.17280136178E+02  0.94862164137E+02  0.89947434840E+02 0.  0.
         11    1    3    3    0    0  0.19642201752E+02  0.18412852741E+01 -0.30099039055E+02  0.35988311623E+02  0.51100000000E-03 0. -1.
         22    1    1    0    0    0  0.78569347622E+01 -0.23408430539E+02 -0.17280136178E+02  0.30137835863E+02  0.00000000000E+00 0.  1.
</event>
<event>
 5    1  0.8752570E-005  0.9118800E+02  0.7818608E-02  0.1130116E+00
         25   -1    0    0    0    0  0.00000000000E+00  0.00000000000E+00  0.99999998245E-14  0.12500000000E+03  0.12500000000E+03 0.  0.
        -11    1    3    3    0    0  0.35312723208E+02  0.16567993065E+02  0.40397885844E+02  0.56155818892E+02  0.51100000000E-03 0.  1.
         23    2    1    0    0    0  0.76380043577E+01  0.25234133632E+02  0.15239533478E+02  0.94547676750E+02  0.89509324584E+02 0.  0.
         11    1    3    3    0    0 -0.27674718850E+02  0.86661405667E+01 -0.25158352366E+02  0.38391857858E+02  0.51100000000E-03 0. -1.
         22    1    1    0    0    0 -0.76380043577E+01 -0.25234133632E+02 -0.15239533478E+02  0.30452323250E+02  0.00000000000E+00 0.  1.
</event>
<event>
 5    1  0.8752570E-005  0.9118800E+02  0.7818608E-02  0.1130116E+00
         25   -1    0    0    0    0  0.00000000000E+00  0.00000000000E+00  0.99999998245E-14  0.12500000000E+03  0.12500000000E+03 0.  0.
        -11    1    3    3    0    0 -0.11805382452E+02 -0.26908850528E+01  0.48338881060E+02  0.49832272070E+02  0.51100000000E-03 0. -1.
         23    2    1    0    0    0  0.20219256249E+02 -0.11965032919E+02  0.14214496313E+02  0.97540352488E+02  0.93595342416E+02 0.  0.
         11    1    3    3    0    0  0.32024638701E+02 -0.92741478665E+01 -0.34124384747E+02  0.47708080418E+02  0.51100000000E-03 0.  1.
         22    1    1    0    0    0 -0.20219256249E+02  0.11965032919E+02 -0.14214496313E+02  0.27459647512E+02  0.00000000000E+00 0.  1.
</event>
<event>
 5    1  0.8752570E-005  0.9118800E+02  0.7818608E-02  0.1130116E+00
         25   -1    0    0    0    0  0.00000000000E+00  0.00000000000E+00  0.99999998245E-14  0.12500000000E+03  0.12500000000E+03 0.  0.
        -11    1    3    3    0    0  0.22566106437E+02  0.12164466509E+02  0.44004237247E+02  0.50927166631E+02  0.51100000000E-03 0.  1.
         23    2    1    0    0    0 -0.12528493362E+02 -0.88171870373E+01  0.24197874256E+02  0.96360114321E+02  0.92005589940E+02 0.  0.
         11    1    3    3    0    0 -0.35094599799E+02 -0.20981653546E+02 -0.19806362991E+02  0.45432947689E+02  0.51100000000E-03 0. -1.
         22    1    1    0    0    0  0.12528493362E+02  0.88171870373E+01 -0.24197874256E+02  0.28639885679E+02  0.00000000000E+00 0.  1.
</event>
<event>
 5    1  0.8752570E-005  0.9118800E+02  0.7818608E-02  0.1130116E+00
         25   -1    0    0    0    0  0.00000000000E+00  0.00000000000E+00  0.99999998245E-14  0.12500000000E+03  0.12500000000E+03 0.  0.
        -11    1    3    3    0    0  0.46716701093E+02 -0.22006971752E+01 -0.57036183633E+00  0.46771984584E+02  0.51100000000E-03 0.  1.
         23    2    1    0    0    0  0.52323497685E+01  0.26909262671E+02  0.19834647176E+01  0.97515094435E+02  0.93561603283E+02 0.  0.
         11    1    3    3    0    0 -0.41484351324E+02  0.29109959847E+02  0.25538265539E+01  0.50743109851E+02  0.51100000000E-03 0. -1.
         22    1    1    0    0    0 -0.52323497685E+01 -0.26909262671E+02 -0.19834647176E+01  0.27484905565E+02  0.00000000000E+00 0.  1.
</event>
<event>
 5    1  0.8752570E-005  0.9118800E+02  0.7818608E-02  0.1130116E+00
         25   -1    0    0    0    0  0.00000000000E+00  0.00000000000E+00  0.99999998245E-14  0.12500000000E+03  0.12500000000E+03 0.  0.
        -11    1    3    3    0    0 -0.10099315267E+02 -0.47458643490E+00  0.46821374974E+02  0.47900548597E+02  0.51100000000E-03 0. -1.
         23    2    1    0    0    0 -0.13912119235E+02  0.23866325278E+02  0.43026147166E+01  0.97041798390E+02  0.92927119816E+02 0.  0.
         11    1    3    3    0    0 -0.38128039673E+01  0.24340911713E+02 -0.42518760257E+02  0.49141249793E+02  0.51100000000E-03 0.  1.
         22    1    1    0    0    0  0.13912119235E+02 -0.23866325278E+02 -0.43026147166E+01  0.27958201610E+02  0.00000000000E+00 0. -1.
</event>
<event>
 5    1  0.8752570E-005  0.9118800E+02  0.7818608E-02  0.1130116E+00
         25   -1    0    0    0    0  0.00000000000E+00  0.00000000000E+00  0.99999998245E-14  0.12500000000E+03  0.12500000000E+03 0.  0.
        -11    1    3    3    0    0  0.36349221009E+02 -0.43502167962E+01  0.31137870815E+02  0.48059933971E+02  0.51100000000E-03 0. -1.
         23    2    1    0    0    0  0.10652284591E+02 -0.27327860206E+02 -0.16344834639E+01  0.95623910290E+02  0.90999876772E+02 0.  0.
         11    1    3    3    0    0 -0.25696936418E+02 -0.22977643410E+02 -0.32772354279E+02  0.47563976318E+02  0.51100000000E-03 0.  1.
         22    1    1    0    0    0 -0.10652284591E+02  0.27327860206E+02  0.16344834639E+01  0.29376089710E+02  0.00000000000E+00 0. -1.
</event>
<event>
 5    1  0.8752570E-005  0.9118800E+02  0.7818608E-02  0.1130116E+00
         25   -1    0    0    0    0  0.00000000000E+00  0.00000000000E+00  0.99999998245E-14  0.12500000000E+03  0.12500000000E+03 0.  0.
        -11    1    3    3    0    0 -0.34801477861E+02  0.33930180534E+02 -0.12666381594E+02  0.50227853183E+02  0.51100000000E-03 0.  1.
         23    2    1    0    0    0 -0.18307227904E+02  0.10310254471E+02  0.21513008384E+02  0.94928992859E+02  0.90040258855E+02 0.  0.
         11    1    3    3    0    0  0.16494249957E+02 -0.23619926063E+02  0.34179389977E+02  0.44701139676E+02  0.51100000000E-03 0. -1.
         22    1    1    0    0    0  0.18307227904E+02 -0.10310254471E+02 -0.21513008384E+02  0.30071007141E+02  0.00000000000E+00 0.  1.
</event>
<event>
 5    1  0.8752570E-005  0.9118800E+02  0.7818608E-02  0.1130116E+00
         25   -1    0    0    0    0  0.00000000000E+00  0.00000000000E+00  0.99999998245E-14  0.12500000000E+03  0.12500000000E+03 0.  0.
        -11    1    3    3    0    0 -0.35060033863E+02  0.16980237445E+02  0.89519792959E+01  0.39970894057E+02  0.51100000000E-03 0. -1.
         23    2    1    0    0    0  0.20844093336E+02  0.81891943397E+00  0.16165099675E+02  0.98609522483E+02  0.95012528757E+02 0.  0.
         11    1    3    3    0    0  0.55904127199E+02 -0.16161318011E+02  0.72131203793E+01  0.58638628426E+02  0.51100000000E-03 0.  1.
         22    1    1    0    0    0 -0.20844093336E+02 -0.81891943397E+00 -0.16165099675E+02  0.26390477517E+02  0.00000000000E+00 0.  1.
</event>
<event>
 5    1  0.8752570E-005  0.9118800E+02  0.7818608E-02  0.1130116E+00
         25   -1    0    0    0    0  0.00000000000E+00  0.00000000000E+00  0.99999998245E-14  0.12500000000E+03  0.12500000000E+03 0.  0.
        -11    1    3    3    0    0  0.58260647065E+01  0.51782744101E+02  0.18612758290E+02  0.55333808725E+02  0.51100000000E-03 0. -1.
         23    2    1    0    0    0 -0.18155176035E+02  0.21609870986E+02  0.11480403395E+02  0.94530398706E+02  0.89485192499E+02 0.  0.
         11    1    3    3    0    0 -0.23981240741E+02 -0.30172873116E+02 -0.71323548946E+01  0.39196589981E+02  0.51100000000E-03 0.  1.
         22    1    1    0    0    0  0.18155176035E+02 -0.21609870986E+02 -0.11480403395E+02  0.30469601294E+02  0.00000000000E+00 0. -1.
</event>
<event>
 5    1  0.8752570E-005  0.9118800E+02  0.7818608E-02  0.1130116E+00
         25   -1    0    0    0    0  0.00000000000E+00  0.00000000000E+00  0.99999998245E-14  0.12500000000E+03  0.12500000000E+03 0.  0.
        -11    1    3    3    0    0  0.25448842917E+02 -0.23698058020E+02  0.15915943031E+02  0.38243415153E+02  0.51100000000E-03 0.  1.
         23    2    1    0    0    0  0.10797661935E+01 -0.40483536050E+01 -0.30491431051E+02  0.94222046373E+02  0.89053419885E+02 0.  0.
         11    1    3    3    0    0 -0.24369076723E+02  0.19649704415E+02 -0.46407374082E+02  0.55978631221E+02  0.51100000000E-03 0. -1.
         22    1    1    0    0    0 -0.10797661935E+01  0.40483536050E+01  0.30491431051E+02  0.30777953627E+02  0.00000000000E+00 0. -1.
</event>
<event>
 5    1  0.8752570E-005  0.9118800E+02  0.7818608E-02  0.1130116E+00
         25   -1    0    0    0    0  0.00000000000E+00  0.00000000000E+00  0.99999998245E-14  0.12500000000E+03  0.12500000000E+03 0.  0.
        -11    1    3    3    0    0 -0.43716698995E+01  0.53844854143E+01  0.42768510992E+02  0.43327239857E+02  0.51100000000E-03 0.  1.
         23    2    1    0    0    0 -0.26683627543E+02 -0.11543741695E+02 -0.16959367897E+01  0.95876982423E+02  0.91346842342E+02 0.  0.
         11    1    3    3    0    0 -0.22311957644E+02 -0.16928227109E+02 -0.44464447782E+02  0.52549742566E+02  0.51100000000E-03 0. -1.
         22    1    1    0    0    0  0.26683627543E+02  0.11543741695E+02  0.16959367897E+01  0.29123017577E+02  0.00000000000E+00 0.  1.
</event>
<event>
 5    1  0.8752570E-005  0.9118800E+02  0.7818608E-02  0.1130116E+00
         25   -1    0    0    0    0  0.00000000000E+00  0.00000000000E+00  0.99999998245E-14  0.12500000000E+03  0.12500000000E+03 0.  0.
        -11    1    3    3    0    0 -0.15978067570E+02  0.17848682670E+01  0.36761513799E+02  0.40123475610E+02  0.51100000000E-03 0.  1.
         23    2    1    0    0    0  0.29375794407E+02  0.86707431666E+01  0.14670716417E+02  0.91039007607E+02  0.84467460609E+02 0.  0.
         11    1    3    3    0    0  0.45353861977E+02  0.68858748996E+01 -0.22090797381E+02  0.50915531997E+02  0.51100000000E-03 0. -1.
         22    1    1    0    0    0 -0.29375794407E+02 -0.86707431666E+01 -0.14670716417E+02  0.33960992393E+02  0.00000000000E+00 0.  1.
</event>
<event>
 5    1  0.8752570E-005  0.9118800E+02  0.7818608E-02  0.1130116E+00
         25   -1    0    0    0    0  0.00000000000E+00  0.00000000000E+00  0.99999998245E-14  0.12500000000E+03  0.12500000000E+03 0.  0.
        -11    1    3    3    0    0  0.23749879588E+02  0.33270245639E+02 -0.82008592459E+01  0.41691967068E+02  0.51100000000E-03 0. -1.
         23    2    1    0    0    0  0.19805515535E+02 -0.18311207319E+02  0.95519361757E+01  0.96385349141E+02  0.92039867911E+02 0.  0.
         11    1    3    3    0    0 -0.39443640529E+01 -0.51581452958E+02  0.17752795422E+02  0.54693382073E+02  0.51100000000E-03 0.  1.
         22    1    1    0    0    0 -0.19805515535E+02  0.18311207319E+02 -0.95519361757E+01  0.28614650859E+02  0.00000000000E+00 0.  1.
</event>
<event>
 5    1  0.8752570E-005  0.9118800E+02  0.7818608E-02  0.1130116E+00
         25   -1    0    0    0    0  0.00000000000E+00  0.00000000000E+00  0.99999998245E-14  0.12500000000E+03  0.12500000000E+03 0.  0.
        -11    1    3    3    0    0  0.12315121124E+02  0.23270498526E+02 -0.55998129678E+02  0.61878662217E+02  0.51100000000E-03 0.  1.
         23    2    1    0    0    0  0.89927613597E+01  0.13992493415E+02 -0.21152135282E+02  0.98091405540E+02  0.94328422996E+02 0.  0.
         11    1    3    3    0    0 -0.33223597648E+01 -0.92780051111E+01  0.34845994396E+02  0.36212743323E+02  0.51100000000E-03 0. -1.
         22    1    1    0    0    0 -0.89927613597E+01 -0.13992493415E+02  0.21152135282E+02  0.26908594460E+02  0.00000000000E+00 0.  1.
</event>
<event>
 5    1  0.8752570E-005  0.9118800E+02  0.7818608E-02  0.1130116E+00
         25   -1    0    0    0    0  0.00000000000E+00  0.00000000000E+00  0.99999998245E-14  0.12500000000E+03  0.12500000000E+03 0.  0.
        -11    1    3    3    0    0 -0.27183000822E+02 -0.11124157629E+01  0.17391091300E+02  0.32289364493E+02  0.51100000000E-03 0.  1.
         23    2    1    0    0    0  0.28446051164E+02  0.66759134436E+01 -0.91034087721E+01  0.94395789531E+02  0.89296961778E+02 0.  0.
         11    1    3    3    0    0  0.55629051986E+02  0.77883292065E+01 -0.26494500072E+02  0.62106425038E+02  0.51100000000E-03 0. -1.
         22    1    1    0    0    0 -0.28446051164E+02 -0.66759134436E+01  0.91034087721E+01  0.30604210469E+02  0.00000000000E+00 0. -1.
</event>
<event>
 5    1  0.8752570E-005  0.9118800E+02  0.7818608E-02  0.1130116E+00
         25   -1    0    0    0    0  0.00000000000E+00  0.00000000000E+00  0.99999998245E-14  0.12500000000E+03  0.12500000000E+03 0.  0.
        -11    1    3    3    0    0  0.60165244198E+02  0.51902684841E+01 -0.11213849759E+02  0.61421054395E+02  0.51100000000E-03 0.  1.
         23    2    1    0    0    0  0.27343806001E+02 -0.30717158582E+01 -0.11267894151E+02  0.95266439777E+02  0.90507513192E+02 0.  0.
         11    1    3    3    0    0 -0.32821438197E+02 -0.82619843424E+01 -0.54044391838E-01  0.33845385382E+02  0.51100000000E-03 0. -1.
         22    1    1    0    0    0 -0.27343806001E+02  0.30717158582E+01  0.11267894151E+02  0.29733560223E+02  0.00000000000E+00 0.  1.
</event>
<event>
 5    1  0.8752570E-005  0.9118800E+02  0.7818608E-02  0.1130116E+00
         25   -1    0    0    0    0  0.00000000000E+00  0.00000000000E+00  0.99999998245E-14  0.12500000000E+03  0.12500000000E+03 0.  0.
        -11    1    3    3    0    0 -0.19975467278E+01 -0.12785828029E+02  0.47053141568E+02  0.48800263555E+02  0.51100000000E-03 0.  1.
         23    2    1    0    0    0  0.63987946401E+01 -0.30061405808E+02  0.66252506501E+01  0.93559156529E+02  0.88118040902E+02 0.  0.
         11    1    3    3    0    0  0.83963413679E+01 -0.17275577778E+02 -0.40427890918E+02  0.44758892974E+02  0.51100000000E-03 0. -1.
         22    1    1    0    0    0 -0.63987946401E+01  0.30061405808E+02 -0.66252506501E+01  0.31440843471E+02  0.00000000000E+00 0.  1.
</event>
<event>
 5    1  0.8752570E-005  0.9118800E+02  0.7818608E-02  0.1130116E+00
         25   -1    0    0    0    0  0.00000000000E+00  0.00000000000E+00  0.99999998245E-14  0.12500000000E+03  0.12500000000E+03 0.  0.
        -11    1    3    3    0    0 -0.23286854715E+02  0.18130878793E+02  0.32255580792E+02  0.43719890906E+02  0.51100000000E-03 0.  1.
         23    2    1    0    0    0 -0.19123012434E+02 -0.18762986722E+02 -0.65438137910E+01  0.97421733662E+02  0.93436788341E+02 0.  0.
         11    1    3    3    0    0  0.41638422808E+01 -0.36893865514E+02 -0.38799394583E+02  0.53701842756E+02  0.51100000000E-03 0. -1.
         22    1    1    0    0    0  0.19123012434E+02  0.18762986722E+02  0.65438137910E+01  0.27578266338E+02  0.00000000000E+00 0. -1.
</event>
<event>
 5    1  0.8752570E-005  0.9118800E+02  0.7818608E-02  0.1130116E+00
         25   -1    0    0    0    0  0.00000000000E+00  0.00000000000E+00  0.99999998245E-14  0.12500000000E+03  0.12500000000E+03 0.  0.
        -11    1    3    3    0    0  0.16795865203E+02 -0.37745898735E+02 -0.41514819556E+02  0.58569054989E+02  0.51100000000E-03 0. -1.
         23    2    1    0    0    0  0.67352498646E+01 -0.28333461188E+02 -0.80104990345E+01  0.94795419083E+02  0.89854631326E+02 0.  0.
         11    1    3    3    0    0 -0.10060615339E+02  0.94124375477E+01  0.33504320521E+02  0.36226364094E+02  0.51100000000E-03 0.  1.
         22    1    1    0    0    0 -0.67352498646E+01  0.28333461188E+02  0.80104990345E+01  0.30204580917E+02  0.00000000000E+00 0. -1.
</event>
<event>
 5    1  0.8752570E-005  0.9118800E+02  0.7818608E-02  0.1130116E+00
         25   -1    0    0    0    0  0.00000000000E+00  0.00000000000E+00  0.99999998245E-14  0.12500000000E+03  0.12500000000E+03 0.  0.
        -11    1    3    3    0    0  0.16816865902E+02  0.31407003756E+02 -0.13087145865E+02  0.37953659255E+02  0.51100000000E-03 0.  1.
         23    2    1    0    0    0 -0.26677941834E+02 -0.65281228999E+01  0.15390464465E+01  0.97491862421E+02  0.93530559739E+02 0.  0.
         11    1    3    3    0    0 -0.43494807736E+02 -0.37935126656E+02  0.14626192312E+02  0.59538203166E+02  0.51100000000E-03 0. -1.
         22    1    1    0    0    0  0.26677941834E+02  0.65281228999E+01 -0.15390464465E+01  0.27508137579E+02  0.00000000000E+00 0. -1.
</event>
<event>
 5    1  0.8752570E-005  0.9118800E+02  0.7818608E-02  0.1130116E+00
         25   -1    0    0    0    0  0.00000000000E+00  0.00000000000E+00  0.99999998245E-14  0.12500000000E+03  0.12500000000E+03 0.  0.
        -11    1    3    3    0    0 -0.23199254939E+02  0.48716841209E+02 -0.64672435123E+01  0.54344836793E+02  0.51100000000E-03 0.  1.
         23    2    1    0    0    0  0.11025879815E+02  0.27425594951E+02  0.13797344865E+01  0.95408836600E+02  0.90703964356E+02 0.  0.
         11    1    3    3    0    0  0.34225134754E+02 -0.21291246258E+02  0.78469779988E+01  0.41063999807E+02  0.51100000000E-03 0. -1.
         22    1    1    0    0    0 -0.11025879815E+02 -0.27425594951E+02 -0.13797344865E+01  0.29591163400E+02  0.00000000000E+00 0. -1.
</event>
<event>
 5    1  0.8752570E-005  0.9118800E+02  0.7818608E-02  0.1130116E+00
         25   -1    0    0    0    0  0.00000000000E+00  0.00000000000E+00  0.99999998245E-14  0.12500000000E+03  0.12500000000E+03 0.  0.
        -11    1    3    3    0    0  0.24791394088E+02  0.53302692603E+02  0.13721529466E+02  0.60366138113E+02  0.51100000000E-03 0. -1.
         23    2    1    0    0    0  0.18987180768E+02  0.20961404832E+02  0.14466369995E+02  0.93232573493E+02  0.87653541705E+02 0.  0.
         11    1    3    3    0    0 -0.58042133201E+01 -0.32341287771E+02  0.74484052827E+00  0.32866435380E+02  0.51100000000E-03 0.  1.
         22    1    1    0    0    0 -0.18987180768E+02 -0.20961404832E+02 -0.14466369995E+02  0.31767426507E+02  0.00000000000E+00 0. -1.
</event>
<event>
 5    1  0.8752570E-005  0.9118800E+02  0.7818608E-02  0.1130116E+00
         25   -1    0    0    0    0  0.00000000000E+00  0.00000000000E+00  0.99999998245E-14  0.12500000000E+03  0.12500000000E+03 0.  0.
        -11    1    3    3    0    0  0.12565879214E+02  0.81074663963E+01  0.34826861442E+02  0.37901749431E+02  0.51100000000E-03 0. -1.
         23    2    1    0    0    0 -0.26480130713E+00 -0.32971126733E+02  0.28534609157E+02  0.81395077829E+02  0.68729683960E+02 0.  0.
         11    1    3    3    0    0 -0.12830680521E+02 -0.41078593129E+02 -0.62922522845E+01  0.43493328398E+02  0.51100000000E-03 0.  1.
         22    1    1    0    0    0  0.26480130713E+00  0.32971126733E+02 -0.28534609157E+02  0.43604922171E+02  0.00000000000E+00 0.  1.
</event>
<event>
 5    1  0.8752570E-005  0.9118800E+02  0.7818608E-02  0.1130116E+00
         25   -1    0    0    0    0  0.00000000000E+00  0.00000000000E+00  0.99999998245E-14  0.12500000000E+03  0.12500000000E+03 0.  0.
        -11    1    3    3    0    0  0.52323505942E+01 -0.56204305158E+02 -0.15591030811E+02  0.58560922577E+02  0.51100000000E-03 0. -1.
         23    2    1    0    0    0 -0.10281600570E+02 -0.20976265378E+02 -0.15337252937E+02  0.97054582717E+02  0.92944314937E+02 0.  0.
         11    1    3    3    0    0 -0.15513951164E+02  0.35228039780E+02  0.25377787427E+00  0.38493660140E+02  0.51100000000E-03 0.  1.
         22    1    1    0    0    0  0.10281600570E+02  0.20976265378E+02  0.15337252937E+02  0.27945417283E+02  0.00000000000E+00 0. -1.
</event>
<event>
 5    1  0.8752570E-005  0.9118800E+02  0.7818608E-02  0.1130116E+00
         25   -1    0    0    0    0  0.00000000000E+00  0.00000000000E+00  0.99999998245E-14  0.12500000000E+03  0.12500000000E+03 0.  0.
        -11    1    3    3    0    0 -0.13638799676E+02  0.10775305263E+02  0.39611871277E+02  0.43257651421E+02  0.51100000000E-03 0. -1.
         23    2    1    0    0    0  0.10046325959E+02 -0.24494732365E+02  0.49992689454E+01  0.98057222324E+02  0.94283113976E+02 0.  0.
         11    1    3    3    0    0  0.23685125635E+02 -0.35270037628E+02 -0.34612602332E+02  0.54799570903E+02  0.51100000000E-03 0.  1.
         22    1    1    0    0    0 -0.10046325959E+02  0.24494732365E+02 -0.49992689454E+01  0.26942777676E+02  0.00000000000E+00 0.  1.
</event>
<event>
 5    1  0.8752570E-005  0.9118800E+02  0.7818608E-02  0.1130116E+00
         25   -1    0    0    0    0  0.00000000000E+00  0.00000000000E+00  0.99999998245E-14  0.12500000000E+03  0.12500000000E+03 0.  0.
        -11    1    3    3    0    0 -0.45561270503E+02 -0.62638277188E+01  0.17130858132E+02  0.49076788894E+02  0.51100000000E-03 0.  1.
         23    2    1    0    0    0 -0.19349855831E+02 -0.35940608196E+01 -0.21509885891E+02  0.95845079576E+02  0.91303175706E+02 0.  0.
         11    1    3    3    0    0  0.26211414671E+02  0.26697668992E+01 -0.38640744024E+02  0.46768290682E+02  0.51100000000E-03 0. -1.
         22    1    1    0    0    0  0.19349855831E+02  0.35940608196E+01  0.21509885891E+02  0.29154920424E+02  0.00000000000E+00 0. -1.
</event>
<event>
 5    1  0.8752570E-005  0.9118800E+02  0.7818608E-02  0.1130116E+00
         25   -1    0    0    0    0  0.00000000000E+00  0.00000000000E+00  0.99999998245E-14  0.12500000000E+03  0.12500000000E+03 0.  0.
        -11    1    3    3    0    0  0.28168076353E+02  0.42361753612E+01 -0.53210029484E+02  0.60354725955E+02  0.51100000000E-03 0. -1.
         23    2    1    0    0    0  0.23056553705E+02  0.51779760729E+00 -0.19071472249E+02  0.95073526155E+02  0.90240686714E+02 0.  0.
         11    1    3    3    0    0 -0.51115226488E+01 -0.37183777540E+01  0.34138557236E+02  0.34718800200E+02  0.51100000000E-03 0.  1.
         22    1    1    0    0    0 -0.23056553705E+02 -0.51779760729E+00  0.19071472249E+02  0.29926473845E+02  0.00000000000E+00 0. -1.
</event>
<event>
 5    1  0.8752570E-005  0.9118800E+02  0.7818608E-02  0.1130116E+00
         25   -1    0    0    0    0  0.00000000000E+00  0.00000000000E+00  0.99999998245E-14  0.12500000000E+03  0.12500000000E+03 0.  0.
        -11    1    3    3    0    0 -0.21391503576E+02  0.28840817101E+00  0.51655480215E+02  0.55910358977E+02  0.51100000000E-03 0.  1.
         23    2    1    0    0    0  0.10047729581E+02  0.52865282385E+01  0.25411404651E+02  0.97167577596E+02  0.93096156735E+02 0.  0.
         11    1    3    3    0    0  0.31439233156E+02  0.49981200675E+01 -0.26244075563E+02  0.41257218618E+02  0.51100000000E-03 0. -1.
         22    1    1    0    0    0 -0.10047729581E+02 -0.52865282385E+01 -0.25411404651E+02  0.27832422404E+02  0.00000000000E+00 0.  1.
</event>
<event>
 5    1  0.8752570E-005  0.9118800E+02  0.7818608E-02  0.1130116E+00
         25   -1    0    0    0    0  0.00000000000E+00  0.00000000000E+00  0.99999998245E-14  0.12500000000E+03  0.12500000000E+03 0.  0.
        -11    1    3    3    0    0  0.33180630782E+02 -0.20013857200E+02 -0.63526430950E+01  0.39266586478E+02  0.51100000000E-03 0. -1.
         23    2    1    0    0    0 -0.23390831343E+02 -0.16217135404E+02 -0.57166000672E+01  0.95968878975E+02  0.91472508131E+02 0.  0.
         11    1    3    3    0    0 -0.56571462125E+02  0.37967217961E+01  0.63604302786E+00  0.56702292497E+02  0.51100000000E-03 0.  1.
         22    1    1    0    0    0  0.23390831343E+02  0.16217135404E+02  0.57166000672E+01  0.29031121025E+02  0.00000000000E+00 0.  1.
</event>
<event>
 5    1  0.8752570E-005  0.9118800E+02  0.7818608E-02  0.1130116E+00
         25   -1    0    0    0    0  0.00000000000E+00  0.00000000000E+00  0.99999998245E-14  0.12500000000E+03  0.12500000000E+03 0.  0.
        -11    1    3    3    0    0  0.30939597851E+02  0.64698006682E+01  0.29214743310E+02  0.43042052261E+02  0.51100000000E-03 0.  1.
         23    2    1    0    0    0  0.15003132859E+02  0.14198770377E+02 -0.20548553320E+02  0.95863388678E+02  0.91328238621E+02 0.  0.
         11    1    3    3    0    0 -0.15936464993E+02  0.77289697086E+01 -0.49763296630E+02  0.52821336417E+02  0.51100000000E-03 0. -1.
         22    1    1    0    0    0 -0.15003132859E+02 -0.14198770377E+02  0.20548553320E+02  0.29136611322E+02  0.00000000000E+00 0.  1.
</event>
<event>
 5    1  0.8752570E-005  0.9118800E+02  0.7818608E-02  0.1130116E+00
         25   -1    0    0    0    0  0.00000000000E+00  0.00000000000E+00  0.99999998245E-14  0.12500000000E+03  0.12500000000E+03 0.  0.
        -11    1    3    3    0    0  0.38459723606E+02 -0.39758188455E+01  0.47890653755E+02  0.61550566144E+02  0.51100000000E-03 0.  1.
         23    2    1    0    0    0  0.18571920680E+02  0.57951962160E+01  0.21787453439E+02  0.95790520986E+02  0.91228450861E+02 0.  0.
         11    1    3    3    0    0 -0.19887802926E+02  0.97710150615E+01 -0.26103200316E+02  0.34239954842E+02  0.51100000000E-03 0. -1.
         22    1    1    0    0    0 -0.18571920680E+02 -0.57951962160E+01 -0.21787453439E+02  0.29209479014E+02  0.00000000000E+00 0.  1.
</event>
<event>
 5    1  0.8752570E-005  0.9118800E+02  0.7818608E-02  0.1130116E+00
         25   -1    0    0    0    0  0.00000000000E+00  0.00000000000E+00  0.99999998245E-14  0.12500000000E+03  0.12500000000E+03 0.  0.
        -11    1    3    3    0    0  0.36794977068E+02  0.14885462686E+02  0.24622702042E+02  0.46708936971E+02  0.51100000000E-03 0.  1.
         23    2    1    0    0    0  0.14665458075E+02  0.17528971044E+02 -0.18727385151E+02  0.95452488413E+02  0.90764101401E+02 0.  0.
         11    1    3    3    0    0 -0.22129518993E+02  0.26435083576E+01 -0.43350087192E+02  0.48743551442E+02  0.51100000000E-03 0. -1.
         22    1    1    0    0    0 -0.14665458075E+02 -0.17528971044E+02  0.18727385151E+02  0.29547511587E+02  0.00000000000E+00 0. -1.
</event>
<event>
 5    1  0.8752570E-005  0.9118800E+02  0.7818608E-02  0.1130116E+00
         25   -1    0    0    0    0  0.00000000000E+00  0.00000000000E+00  0.99999998245E-14  0.12500000000E+03  0.12500000000E+03 0.  0.
        -11    1    3    3    0    0  0.89611151411E+01  0.15678111803E+02 -0.44689208060E+02  0.48199897215E+02  0.51100000000E-03 0.  1.
         23    2    1    0    0    0 -0.10910426094E+02  0.27278065711E+02 -0.34564555657E+01  0.95418293633E+02  0.90716996248E+02 0.  0.
         11    1    3    3    0    0 -0.19871541236E+02  0.11599953908E+02  0.41232752494E+02  0.47218396418E+02  0.51100000000E-03 0. -1.
         22    1    1    0    0    0  0.10910426094E+02 -0.27278065711E+02  0.34564555657E+01  0.29581706367E+02  0.00000000000E+00 0.  1.
</event>
<event>
 5    1  0.8752570E-005  0.9118800E+02  0.7818608E-02  0.1130116E+00
         25   -1    0    0    0    0  0.00000000000E+00  0.00000000000E+00  0.99999998245E-14  0.12500000000E+03  0.12500000000E+03 0.  0.
        -11    1    3    3    0    0 -0.31348492924E+02  0.14564674295E+02  0.14700934988E+02  0.37562950306E+02  0.51100000000E-03 0.  1.
         23    2    1    0    0    0 -0.32988495866E+01 -0.18380492586E+02 -0.23293295821E+02  0.95145309472E+02  0.90340065132E+02 0.  0.
         11    1    3    3    0    0  0.28049643337E+02 -0.32945166881E+02 -0.37994230809E+02  0.57582359166E+02  0.51100000000E-03 0. -1.
         22    1    1    0    0    0  0.32988495866E+01  0.18380492586E+02  0.23293295821E+02  0.29854690528E+02  0.00000000000E+00 0. -1.
</event>
<event>
 5    1  0.8752570E-005  0.9118800E+02  0.7818608E-02  0.1130116E+00
         25   -1    0    0    0    0  0.00000000000E+00  0.00000000000E+00  0.99999998245E-14  0.12500000000E+03  0.12500000000E+03 0.  0.
        -11    1    3    3    0    0 -0.35959938215E+02 -0.12149485569E+02  0.44370855414E+02  0.58390923665E+02  0.51100000000E-03 0. -1.
         23    2    1    0    0    0 -0.28746947040E+02 -0.34975920217E+01  0.10319016506E+02  0.94257485208E+02  0.89103149787E+02 0.  0.
         11    1    3    3    0    0  0.72129911754E+01  0.86518935472E+01 -0.34051838908E+02  0.35866561543E+02  0.51100000000E-03 0.  1.
         22    1    1    0    0    0  0.28746947040E+02  0.34975920217E+01 -0.10319016506E+02  0.30742514792E+02  0.00000000000E+00 0. -1.
</event>
<event>
 5    1  0.8752570E-005  0.9118800E+02  0.7818608E-02  0.1130116E+00
         25   -1    0    0    0    0  0.00000000000E+00  0.00000000000E+00  0.99999998245E-14  0.12500000000E+03  0.12500000000E+03 0.  0.
        -11    1    3    3    0    0 -0.29370673221E+02 -0.28052976705E+02 -0.76148404248E+01  0.41323017102E+02  0.51100000000E-03 0.  1.
         23    2    1    0    0    0  0.58707048218E-01  0.14160555686E+02 -0.25524979959E+02  0.95810115010E+02  0.91255294380E+02 0.  0.
         11    1    3    3    0    0  0.29429380270E+02  0.42213532391E+02 -0.17910139534E+02  0.54487097907E+02  0.51100000000E-03 0. -1.
         22    1    1    0    0    0 -0.58707048218E-01 -0.14160555686E+02  0.25524979959E+02  0.29189884990E+02  0.00000000000E+00 0. -1.
</event>
<event>
 5    1  0.8752570E-005  0.9118800E+02  0.7818608E-02  0.1130116E+00
         25   -1    0    0    0    0  0.00000000000E+00  0.00000000000E+00  0.99999998245E-14  0.12500000000E+03  0.12500000000E+03 0.  0.
        -11    1    3    3    0    0 -0.15610424727E+00 -0.40942439025E+02  0.12722311047E+02  0.42873825120E+02  0.51100000000E-03 0. -1.
         23    2    1    0    0    0 -0.15203203383E+02 -0.79343974111E+01 -0.24659518002E+02  0.94963623996E+02  0.90088323321E+02 0.  0.
         11    1    3    3    0    0 -0.15047099136E+02  0.33008041614E+02 -0.37381829049E+02  0.52089798875E+02  0.51100000000E-03 0.  1.
         22    1    1    0    0    0  0.15203203383E+02  0.79343974111E+01  0.24659518002E+02  0.30036376004E+02  0.00000000000E+00 0.  1.
</event>
<event>
 5    1  0.8752570E-005  0.9118800E+02  0.7818608E-02  0.1130116E+00
         25   -1    0    0    0    0  0.00000000000E+00  0.00000000000E+00  0.99999998245E-14  0.12500000000E+03  0.12500000000E+03 0.  0.
        -11    1    3    3    0    0  0.39854053078E+02 -0.43825622604E+02  0.18335398189E+02  0.62009818338E+02  0.51100000000E-03 0.  1.
         23    2    1    0    0    0  0.24182918847E+02 -0.22070701583E+02  0.52598574401E+01  0.91839850232E+02  0.85644395953E+02 0.  0.
         11    1    3    3    0    0 -0.15671134231E+02  0.21754921021E+02 -0.13075540749E+02  0.29830031894E+02  0.51100000000E-03 0. -1.
         22    1    1    0    0    0 -0.24182918847E+02  0.22070701583E+02 -0.52598574401E+01  0.33160149768E+02  0.00000000000E+00 0.  1.
</event>
<event>
 5    1  0.8752570E-005  0.9118800E+02  0.7818608E-02  0.1130116E+00
         25   -1    0    0    0    0  0.00000000000E+00  0.00000000000E+00  0.99999998245E-14  0.12500000000E+03  0.12500000000E+03 0.  0.
        -11    1    3    3    0    0  0.31888192375E+02  0.35229521569E+02  0.32616571122E+02  0.57635203782E+02  0.51100000000E-03 0.  1.
         23    2    1    0    0    0  0.94248813568E+01  0.32715606805E+02  0.28476465614E+02  0.80614772604E+02  0.67295565611E+02 0.  0.
         11    1    3    3    0    0 -0.22463311019E+02 -0.25139147647E+01 -0.41401055078E+01  0.22979568822E+02  0.51100000000E-03 0. -1.
         22    1    1    0    0    0 -0.94248813568E+01 -0.32715606805E+02 -0.28476465614E+02  0.44385227396E+02  0.00000000000E+00 0.  1.
</event>
<event>
 5    1  0.8752570E-005  0.9118800E+02  0.7818608E-02  0.1130116E+00
         25   -1    0    0    0    0  0.00000000000E+00  0.00000000000E+00  0.99999998245E-14  0.12500000000E+03  0.12500000000E+03 0.  0.
        -11    1    3    3    0    0 -0.22329069411E+02  0.26342357356E+01 -0.26107604260E+02  0.34454804297E+02  0.51100000000E-03 0. -1.
         23    2    1    0    0    0  0.21560181176E+02 -0.14071341955E+02  0.13536898613E+02  0.95912344529E+02  0.91395219417E+02 0.  0.
         11    1    3    3    0    0  0.43889250587E+02 -0.16705577690E+02  0.39644502873E+02  0.61457540232E+02  0.51100000000E-03 0.  1.
         22    1    1    0    0    0 -0.21560181176E+02  0.14071341955E+02 -0.13536898613E+02  0.29087655471E+02  0.00000000000E+00 0.  1.
</event>
<event>
 5    1  0.8752570E-005  0.9118800E+02  0.7818608E-02  0.1130116E+00
         25   -1    0    0    0    0  0.00000000000E+00  0.00000000000E+00  0.99999998245E-14  0.12500000000E+03  0.12500000000E+03 0.  0.
        -11    1    3    3    0    0  0.24218823236E+02  0.27629198028E+02 -0.11060477058E+02  0.38370016101E+02  0.51100000000E-03 0. -1.
         23    2    1    0    0    0 -0.13010250503E+02 -0.70259152326E+01 -0.29118107303E+02  0.92342776053E+02  0.86375309049E+02 0.  0.
         11    1    3    3    0    0 -0.37229073739E+02 -0.34655113260E+02 -0.18057630244E+02  0.53972759952E+02  0.51100000000E-03 0.  1.
         22    1    1    0    0    0  0.13010250503E+02  0.70259152326E+01  0.29118107303E+02  0.32657223947E+02  0.00000000000E+00 0.  1.
</event>
<event>
 5    1  0.8752570E-005  0.9118800E+02  0.7818608E-02  0.1130116E+00
         25   -1    0    0    0    0  0.00000000000E+00  0.00000000000E+00  0.99999998245E-14  0.12500000000E+03  0.12500000000E+03 0.  0.
        -11    1    3    3    0    0  0.49833030910E+02 -0.21844486684E+02 -0.27030146255E+02  0.60754764217E+02  0.51100000000E-03 0.  1.
         23    2    1    0    0    0  0.25657322040E+02 -0.14639444999E+02 -0.34972003572E+01  0.95253707215E+02  0.90489926531E+02 0.  0.
         11    1    3    3    0    0 -0.24175708871E+02  0.72050416846E+01  0.23532945898E+02  0.34498942998E+02  0.51100000000E-03 0. -1.
         22    1    1    0    0    0 -0.25657322040E+02  0.14639444999E+02  0.34972003572E+01  0.29746292785E+02  0.00000000000E+00 0.  1.
</event>
<event>
 5    1  0.8752570E-005  0.9118800E+02  0.7818608E-02  0.1130116E+00
         25   -1    0    0    0    0  0.00000000000E+00  0.00000000000E+00  0.99999998245E-14  0.12500000000E+03  0.12500000000E+03 0.  0.
        -11    1    3    3    0    0 -0.37185740405E+02 -0.24581040099E+02  0.25635639235E+01  0.44649509314E+02  0.51100000000E-03 0. -1.
         23    2    1    0    0    0 -0.25966477533E+02  0.46832024572E+01 -0.26652333221E+02  0.87496170771E+02  0.79050886730E+02 0.  0.
         11    1    3    3    0    0  0.11219262872E+02  0.29264242556E+02 -0.29215897144E+02  0.42846661457E+02  0.51100000000E-03 0.  1.
         22    1    1    0    0    0  0.25966477533E+02 -0.46832024572E+01  0.26652333221E+02  0.37503829229E+02  0.00000000000E+00 0.  1.
</event>
<event>
 5    1  0.8752570E-005  0.9118800E+02  0.7818608E-02  0.1130116E+00
         25   -1    0    0    0    0  0.00000000000E+00  0.00000000000E+00  0.99999998245E-14  0.12500000000E+03  0.12500000000E+03 0.  0.
        -11    1    3    3    0    0  0.37309419120E+02 -0.25241788225E+01  0.44978595317E+01  0.37664239995E+02  0.51100000000E-03 0. -1.
         23    2    1    0    0    0 -0.14187133484E+02 -0.21178488126E+02 -0.14544611579E+02  0.95651254851E+02  0.91037430285E+02 0.  0.
         11    1    3    3    0    0 -0.51496552604E+02 -0.18654309304E+02 -0.19042471111E+02  0.57987014856E+02  0.51100000000E-03 0.  1.
         22    1    1    0    0    0  0.14187133484E+02  0.21178488126E+02  0.14544611579E+02  0.29348745149E+02  0.00000000000E+00 0.  1.
</event>
<event>
 5    1  0.8752570E-005  0.9118800E+02  0.7818608E-02  0.1130116E+00
         25   -1    0    0    0    0  0.00000000000E+00  0.00000000000E+00  0.99999998245E-14  0.12500000000E+03  0.12500000000E+03 0.  0.
        -11    1    3    3    0    0 -0.61272119180E+01 -0.50580422084E+02 -0.24345848014E+02  0.56468063008E+02  0.51100000000E-03 0.  1.
         23    2    1    0    0    0 -0.17983462209E+02 -0.89458118687E+01 -0.31484666201E+01  0.10466910467E+03  0.10267558700E+03 0.  0.
         11    1    3    3    0    0 -0.11856250291E+02  0.41634610215E+02  0.21197381394E+02  0.48201041658E+02  0.51100000000E-03 0. -1.
         22    1    1    0    0    0  0.17983462209E+02  0.89458118687E+01  0.31484666201E+01  0.20330895334E+02  0.00000000000E+00 0.  1.
</event>
<event>
 5    1  0.8752570E-005  0.9118800E+02  0.7818608E-02  0.1130116E+00
         25   -1    0    0    0    0  0.00000000000E+00  0.00000000000E+00  0.99999998245E-14  0.12500000000E+03  0.12500000000E+03 0.  0.
        -11    1    3    3    0    0 -0.65524722698E+01  0.34735722005E+02  0.14385397130E+01  0.35377601287E+02  0.51100000000E-03 0. -1.
         23    2    1    0    0    0  0.50847289792E+01 -0.19334448975E+02 -0.21845732155E+02  0.95387310163E+02  0.90674293716E+02 0.  0.
         11    1    3    3    0    0  0.11637201249E+02 -0.54070170980E+02 -0.23284271868E+02  0.60009708876E+02  0.51100000000E-03 0.  1.
         22    1    1    0    0    0 -0.50847289792E+01  0.19334448975E+02  0.21845732155E+02  0.29612689837E+02  0.00000000000E+00 0.  1.
</event>
<event>
 5    1  0.8752570E-005  0.9118800E+02  0.7818608E-02  0.1130116E+00
         25   -1    0    0    0    0  0.00000000000E+00  0.00000000000E+00  0.99999998245E-14  0.12500000000E+03  0.12500000000E+03 0.  0.
        -11    1    3    3    0    0 -0.30003891433E+02 -0.14442982113E+02  0.34175536829E+02  0.47715831243E+02  0.51100000000E-03 0.  1.
         23    2    1    0    0    0 -0.13594236124E+02  0.23962151028E+02  0.13962931269E+02  0.94113896534E+02  0.88901485553E+02 0.  0.
         11    1    3    3    0    0  0.16409655309E+02  0.38405133141E+02 -0.20212605560E+02  0.46398065291E+02  0.51100000000E-03 0. -1.
         22    1    1    0    0    0  0.13594236124E+02 -0.23962151028E+02 -0.13962931269E+02  0.30886103466E+02  0.00000000000E+00 0.  1.
</event>
<event>
 5    1  0.8752570E-005  0.9118800E+02  0.7818608E-02  0.1130116E+00
         25   -1    0    0    0    0  0.00000000000E+00  0.00000000000E+00  0.99999998245E-14  0.12500000000E+03  0.12500000000E+03 0.  0.
        -11    1    3    3    0    0 -0.19478619530E+02  0.36451993109E+02 -0.92980494136E+01  0.42362933604E+02  0.51100000000E-03 0. -1.
         23    2    1    0    0    0  0.15923467666E+02  0.17804622948E+02  0.21505155354E+02  0.92859167285E+02  0.87119411277E+02 0.  0.
         11    1    3    3    0    0  0.35402087196E+02 -0.18647370161E+02  0.30803204768E+02  0.50496233681E+02  0.51100000000E-03 0.  1.
         22    1    1    0    0    0 -0.15923467666E+02 -0.17804622948E+02 -0.21505155354E+02  0.32140832715E+02  0.00000000000E+00 0.  1.
</event>
<event>
 5    1  0.8752570E-005  0.9118800E+02  0.7818608E-02  0.1130116E+00
         25   -1    0    0    0    0  0.00000000000E+00  0.00000000000E+00  0.99999998245E-14  0.12500000000E+03  0.12500000000E+03 0.  0.
        -11    1    3    3    0    0 -0.83953020341E+01 -0.32675583953E+02 -0.19249078043E+02  0.38842011904E+02  0.51100000000E-03 0. -1.
         23    2    1    0    0    0  0.30051334937E+02  0.17509310797E+01  0.23909657916E+01  0.94802894037E+02  0.89865029401E+02 0.  0.
         11    1    3    3    0    0  0.38446636971E+02  0.34426515033E+02  0.21640043835E+02  0.55960882133E+02  0.51100000000E-03 0.  1.
         22    1    1    0    0    0 -0.30051334937E+02 -0.17509310797E+01 -0.23909657916E+01  0.30197105963E+02  0.00000000000E+00 0.  1.
</event>
<event>
 5    1  0.8752570E-005  0.9118800E+02  0.7818608E-02  0.1130116E+00
         25   -1    0    0    0    0  0.00000000000E+00  0.00000000000E+00  0.99999998245E-14  0.12500000000E+03  0.12500000000E+03 0.  0.
        -11    1    3    3    0    0  0.30973634630E+02  0.33805340057E+02 -0.16648953172E+01  0.45879613504E+02  0.51100000000E-03 0.  1.
         23    2    1    0    0    0 -0.11995156786E+02  0.15281943163E+02  0.19712656890E+02  0.97323106843E+02  0.93304751812E+02 0.  0.
         11    1    3    3    0    0 -0.42968791417E+02 -0.18523396894E+02  0.21377552207E+02  0.51443493339E+02  0.51100000000E-03 0. -1.
         22    1    1    0    0    0  0.11995156786E+02 -0.15281943163E+02 -0.19712656890E+02  0.27676893157E+02  0.00000000000E+00 0.  1.
</event>
<event>
 5    1  0.8752570E-005  0.9118800E+02  0.7818608E-02  0.1130116E+00
         25   -1    0    0    0    0  0.00000000000E+00  0.00000000000E+00  0.99999998245E-14  0.12500000000E+03  0.12500000000E+03 0.  0.
        -11    1    3    3    0    0 -0.27941019585E+02 -0.19403527259E+02  0.28902054638E+01  0.34140163055E+02  0.51100000000E-03 0. -1.
         23    2    1    0    0    0  0.17929835629E+02  0.15071938780E+02 -0.18264617710E+02  0.95297498349E+02  0.90550398051E+02 0.  0.
         11    1    3    3    0    0  0.45870855213E+02  0.34475466038E+02 -0.21154823173E+02  0.61157335294E+02  0.51100000000E-03 0.  1.
         22    1    1    0    0    0 -0.17929835629E+02 -0.15071938780E+02  0.18264617710E+02  0.29702501651E+02  0.00000000000E+00 0.  1.
</event>
<event>
 5    1  0.8752570E-005  0.9118800E+02  0.7818608E-02  0.1130116E+00
         25   -1    0    0    0    0  0.00000000000E+00  0.00000000000E+00  0.99999998245E-14  0.12500000000E+03  0.12500000000E+03 0.  0.
        -11    1    3    3    0    0  0.21955836504E+02  0.17807758257E+02  0.26038375123E+02  0.38433995239E+02  0.51100000000E-03 0. -1.
         23    2    1    0    0    0 -0.15944600396E+02  0.19023734221E+02 -0.16325784745E+02  0.95290338389E+02  0.90540513568E+02 0.  0.
         11    1    3    3    0    0 -0.37900436900E+02  0.12159759641E+01 -0.42364159868E+02  0.56856343150E+02  0.51100000000E-03 0.  1.
         22    1    1    0    0    0  0.15944600396E+02 -0.19023734221E+02  0.16325784745E+02  0.29709661611E+02  0.00000000000E+00 0.  1.
</event>
<event>
 5    1  0.8752570E-005  0.9118800E+02  0.7818608E-02  0.1130116E+00
         25   -1    0    0    0    0  0.00000000000E+00  0.00000000000E+00  0.99999998245E-14  0.12500000000E+03  0.12500000000E+03 0.  0.
        -11    1    3    3    0    0 -0.45599696080E+02 -0.23587807294E+01  0.30291797361E+02  0.54794973462E+02  0.51100000000E-03 0.  1.
         23    2    1    0    0    0 -0.21107053970E+02  0.20367514637E+02  0.94093819228E+01  0.94196106611E+02  0.89017002043E+02 0.  0.
         11    1    3    3    0    0  0.24492642110E+02  0.22726295366E+02 -0.20882415438E+02  0.39401133149E+02  0.51100000000E-03 0. -1.
         22    1    1    0    0    0  0.21107053970E+02 -0.20367514637E+02 -0.94093819228E+01  0.30803893389E+02  0.00000000000E+00 0.  1.
</event>
<event>
 5    1  0.8752570E-005  0.9118800E+02  0.7818608E-02  0.1130116E+00
         25   -1    0    0    0    0  0.00000000000E+00  0.00000000000E+00  0.99999998245E-14  0.12500000000E+03  0.12500000000E+03 0.  0.
        -11    1    3    3    0    0  0.13228199897E+02 -0.21243888299E+02  0.13938860352E+02  0.28645765669E+02  0.51100000000E-03 0. -1.
         23    2    1    0    0    0 -0.79289182171E+00  0.35749506779E+02 -0.10647661394E+01  0.89225852361E+02  0.81740217092E+02 0.  0.
         11    1    3    3    0    0 -0.14021091718E+02  0.56993395078E+02 -0.15003626492E+02  0.60580086692E+02  0.51100000000E-03 0.  1.
         22    1    1    0    0    0  0.79289182171E+00 -0.35749506779E+02  0.10647661394E+01  0.35774147639E+02  0.00000000000E+00 0.  1.
</event>
<event>
 5    1  0.8752570E-005  0.9118800E+02  0.7818608E-02  0.1130116E+00
         25   -1    0    0    0    0  0.00000000000E+00  0.00000000000E+00  0.99999998245E-14  0.12500000000E+03  0.12500000000E+03 0.  0.
        -11    1    3    3    0    0 -0.27691149805E+02 -0.10216645079E+02 -0.38093447605E+02  0.48190148006E+02  0.51100000000E-03 0. -1.
         23    2    1    0    0    0  0.31807266597E+00 -0.29236658462E+02 -0.53771726193E+01  0.95271270568E+02  0.90514184756E+02 0.  0.
         11    1    3    3    0    0  0.28009222471E+02 -0.19020013383E+02  0.32716274985E+02  0.47081122562E+02  0.51100000000E-03 0.  1.
         22    1    1    0    0    0 -0.31807266597E+00  0.29236658462E+02  0.53771726193E+01  0.29728729432E+02  0.00000000000E+00 0. -1.
</event>
<event>
 5    1  0.8752570E-005  0.9118800E+02  0.7818608E-02  0.1130116E+00
         25   -1    0    0    0    0  0.00000000000E+00  0.00000000000E+00  0.99999998245E-14  0.12500000000E+03  0.12500000000E+03 0.  0.
        -11    1    3    3    0    0  0.20252370664E+02  0.43728388536E+01  0.32069391784E+02  0.38180179764E+02  0.51100000000E-03 0. -1.
         23    2    1    0    0    0 -0.25868629691E+02 -0.28173771957E+01 -0.58612036824E+01  0.98326467708E+02  0.94639404726E+02 0.  0.
         11    1    3    3    0    0 -0.46121000355E+02 -0.71902160492E+01 -0.37930595467E+02  0.60146287943E+02  0.51100000000E-03 0.  1.
         22    1    1    0    0    0  0.25868629691E+02  0.28173771957E+01  0.58612036824E+01  0.26673532292E+02  0.00000000000E+00 0.  1.
</event>
<event>
 5    1  0.8752570E-005  0.9118800E+02  0.7818608E-02  0.1130116E+00
         25   -1    0    0    0    0  0.00000000000E+00  0.00000000000E+00  0.99999998245E-14  0.12500000000E+03  0.12500000000E+03 0.  0.
        -11    1    3    3    0    0  0.26841553227E+02  0.25801094465E+01  0.48902053974E+02  0.55843861144E+02  0.51100000000E-03 0. -1.
         23    2    1    0    0    0  0.20346812172E+02  0.17436207969E+02  0.13042342658E+02  0.95198711170E+02  0.90413924771E+02 0.  0.
         11    1    3    3    0    0 -0.64947410551E+01  0.14856098523E+02 -0.35859711316E+02  0.39354850026E+02  0.51100000000E-03 0.  1.
         22    1    1    0    0    0 -0.20346812172E+02 -0.17436207969E+02 -0.13042342658E+02  0.29801288830E+02  0.00000000000E+00 0. -1.
</event>
<event>
 5    1  0.8752570E-005  0.9118800E+02  0.7818608E-02  0.1130116E+00
         25   -1    0    0    0    0  0.00000000000E+00  0.00000000000E+00  0.99999998245E-14  0.12500000000E+03  0.12500000000E+03 0.  0.
        -11    1    3    3    0    0 -0.26630548655E+02 -0.24897325930E+02  0.18171714856E+02  0.40734189340E+02  0.51100000000E-03 0. -1.
         23    2    1    0    0    0 -0.20062910300E+01  0.22420238639E+02  0.21088043689E+02  0.94155261535E+02  0.88959627831E+02 0.  0.
         11    1    3    3    0    0  0.24624257625E+02  0.47317564569E+02  0.29163288329E+01  0.53421072195E+02  0.51100000000E-03 0.  1.
         22    1    1    0    0    0  0.20062910300E+01 -0.22420238639E+02 -0.21088043689E+02  0.30844738465E+02  0.00000000000E+00 0.  1.
</event>
<event>
 5    1  0.8752570E-005  0.9118800E+02  0.7818608E-02  0.1130116E+00
         25   -1    0    0    0    0  0.00000000000E+00  0.00000000000E+00  0.99999998245E-14  0.12500000000E+03  0.12500000000E+03 0.  0.
        -11    1    3    3    0    0 -0.39250055718E+01 -0.20319110995E+02 -0.34130781840E+02  0.39914686641E+02  0.51100000000E-03 0.  1.
         23    2    1    0    0    0 -0.15003247678E+02  0.21332995491E+02  0.53637867965E+01  0.98373615599E+02  0.94701657323E+02 0.  0.
         11    1    3    3    0    0 -0.11078242106E+02  0.41652106486E+02  0.39494568636E+02  0.58458928958E+02  0.51100000000E-03 0. -1.
         22    1    1    0    0    0  0.15003247678E+02 -0.21332995491E+02 -0.53637867965E+01  0.26626384401E+02  0.00000000000E+00 0. -1.
</event>
<event>
 5    1  0.8752570E-005  0.9118800E+02  0.7818608E-02  0.1130116E+00
         25   -1    0    0    0    0  0.00000000000E+00  0.00000000000E+00  0.99999998245E-14  0.12500000000E+03  0.12500000000E+03 0.  0.
        -11    1    3    3    0    0  0.34685669244E+02 -0.16209329788E+02 -0.49245025575E+02  0.62377163828E+02  0.51100000000E-03 0.  1.
         23    2    1    0    0    0  0.17588222049E+02 -0.57444866535E+01 -0.21014592891E+02  0.97000753651E+02  0.92871892479E+02 0.  0.
         11    1    3    3    0    0 -0.17097447195E+02  0.10464843135E+02  0.28230432684E+02  0.34623589823E+02  0.51100000000E-03 0. -1.
         22    1    1    0    0    0 -0.17588222049E+02  0.57444866535E+01  0.21014592891E+02  0.27999246349E+02  0.00000000000E+00 0.  1.
</event>
<event>
 5    1  0.8752570E-005  0.9118800E+02  0.7818608E-02  0.1130116E+00
         25   -1    0    0    0    0  0.00000000000E+00  0.00000000000E+00  0.99999998245E-14  0.12500000000E+03  0.12500000000E+03 0.  0.
        -11    1    3    3    0    0 -0.45042331235E+02 -0.20740328834E+02 -0.35868766903E+02  0.61200827467E+02  0.51100000000E-03 0. -1.
         23    2    1    0    0    0 -0.26638173011E+02 -0.39432528523E+01 -0.12692271151E+02  0.95230296418E+02  0.90457581796E+02 0.  0.
         11    1    3    3    0    0  0.18404158224E+02  0.16797075982E+02  0.23176495751E+02  0.34029468951E+02  0.51100000000E-03 0.  1.
         22    1    1    0    0    0  0.26638173011E+02  0.39432528523E+01  0.12692271151E+02  0.29769703582E+02  0.00000000000E+00 0. -1.
</event>
<event>
 5    1  0.8752570E-005  0.9118800E+02  0.7818608E-02  0.1130116E+00
         25   -1    0    0    0    0  0.00000000000E+00  0.00000000000E+00  0.99999998245E-14  0.12500000000E+03  0.12500000000E+03 0.  0.
        -11    1    3    3    0    0 -0.58065606791E+02 -0.92002236390E+01  0.61275642747E+01  0.59108424536E+02  0.51100000000E-03 0. -1.
         23    2    1    0    0    0 -0.25701221509E+02  0.71756536117E+01  0.11804361144E+02  0.95821485065E+02  0.91270867565E+02 0.  0.
         11    1    3    3    0    0  0.32364385282E+02  0.16375877251E+02  0.56767968695E+01  0.36713060528E+02  0.51100000000E-03 0.  1.
         22    1    1    0    0    0  0.25701221509E+02 -0.71756536117E+01 -0.11804361144E+02  0.29178514935E+02  0.00000000000E+00 0. -1.
</event>
<event>
 4    1  0.8752570E-005  0.9118800E+02  0.7818608E-02  0.1130116E+00
         25   -1    0    0    0    0  0.00000000000E+00  0.00000000000E+00  0.99999998245E-14  0.12500000000E+03  0.12500000000E+03 0.  0.
        -11    1    1    0    0    0 -0.24853145931E+02  0.36555067342E+02 -0.34358869913E+02  0.55986460443E+02  0.51100000000E-03 0. -1.
         11    1    1    0    0    0 -0.53102603089E+01 -0.88274897656E+01 -0.56487738445E+01  0.11748705729E+02  0.51100000000E-03 0.  1.
         22    1    1    0    0    0  0.30163406240E+02 -0.27727577576E+02  0.40007643757E+02  0.57264833827E+02  0.00000000000E+00 0. -1.
</event>
<event>
 5    1  0.8752570E-005  0.9118800E+02  0.7818608E-02  0.1130116E+00
         25   -1    0    0    0    0  0.00000000000E+00  0.00000000000E+00  0.99999998245E-14  0.12500000000E+03  0.12500000000E+03 0.  0.
        -11    1    3    3    0    0 -0.29412911636E+01 -0.32840364694E+02  0.45888188930E+01  0.33289608079E+02  0.51100000000E-03 0. -1.
         23    2    1    0    0    0 -0.16452495550E+01  0.29286546551E+02 -0.73856366133E+00  0.95657980110E+02  0.91046664010E+02 0.  0.
         11    1    3    3    0    0  0.12960416086E+01  0.62126911245E+02 -0.53273825543E+01  0.62368372031E+02  0.51100000000E-03 0.  1.
         22    1    1    0    0    0  0.16452495550E+01 -0.29286546551E+02  0.73856366133E+00  0.29342019890E+02  0.00000000000E+00 0.  1.
</event>
<event>
 5    1  0.8752570E-005  0.9118800E+02  0.7818608E-02  0.1130116E+00
         25   -1    0    0    0    0  0.00000000000E+00  0.00000000000E+00  0.99999998245E-14  0.12500000000E+03  0.12500000000E+03 0.  0.
        -11    1    3    3    0    0 -0.39308485433E+02  0.65893066119E+01  0.99964350088E+00  0.39869478001E+02  0.51100000000E-03 0.  1.
         23    2    1    0    0    0  0.58194129757E+01 -0.18993237855E+02  0.21572264706E+02  0.95674733486E+02  0.91069662190E+02 0.  0.
         11    1    3    3    0    0  0.45127898409E+02 -0.25582544467E+02  0.20572621205E+02  0.55805255485E+02  0.51100000000E-03 0. -1.
         22    1    1    0    0    0 -0.58194129757E+01  0.18993237855E+02 -0.21572264706E+02  0.29325266514E+02  0.00000000000E+00 0. -1.
</event>
<event>
 5    1  0.8752570E-005  0.9118800E+02  0.7818608E-02  0.1130116E+00
         25   -1    0    0    0    0  0.00000000000E+00  0.00000000000E+00  0.99999998245E-14  0.12500000000E+03  0.12500000000E+03 0.  0.
        -11    1    3    3    0    0 -0.14581387006E+02  0.16315303461E+02 -0.43744426417E+02  0.48911970077E+02  0.51100000000E-03 0. -1.
         23    2    1    0    0    0 -0.12165046414E+02  0.23073802202E+02  0.52190677690E+01  0.98398733663E+02  0.94734805726E+02 0.  0.
         11    1    3    3    0    0  0.24163405923E+01  0.67584987416E+01  0.48963494186E+02  0.49486763586E+02  0.51100000000E-03 0.  1.
         22    1    1    0    0    0  0.12165046414E+02 -0.23073802202E+02 -0.52190677690E+01  0.26601266337E+02  0.00000000000E+00 0. -1.
</event>
<event>
 5    1  0.8752570E-005  0.9118800E+02  0.7818608E-02  0.1130116E+00
         25   -1    0    0    0    0  0.00000000000E+00  0.00000000000E+00  0.99999998245E-14  0.12500000000E+03  0.12500000000E+03 0.  0.
        -11    1    3    3    0    0  0.26213587881E+02  0.34386335178E+02  0.22081371262E+01  0.43294897002E+02  0.51100000000E-03 0. -1.
         23    2    1    0    0    0 -0.22422324909E+02  0.16162408352E+02 -0.79971231817E+01  0.96226086862E+02  0.91823317930E+02 0.  0.
         11    1    3    3    0    0 -0.48635912790E+02 -0.18223926825E+02 -0.10205260308E+02  0.52931189861E+02  0.51100000000E-03 0.  1.
         22    1    1    0    0    0  0.22422324909E+02 -0.16162408352E+02  0.79971231817E+01  0.28773913138E+02  0.00000000000E+00 0. -1.
</event>
<event>
 5    1  0.8752570E-005  0.9118800E+02  0.7818608E-02  0.1130116E+00
         25   -1    0    0    0    0  0.00000000000E+00  0.00000000000E+00  0.99999998245E-14  0.12500000000E+03  0.12500000000E+03 0.  0.
        -11    1    3    3    0    0 -0.11562412487E+02 -0.18533570297E+02  0.40764345807E+02  0.46248399970E+02  0.51100000000E-03 0. -1.
         23    2    1    0    0    0 -0.32796918867E+01 -0.25633690907E+02 -0.93359368008E+01  0.97522696560E+02  0.93571759308E+02 0.  0.
         11    1    3    3    0    0  0.82827206006E+01 -0.71001206102E+01 -0.50100282607E+02  0.51274296590E+02  0.51100000000E-03 0.  1.
         22    1    1    0    0    0  0.32796918867E+01  0.25633690907E+02  0.93359368008E+01  0.27477303440E+02  0.00000000000E+00 0.  1.
</event>
<event>
 5    1  0.8752570E-005  0.9118800E+02  0.7818608E-02  0.1130116E+00
         25   -1    0    0    0    0  0.00000000000E+00  0.00000000000E+00  0.99999998245E-14  0.12500000000E+03  0.12500000000E+03 0.  0.
        -11    1    3    3    0    0 -0.24480342756E+02 -0.96165030777E+01 -0.30828664056E+02  0.40523707143E+02  0.51100000000E-03 0. -1.
         23    2    1    0    0    0  0.84677038294E+01 -0.26352971151E+02  0.99775332196E+01  0.95576671403E+02  0.90934964951E+02 0.  0.
         11    1    3    3    0    0  0.32948046586E+02 -0.16736468073E+02  0.40806197276E+02  0.55052964259E+02  0.51100000000E-03 0.  1.
         22    1    1    0    0    0 -0.84677038294E+01  0.26352971151E+02 -0.99775332196E+01  0.29423328597E+02  0.00000000000E+00 0.  1.
</event>
<event>
 5    1  0.8752570E-005  0.9118800E+02  0.7818608E-02  0.1130116E+00
         25   -1    0    0    0    0  0.00000000000E+00  0.00000000000E+00  0.99999998245E-14  0.12500000000E+03  0.12500000000E+03 0.  0.
        -11    1    3    3    0    0 -0.58464124864E+02 -0.93189747843E+01  0.21375056857E+01  0.59240747108E+02  0.51100000000E-03 0.  1.
         23    2    1    0    0    0 -0.28543232481E+02  0.79729891100E+01  0.80247939061E+01  0.94296873236E+02  0.89158388888E+02 0.  0.
         11    1    3    3    0    0  0.29920892382E+02  0.17291963894E+02  0.58872882204E+01  0.35056126128E+02  0.51100000000E-03 0. -1.
         22    1    1    0    0    0  0.28543232481E+02 -0.79729891100E+01 -0.80247939061E+01  0.30703126764E+02  0.00000000000E+00 0.  1.
</event>
<event>
 5    1  0.8752570E-005  0.9118800E+02  0.7818608E-02  0.1130116E+00
         25   -1    0    0    0    0  0.00000000000E+00  0.00000000000E+00  0.99999998245E-14  0.12500000000E+03  0.12500000000E+03 0.  0.
        -11    1    3    3    0    0  0.21251158284E+02 -0.23755484867E+02  0.16747745043E+02  0.36005857218E+02  0.51100000000E-03 0. -1.
         23    2    1    0    0    0 -0.30065606931E+02 -0.16096404634E+01 -0.16466502122E+01  0.94846341525E+02  0.89925443458E+02 0.  0.
         11    1    3    3    0    0 -0.51316765214E+02  0.22145844404E+02 -0.18394395255E+02  0.58840484307E+02  0.51100000000E-03 0.  1.
         22    1    1    0    0    0  0.30065606931E+02  0.16096404634E+01  0.16466502122E+01  0.30153658475E+02  0.00000000000E+00 0.  1.
</event>
<event>
 5    1  0.8752570E-005  0.9118800E+02  0.7818608E-02  0.1130116E+00
         25   -1    0    0    0    0  0.00000000000E+00  0.00000000000E+00  0.99999998245E-14  0.12500000000E+03  0.12500000000E+03 0.  0.
        -11    1    3    3    0    0 -0.13673935191E+02  0.10348919283E+02 -0.45615464892E+02  0.48732404737E+02  0.51100000000E-03 0.  1.
         23    2    1    0    0    0 -0.13776059701E+02 -0.23502015330E+02 -0.19163575200E+02  0.91692836207E+02  0.85429556079E+02 0.  0.
         11    1    3    3    0    0 -0.10212450994E+00 -0.33850934613E+02  0.26451889692E+02  0.42960431470E+02  0.51100000000E-03 0. -1.
         22    1    1    0    0    0  0.13776059701E+02  0.23502015330E+02  0.19163575200E+02  0.33307163793E+02  0.00000000000E+00 0.  1.
</event>
<event>
 5    1  0.8752570E-005  0.9118800E+02  0.7818608E-02  0.1130116E+00
         25   -1    0    0    0    0  0.00000000000E+00  0.00000000000E+00  0.99999998245E-14  0.12500000000E+03  0.12500000000E+03 0.  0.
        -11    1    3    3    0    0  0.19218917617E+02 -0.32829450202E+02 -0.10145155654E+02  0.39370849349E+02  0.51100000000E-03 0.  1.
         23    2    1    0    0    0 -0.26629763597E+02 -0.21498034180E+01  0.74306912489E+01  0.97269490874E+02  0.93232895045E+02 0.  0.
         11    1    3    3    0    0 -0.45848681214E+02  0.30679646784E+02  0.17575846903E+02  0.57898641525E+02  0.51100000000E-03 0. -1.
         22    1    1    0    0    0  0.26629763597E+02  0.21498034180E+01 -0.74306912489E+01  0.27730509126E+02  0.00000000000E+00 0. -1.
</event>
<event>
 5    1  0.8752570E-005  0.9118800E+02  0.7818608E-02  0.1130116E+00
         25   -1    0    0    0    0  0.00000000000E+00  0.00000000000E+00  0.99999998245E-14  0.12500000000E+03  0.12500000000E+03 0.  0.
        -11    1    3    3    0    0  0.48983688653E+01  0.31532465233E+02 -0.12912544685E+02  0.34424180335E+02  0.51100000000E-03 0.  1.
         23    2    1    0    0    0 -0.18394451974E+02 -0.19949453480E+02  0.10918711867E+02  0.95750131173E+02  0.91173092485E+02 0.  0.
         11    1    3    3    0    0 -0.23292820839E+02 -0.51481918713E+02  0.23831256553E+02  0.61325950838E+02  0.51100000000E-03 0. -1.
         22    1    1    0    0    0  0.18394451974E+02  0.19949453480E+02 -0.10918711867E+02  0.29249868827E+02  0.00000000000E+00 0. -1.
</event>
<event>
 5    1  0.8752570E-005  0.9118800E+02  0.7818608E-02  0.1130116E+00
         25   -1    0    0    0    0  0.00000000000E+00  0.00000000000E+00  0.99999998245E-14  0.12500000000E+03  0.12500000000E+03 0.  0.
        -11    1    3    3    0    0 -0.10267639971E+02  0.33769885964E+02  0.87919338711E+01  0.36374822750E+02  0.51100000000E-03 0.  1.
         23    2    1    0    0    0 -0.21268759848E+02 -0.22175840043E+02 -0.11481804005E+01  0.94251888752E+02  0.89095298350E+02 0.  0.
         11    1    3    3    0    0 -0.11001119877E+02 -0.55945726008E+02 -0.99401142716E+01  0.57877066003E+02  0.51100000000E-03 0. -1.
         22    1    1    0    0    0  0.21268759848E+02  0.22175840043E+02  0.11481804005E+01  0.30748111248E+02  0.00000000000E+00 0. -1.
</event>
<event>
 5    1  0.8752570E-005  0.9118800E+02  0.7818608E-02  0.1130116E+00
         25   -1    0    0    0    0  0.00000000000E+00  0.00000000000E+00  0.99999998245E-14  0.12500000000E+03  0.12500000000E+03 0.  0.
        -11    1    3    3    0    0  0.36038403766E+02 -0.63797927850E+01 -0.67527679324E+01  0.37216504094E+02  0.51100000000E-03 0.  1.
         23    2    1    0    0    0 -0.13380295872E+02 -0.99186900993E+01  0.24190036526E+02  0.95630447773E+02  0.91008856400E+02 0.  0.
         11    1    3    3    0    0 -0.49418699638E+02 -0.35388973143E+01  0.30942804458E+02  0.58413943679E+02  0.51100000000E-03 0. -1.
         22    1    1    0    0    0  0.13380295872E+02  0.99186900993E+01 -0.24190036526E+02  0.29369552227E+02  0.00000000000E+00 0. -1.
</event>
<event>
 5    1  0.8752570E-005  0.9118800E+02  0.7818608E-02  0.1130116E+00
         25   -1    0    0    0    0  0.00000000000E+00  0.00000000000E+00  0.99999998245E-14  0.12500000000E+03  0.12500000000E+03 0.  0.
        -11    1    3    3    0    0  0.38327022261E+02 -0.27087049806E+02  0.10413245897E+02  0.48073949213E+02  0.51100000000E-03 0.  1.
         23    2    1    0    0    0  0.25607877169E+02  0.16221847130E+02 -0.11329576813E+01  0.94665279126E+02  0.89673406211E+02 0.  0.
         11    1    3    3    0    0 -0.12719145092E+02  0.43308896936E+02 -0.11546203578E+02  0.46591329913E+02  0.51100000000E-03 0. -1.
         22    1    1    0    0    0 -0.25607877169E+02 -0.16221847130E+02  0.11329576813E+01  0.30334720874E+02  0.00000000000E+00 0. -1.
</event>
<event>
 5    1  0.8752570E-005  0.9118800E+02  0.7818608E-02  0.1130116E+00
         25   -1    0    0    0    0  0.00000000000E+00  0.00000000000E+00  0.99999998245E-14  0.12500000000E+03  0.12500000000E+03 0.  0.
        -11    1    3    3    0    0 -0.16209628776E+02  0.43772727785E+02 -0.33772618868E+02  0.57614178361E+02  0.51100000000E-03 0.  1.
         23    2    1    0    0    0  0.96714963733E+01  0.10467798482E+02 -0.16512081573E+02  0.10318804261E+03  0.10085638628E+03 0.  0.
         11    1    3    3    0    0  0.25881125149E+02 -0.33304929304E+02  0.17260537295E+02  0.45573864252E+02  0.51100000000E-03 0. -1.
         22    1    1    0    0    0 -0.96714963733E+01 -0.10467798482E+02  0.16512081573E+02  0.21811957387E+02  0.00000000000E+00 0.  1.
</event>
<event>
 5    1  0.8752570E-005  0.9118800E+02  0.7818608E-02  0.1130116E+00
         25   -1    0    0    0    0  0.00000000000E+00  0.00000000000E+00  0.99999998245E-14  0.12500000000E+03  0.12500000000E+03 0.  0.
        -11    1    3    3    0    0  0.31763110626E+02  0.62600767697E+01 -0.13255923259E+02  0.34982899530E+02  0.51100000000E-03 0. -1.
         23    2    1    0    0    0 -0.15895928671E+02  0.23864860588E+02  0.14490598071E+02  0.92872293085E+02  0.87138242300E+02 0.  0.
         11    1    3    3    0    0 -0.47659039297E+02  0.17604783818E+02  0.27746521330E+02  0.57889393555E+02  0.51100000000E-03 0.  1.
         22    1    1    0    0    0  0.15895928671E+02 -0.23864860588E+02 -0.14490598071E+02  0.32127706915E+02  0.00000000000E+00 0.  1.
</event>
<event>
 5    1  0.8752570E-005  0.9118800E+02  0.7818608E-02  0.1130116E+00
         25   -1    0    0    0    0  0.00000000000E+00  0.00000000000E+00  0.99999998245E-14  0.12500000000E+03  0.12500000000E+03 0.  0.
        -11    1    3    3    0    0  0.36313018062E+02  0.34863433378E+02  0.41285004324E+01  0.50508799073E+02  0.51100000000E-03 0.  1.
         23    2    1    0    0    0  0.13913981806E+02  0.35575742559E+01  0.26374815901E+02  0.94968580818E+02  0.90095200785E+02 0.  0.
         11    1    3    3    0    0 -0.22399036257E+02 -0.31305859122E+02  0.22246315469E+02  0.44459781745E+02  0.51100000000E-03 0. -1.
         22    1    1    0    0    0 -0.13913981806E+02 -0.35575742559E+01 -0.26374815901E+02  0.30031419182E+02  0.00000000000E+00 0.  1.
</event>
<event>
 5    1  0.8752570E-005  0.9118800E+02  0.7818608E-02  0.1130116E+00
         25   -1    0    0    0    0  0.00000000000E+00  0.00000000000E+00  0.99999998245E-14  0.12500000000E+03  0.12500000000E+03 0.  0.
        -11    1    3    3    0    0 -0.33237684054E+02 -0.12642050841E+02 -0.15622180321E+02  0.38840926984E+02  0.51100000000E-03 0.  1.
         23    2    1    0    0    0 -0.74473159550E+01  0.46783872600E+01  0.29832623211E+02  0.93897986723E+02  0.88597385292E+02 0.  0.
         11    1    3    3    0    0  0.25790368099E+02  0.17320438101E+02  0.45454803532E+02  0.55057059739E+02  0.51100000000E-03 0. -1.
         22    1    1    0    0    0  0.74473159550E+01 -0.46783872600E+01 -0.29832623211E+02  0.31102013277E+02  0.00000000000E+00 0. -1.
</event>
<event>
 5    1  0.8752570E-005  0.9118800E+02  0.7818608E-02  0.1130116E+00
         25   -1    0    0    0    0  0.00000000000E+00  0.00000000000E+00  0.99999998245E-14  0.12500000000E+03  0.12500000000E+03 0.  0.
        -11    1    3    3    0    0 -0.39086916990E+02 -0.94721972482E+01  0.52038708081E-01  0.40218308129E+02  0.51100000000E-03 0.  1.
         23    2    1    0    0    0 -0.45430308294E+01  0.26329302194E+02  0.17638146310E+02  0.92984761622E+02  0.87299429583E+02 0.  0.
         11    1    3    3    0    0  0.34543886160E+02  0.35801499442E+02  0.17586107602E+02  0.52766453493E+02  0.51100000000E-03 0. -1.
         22    1    1    0    0    0  0.45430308294E+01 -0.26329302194E+02 -0.17638146310E+02  0.32015238378E+02  0.00000000000E+00 0. -1.
</event>
<event>
 5    1  0.8752570E-005  0.9118800E+02  0.7818608E-02  0.1130116E+00
         25   -1    0    0    0    0  0.00000000000E+00  0.00000000000E+00  0.99999998245E-14  0.12500000000E+03  0.12500000000E+03 0.  0.
        -11    1    3    3    0    0 -0.23221061682E+02  0.35058662222E+02 -0.40755496654E+02  0.58560549948E+02  0.51100000000E-03 0.  1.
         23    2    1    0    0    0 -0.17172677523E+02  0.20525011222E+02 -0.47995537992E+01  0.97811534510E+02  0.93956817888E+02 0.  0.
         11    1    3    3    0    0  0.60483841584E+01 -0.14533651000E+02  0.35955942854E+02  0.39250984563E+02  0.51100000000E-03 0. -1.
         22    1    1    0    0    0  0.17172677523E+02 -0.20525011222E+02  0.47995537992E+01  0.27188465490E+02  0.00000000000E+00 0. -1.
</event>
<event>
 5    1  0.8752570E-005  0.9118800E+02  0.7818608E-02  0.1130116E+00
         25   -1    0    0    0    0  0.00000000000E+00  0.00000000000E+00  0.99999998245E-14  0.12500000000E+03  0.12500000000E+03 0.  0.
        -11    1    3    3    0    0  0.39949619319E+02 -0.21081333627E+02  0.34023341803E+02  0.56550707325E+02  0.51100000000E-03 0. -1.
         23    2    1    0    0    0  0.93240031752E+01  0.29824783627E+01  0.27199354302E+02  0.96092611899E+02  0.91641436996E+02 0.  0.
         11    1    3    3    0    0 -0.30625616144E+02  0.24063811989E+02 -0.68239875018E+01  0.39541904574E+02  0.51100000000E-03 0.  1.
         22    1    1    0    0    0 -0.93240031752E+01 -0.29824783627E+01 -0.27199354302E+02  0.28907388101E+02  0.00000000000E+00 0. -1.
</event>
<event>
 5    1  0.8752570E-005  0.9118800E+02  0.7818608E-02  0.1130116E+00
         25   -1    0    0    0    0  0.00000000000E+00  0.00000000000E+00  0.99999998245E-14  0.12500000000E+03  0.12500000000E+03 0.  0.
        -11    1    3    3    0    0  0.39300840986E+02  0.11879072125E+02  0.10328236603E+02  0.42336047623E+02  0.51100000000E-03 0. -1.
         23    2    1    0    0    0 -0.15248117066E+02  0.17584885286E+02  0.14885972576E+02  0.97371655060E+02  0.93369769010E+02 0.  0.
         11    1    3    3    0    0 -0.54548958052E+02  0.57058131613E+01  0.45577359732E+01  0.55035607436E+02  0.51100000000E-03 0.  1.
         22    1    1    0    0    0  0.15248117066E+02 -0.17584885286E+02 -0.14885972576E+02  0.27628344940E+02  0.00000000000E+00 0.  1.
</event>
<event>
 5    1  0.8752570E-005  0.9118800E+02  0.7818608E-02  0.1130116E+00
         25   -1    0    0    0    0  0.00000000000E+00  0.00000000000E+00  0.99999998245E-14  0.12500000000E+03  0.12500000000E+03 0.  0.
        -11    1    3    3    0    0  0.98902153730E+01  0.10687411720E+02 -0.34982105604E+02  0.37891751638E+02  0.51100000000E-03 0. -1.
         23    2    1    0    0    0 -0.17149422875E+02 -0.19303556570E+02  0.90522672128E+01  0.97638100524E+02  0.93725797575E+02 0.  0.
         11    1    3    3    0    0 -0.27039638248E+02 -0.29990968290E+02  0.44034372817E+02  0.59746348887E+02  0.51100000000E-03 0.  1.
         22    1    1    0    0    0  0.17149422875E+02  0.19303556570E+02 -0.90522672128E+01  0.27361899476E+02  0.00000000000E+00 0.  1.
</event>
<event>
 5    1  0.8752570E-005  0.9118800E+02  0.7818608E-02  0.1130116E+00
         25   -1    0    0    0    0  0.00000000000E+00  0.00000000000E+00  0.99999998245E-14  0.12500000000E+03  0.12500000000E+03 0.  0.
        -11    1    3    3    0    0 -0.46365665501E+02 -0.10910725095E+02 -0.85591260822E+01  0.48395015229E+02  0.51100000000E-03 0. -1.
         23    2    1    0    0    0 -0.68957046871E+01 -0.23431428190E+02  0.15293581145E+02  0.96182016129E+02  0.91763304388E+02 0.  0.
         11    1    3    3    0    0  0.39469960814E+02 -0.12520703095E+02  0.23852707227E+02  0.47787000900E+02  0.51100000000E-03 0.  1.
         22    1    1    0    0    0  0.68957046871E+01  0.23431428190E+02 -0.15293581145E+02  0.28817983871E+02  0.00000000000E+00 0. -1.
</event>
<event>
 5    1  0.8752570E-005  0.9118800E+02  0.7818608E-02  0.1130116E+00
         25   -1    0    0    0    0  0.00000000000E+00  0.00000000000E+00  0.99999998245E-14  0.12500000000E+03  0.12500000000E+03 0.  0.
        -11    1    3    3    0    0 -0.31395145775E+01  0.39587921581E+02  0.75150329181E+01  0.40417023726E+02  0.51100000000E-03 0.  1.
         23    2    1    0    0    0 -0.13244487898E+02  0.28547409525E-02  0.33596624509E+02  0.88886987855E+02  0.81220360524E+02 0.  0.
         11    1    3    3    0    0 -0.10104973320E+02 -0.39585066840E+02  0.26081591591E+02  0.48469964129E+02  0.51100000000E-03 0. -1.
         22    1    1    0    0    0  0.13244487898E+02 -0.28547409525E-02 -0.33596624509E+02  0.36113012145E+02  0.00000000000E+00 0. -1.
</event>
<event>
 5    1  0.8752570E-005  0.9118800E+02  0.7818608E-02  0.1130116E+00
         25   -1    0    0    0    0  0.00000000000E+00  0.00000000000E+00  0.99999998245E-14  0.12500000000E+03  0.12500000000E+03 0.  0.
        -11    1    3    3    0    0  0.10159709459E+02  0.40852307892E+02  0.22336609559E+02  0.47655586065E+02  0.51100000000E-03 0. -1.
         23    2    1    0    0    0 -0.21973976565E+02  0.52149160998E+01  0.18521103109E+02  0.95792428099E+02  0.91231063924E+02 0.  0.
         11    1    3    3    0    0 -0.32133686024E+02 -0.35637391792E+02 -0.38155064507E+01  0.48136842033E+02  0.51100000000E-03 0.  1.
         22    1    1    0    0    0  0.21973976565E+02 -0.52149160998E+01 -0.18521103109E+02  0.29207571901E+02  0.00000000000E+00 0. -1.
</event>
<event>
 5    1  0.8752570E-005  0.9118800E+02  0.7818608E-02  0.1130116E+00
         25   -1    0    0    0    0  0.00000000000E+00  0.00000000000E+00  0.99999998245E-14  0.12500000000E+03  0.12500000000E+03 0.  0.
        -11    1    3    3    0    0  0.31895235667E+02  0.31250079987E+02  0.31741191914E+02  0.54784822915E+02  0.51100000000E-03 0. -1.
         23    2    1    0    0    0  0.21811430474E+02  0.17162646694E+02 -0.62598201857E+01  0.96548632905E+02  0.92261358250E+02 0.  0.
         11    1    3    3    0    0 -0.10083805193E+02 -0.14087433294E+02 -0.38001012100E+02  0.41763809990E+02  0.51100000000E-03 0.  1.
         22    1    1    0    0    0 -0.21811430474E+02 -0.17162646694E+02  0.62598201857E+01  0.28451367095E+02  0.00000000000E+00 0. -1.
</event>
<event>
 5    1  0.8752570E-005  0.9118800E+02  0.7818608E-02  0.1130116E+00
         25   -1    0    0    0    0  0.00000000000E+00  0.00000000000E+00  0.99999998245E-14  0.12500000000E+03  0.12500000000E+03 0.  0.
        -11    1    3    3    0    0  0.47361159530E+02 -0.12864215915E+02 -0.36881672673E+02  0.61390758772E+02  0.51100000000E-03 0.  1.
         23    2    1    0    0    0  0.22893829826E+02  0.18718881721E+01 -0.19819523097E+02  0.94661165065E+02  0.89667671244E+02 0.  0.
         11    1    3    3    0    0 -0.24467329704E+02  0.14736104087E+02  0.17062149577E+02  0.33270406294E+02  0.51100000000E-03 0. -1.
         22    1    1    0    0    0 -0.22893829826E+02 -0.18718881721E+01  0.19819523097E+02  0.30338834935E+02  0.00000000000E+00 0.  1.
</event>
<event>
 5    1  0.8752570E-005  0.9118800E+02  0.7818608E-02  0.1130116E+00
         25   -1    0    0    0    0  0.00000000000E+00  0.00000000000E+00  0.99999998245E-14  0.12500000000E+03  0.12500000000E+03 0.  0.
        -11    1    3    3    0    0  0.38754780419E+01 -0.56322945351E+02 -0.12469576443E+02  0.57816812780E+02  0.51100000000E-03 0.  1.
         23    2    1    0    0    0 -0.77281916331E+01 -0.23504528525E+02  0.89501453462E+01  0.98688540351E+02  0.95116429116E+02 0.  0.
         11    1    3    3    0    0 -0.11603669675E+02  0.32818416826E+02  0.21419721789E+02  0.40871727572E+02  0.51100000000E-03 0. -1.
         22    1    1    0    0    0  0.77281916331E+01  0.23504528525E+02 -0.89501453462E+01  0.26311459649E+02  0.00000000000E+00 0. -1.
</event>
<event>
 5    1  0.8752570E-005  0.9118800E+02  0.7818608E-02  0.1130116E+00
         25   -1    0    0    0    0  0.00000000000E+00  0.00000000000E+00  0.99999998245E-14  0.12500000000E+03  0.12500000000E+03 0.  0.
        -11    1    3    3    0    0 -0.43466358489E+02 -0.16621838940E+02 -0.15227275478E+01  0.46561019636E+02  0.51100000000E-03 0.  1.
         23    2    1    0    0    0 -0.13294879742E+02  0.18052102343E+02  0.17753464428E+02  0.96402487423E+02  0.92063140593E+02 0.  0.
         11    1    3    3    0    0  0.30171478747E+02  0.34673941283E+02  0.19276191976E+02  0.49841467788E+02  0.51100000000E-03 0. -1.
         22    1    1    0    0    0  0.13294879742E+02 -0.18052102343E+02 -0.17753464428E+02  0.28597512577E+02  0.00000000000E+00 0. -1.
</event>
<event>
 5    1  0.8752570E-005  0.9118800E+02  0.7818608E-02  0.1130116E+00
         25   -1    0    0    0    0  0.00000000000E+00  0.00000000000E+00  0.99999998245E-14  0.12500000000E+03  0.12500000000E+03 0.  0.
        -11    1    3    3    0    0  0.29728489362E+02 -0.10599074883E+02  0.79210305358E+01  0.32540224233E+02  0.51100000000E-03 0. -1.
         23    2    1    0    0    0 -0.29356108281E+02  0.47926586594E+01 -0.46963242427E+01  0.94886778123E+02  0.89981634408E+02 0.  0.
         11    1    3    3    0    0 -0.59084597643E+02  0.15391733542E+02 -0.12617354778E+02  0.62346553890E+02  0.51100000000E-03 0.  1.
         22    1    1    0    0    0  0.29356108281E+02 -0.47926586594E+01  0.46963242427E+01  0.30113221877E+02  0.00000000000E+00 0.  1.
</event>
<event>
 5    1  0.8752570E-005  0.9118800E+02  0.7818608E-02  0.1130116E+00
         25   -1    0    0    0    0  0.00000000000E+00  0.00000000000E+00  0.99999998245E-14  0.12500000000E+03  0.12500000000E+03 0.  0.
        -11    1    3    3    0    0  0.52009691221E+02 -0.21410863489E+02 -0.12145770163E+02  0.57540879289E+02  0.51100000000E-03 0.  1.
         23    2    1    0    0    0  0.19040698258E+02 -0.20675593686E+02  0.74774969448E+01  0.95914929517E+02  0.91398754801E+02 0.  0.
         11    1    3    3    0    0 -0.32968992962E+02  0.73526980232E+00  0.19623267108E+02  0.38374050228E+02  0.51100000000E-03 0. -1.
         22    1    1    0    0    0 -0.19040698258E+02  0.20675593686E+02 -0.74774969448E+01  0.29085070483E+02  0.00000000000E+00 0.  1.
</event>
<event>
 5    1  0.8752570E-005  0.9118800E+02  0.7818608E-02  0.1130116E+00
         25   -1    0    0    0    0  0.00000000000E+00  0.00000000000E+00  0.99999998245E-14  0.12500000000E+03  0.12500000000E+03 0.  0.
        -11    1    3    3    0    0 -0.32865085887E+02  0.16689993146E+02  0.70233070758E+01  0.37523280562E+02  0.51100000000E-03 0.  1.
         23    2    1    0    0    0 -0.73449401637E+00 -0.27638696070E+02 -0.11118957065E+02  0.95199526713E+02  0.90415052277E+02 0.  0.
         11    1    3    3    0    0  0.32130591871E+02 -0.44328689216E+02 -0.18142264141E+02  0.57676246151E+02  0.51100000000E-03 0. -1.
         22    1    1    0    0    0  0.73449401637E+00  0.27638696070E+02  0.11118957065E+02  0.29800473287E+02  0.00000000000E+00 0. -1.
</event>
<event>
 5    1  0.8752570E-005  0.9118800E+02  0.7818608E-02  0.1130116E+00
         25   -1    0    0    0    0  0.00000000000E+00  0.00000000000E+00  0.99999998245E-14  0.12500000000E+03  0.12500000000E+03 0.  0.
        -11    1    3    3    0    0 -0.22349194538E+02 -0.20541018752E+02 -0.19558758451E+02  0.36110455276E+02  0.51100000000E-03 0.  1.
         23    2    1    0    0    0  0.81443718878E+00  0.29365976459E+02  0.27768653803E+01  0.95491783133E+02  0.90818201827E+02 0.  0.
         11    1    3    3    0    0  0.23163631727E+02  0.49906995211E+02  0.22335623832E+02  0.59381327856E+02  0.51100000000E-03 0. -1.
         22    1    1    0    0    0 -0.81443718878E+00 -0.29365976459E+02 -0.27768653803E+01  0.29508216867E+02  0.00000000000E+00 0. -1.
</event>
<event>
 5    1  0.8752570E-005  0.9118800E+02  0.7818608E-02  0.1130116E+00
         25   -1    0    0    0    0  0.00000000000E+00  0.00000000000E+00  0.99999998245E-14  0.12500000000E+03  0.12500000000E+03 0.  0.
        -11    1    3    3    0    0  0.25957939155E+02  0.39914350280E+02  0.72626260891E+00  0.47618246725E+02  0.51100000000E-03 0.  1.
         23    2    1    0    0    0  0.14995962209E+02  0.87371808982E+00 -0.25138623029E+02  0.95715317423E+02  0.91125349687E+02 0.  0.
         11    1    3    3    0    0 -0.10961976946E+02 -0.39040632191E+02 -0.25864885638E+02  0.48097070698E+02  0.51100000000E-03 0. -1.
         22    1    1    0    0    0 -0.14995962209E+02 -0.87371808982E+00  0.25138623029E+02  0.29284682577E+02  0.00000000000E+00 0.  1.
</event>
<event>
 5    1  0.8752570E-005  0.9118800E+02  0.7818608E-02  0.1130116E+00
         25   -1    0    0    0    0  0.00000000000E+00  0.00000000000E+00  0.99999998245E-14  0.12500000000E+03  0.12500000000E+03 0.  0.
        -11    1    3    3    0    0 -0.15410462734E+02  0.16824660544E+02  0.25639948095E+02  0.34321400069E+02  0.51100000000E-03 0. -1.
         23    2    1    0    0    0 -0.10378174789E+01  0.19669968073E+01 -0.30640883710E+02  0.94278510842E+02  0.89132641106E+02 0.  0.
         11    1    3    3    0    0  0.14372645255E+02 -0.14857663737E+02 -0.56280831805E+02  0.59957110773E+02  0.51100000000E-03 0.  1.
         22    1    1    0    0    0  0.10378174789E+01 -0.19669968073E+01  0.30640883710E+02  0.30721489158E+02  0.00000000000E+00 0.  1.
</event>
<event>
 5    1  0.8752570E-005  0.9118800E+02  0.7818608E-02  0.1130116E+00
         25   -1    0    0    0    0  0.00000000000E+00  0.00000000000E+00  0.99999998245E-14  0.12500000000E+03  0.12500000000E+03 0.  0.
        -11    1    3    3    0    0 -0.92643459067E+01 -0.33545342026E+02 -0.48414634102E+02  0.59624616328E+02  0.51100000000E-03 0. -1.
         23    2    1    0    0    0 -0.16403237287E+02 -0.98178295933E+01 -0.22407196156E+02  0.95545994992E+02  0.90892787107E+02 0.  0.
         11    1    3    3    0    0 -0.71388913804E+01  0.23727512433E+02  0.26007437946E+02  0.35921378664E+02  0.51100000000E-03 0.  1.
         22    1    1    0    0    0  0.16403237287E+02  0.98178295933E+01  0.22407196156E+02  0.29454005008E+02  0.00000000000E+00 0. -1.
</event>
<event>
 5    1  0.8752570E-005  0.9118800E+02  0.7818608E-02  0.1130116E+00
         25   -1    0    0    0    0  0.00000000000E+00  0.00000000000E+00  0.99999998245E-14  0.12500000000E+03  0.12500000000E+03 0.  0.
        -11    1    3    3    0    0 -0.10890764340E+02  0.32531810753E+02 -0.32577216248E+01  0.34460705292E+02  0.51100000000E-03 0.  1.
         23    2    1    0    0    0  0.13074315841E+02 -0.20720872422E+02  0.15750581921E+02  0.95873154659E+02  0.91341604238E+02 0.  0.
         11    1    3    3    0    0  0.23965080181E+02 -0.53252683175E+02  0.19008303546E+02  0.61412449368E+02  0.51100000000E-03 0. -1.
         22    1    1    0    0    0 -0.13074315841E+02  0.20720872422E+02 -0.15750581921E+02  0.29126845341E+02  0.00000000000E+00 0. -1.
</event>
<event>
 5    1  0.8752570E-005  0.9118800E+02  0.7818608E-02  0.1130116E+00
         25   -1    0    0    0    0  0.00000000000E+00  0.00000000000E+00  0.99999998245E-14  0.12500000000E+03  0.12500000000E+03 0.  0.
        -11    1    3    3    0    0  0.21186400967E+02  0.35600432399E+02 -0.31766250070E+01  0.41549311903E+02  0.51100000000E-03 0.  1.
         23    2    1    0    0    0  0.72700930097E+01 -0.10788883518E+02 -0.26630780815E+02  0.95361296473E+02  0.90638425175E+02 0.  0.
         11    1    3    3    0    0 -0.13916307957E+02 -0.46389315917E+02 -0.23454155808E+02  0.53811984570E+02  0.51100000000E-03 0. -1.
         22    1    1    0    0    0 -0.72700930097E+01  0.10788883518E+02  0.26630780815E+02  0.29638703527E+02  0.00000000000E+00 0. -1.
</event>
<event>
 5    1  0.8752570E-005  0.9118800E+02  0.7818608E-02  0.1130116E+00
         25   -1    0    0    0    0  0.00000000000E+00  0.00000000000E+00  0.99999998245E-14  0.12500000000E+03  0.12500000000E+03 0.  0.
        -11    1    3    3    0    0 -0.54146869348E+01 -0.11786212898E+02  0.52088674911E+02  0.53679266978E+02  0.51100000000E-03 0.  1.
         23    2    1    0    0    0 -0.15122948613E+01 -0.26209657267E+02  0.12641183251E+02  0.95861834585E+02  0.91326111524E+02 0.  0.
         11    1    3    3    0    0  0.39023920735E+01 -0.14423444369E+02 -0.39447491660E+02  0.42182567606E+02  0.51100000000E-03 0. -1.
         22    1    1    0    0    0  0.15122948613E+01  0.26209657267E+02 -0.12641183251E+02  0.29138165415E+02  0.00000000000E+00 0.  1.
</event>
<event>
 5    1  0.8752570E-005  0.9118800E+02  0.7818608E-02  0.1130116E+00
         25   -1    0    0    0    0  0.00000000000E+00  0.00000000000E+00  0.99999998245E-14  0.12500000000E+03  0.12500000000E+03 0.  0.
        -11    1    3    3    0    0  0.75424207231E+01  0.34023545858E+02 -0.19695017114E+02  0.40029782444E+02  0.51100000000E-03 0.  1.
         23    2    1    0    0    0  0.15566658747E+02 -0.19704561798E+02 -0.17488757334E+02  0.94398574326E+02  0.89300859915E+02 0.  0.
         11    1    3    3    0    0  0.80242380237E+01 -0.53728107656E+02  0.22062597807E+01  0.54368791882E+02  0.51100000000E-03 0. -1.
         22    1    1    0    0    0 -0.15566658747E+02  0.19704561798E+02  0.17488757334E+02  0.30601425674E+02  0.00000000000E+00 0. -1.
</event>
<event>
 5    1  0.8752570E-005  0.9118800E+02  0.7818608E-02  0.1130116E+00
         25   -1    0    0    0    0  0.00000000000E+00  0.00000000000E+00  0.99999998245E-14  0.12500000000E+03  0.12500000000E+03 0.  0.
        -11    1    3    3    0    0  0.21056841892E+02  0.22494537734E+02 -0.46065295568E+02  0.55420269526E+02  0.51100000000E-03 0.  1.
         23    2    1    0    0    0 -0.76393462503E+01  0.15690064677E+00 -0.27904588210E+02  0.96068178901E+02  0.91608104037E+02 0.  0.
         11    1    3    3    0    0 -0.28696188142E+02 -0.22337637088E+02  0.18160707358E+02  0.40647909375E+02  0.51100000000E-03 0. -1.
         22    1    1    0    0    0  0.76393462503E+01 -0.15690064677E+00  0.27904588210E+02  0.28931821099E+02  0.00000000000E+00 0.  1.
</event>
<event>
 5    1  0.8752570E-005  0.9118800E+02  0.7818608E-02  0.1130116E+00
         25   -1    0    0    0    0  0.00000000000E+00  0.00000000000E+00  0.99999998245E-14  0.12500000000E+03  0.12500000000E+03 0.  0.
        -11    1    3    3    0    0  0.28747917288E+02 -0.39926880497E+02 -0.31727553806E+02  0.58542601628E+02  0.51100000000E-03 0.  1.
         23    2    1    0    0    0  0.25702523984E+02 -0.12852813726E+02 -0.68021858201E+01  0.95468926674E+02  0.90786737294E+02 0.  0.
         11    1    3    3    0    0 -0.30453933036E+01  0.27074066771E+02  0.24925367986E+02  0.36926325046E+02  0.51100000000E-03 0. -1.
         22    1    1    0    0    0 -0.25702523984E+02  0.12852813726E+02  0.68021858201E+01  0.29531073326E+02  0.00000000000E+00 0.  1.
</event>
<event>
 5    1  0.8752570E-005  0.9118800E+02  0.7818608E-02  0.1130116E+00
         25   -1    0    0    0    0  0.00000000000E+00  0.00000000000E+00  0.99999998245E-14  0.12500000000E+03  0.12500000000E+03 0.  0.
        -11    1    3    3    0    0  0.33187856221E+01 -0.54243096120E+02  0.48896309024E+01  0.54564056900E+02  0.51100000000E-03 0.  1.
         23    2    1    0    0    0  0.22393966533E+02 -0.16029623553E+02  0.26599892186E+01  0.97332074328E+02  0.93316764743E+02 0.  0.
         11    1    3    3    0    0  0.19075180911E+02  0.38213472568E+02 -0.22296416838E+01  0.42768017429E+02  0.51100000000E-03 0. -1.
         22    1    1    0    0    0 -0.22393966533E+02  0.16029623553E+02 -0.26599892186E+01  0.27667925672E+02  0.00000000000E+00 0. -1.
</event>
<event>
 5    1  0.8752570E-005  0.9118800E+02  0.7818608E-02  0.1130116E+00
         25   -1    0    0    0    0  0.00000000000E+00  0.00000000000E+00  0.99999998245E-14  0.12500000000E+03  0.12500000000E+03 0.  0.
        -11    1    3    3    0    0 -0.13880859045E+02  0.14793247765E+02  0.50075741339E+02  0.54028680329E+02  0.51100000000E-03 0.  1.
         23    2    1    0    0    0 -0.27804869236E+01  0.26800532743E+02  0.11927915698E+02  0.95533496377E+02  0.90875596803E+02 0.  0.
         11    1    3    3    0    0  0.11100372122E+02  0.12007284978E+02 -0.38147825641E+02  0.41504816048E+02  0.51100000000E-03 0. -1.
         22    1    1    0    0    0  0.27804869236E+01 -0.26800532743E+02 -0.11927915698E+02  0.29466503623E+02  0.00000000000E+00 0.  1.
</event>
<event>
 5    1  0.8752570E-005  0.9118800E+02  0.7818608E-02  0.1130116E+00
         25   -1    0    0    0    0  0.00000000000E+00  0.00000000000E+00  0.99999998245E-14  0.12500000000E+03  0.12500000000E+03 0.  0.
        -11    1    3    3    0    0  0.11577916705E+02 -0.18773372620E+02  0.30082018971E+02  0.37301682809E+02  0.51100000000E-03 0.  1.
         23    2    1    0    0    0 -0.33812147319E+02 -0.64360258784E+01  0.19226060506E+02  0.85575069588E+02  0.75952402180E+02 0.  0.
         11    1    3    3    0    0 -0.45390064023E+02  0.12337346742E+02 -0.10855958465E+02  0.48273386779E+02  0.51100000000E-03 0. -1.
         22    1    1    0    0    0  0.33812147319E+02  0.64360258784E+01 -0.19226060506E+02  0.39424930412E+02  0.00000000000E+00 0.  1.
</event>
<event>
 5    1  0.8752570E-005  0.9118800E+02  0.7818608E-02  0.1130116E+00
         25   -1    0    0    0    0  0.00000000000E+00  0.00000000000E+00  0.99999998245E-14  0.12500000000E+03  0.12500000000E+03 0.  0.
        -11    1    3    3    0    0  0.45672479299E+02 -0.36302824086E+02 -0.18027323526E+02  0.61064349630E+02  0.51100000000E-03 0.  1.
         23    2    1    0    0    0  0.25971420162E+02 -0.86337065221E+01 -0.75882839336E+01  0.96598633720E+02  0.92329076839E+02 0.  0.
         11    1    3    3    0    0 -0.19701059137E+02  0.27669117564E+02  0.10439039593E+02  0.35534284090E+02  0.51100000000E-03 0. -1.
         22    1    1    0    0    0 -0.25971420162E+02  0.86337065221E+01  0.75882839336E+01  0.28401366280E+02  0.00000000000E+00 0.  1.
</event>
<event>
 5    1  0.8752570E-005  0.9118800E+02  0.7818608E-02  0.1130116E+00
         25   -1    0    0    0    0  0.00000000000E+00  0.00000000000E+00  0.99999998245E-14  0.12500000000E+03  0.12500000000E+03 0.  0.
        -11    1    3    3    0    0  0.25394344408E+02 -0.20887633402E+02 -0.10009961867E+02  0.34370994951E+02  0.51100000000E-03 0.  1.
         23    2    1    0    0    0 -0.15738606899E+02  0.47742660770E+01 -0.33076555237E+02  0.88060104629E+02  0.79937639177E+02 0.  0.
         11    1    3    3    0    0 -0.41132951308E+02  0.25661899479E+02 -0.23066593369E+02  0.53689109678E+02  0.51100000000E-03 0. -1.
         22    1    1    0    0    0  0.15738606899E+02 -0.47742660770E+01  0.33076555237E+02  0.36939895371E+02  0.00000000000E+00 0. -1.
</event>
<event>
 5    1  0.8752570E-005  0.9118800E+02  0.7818608E-02  0.1130116E+00
         25   -1    0    0    0    0  0.00000000000E+00  0.00000000000E+00  0.99999998245E-14  0.12500000000E+03  0.12500000000E+03 0.  0.
        -11    1    3    3    0    0 -0.15839499641E+02 -0.33411571905E+02 -0.14378462430E+02  0.39673203402E+02  0.51100000000E-03 0.  1.
         23    2    1    0    0    0 -0.17099486081E+02  0.22339254187E+02 -0.76727444541E+01  0.95839998126E+02  0.91296218604E+02 0.  0.
         11    1    3    3    0    0 -0.12599864404E+01  0.55750826092E+02  0.67057179763E+01  0.56166794724E+02  0.51100000000E-03 0. -1.
         22    1    1    0    0    0  0.17099486081E+02 -0.22339254187E+02  0.76727444541E+01  0.29160001874E+02  0.00000000000E+00 0. -1.
</event>
<event>
 5    1  0.8752570E-005  0.9118800E+02  0.7818608E-02  0.1130116E+00
         25   -1    0    0    0    0  0.00000000000E+00  0.00000000000E+00  0.99999998245E-14  0.12500000000E+03  0.12500000000E+03 0.  0.
        -11    1    3    3    0    0  0.14039491323E+02  0.14451674344E+02  0.58908603025E+02  0.62258989058E+02  0.51100000000E-03 0.  1.
         23    2    1    0    0    0  0.99479747705E+01  0.70363285293E+01  0.25294511739E+02  0.96923596290E+02  0.92767985170E+02 0.  0.
         11    1    3    3    0    0 -0.40915165525E+01 -0.74153458151E+01 -0.33614091286E+02  0.34664607231E+02  0.51100000000E-03 0. -1.
         22    1    1    0    0    0 -0.99479747705E+01 -0.70363285293E+01 -0.25294511739E+02  0.28076403710E+02  0.00000000000E+00 0.  1.
</event>
<event>
 5    1  0.8752570E-005  0.9118800E+02  0.7818608E-02  0.1130116E+00
         25   -1    0    0    0    0  0.00000000000E+00  0.00000000000E+00  0.99999998245E-14  0.12500000000E+03  0.12500000000E+03 0.  0.
        -11    1    3    3    0    0 -0.45502086921E+02  0.26149372363E+02 -0.27923962760E+02  0.59447264745E+02  0.51100000000E-03 0.  1.
         23    2    1    0    0    0 -0.13799453232E+02  0.77681403873E+01 -0.23922527746E+02  0.96311043095E+02  0.91938896957E+02 0.  0.
         11    1    3    3    0    0  0.31702633689E+02 -0.18381231976E+02  0.40014350147E+01  0.36863778350E+02  0.51100000000E-03 0. -1.
         22    1    1    0    0    0  0.13799453232E+02 -0.77681403873E+01  0.23922527746E+02  0.28688956905E+02  0.00000000000E+00 0.  1.
</event>
<event>
 5    1  0.8752570E-005  0.9118800E+02  0.7818608E-02  0.1130116E+00
         25   -1    0    0    0    0  0.00000000000E+00  0.00000000000E+00  0.99999998245E-14  0.12500000000E+03  0.12500000000E+03 0.  0.
        -11    1    3    3    0    0  0.31447043109E+02  0.11887252667E+02 -0.27686986181E+02  0.43552181349E+02  0.51100000000E-03 0.  1.
         23    2    1    0    0    0 -0.10629599819E+01 -0.26088482607E+02 -0.13955475800E+02  0.95394356729E+02  0.90684007313E+02 0.  0.
         11    1    3    3    0    0 -0.32510003091E+02 -0.37975735274E+02  0.13731510381E+02  0.51842175380E+02  0.51100000000E-03 0. -1.
         22    1    1    0    0    0  0.10629599819E+01  0.26088482607E+02  0.13955475800E+02  0.29605643271E+02  0.00000000000E+00 0. -1.
</event>
<event>
 5    1  0.8752570E-005  0.9118800E+02  0.7818608E-02  0.1130116E+00
         25   -1    0    0    0    0  0.00000000000E+00  0.00000000000E+00  0.99999998245E-14  0.12500000000E+03  0.12500000000E+03 0.  0.
        -11    1    3    3    0    0  0.18621555731E+02 -0.28706837943E+01  0.29102933559E+02  0.34669639532E+02  0.51100000000E-03 0. -1.
         23    2    1    0    0    0  0.12959697004E+01  0.15997248621E+02 -0.25435460556E+02  0.94924193201E+02  0.90033595398E+02 0.  0.
         11    1    3    3    0    0 -0.17325586031E+02  0.18867932415E+02 -0.54538394115E+02  0.60254553669E+02  0.51100000000E-03 0.  1.
         22    1    1    0    0    0 -0.12959697004E+01 -0.15997248621E+02  0.25435460556E+02  0.30075806799E+02  0.00000000000E+00 0.  1.
</event>
<event>
 5    1  0.8752570E-005  0.9118800E+02  0.7818608E-02  0.1130116E+00
         25   -1    0    0    0    0  0.00000000000E+00  0.00000000000E+00  0.99999998245E-14  0.12500000000E+03  0.12500000000E+03 0.  0.
        -11    1    3    3    0    0 -0.55939165953E+02  0.14426676586E+02 -0.91961673039E+01  0.58496912553E+02  0.51100000000E-03 0. -1.
         23    2    1    0    0    0 -0.27929936784E+02 -0.31477859407E+01  0.80129524510E+01  0.95773345520E+02  0.91204914232E+02 0.  0.
         11    1    3    3    0    0  0.28009229169E+02 -0.17574462527E+02  0.17209119755E+02  0.37276432967E+02  0.51100000000E-03 0.  1.
         22    1    1    0    0    0  0.27929936784E+02  0.31477859407E+01 -0.80129524510E+01  0.29226654480E+02  0.00000000000E+00 0. -1.
</event>
<event>
 5    1  0.8752570E-005  0.9118800E+02  0.7818608E-02  0.1130116E+00
         25   -1    0    0    0    0  0.00000000000E+00  0.00000000000E+00  0.99999998245E-14  0.12500000000E+03  0.12500000000E+03 0.  0.
        -11    1    3    3    0    0 -0.14471547817E+02  0.33305551363E+02  0.55203331242E+01  0.36730906957E+02  0.51100000000E-03 0.  1.
         23    2    1    0    0    0  0.11879861243E+02 -0.11016881010E+02 -0.23921224590E+02  0.96108344522E+02  0.91662893968E+02 0.  0.
         11    1    3    3    0    0  0.26351409060E+02 -0.44322432373E+02 -0.29441557715E+02  0.59377437565E+02  0.51100000000E-03 0. -1.
         22    1    1    0    0    0 -0.11879861243E+02  0.11016881010E+02  0.23921224590E+02  0.28891655478E+02  0.00000000000E+00 0. -1.
</event>
<event>
 5    1  0.8752570E-005  0.9118800E+02  0.7818608E-02  0.1130116E+00
         25   -1    0    0    0    0  0.00000000000E+00  0.00000000000E+00  0.99999998245E-14  0.12500000000E+03  0.12500000000E+03 0.  0.
        -11    1    3    3    0    0  0.20193506714E+02 -0.20919150567E+02  0.24235686056E+02  0.37851777405E+02  0.51100000000E-03 0. -1.
         23    2    1    0    0    0 -0.25410626636E+01 -0.83330706564E+01 -0.27719787342E+02  0.95943440047E+02  0.91437738444E+02 0.  0.
         11    1    3    3    0    0 -0.22734569377E+02  0.12586079910E+02 -0.51955473398E+02  0.58091662642E+02  0.51100000000E-03 0.  1.
         22    1    1    0    0    0  0.25410626636E+01  0.83330706564E+01  0.27719787342E+02  0.29056559953E+02  0.00000000000E+00 0.  1.
</event>
<event>
 5    1  0.8752570E-005  0.9118800E+02  0.7818608E-02  0.1130116E+00
         25   -1    0    0    0    0  0.00000000000E+00  0.00000000000E+00  0.99999998245E-14  0.12500000000E+03  0.12500000000E+03 0.  0.
        -11    1    3    3    0    0  0.18560428625E+02  0.41780997716E+02 -0.30105944309E+02  0.54740379647E+02  0.51100000000E-03 0. -1.
         23    2    1    0    0    0  0.23804611567E+02  0.12786693178E+02  0.14828744926E+01  0.97937886796E+02  0.94124766661E+02 0.  0.
         11    1    3    3    0    0  0.52441829421E+01 -0.28994304538E+02  0.31588818802E+02  0.43197507149E+02  0.51100000000E-03 0.  1.
         22    1    1    0    0    0 -0.23804611567E+02 -0.12786693178E+02 -0.14828744926E+01  0.27062113204E+02  0.00000000000E+00 0. -1.
</event>
<event>
 5    1  0.8752570E-005  0.9118800E+02  0.7818608E-02  0.1130116E+00
         25   -1    0    0    0    0  0.00000000000E+00  0.00000000000E+00  0.99999998245E-14  0.12500000000E+03  0.12500000000E+03 0.  0.
        -11    1    3    3    0    0 -0.35335720580E+02 -0.99081505742E+01 -0.30320685208E+01  0.36823607054E+02  0.51100000000E-03 0. -1.
         23    2    1    0    0    0  0.20030875476E+02 -0.10262497072E+02  0.18131598412E+02  0.96098275493E+02  0.91649161880E+02 0.  0.
         11    1    3    3    0    0  0.55366596056E+02 -0.35434649769E+00  0.21163666933E+02  0.59274668439E+02  0.51100000000E-03 0.  1.
         22    1    1    0    0    0 -0.20030875476E+02  0.10262497072E+02 -0.18131598412E+02  0.28901724507E+02  0.00000000000E+00 0.  1.
</event>
<event>
 5    1  0.8752570E-005  0.9118800E+02  0.7818608E-02  0.1130116E+00
         25   -1    0    0    0    0  0.00000000000E+00  0.00000000000E+00  0.99999998245E-14  0.12500000000E+03  0.12500000000E+03 0.  0.
        -11    1    3    3    0    0 -0.88849830059E+01 -0.22058402478E+02 -0.14332402997E+02  0.27765695000E+02  0.51100000000E-03 0. -1.
         23    2    1    0    0    0  0.35630439980E+01  0.36129615518E+02 -0.13501810848E+01  0.88670020796E+02  0.80885753993E+02 0.  0.
         11    1    3    3    0    0  0.12448027004E+02  0.58188017996E+02  0.12982221912E+02  0.60904325796E+02  0.51100000000E-03 0.  1.
         22    1    1    0    0    0 -0.35630439980E+01 -0.36129615518E+02  0.13501810848E+01  0.36329979204E+02  0.00000000000E+00 0.  1.
</event>
<event>
 5    1  0.8752570E-005  0.9118800E+02  0.7818608E-02  0.1130116E+00
         25   -1    0    0    0    0  0.00000000000E+00  0.00000000000E+00  0.99999998245E-14  0.12500000000E+03  0.12500000000E+03 0.  0.
        -11    1    3    3    0    0  0.26174142718E+01 -0.18838693437E+02 -0.59201676594E+01  0.19919729247E+02  0.51100000000E-03 0.  1.
         23    2    1    0    0    0 -0.24358787460E+02  0.29327231559E+02 -0.26209527986E+02  0.78735797913E+02  0.63709885248E+02 0.  0.
         11    1    3    3    0    0 -0.26976201732E+02  0.48165924996E+02 -0.20289360327E+02  0.58816068666E+02  0.51100000000E-03 0. -1.
         22    1    1    0    0    0  0.24358787460E+02 -0.29327231559E+02  0.26209527986E+02  0.46264202087E+02  0.00000000000E+00 0. -1.
</event>
<event>
 5    1  0.8752570E-005  0.9118800E+02  0.7818608E-02  0.1130116E+00
         25   -1    0    0    0    0  0.00000000000E+00  0.00000000000E+00  0.99999998245E-14  0.12500000000E+03  0.12500000000E+03 0.  0.
        -11    1    3    3    0    0  0.18482181662E+02  0.25306440046E+02 -0.25922207656E+02  0.40669002899E+02  0.51100000000E-03 0.  1.
         23    2    1    0    0    0  0.20780691404E+02 -0.17665185429E+02  0.92002115692E+01  0.96215632639E+02  0.91809085388E+02 0.  0.
         11    1    3    3    0    0  0.22985097416E+01 -0.42971625475E+02  0.35122419225E+02  0.55546629740E+02  0.51100000000E-03 0. -1.
         22    1    1    0    0    0 -0.20780691404E+02  0.17665185429E+02 -0.92002115692E+01  0.28784367361E+02  0.00000000000E+00 0. -1.
</event>
<event>
 5    1  0.8752570E-005  0.9118800E+02  0.7818608E-02  0.1130116E+00
         25   -1    0    0    0    0  0.00000000000E+00  0.00000000000E+00  0.99999998245E-14  0.12500000000E+03  0.12500000000E+03 0.  0.
        -11    1    3    3    0    0  0.34406579209E+02  0.96901484640E+01  0.36753259903E+02  0.51269033382E+02  0.51100000000E-03 0.  1.
         23    2    1    0    0    0  0.23246156573E+02 -0.16540674093E+02  0.17435346465E+01  0.96416480134E+02  0.92082137429E+02 0.  0.
         11    1    3    3    0    0 -0.11160422636E+02 -0.26230822557E+02 -0.35009725256E+02  0.45147446752E+02  0.51100000000E-03 0. -1.
         22    1    1    0    0    0 -0.23246156573E+02  0.16540674093E+02 -0.17435346465E+01  0.28583519866E+02  0.00000000000E+00 0.  1.
</event>
<event>
 5    1  0.8752570E-005  0.9118800E+02  0.7818608E-02  0.1130116E+00
         25   -1    0    0    0    0  0.00000000000E+00  0.00000000000E+00  0.99999998245E-14  0.12500000000E+03  0.12500000000E+03 0.  0.
        -11    1    3    3    0    0  0.29868733818E+02  0.19653872901E+02  0.23419336734E+02  0.42742032160E+02  0.51100000000E-03 0.  1.
         23    2    1    0    0    0 -0.22295830934E+02  0.11765430799E+02  0.13426740911E+02  0.96437667980E+02  0.92110895094E+02 0.  0.
         11    1    3    3    0    0 -0.52164564752E+02 -0.78884421019E+01 -0.99925958229E+01  0.53695635820E+02  0.51100000000E-03 0. -1.
         22    1    1    0    0    0  0.22295830934E+02 -0.11765430799E+02 -0.13426740911E+02  0.28562332020E+02  0.00000000000E+00 0. -1.
</event>
<event>
 5    1  0.8752570E-005  0.9118800E+02  0.7818608E-02  0.1130116E+00
         25   -1    0    0    0    0  0.00000000000E+00  0.00000000000E+00  0.99999998245E-14  0.12500000000E+03  0.12500000000E+03 0.  0.
        -11    1    3    3    0    0  0.11820024365E+02 -0.48870229108E+02  0.17327181811E+02  0.53181232581E+02  0.51100000000E-03 0.  1.
         23    2    1    0    0    0 -0.15277254616E+02 -0.15717466064E+02  0.18943397860E+02  0.96029574208E+02  0.91555412467E+02 0.  0.
         11    1    3    3    0    0 -0.27097278981E+02  0.33152763044E+02  0.16162160488E+01  0.42848341627E+02  0.51100000000E-03 0. -1.
         22    1    1    0    0    0  0.15277254616E+02  0.15717466064E+02 -0.18943397860E+02  0.28970425792E+02  0.00000000000E+00 0.  1.
</event>
<event>
 5    1  0.8752570E-005  0.9118800E+02  0.7818608E-02  0.1130116E+00
         25   -1    0    0    0    0  0.00000000000E+00  0.00000000000E+00  0.99999998245E-14  0.12500000000E+03  0.12500000000E+03 0.  0.
        -11    1    3    3    0    0 -0.38288697606E+02  0.40089814605E+01  0.17058258893E+02  0.42107962352E+02  0.51100000000E-03 0. -1.
         23    2    1    0    0    0  0.16648274184E+02  0.65765223125E+01  0.21191767923E+02  0.97260016101E+02  0.93220191081E+02 0.  0.
         11    1    3    3    0    0  0.54936971790E+02  0.25675408519E+01  0.41335090299E+01  0.55152053749E+02  0.51100000000E-03 0.  1.
         22    1    1    0    0    0 -0.16648274184E+02 -0.65765223125E+01 -0.21191767923E+02  0.27739983899E+02  0.00000000000E+00 0.  1.
</event>
<event>
 5    1  0.8752570E-005  0.9118800E+02  0.7818608E-02  0.1130116E+00
         25   -1    0    0    0    0  0.00000000000E+00  0.00000000000E+00  0.99999998245E-14  0.12500000000E+03  0.12500000000E+03 0.  0.
        -11    1    3    3    0    0  0.40018045170E+02  0.81359873639E+01  0.46642070613E+02  0.61992910732E+02  0.51100000000E-03 0. -1.
         23    2    1    0    0    0  0.19752610712E+02  0.83487403714E+01  0.18466499589E+02  0.96700199598E+02  0.92466479870E+02 0.  0.
         11    1    3    3    0    0 -0.20265434458E+02  0.21275300751E+00 -0.28175571025E+02  0.34707288866E+02  0.51100000000E-03 0.  1.
         22    1    1    0    0    0 -0.19752610712E+02 -0.83487403714E+01 -0.18466499589E+02  0.28299800402E+02  0.00000000000E+00 0. -1.
</event>
<event>
 5    1  0.8752570E-005  0.9118800E+02  0.7818608E-02  0.1130116E+00
         25   -1    0    0    0    0  0.00000000000E+00  0.00000000000E+00  0.99999998245E-14  0.12500000000E+03  0.12500000000E+03 0.  0.
        -11    1    3    3    0    0 -0.61796175258E+01 -0.13376800303E+02  0.22377100461E+02  0.26792929747E+02  0.51100000000E-03 0.  1.
         23    2    1    0    0    0 -0.10717339558E+02  0.21233308161E+02 -0.28113511730E+02  0.88174950313E+02  0.80117024272E+02 0.  0.
         11    1    3    3    0    0 -0.45377220318E+01  0.34610108464E+02 -0.50490612191E+02  0.61382020566E+02  0.51100000000E-03 0. -1.
         22    1    1    0    0    0  0.10717339558E+02 -0.21233308161E+02  0.28113511730E+02  0.36825049687E+02  0.00000000000E+00 0. -1.
</event>
<event>
 5    1  0.8752570E-005  0.9118800E+02  0.7818608E-02  0.1130116E+00
         25   -1    0    0    0    0  0.00000000000E+00  0.00000000000E+00  0.99999998245E-14  0.12500000000E+03  0.12500000000E+03 0.  0.
        -11    1    3    3    0    0  0.19903519180E+02  0.23460225448E+01 -0.45146348710E+02  0.49394804379E+02  0.51100000000E-03 0.  1.
         23    2    1    0    0    0  0.25390595788E+02 -0.14858713867E+02 -0.27789649690E+01  0.95450272784E+02  0.90761049993E+02 0.  0.
         11    1    3    3    0    0  0.54870766079E+01 -0.17204736412E+02  0.42367383741E+02  0.46055468405E+02  0.51100000000E-03 0. -1.
         22    1    1    0    0    0 -0.25390595788E+02  0.14858713867E+02  0.27789649690E+01  0.29549727216E+02  0.00000000000E+00 0. -1.
</event>
<event>
 5    1  0.8752570E-005  0.9118800E+02  0.7818608E-02  0.1130116E+00
         25   -1    0    0    0    0  0.00000000000E+00  0.00000000000E+00  0.99999998245E-14  0.12500000000E+03  0.12500000000E+03 0.  0.
        -11    1    3    3    0    0 -0.26885081603E+02  0.43390111737E+02 -0.42456842232E+01  0.51220457282E+02  0.51100000000E-03 0. -1.
         23    2    1    0    0    0 -0.71164038945E+01  0.56230680605E+01 -0.24835180956E+02  0.98560478220E+02  0.94947983418E+02 0.  0.
         11    1    3    3    0    0  0.19768677709E+02 -0.37767043677E+02 -0.20589496733E+02  0.47340020938E+02  0.51100000000E-03 0.  1.
         22    1    1    0    0    0  0.71164038945E+01 -0.56230680605E+01  0.24835180956E+02  0.26439521780E+02  0.00000000000E+00 0.  1.
</event>
<event>
 5    1  0.8752570E-005  0.9118800E+02  0.7818608E-02  0.1130116E+00
         25   -1    0    0    0    0  0.00000000000E+00  0.00000000000E+00  0.99999998245E-14  0.12500000000E+03  0.12500000000E+03 0.  0.
        -11    1    3    3    0    0 -0.26413056003E+02  0.24946968746E+02  0.68263777462E+00  0.36338227415E+02  0.51100000000E-03 0.  1.
         23    2    1    0    0    0 -0.20275044227E+01 -0.55080473003E+01  0.35734759268E+02  0.88786433769E+02  0.81065457762E+02 0.  0.
         11    1    3    3    0    0  0.24385551581E+02 -0.30455016046E+02  0.35052121493E+02  0.52448206354E+02  0.51100000000E-03 0. -1.
         22    1    1    0    0    0  0.20275044227E+01  0.55080473003E+01 -0.35734759268E+02  0.36213566231E+02  0.00000000000E+00 0. -1.
</event>
<event>
 5    1  0.8752570E-005  0.9118800E+02  0.7818608E-02  0.1130116E+00
         25   -1    0    0    0    0  0.00000000000E+00  0.00000000000E+00  0.99999998245E-14  0.12500000000E+03  0.12500000000E+03 0.  0.
        -11    1    3    3    0    0 -0.10436826143E+02  0.17578430151E+02  0.25906131535E+02  0.33000851472E+02  0.51100000000E-03 0. -1.
         23    2    1    0    0    0  0.16064850497E+02 -0.66164041204E+01 -0.24554657024E+02  0.94920315717E+02  0.90028211852E+02 0.  0.
         11    1    3    3    0    0  0.26501676640E+02 -0.24194834271E+02 -0.50460788559E+02  0.61919464245E+02  0.51100000000E-03 0.  1.
         22    1    1    0    0    0 -0.16064850497E+02  0.66164041204E+01  0.24554657024E+02  0.30079684283E+02  0.00000000000E+00 0.  1.
</event>
<event>
 5    1  0.8752570E-005  0.9118800E+02  0.7818608E-02  0.1130116E+00
         25   -1    0    0    0    0  0.00000000000E+00  0.00000000000E+00  0.99999998245E-14  0.12500000000E+03  0.12500000000E+03 0.  0.
        -11    1    3    3    0    0  0.36480076286E+02 -0.60653884996E+01 -0.27175909487E+02  0.45892428136E+02  0.51100000000E-03 0.  1.
         23    2    1    0    0    0  0.16217891654E+02 -0.22315417143E+02  0.13604333774E+02  0.94241655613E+02  0.89080940180E+02 0.  0.
         11    1    3    3    0    0 -0.20262184632E+02 -0.16250028644E+02  0.40780243261E+02  0.48349227477E+02  0.51100000000E-03 0. -1.
         22    1    1    0    0    0 -0.16217891654E+02  0.22315417143E+02 -0.13604333774E+02  0.30758344387E+02  0.00000000000E+00 0. -1.
</event>
<event>
 5    1  0.8752570E-005  0.9118800E+02  0.7818608E-02  0.1130116E+00
         25   -1    0    0    0    0  0.00000000000E+00  0.00000000000E+00  0.99999998245E-14  0.12500000000E+03  0.12500000000E+03 0.  0.
        -11    1    3    3    0    0 -0.34175916544E+02  0.28371399554E+02  0.29929983069E+02  0.53560558913E+02  0.51100000000E-03 0. -1.
         23    2    1    0    0    0 -0.12936156365E+01  0.31458896476E+02  0.18342488804E+02  0.88561249961E+02  0.80717485654E+02 0.  0.
         11    1    3    3    0    0  0.32882300908E+02  0.30874969217E+01 -0.11587494265E+02  0.35000691048E+02  0.51100000000E-03 0.  1.
         22    1    1    0    0    0  0.12936156365E+01 -0.31458896476E+02 -0.18342488804E+02  0.36438750039E+02  0.00000000000E+00 0. -1.
</event>
<event>
 5    1  0.8752570E-005  0.9118800E+02  0.7818608E-02  0.1130116E+00
         25   -1    0    0    0    0  0.00000000000E+00  0.00000000000E+00  0.99999998245E-14  0.12500000000E+03  0.12500000000E+03 0.  0.
        -11    1    3    3    0    0  0.38391840057E+02  0.24793516216E+02 -0.46556124019E+00  0.45704141791E+02  0.51100000000E-03 0. -1.
         23    2    1    0    0    0  0.39031656157E+01  0.86590018589E+01 -0.29770077544E+02  0.93751471523E+02  0.88390428671E+02 0.  0.
         11    1    3    3    0    0 -0.34488674441E+02 -0.16134514357E+02 -0.29304516304E+02  0.48047329732E+02  0.51100000000E-03 0.  1.
         22    1    1    0    0    0 -0.39031656157E+01 -0.86590018589E+01  0.29770077544E+02  0.31248528477E+02  0.00000000000E+00 0.  1.
</event>
<event>
 5    1  0.8752570E-005  0.9118800E+02  0.7818608E-02  0.1130116E+00
         25   -1    0    0    0    0  0.00000000000E+00  0.00000000000E+00  0.99999998245E-14  0.12500000000E+03  0.12500000000E+03 0.  0.
        -11    1    3    3    0    0  0.48328011152E+02 -0.28138415082E+02  0.99112627650E+01  0.56794367635E+02  0.51100000000E-03 0. -1.
         23    2    1    0    0    0  0.34808096817E+02  0.67766444601E+00  0.10521050442E+02  0.88630296461E+02  0.80824341107E+02 0.  0.
         11    1    3    3    0    0 -0.13519914335E+02  0.28816079528E+02  0.60978767650E+00  0.31835928826E+02  0.51100000000E-03 0.  1.
         22    1    1    0    0    0 -0.34808096817E+02 -0.67766444601E+00 -0.10521050442E+02  0.36369703539E+02  0.00000000000E+00 0. -1.
</event>
<event>
 5    1  0.8752570E-005  0.9118800E+02  0.7818608E-02  0.1130116E+00
         25   -1    0    0    0    0  0.00000000000E+00  0.00000000000E+00  0.99999998245E-14  0.12500000000E+03  0.12500000000E+03 0.  0.
        -11    1    3    3    0    0  0.25726580250E+02 -0.28625252675E+02 -0.10920360179E+02  0.40006453089E+02  0.51100000000E-03 0. -1.
         23    2    1    0    0    0  0.15445845719E+02  0.23996347105E+02  0.51969007911E+01  0.95992990464E+02  0.91505451292E+02 0.  0.
         11    1    3    3    0    0 -0.10280734531E+02  0.52621599780E+02  0.16117260970E+02  0.55986537376E+02  0.51100000000E-03 0.  1.
         22    1    1    0    0    0 -0.15445845719E+02 -0.23996347105E+02 -0.51969007911E+01  0.29007009536E+02  0.00000000000E+00 0.  1.
</event>
<event>
 5    1  0.8752570E-005  0.9118800E+02  0.7818608E-02  0.1130116E+00
         25   -1    0    0    0    0  0.00000000000E+00  0.00000000000E+00  0.99999998245E-14  0.12500000000E+03  0.12500000000E+03 0.  0.
        -11    1    3    3    0    0 -0.13629216333E+02 -0.46229826430E+02 -0.38099634858E+02  0.61437240874E+02  0.51100000000E-03 0.  1.
         23    2    1    0    0    0 -0.10236690933E+02 -0.24818094550E+02 -0.11390305468E+02  0.95837237494E+02  0.91292438753E+02 0.  0.
         11    1    3    3    0    0  0.33925254000E+01  0.21411731880E+02  0.26709329390E+02  0.34399996620E+02  0.51100000000E-03 0. -1.
         22    1    1    0    0    0  0.10236690933E+02  0.24818094550E+02  0.11390305468E+02  0.29162762506E+02  0.00000000000E+00 0.  1.
</event>
<event>
 5    1  0.8752570E-005  0.9118800E+02  0.7818608E-02  0.1130116E+00
         25   -1    0    0    0    0  0.00000000000E+00  0.00000000000E+00  0.99999998245E-14  0.12500000000E+03  0.12500000000E+03 0.  0.
        -11    1    3    3    0    0  0.16033849116E+02 -0.44017228245E+02 -0.32129178294E+02  0.56805675755E+02  0.51100000000E-03 0. -1.
         23    2    1    0    0    0  0.13690418280E+02 -0.23991727883E+02  0.29023024845E+01  0.97224940698E+02  0.93173146210E+02 0.  0.
         11    1    3    3    0    0 -0.23434308361E+01  0.20025500362E+02  0.35031480778E+02  0.40419264944E+02  0.51100000000E-03 0.  1.
         22    1    1    0    0    0 -0.13690418280E+02  0.23991727883E+02 -0.29023024845E+01  0.27775059302E+02  0.00000000000E+00 0. -1.
</event>
<event>
 5    1  0.8752570E-005  0.9118800E+02  0.7818608E-02  0.1130116E+00
         25   -1    0    0    0    0  0.00000000000E+00  0.00000000000E+00  0.99999998245E-14  0.12500000000E+03  0.12500000000E+03 0.  0.
        -11    1    3    3    0    0 -0.14766580312E+02  0.12917537781E+02 -0.30842105118E+02  0.36553387323E+02  0.51100000000E-03 0.  1.
         23    2    1    0    0    0  0.27326933638E+01  0.16850146588E+02  0.24731363715E+02  0.94949452513E+02  0.90068657857E+02 0.  0.
         11    1    3    3    0    0  0.17499273675E+02  0.39326088076E+01  0.55573468833E+02  0.58396065190E+02  0.51100000000E-03 0. -1.
         22    1    1    0    0    0 -0.27326933638E+01 -0.16850146588E+02 -0.24731363715E+02  0.30050547487E+02  0.00000000000E+00 0. -1.
</event>
<event>
 5    1  0.8752570E-005  0.9118800E+02  0.7818608E-02  0.1130116E+00
         25   -1    0    0    0    0  0.00000000000E+00  0.00000000000E+00  0.99999998245E-14  0.12500000000E+03  0.12500000000E+03 0.  0.
        -11    1    3    3    0    0 -0.19153365303E+02 -0.56316234942E+02  0.14563393524E+02  0.61241016906E+02  0.51100000000E-03 0. -1.
         23    2    1    0    0    0 -0.14539779347E+02 -0.22275241408E+02  0.12371927019E+02  0.95663058417E+02  0.91053635865E+02 0.  0.
         11    1    3    3    0    0  0.46135859556E+01  0.34040993533E+02 -0.21914665050E+01  0.34422041511E+02  0.51100000000E-03 0.  1.
         22    1    1    0    0    0  0.14539779347E+02  0.22275241408E+02 -0.12371927019E+02  0.29336941583E+02  0.00000000000E+00 0. -1.
</event>
<event>
 5    1  0.8752570E-005  0.9118800E+02  0.7818608E-02  0.1130116E+00
         25   -1    0    0    0    0  0.00000000000E+00  0.00000000000E+00  0.99999998245E-14  0.12500000000E+03  0.12500000000E+03 0.  0.
        -11    1    3    3    0    0 -0.21787790727E+02 -0.27602215370E+02 -0.10465871619E+02  0.36689570549E+02  0.51100000000E-03 0.  1.
         23    2    1    0    0    0  0.60621277716E+01  0.24626914719E+02 -0.14082811155E+02  0.95990348301E+02  0.91501841923E+02 0.  0.
         11    1    3    3    0    0  0.27849918499E+02  0.52229130088E+02 -0.36169395360E+01  0.59300777752E+02  0.51100000000E-03 0. -1.
         22    1    1    0    0    0 -0.60621277716E+01 -0.24626914719E+02  0.14082811155E+02  0.29009651699E+02  0.00000000000E+00 0. -1.
</event>
<event>
 5    1  0.8752570E-005  0.9118800E+02  0.7818608E-02  0.1130116E+00
         25   -1    0    0    0    0  0.00000000000E+00  0.00000000000E+00  0.99999998245E-14  0.12500000000E+03  0.12500000000E+03 0.  0.
        -11    1    3    3    0    0 -0.32319700627E+02 -0.25879311118E+02 -0.91660737465E+01  0.42406587941E+02  0.51100000000E-03 0.  1.
         23    2    1    0    0    0 -0.19252569471E+02  0.20093401541E+02  0.12021629633E+02  0.94686211128E+02  0.89702579573E+02 0.  0.
         11    1    3    3    0    0  0.13067131156E+02  0.45972712659E+02  0.21187703380E+02  0.52279623188E+02  0.51100000000E-03 0. -1.
         22    1    1    0    0    0  0.19252569471E+02 -0.20093401541E+02 -0.12021629633E+02  0.30313788872E+02  0.00000000000E+00 0.  1.
</event>
<event>
 5    1  0.8752570E-005  0.9118800E+02  0.7818608E-02  0.1130116E+00
         25   -1    0    0    0    0  0.00000000000E+00  0.00000000000E+00  0.99999998245E-14  0.12500000000E+03  0.12500000000E+03 0.  0.
        -11    1    3    3    0    0 -0.13990407310E+02  0.43345064053E+01 -0.22523533741E+02  0.26866875794E+02  0.51100000000E-03 0.  1.
         23    2    1    0    0    0 -0.21999092199E+02 -0.25182743405E+02  0.24908092309E+02  0.83304152659E+02  0.72118223528E+02 0.  0.
         11    1    3    3    0    0 -0.80086848893E+01 -0.29517249811E+02  0.47431626049E+02  0.56437276865E+02  0.51100000000E-03 0. -1.
         22    1    1    0    0    0  0.21999092199E+02  0.25182743405E+02 -0.24908092309E+02  0.41695847341E+02  0.00000000000E+00 0. -1.
</event>
<event>
 5    1  0.8752570E-005  0.9118800E+02  0.7818608E-02  0.1130116E+00
         25   -1    0    0    0    0  0.00000000000E+00  0.00000000000E+00  0.99999998245E-14  0.12500000000E+03  0.12500000000E+03 0.  0.
        -11    1    3    3    0    0  0.29538531232E+02 -0.51660825649E+02 -0.61116964384E+00  0.59512513497E+02  0.51100000000E-03 0. -1.
         23    2    1    0    0    0  0.68680059110E+01 -0.38559886190E+02 -0.24193696386E+01  0.85758597405E+02  0.76253848108E+02 0.  0.
         11    1    3    3    0    0 -0.22670525321E+02  0.13100939459E+02 -0.18081999948E+01  0.26246083908E+02  0.51100000000E-03 0.  1.
         22    1    1    0    0    0 -0.68680059110E+01  0.38559886190E+02  0.24193696386E+01  0.39241402595E+02  0.00000000000E+00 0. -1.
</event>
<event>
 5    1  0.8752570E-005  0.9118800E+02  0.7818608E-02  0.1130116E+00
         25   -1    0    0    0    0  0.00000000000E+00  0.00000000000E+00  0.99999998245E-14  0.12500000000E+03  0.12500000000E+03 0.  0.
        -11    1    3    3    0    0 -0.20756668156E+02 -0.11362841612E+02  0.53317814495E+02  0.58333033396E+02  0.51100000000E-03 0.  1.
         23    2    1    0    0    0 -0.20905546202E+02  0.52063034121E+01  0.19725618507E+02  0.95789599751E+02  0.91227188589E+02 0.  0.
         11    1    3    3    0    0 -0.14887804642E+00  0.16569145024E+02 -0.33592195988E+02  0.37456566355E+02  0.51100000000E-03 0. -1.
         22    1    1    0    0    0  0.20905546202E+02 -0.52063034121E+01 -0.19725618507E+02  0.29210400249E+02  0.00000000000E+00 0.  1.
</event>
<event>
 5    1  0.8752570E-005  0.9118800E+02  0.7818608E-02  0.1130116E+00
         25   -1    0    0    0    0  0.00000000000E+00  0.00000000000E+00  0.99999998245E-14  0.12500000000E+03  0.12500000000E+03 0.  0.
        -11    1    3    3    0    0 -0.35476447856E+02  0.31797589601E+02  0.28600677509E+02  0.55566750950E+02  0.51100000000E-03 0. -1.
         23    2    1    0    0    0 -0.22702846791E+02  0.16218962037E+02 -0.67853252459E+01  0.96285637380E+02  0.91904348890E+02 0.  0.
         11    1    3    3    0    0  0.12773601064E+02 -0.15578627564E+02 -0.35386002754E+02  0.40718886430E+02  0.51100000000E-03 0.  1.
         22    1    1    0    0    0  0.22702846791E+02 -0.16218962037E+02  0.67853252459E+01  0.28714362620E+02  0.00000000000E+00 0. -1.
</event>
<event>
 5    1  0.8752570E-005  0.9118800E+02  0.7818608E-02  0.1130116E+00
         25   -1    0    0    0    0  0.00000000000E+00  0.00000000000E+00  0.99999998245E-14  0.12500000000E+03  0.12500000000E+03 0.  0.
        -11    1    3    3    0    0  0.15795167322E+02  0.22466005070E+02 -0.40578220559E+02  0.48997966065E+02  0.51100000000E-03 0.  1.
         23    2    1    0    0    0  0.22523288421E+02  0.17325204631E+02  0.56776811049E+01  0.96022469057E+02  0.91545711338E+02 0.  0.
         11    1    3    3    0    0  0.67281210994E+01 -0.51408004394E+01  0.46255901664E+02  0.47024502992E+02  0.51100000000E-03 0. -1.
         22    1    1    0    0    0 -0.22523288421E+02 -0.17325204631E+02 -0.56776811049E+01  0.28977530943E+02  0.00000000000E+00 0.  1.
</event>
<event>
 5    1  0.8752570E-005  0.9118800E+02  0.7818608E-02  0.1130116E+00
         25   -1    0    0    0    0  0.00000000000E+00  0.00000000000E+00  0.99999998245E-14  0.12500000000E+03  0.12500000000E+03 0.  0.
        -11    1    3    3    0    0 -0.42468323615E+02  0.23051691617E+02 -0.92580458745E+01  0.49200105800E+02  0.51100000000E-03 0.  1.
         23    2    1    0    0    0  0.36999192828E+01  0.19732514217E+02 -0.19939883419E+02  0.96704055577E+02  0.92471692395E+02 0.  0.
         11    1    3    3    0    0  0.46168242898E+02 -0.33191773995E+01 -0.10681837544E+02  0.47503949777E+02  0.51100000000E-03 0. -1.
         22    1    1    0    0    0 -0.36999192828E+01 -0.19732514217E+02  0.19939883419E+02  0.28295944423E+02  0.00000000000E+00 0.  1.
</event>
<event>
 5    1  0.8752570E-005  0.9118800E+02  0.7818608E-02  0.1130116E+00
         25   -1    0    0    0    0  0.00000000000E+00  0.00000000000E+00  0.99999998245E-14  0.12500000000E+03  0.12500000000E+03 0.  0.
        -11    1    3    3    0    0 -0.32208797281E+02 -0.30529023981E+02  0.19411213976E+02  0.48437827736E+02  0.51100000000E-03 0. -1.
         23    2    1    0    0    0 -0.31117270658E+00  0.17819601259E+01  0.29906898256E+02  0.95038445073E+02  0.90192079854E+02 0.  0.
         11    1    3    3    0    0  0.31897624574E+02  0.32310984107E+02  0.10495684280E+02  0.46600617337E+02  0.51100000000E-03 0.  1.
         22    1    1    0    0    0  0.31117270658E+00 -0.17819601259E+01 -0.29906898256E+02  0.29961554927E+02  0.00000000000E+00 0. -1.
</event>
<event>
 5    1  0.8752570E-005  0.9118800E+02  0.7818608E-02  0.1130116E+00
         25   -1    0    0    0    0  0.00000000000E+00  0.00000000000E+00  0.99999998245E-14  0.12500000000E+03  0.12500000000E+03 0.  0.
        -11    1    3    3    0    0 -0.37472012649E+02 -0.21787470244E+02 -0.28581688828E+02  0.51920694603E+02  0.51100000000E-03 0.  1.
         23    2    1    0    0    0  0.37402201644E+01 -0.43551806077E+01 -0.27735993997E+02  0.96676119475E+02  0.92433921634E+02 0.  0.
         11    1    3    3    0    0  0.41212232813E+02  0.17432289636E+02  0.84569483037E+00  0.44755424871E+02  0.51100000000E-03 0. -1.
         22    1    1    0    0    0 -0.37402201644E+01  0.43551806077E+01  0.27735993997E+02  0.28323880525E+02  0.00000000000E+00 0.  1.
</event>
<event>
 5    1  0.8752570E-005  0.9118800E+02  0.7818608E-02  0.1130116E+00
         25   -1    0    0    0    0  0.00000000000E+00  0.00000000000E+00  0.99999998245E-14  0.12500000000E+03  0.12500000000E+03 0.  0.
        -11    1    3    3    0    0 -0.35416980371E+02  0.39338021616E+02  0.33124905543E+02  0.62442788301E+02  0.51100000000E-03 0.  1.
         23    2    1    0    0    0 -0.17432606858E+02  0.18757398087E+02  0.13849505733E+02  0.95887381191E+02  0.91361071018E+02 0.  0.
         11    1    3    3    0    0  0.17984373513E+02 -0.20580623529E+02 -0.19275399809E+02  0.33444592890E+02  0.51100000000E-03 0. -1.
         22    1    1    0    0    0  0.17432606858E+02 -0.18757398087E+02 -0.13849505733E+02  0.29112618809E+02  0.00000000000E+00 0.  1.
</event>
<event>
 5    1  0.8752570E-005  0.9118800E+02  0.7818608E-02  0.1130116E+00
         25   -1    0    0    0    0  0.00000000000E+00  0.00000000000E+00  0.99999998245E-14  0.12500000000E+03  0.12500000000E+03 0.  0.
        -11    1    3    3    0    0  0.34567417634E+02  0.23742525013E+02  0.41798424463E+01  0.42143622757E+02  0.51100000000E-03 0.  1.
         23    2    1    0    0    0  0.13327302765E+02 -0.23817412215E+02 -0.96769780757E+01  0.96042617033E+02  0.91573218019E+02 0.  0.
         11    1    3    3    0    0 -0.21240114869E+02 -0.47559937228E+02 -0.13856820522E+02  0.53898994277E+02  0.51100000000E-03 0. -1.
         22    1    1    0    0    0 -0.13327302765E+02  0.23817412215E+02  0.96769780757E+01  0.28957382967E+02  0.00000000000E+00 0. -1.
</event>
<event>
 5    1  0.8752570E-005  0.9118800E+02  0.7818608E-02  0.1130116E+00
         25   -1    0    0    0    0  0.00000000000E+00  0.00000000000E+00  0.99999998245E-14  0.12500000000E+03  0.12500000000E+03 0.  0.
        -11    1    3    3    0    0  0.12708318498E+02 -0.22188916181E+02 -0.46961317380E+02  0.53471625098E+02  0.51100000000E-03 0. -1.
         23    2    1    0    0    0 -0.17857402302E+02 -0.12757970362E+02 -0.20044266224E+02  0.95277529827E+02  0.90522828374E+02 0.  0.
         11    1    3    3    0    0 -0.30565720800E+02  0.94309458189E+01  0.26917051156E+02  0.41805904729E+02  0.51100000000E-03 0.  1.
         22    1    1    0    0    0  0.17857402302E+02  0.12757970362E+02  0.20044266224E+02  0.29722470173E+02  0.00000000000E+00 0.  1.
</event>
<event>
 5    1  0.8752570E-005  0.9118800E+02  0.7818608E-02  0.1130116E+00
         25   -1    0    0    0    0  0.00000000000E+00  0.00000000000E+00  0.99999998245E-14  0.12500000000E+03  0.12500000000E+03 0.  0.
        -11    1    3    3    0    0  0.34296646373E+02  0.14222885050E+02 -0.12834243365E+02  0.39284452581E+02  0.51100000000E-03 0. -1.
         23    2    1    0    0    0 -0.18783246649E+02  0.23430499829E+02  0.11691760007E+01  0.94947285490E+02  0.90065650347E+02 0.  0.
         11    1    3    3    0    0 -0.53079893023E+02  0.92076147789E+01  0.14003419365E+02  0.55662832908E+02  0.51100000000E-03 0.  1.
         22    1    1    0    0    0  0.18783246649E+02 -0.23430499829E+02 -0.11691760007E+01  0.30052714510E+02  0.00000000000E+00 0.  1.
</event>
<event>
 5    1  0.8752570E-005  0.9118800E+02  0.7818608E-02  0.1130116E+00
         25   -1    0    0    0    0  0.00000000000E+00  0.00000000000E+00  0.99999998245E-14  0.12500000000E+03  0.12500000000E+03 0.  0.
        -11    1    3    3    0    0  0.41113616147E+02  0.25879978464E+02  0.55913663593E+01  0.48901596048E+02  0.51100000000E-03 0.  1.
         23    2    1    0    0    0  0.20516358946E+01  0.14710594150E+02 -0.22317661314E+02  0.98191628237E+02  0.94461140471E+02 0.  0.
         11    1    3    3    0    0 -0.39061980253E+02 -0.11169384314E+02 -0.27909027673E+02  0.49290032189E+02  0.51100000000E-03 0. -1.
         22    1    1    0    0    0 -0.20516358946E+01 -0.14710594150E+02  0.22317661314E+02  0.26808371763E+02  0.00000000000E+00 0. -1.
</event>
<event>
 5    1  0.8752570E-005  0.9118800E+02  0.7818608E-02  0.1130116E+00
         25   -1    0    0    0    0  0.00000000000E+00  0.00000000000E+00  0.99999998245E-14  0.12500000000E+03  0.12500000000E+03 0.  0.
        -11    1    3    3    0    0 -0.33571854644E+02 -0.39325841785E+02  0.17929600421E+02  0.54727158047E+02  0.51100000000E-03 0. -1.
         23    2    1    0    0    0  0.40485341477E+01 -0.21414241085E+02  0.18523110610E+02  0.96398147321E+02  0.92057247570E+02 0.  0.
         11    1    3    3    0    0  0.37620388792E+02  0.17911600700E+02  0.59351018862E+00  0.41670989274E+02  0.51100000000E-03 0.  1.
         22    1    1    0    0    0 -0.40485341477E+01  0.21414241085E+02 -0.18523110610E+02  0.28601852679E+02  0.00000000000E+00 0. -1.
</event>
<event>
 5    1  0.8752570E-005  0.9118800E+02  0.7818608E-02  0.1130116E+00
         25   -1    0    0    0    0  0.00000000000E+00  0.00000000000E+00  0.99999998245E-14  0.12500000000E+03  0.12500000000E+03 0.  0.
        -11    1    3    3    0    0  0.35564019492E+02  0.38729471654E+02  0.12439535428E+02  0.54032522604E+02  0.51100000000E-03 0.  1.
         23    2    1    0    0    0  0.26603558886E+02 -0.20750454464E+01  0.11822709256E+02  0.95813845523E+02  0.91260404233E+02 0.  0.
         11    1    3    3    0    0 -0.89604606057E+01 -0.40804517100E+02 -0.61682617232E+00  0.41781322919E+02  0.51100000000E-03 0. -1.
         22    1    1    0    0    0 -0.26603558886E+02  0.20750454464E+01 -0.11822709256E+02  0.29186154477E+02  0.00000000000E+00 0.  1.
</event>
<event>
 5    1  0.8752570E-005  0.9118800E+02  0.7818608E-02  0.1130116E+00
         25   -1    0    0    0    0  0.00000000000E+00  0.00000000000E+00  0.99999998245E-14  0.12500000000E+03  0.12500000000E+03 0.  0.
        -11    1    3    3    0    0  0.10051519990E+02  0.35028010616E+02  0.13609182940E+02  0.38899928565E+02  0.51100000000E-03 0. -1.
         23    2    1    0    0    0  0.13691969523E+02 -0.21976285920E+02  0.13008057134E+02  0.96023514315E+02  0.91547138561E+02 0.  0.
         11    1    3    3    0    0  0.36404495330E+01 -0.57004296536E+02 -0.60112580587E+00  0.57123585749E+02  0.51100000000E-03 0.  1.
         22    1    1    0    0    0 -0.13691969523E+02  0.21976285920E+02 -0.13008057134E+02  0.28976485685E+02  0.00000000000E+00 0.  1.
</event>
<event>
 5    1  0.8752570E-005  0.9118800E+02  0.7818608E-02  0.1130116E+00
         25   -1    0    0    0    0  0.00000000000E+00  0.00000000000E+00  0.99999998245E-14  0.12500000000E+03  0.12500000000E+03 0.  0.
        -11    1    3    3    0    0 -0.51156095850E+01  0.43774031975E+02  0.36578880297E+02  0.57274338239E+02  0.51100000000E-03 0. -1.
         23    2    1    0    0    0  0.13931101148E+02  0.20723994720E+02  0.25893246187E+02  0.89027514203E+02  0.81436346619E+02 0.  0.
         11    1    3    3    0    0  0.19046710733E+02 -0.23050037255E+02 -0.10685634110E+02  0.31753175963E+02  0.51100000000E-03 0.  1.
         22    1    1    0    0    0 -0.13931101148E+02 -0.20723994720E+02 -0.25893246187E+02  0.35972485797E+02  0.00000000000E+00 0.  1.
</event>
<event>
 5    1  0.8752570E-005  0.9118800E+02  0.7818608E-02  0.1130116E+00
         25   -1    0    0    0    0  0.00000000000E+00  0.00000000000E+00  0.99999998245E-14  0.12500000000E+03  0.12500000000E+03 0.  0.
        -11    1    3    3    0    0  0.26609087458E+02 -0.44475288513E+02  0.27568780029E+02  0.58703768672E+02  0.51100000000E-03 0.  1.
         23    2    1    0    0    0  0.21668561976E+02 -0.21517349435E+02  0.60964990007E+00  0.94456677034E+02  0.89382152908E+02 0.  0.
         11    1    3    3    0    0 -0.49405254819E+01  0.22957939079E+02 -0.26959130129E+02  0.35752908362E+02  0.51100000000E-03 0. -1.
         22    1    1    0    0    0 -0.21668561976E+02  0.21517349435E+02 -0.60964990007E+00  0.30543322966E+02  0.00000000000E+00 0.  1.
</event>
<event>
 5    1  0.8752570E-005  0.9118800E+02  0.7818608E-02  0.1130116E+00
         25   -1    0    0    0    0  0.00000000000E+00  0.00000000000E+00  0.99999998245E-14  0.12500000000E+03  0.12500000000E+03 0.  0.
        -11    1    3    3    0    0  0.16706835250E+02  0.52708781069E+02  0.28564341768E+02  0.62235484788E+02  0.51100000000E-03 0.  1.
         23    2    1    0    0    0  0.11020476865E+02  0.22400699485E+02  0.11050938107E+02  0.97698617603E+02  0.93806473128E+02 0.  0.
         11    1    3    3    0    0 -0.56863583849E+01 -0.30308081584E+02 -0.17513403662E+02  0.35463132815E+02  0.51100000000E-03 0. -1.
         22    1    1    0    0    0 -0.11020476865E+02 -0.22400699485E+02 -0.11050938107E+02  0.27301382397E+02  0.00000000000E+00 0.  1.
</event>
<event>
 5    1  0.8752570E-005  0.9118800E+02  0.7818608E-02  0.1130116E+00
         25   -1    0    0    0    0  0.00000000000E+00  0.00000000000E+00  0.99999998245E-14  0.12500000000E+03  0.12500000000E+03 0.  0.
        -11    1    3    3    0    0 -0.44123077130E+02 -0.15559746706E+02  0.30285095189E+01  0.46884150020E+02  0.51100000000E-03 0.  1.
         23    2    1    0    0    0 -0.31236955513E+01 -0.20463822569E+02  0.24090458095E+02  0.93237196609E+02  0.87660134338E+02 0.  0.
         11    1    3    3    0    0  0.40999381579E+02 -0.49040758632E+01  0.21061948576E+02  0.46353046588E+02  0.51100000000E-03 0. -1.
         22    1    1    0    0    0  0.31236955513E+01  0.20463822569E+02 -0.24090458095E+02  0.31762803391E+02  0.00000000000E+00 0.  1.
</event>
<event>
 5    1  0.8752570E-005  0.9118800E+02  0.7818608E-02  0.1130116E+00
         25   -1    0    0    0    0  0.00000000000E+00  0.00000000000E+00  0.99999998245E-14  0.12500000000E+03  0.12500000000E+03 0.  0.
        -11    1    3    3    0    0 -0.34967019999E+02  0.10233091371E+02  0.29145617516E+01  0.36550011178E+02  0.51100000000E-03 0. -1.
         23    2    1    0    0    0  0.19951537079E+02 -0.15035499486E+02 -0.95137697890E+01  0.98267213161E+02  0.94561108761E+02 0.  0.
         11    1    3    3    0    0  0.54918557078E+02 -0.25268590856E+02 -0.12428331541E+02  0.61717201983E+02  0.51100000000E-03 0.  1.
         22    1    1    0    0    0 -0.19951537079E+02  0.15035499486E+02  0.95137697890E+01  0.26732786839E+02  0.00000000000E+00 0.  1.
</event>
<event>
 5    1  0.8752570E-005  0.9118800E+02  0.7818608E-02  0.1130116E+00
         25   -1    0    0    0    0  0.00000000000E+00  0.00000000000E+00  0.99999998245E-14  0.12500000000E+03  0.12500000000E+03 0.  0.
        -11    1    3    3    0    0 -0.12028135507E+02 -0.22848357249E+02 -0.23493256784E+02  0.34909262200E+02  0.51100000000E-03 0.  1.
         23    2    1    0    0    0  0.14832161277E+02 -0.26549807278E+01  0.26127999663E+02  0.94838529592E+02  0.89914583901E+02 0.  0.
         11    1    3    3    0    0  0.26860296784E+02  0.20193376521E+02  0.49621256446E+02  0.59929267393E+02  0.51100000000E-03 0. -1.
         22    1    1    0    0    0 -0.14832161277E+02  0.26549807278E+01 -0.26127999663E+02  0.30161470408E+02  0.00000000000E+00 0. -1.
</event>
<event>
 5    1  0.8752570E-005  0.9118800E+02  0.7818608E-02  0.1130116E+00
         25   -1    0    0    0    0  0.00000000000E+00  0.00000000000E+00  0.99999998245E-14  0.12500000000E+03  0.12500000000E+03 0.  0.
        -11    1    3    3    0    0  0.55692983567E+01 -0.57164832856E+02 -0.15772761360E+02  0.59561860287E+02  0.51100000000E-03 0.  1.
         23    2    1    0    0    0 -0.59350269165E+01 -0.28803075070E+02  0.29558959214E+01  0.95443630150E+02  0.90751901013E+02 0.  0.
         11    1    3    3    0    0 -0.11504325273E+02  0.28361757786E+02  0.18728657282E+02  0.35881769863E+02  0.51100000000E-03 0. -1.
         22    1    1    0    0    0  0.59350269165E+01  0.28803075070E+02 -0.29558959214E+01  0.29556369850E+02  0.00000000000E+00 0.  1.
</event>
<event>
 5    1  0.8752570E-005  0.9118800E+02  0.7818608E-02  0.1130116E+00
         25   -1    0    0    0    0  0.00000000000E+00  0.00000000000E+00  0.99999998245E-14  0.12500000000E+03  0.12500000000E+03 0.  0.
        -11    1    3    3    0    0  0.24148773021E+02  0.22074673137E+02 -0.89471107737E+01  0.33919098219E+02  0.51100000000E-03 0.  1.
         23    2    1    0    0    0 -0.14326946835E+02 -0.24849184893E+02  0.42063808314E+01  0.96009707915E+02  0.91528285130E+02 0.  0.
         11    1    3    3    0    0 -0.38475719855E+02 -0.46923858030E+02  0.13153491605E+02  0.62090609697E+02  0.51100000000E-03 0. -1.
         22    1    1    0    0    0  0.14326946835E+02  0.24849184893E+02 -0.42063808314E+01  0.28990292085E+02  0.00000000000E+00 0. -1.
</event>
<event>
 5    1  0.8752570E-005  0.9118800E+02  0.7818608E-02  0.1130116E+00
         25   -1    0    0    0    0  0.00000000000E+00  0.00000000000E+00  0.99999998245E-14  0.12500000000E+03  0.12500000000E+03 0.  0.
        -11    1    3    3    0    0  0.42978715644E+01 -0.19904794722E+02  0.44571690191E+02  0.49003143977E+02  0.51100000000E-03 0. -1.
         23    2    1    0    0    0 -0.12314613425E+02 -0.26819151400E+02  0.17673517130E+01  0.95435830509E+02  0.90741157295E+02 0.  0.
         11    1    3    3    0    0 -0.16612484990E+02 -0.69143566782E+01 -0.42804338477E+02  0.46432686532E+02  0.51100000000E-03 0.  1.
         22    1    1    0    0    0  0.12314613425E+02  0.26819151400E+02 -0.17673517130E+01  0.29564169491E+02  0.00000000000E+00 0.  1.
</event>
<event>
 5    1  0.8752570E-005  0.9118800E+02  0.7818608E-02  0.1130116E+00
         25   -1    0    0    0    0  0.00000000000E+00  0.00000000000E+00  0.99999998245E-14  0.12500000000E+03  0.12500000000E+03 0.  0.
        -11    1    3    3    0    0 -0.10079043715E+02  0.30659678870E+02  0.21744162181E+02  0.38915441920E+02  0.51100000000E-03 0.  1.
         23    2    1    0    0    0  0.24164998218E+02 -0.12903460262E+02  0.11616174543E+02  0.95244631802E+02  0.90477389167E+02 0.  0.
         11    1    3    3    0    0  0.34244041932E+02 -0.43563139132E+02 -0.10127987638E+02  0.56329189882E+02  0.51100000000E-03 0. -1.
         22    1    1    0    0    0 -0.24164998218E+02  0.12903460262E+02 -0.11616174543E+02  0.29755368198E+02  0.00000000000E+00 0. -1.
</event>
<event>
 5    1  0.8752570E-005  0.9118800E+02  0.7818608E-02  0.1130116E+00
         25   -1    0    0    0    0  0.00000000000E+00  0.00000000000E+00  0.99999998245E-14  0.12500000000E+03  0.12500000000E+03 0.  0.
        -11    1    3    3    0    0  0.19539208164E+02  0.55403577732E+02  0.15614367910E+02  0.60787709010E+02  0.51100000000E-03 0.  1.
         23    2    1    0    0    0  0.44006714177E+01  0.23953926402E+02  0.16292968511E+02  0.95697827352E+02  0.91101354754E+02 0.  0.
         11    1    3    3    0    0 -0.15138536746E+02 -0.31449651330E+02  0.67860060099E+00  0.34910118342E+02  0.51100000000E-03 0. -1.
         22    1    1    0    0    0 -0.44006714177E+01 -0.23953926402E+02 -0.16292968511E+02  0.29302172648E+02  0.00000000000E+00 0.  1.
</event>
<event>
 5    1  0.8752570E-005  0.9118800E+02  0.7818608E-02  0.1130116E+00
         25   -1    0    0    0    0  0.00000000000E+00  0.00000000000E+00  0.99999998245E-14  0.12500000000E+03  0.12500000000E+03 0.  0.
        -11    1    3    3    0    0  0.29919961653E+02 -0.28975693327E+02 -0.43884893146E+02  0.60503543332E+02  0.51100000000E-03 0.  1.
         23    2    1    0    0    0  0.34663208597E+01 -0.16928034360E+02 -0.22697821994E+02  0.96473436049E+02  0.92159421722E+02 0.  0.
         11    1    3    3    0    0 -0.26453640793E+02  0.12047658967E+02  0.21187071152E+02  0.35969892717E+02  0.51100000000E-03 0. -1.
         22    1    1    0    0    0 -0.34663208597E+01  0.16928034360E+02  0.22697821994E+02  0.28526563951E+02  0.00000000000E+00 0.  1.
</event>
<event>
 5    1  0.8752570E-005  0.9118800E+02  0.7818608E-02  0.1130116E+00
         25   -1    0    0    0    0  0.00000000000E+00  0.00000000000E+00  0.99999998245E-14  0.12500000000E+03  0.12500000000E+03 0.  0.
        -11    1    3    3    0    0 -0.23669693276E+02 -0.27621968957E+02  0.26834416026E+01  0.36475038148E+02  0.51100000000E-03 0. -1.
         23    2    1    0    0    0  0.14070936959E+02  0.11008110779E+02 -0.22670421817E+02  0.96136220012E+02  0.91700899685E+02 0.  0.
         11    1    3    3    0    0  0.37740630234E+02  0.38630079736E+02 -0.25353863420E+02  0.59661181864E+02  0.51100000000E-03 0.  1.
         22    1    1    0    0    0 -0.14070936959E+02 -0.11008110779E+02  0.22670421817E+02  0.28863779988E+02  0.00000000000E+00 0.  1.
</event>
<event>
 5    1  0.8752570E-005  0.9118800E+02  0.7818608E-02  0.1130116E+00
         25   -1    0    0    0    0  0.00000000000E+00  0.00000000000E+00  0.99999998245E-14  0.12500000000E+03  0.12500000000E+03 0.  0.
        -11    1    3    3    0    0  0.13559855173E+02 -0.34289093836E+02 -0.18842924873E+02  0.41408543157E+02  0.51100000000E-03 0.  1.
         23    2    1    0    0    0 -0.17907537825E+02 -0.62653806737E+01  0.19076577851E+02  0.98095525865E+02  0.94333882918E+02 0.  0.
         11    1    3    3    0    0 -0.31467392998E+02  0.28023713162E+02  0.37919502724E+02  0.56686982708E+02  0.51100000000E-03 0. -1.
         22    1    1    0    0    0  0.17907537825E+02  0.62653806737E+01 -0.19076577851E+02  0.26904474135E+02  0.00000000000E+00 0. -1.
</event>
<event>
 5    1  0.8752570E-005  0.9118800E+02  0.7818608E-02  0.1130116E+00
         25   -1    0    0    0    0  0.00000000000E+00  0.00000000000E+00  0.99999998245E-14  0.12500000000E+03  0.12500000000E+03 0.  0.
        -11    1    3    3    0    0  0.30953955782E+02 -0.27259805925E+02 -0.62453805849E+01  0.41716293898E+02  0.51100000000E-03 0.  1.
         23    2    1    0    0    0  0.19188469109E+02  0.22913723880E+02  0.55954833247E+01  0.94593659832E+02  0.89573517057E+02 0.  0.
         11    1    3    3    0    0 -0.11765486674E+02  0.50173529805E+02  0.11840863910E+02  0.52877365934E+02  0.51100000000E-03 0. -1.
         22    1    1    0    0    0 -0.19188469109E+02 -0.22913723880E+02 -0.55954833247E+01  0.30406340168E+02  0.00000000000E+00 0. -1.
</event>
<event>
 5    1  0.8752570E-005  0.9118800E+02  0.7818608E-02  0.1130116E+00
         25   -1    0    0    0    0  0.00000000000E+00  0.00000000000E+00  0.99999998245E-14  0.12500000000E+03  0.12500000000E+03 0.  0.
        -11    1    3    3    0    0  0.24038078697E+02 -0.10261659784E+02  0.31166752789E+02  0.40675513133E+02  0.51100000000E-03 0. -1.
         23    2    1    0    0    0  0.52682052426E+01 -0.13008998814E+02 -0.22993253115E+02  0.98061593858E+02  0.94288909553E+02 0.  0.
         11    1    3    3    0    0 -0.18769873454E+02 -0.27473390303E+01 -0.54160005904E+02  0.57386080725E+02  0.51100000000E-03 0.  1.
         22    1    1    0    0    0 -0.52682052426E+01  0.13008998814E+02  0.22993253115E+02  0.26938406142E+02  0.00000000000E+00 0.  1.
</event>
<event>
 5    1  0.8752570E-005  0.9118800E+02  0.7818608E-02  0.1130116E+00
         25   -1    0    0    0    0  0.00000000000E+00  0.00000000000E+00  0.99999998245E-14  0.12500000000E+03  0.12500000000E+03 0.  0.
        -11    1    3    3    0    0 -0.98293783493E+01  0.17028922701E+01  0.57124942860E+02  0.57989444021E+02  0.51100000000E-03 0.  1.
         23    2    1    0    0    0  0.12192538103E+02 -0.15944903113E+01  0.25768121513E+02  0.96448354319E+02  0.92125395955E+02 0.  0.
         11    1    3    3    0    0  0.22021916452E+02 -0.32973825815E+01 -0.31356821347E+02  0.38458910299E+02  0.51100000000E-03 0. -1.
         22    1    1    0    0    0 -0.12192538103E+02  0.15944903113E+01 -0.25768121513E+02  0.28551645681E+02  0.00000000000E+00 0.  1.
</event>
<event>
 5    1  0.8752570E-005  0.9118800E+02  0.7818608E-02  0.1130116E+00
         25   -1    0    0    0    0  0.00000000000E+00  0.00000000000E+00  0.99999998245E-14  0.12500000000E+03  0.12500000000E+03 0.  0.
        -11    1    3    3    0    0 -0.13786843930E+02 -0.14145200321E+02  0.29540733118E+02  0.35536160049E+02  0.51100000000E-03 0. -1.
         23    2    1    0    0    0 -0.11583972606E+02  0.15249491327E+02 -0.22566369080E+02  0.95403101167E+02  0.90696059958E+02 0.  0.
         11    1    3    3    0    0  0.22028713244E+01  0.29394691648E+02 -0.52107102197E+02  0.59866941118E+02  0.51100000000E-03 0.  1.
         22    1    1    0    0    0  0.11583972606E+02 -0.15249491327E+02  0.22566369080E+02  0.29596898833E+02  0.00000000000E+00 0.  1.
</event>
<event>
 5    1  0.8752570E-005  0.9118800E+02  0.7818608E-02  0.1130116E+00
         25   -1    0    0    0    0  0.00000000000E+00  0.00000000000E+00  0.99999998245E-14  0.12500000000E+03  0.12500000000E+03 0.  0.
        -11    1    3    3    0    0  0.82910938479E+01 -0.31165804643E+02  0.11640267261E+02  0.34286228116E+02  0.51100000000E-03 0.  1.
         23    2    1    0    0    0 -0.11604797493E+02  0.12081430278E+02 -0.25379186453E+02  0.94590537863E+02  0.89569160238E+02 0.  0.
         11    1    3    3    0    0 -0.19895891341E+02  0.43247234921E+02 -0.37019453714E+02  0.60304309747E+02  0.51100000000E-03 0. -1.
         22    1    1    0    0    0  0.11604797493E+02 -0.12081430278E+02  0.25379186453E+02  0.30409462137E+02  0.00000000000E+00 0. -1.
</event>
<event>
 5    1  0.8752570E-005  0.9118800E+02  0.7818608E-02  0.1130116E+00
         25   -1    0    0    0    0  0.00000000000E+00  0.00000000000E+00  0.99999998245E-14  0.12500000000E+03  0.12500000000E+03 0.  0.
        -11    1    3    3    0    0  0.38904432710E+02  0.39541812224E+02  0.92522994993E+01  0.56238019566E+02  0.51100000000E-03 0. -1.
         23    2    1    0    0    0 -0.87365792118E+00  0.25376989667E+02  0.75992275994E+01  0.98495224151E+02  0.94862036862E+02 0.  0.
         11    1    3    3    0    0 -0.39778090631E+02 -0.14164822557E+02 -0.16530718999E+01  0.42257204585E+02  0.51100000000E-03 0.  1.
         22    1    1    0    0    0  0.87365792118E+00 -0.25376989667E+02 -0.75992275994E+01  0.26504775849E+02  0.00000000000E+00 0.  1.
</event>
<event>
 5    1  0.8752570E-005  0.9118800E+02  0.7818608E-02  0.1130116E+00
         25   -1    0    0    0    0  0.00000000000E+00  0.00000000000E+00  0.99999998245E-14  0.12500000000E+03  0.12500000000E+03 0.  0.
        -11    1    3    3    0    0 -0.37176320828E+02  0.10015771729E+02  0.14337781157E+02  0.41084869264E+02  0.51100000000E-03 0.  1.
         23    2    1    0    0    0 -0.78091133004E+01 -0.11815699485E+02 -0.25904295353E+02  0.95476695263E+02  0.90797432870E+02 0.  0.
         11    1    3    3    0    0  0.29367207528E+02 -0.21831471214E+02 -0.40242076510E+02  0.54391825999E+02  0.51100000000E-03 0. -1.
         22    1    1    0    0    0  0.78091133004E+01  0.11815699485E+02  0.25904295353E+02  0.29523304737E+02  0.00000000000E+00 0. -1.
</event>
<event>
 5    1  0.8752570E-005  0.9118800E+02  0.7818608E-02  0.1130116E+00
         25   -1    0    0    0    0  0.00000000000E+00  0.00000000000E+00  0.99999998245E-14  0.12500000000E+03  0.12500000000E+03 0.  0.
        -11    1    3    3    0    0 -0.36414233763E+02 -0.34365204342E+02 -0.17718595651E+02  0.53112261505E+02  0.51100000000E-03 0. -1.
         23    2    1    0    0    0  0.27614407860E+01 -0.29518928671E+02 -0.31659176525E+01  0.95183633023E+02  0.90393076371E+02 0.  0.
         11    1    3    3    0    0  0.39175674549E+02  0.48462756704E+01  0.14552677999E+02  0.42071371519E+02  0.51100000000E-03 0.  1.
         22    1    1    0    0    0 -0.27614407860E+01  0.29518928671E+02  0.31659176525E+01  0.29816366977E+02  0.00000000000E+00 0. -1.
</event>
<event>
 5    1  0.8752570E-005  0.9118800E+02  0.7818608E-02  0.1130116E+00
         25   -1    0    0    0    0  0.00000000000E+00  0.00000000000E+00  0.99999998245E-14  0.12500000000E+03  0.12500000000E+03 0.  0.
        -11    1    3    3    0    0 -0.33968462715E+02 -0.44352471182E+01  0.51292696624E+02  0.61680374540E+02  0.51100000000E-03 0. -1.
         23    2    1    0    0    0 -0.10560423708E+02  0.79573858858E+00  0.27786592664E+02  0.95263650515E+02  0.90503660858E+02 0.  0.
         11    1    3    3    0    0  0.23408039007E+02  0.52309857068E+01 -0.23506103959E+02  0.33583275975E+02  0.51100000000E-03 0.  1.
         22    1    1    0    0    0  0.10560423708E+02 -0.79573858858E+00 -0.27786592664E+02  0.29736349485E+02  0.00000000000E+00 0. -1.
</event>
<event>
 5    1  0.8752570E-005  0.9118800E+02  0.7818608E-02  0.1130116E+00
         25   -1    0    0    0    0  0.00000000000E+00  0.00000000000E+00  0.99999998245E-14  0.12500000000E+03  0.12500000000E+03 0.  0.
        -11    1    3    3    0    0 -0.24930043386E+02  0.51249598058E+02  0.70742749092E+01  0.57428857990E+02  0.51100000000E-03 0. -1.
         23    2    1    0    0    0 -0.21323055703E+02  0.18697557986E+02 -0.10695827325E+02  0.94690395890E+02  0.89708410824E+02 0.  0.
         11    1    3    3    0    0  0.36069876832E+01 -0.32552040072E+02 -0.17770102234E+02  0.37261537900E+02  0.51100000000E-03 0.  1.
         22    1    1    0    0    0  0.21323055703E+02 -0.18697557986E+02  0.10695827325E+02  0.30309604110E+02  0.00000000000E+00 0. -1.
</event>
<event>
 5    1  0.8752570E-005  0.9118800E+02  0.7818608E-02  0.1130116E+00
         25   -1    0    0    0    0  0.00000000000E+00  0.00000000000E+00  0.99999998245E-14  0.12500000000E+03  0.12500000000E+03 0.  0.
        -11    1    3    3    0    0  0.37671912867E+02  0.20196987650E+02  0.29750082970E+02  0.52078390588E+02  0.51100000000E-03 0.  1.
         23    2    1    0    0    0 -0.56669381238E+01  0.13288850172E+02  0.24874811990E+02  0.96234326044E+02  0.91834533325E+02 0.  0.
         11    1    3    3    0    0 -0.43338850991E+02 -0.69081374782E+01 -0.48752709804E+01  0.44155935456E+02  0.51100000000E-03 0. -1.
         22    1    1    0    0    0  0.56669381238E+01 -0.13288850172E+02 -0.24874811990E+02  0.28765673956E+02  0.00000000000E+00 0. -1.
</event>
<event>
 5    1  0.8752570E-005  0.9118800E+02  0.7818608E-02  0.1130116E+00
         25   -1    0    0    0    0  0.00000000000E+00  0.00000000000E+00  0.99999998245E-14  0.12500000000E+03  0.12500000000E+03 0.  0.
        -11    1    3    3    0    0  0.10687400797E+02  0.37702787693E+02 -0.18072086586E+02  0.43154617939E+02  0.51100000000E-03 0.  1.
         23    2    1    0    0    0 -0.16338570888E+02 -0.10505419255E+02 -0.18141077763E+02  0.98421598340E+02  0.94764970242E+02 0.  0.
         11    1    3    3    0    0 -0.27025971686E+02 -0.48208206947E+02 -0.68991177983E-01  0.55266980401E+02  0.51100000000E-03 0. -1.
         22    1    1    0    0    0  0.16338570888E+02  0.10505419255E+02  0.18141077763E+02  0.26578401660E+02  0.00000000000E+00 0. -1.
</event>
<event>
 5    1  0.8752570E-005  0.9118800E+02  0.7818608E-02  0.1130116E+00
         25   -1    0    0    0    0  0.00000000000E+00  0.00000000000E+00  0.99999998245E-14  0.12500000000E+03  0.12500000000E+03 0.  0.
        -11    1    3    3    0    0 -0.94927637823E+00  0.12394022567E+02  0.43305355258E+02  0.45054042164E+02  0.51100000000E-03 0. -1.
         23    2    1    0    0    0  0.25342912584E+02 -0.13044068980E+02  0.92544906259E+01  0.95032408329E+02  0.90183712955E+02 0.  0.
         11    1    3    3    0    0  0.26292188962E+02 -0.25438091547E+02 -0.34050864633E+02  0.49978366165E+02  0.51100000000E-03 0.  1.
         22    1    1    0    0    0 -0.25342912584E+02  0.13044068980E+02 -0.92544906259E+01  0.29967591671E+02  0.00000000000E+00 0.  1.
</event>
<event>
 5    1  0.8752570E-005  0.9118800E+02  0.7818608E-02  0.1130116E+00
         25   -1    0    0    0    0  0.00000000000E+00  0.00000000000E+00  0.99999998245E-14  0.12500000000E+03  0.12500000000E+03 0.  0.
        -11    1    3    3    0    0  0.15615611887E+02 -0.23860908609E+02 -0.25508577831E+02  0.38260656522E+02  0.51100000000E-03 0. -1.
         23    2    1    0    0    0  0.17254055821E+02  0.75777615402E+01  0.22487672427E+02  0.95660260338E+02  0.91049794533E+02 0.  0.
         11    1    3    3    0    0  0.16384439342E+01  0.31438670149E+02  0.47996250257E+02  0.57399603817E+02  0.51100000000E-03 0.  1.
         22    1    1    0    0    0 -0.17254055821E+02 -0.75777615402E+01 -0.22487672427E+02  0.29339739662E+02  0.00000000000E+00 0.  1.
</event>
<event>
 5    1  0.8752570E-005  0.9118800E+02  0.7818608E-02  0.1130116E+00
         25   -1    0    0    0    0  0.00000000000E+00  0.00000000000E+00  0.99999998245E-14  0.12500000000E+03  0.12500000000E+03 0.  0.
        -11    1    3    3    0    0 -0.17162613195E+02 -0.86959428001E+01  0.35617041005E+02  0.40481456533E+02  0.51100000000E-03 0. -1.
         23    2    1    0    0    0 -0.50884398043E+01  0.28665669953E+02 -0.32206125143E+01  0.95708615628E+02  0.91116156125E+02 0.  0.
         11    1    3    3    0    0  0.12074173390E+02  0.37361612753E+02 -0.38837653519E+02  0.55227159095E+02  0.51100000000E-03 0.  1.
         22    1    1    0    0    0  0.50884398043E+01 -0.28665669953E+02  0.32206125143E+01  0.29291384372E+02  0.00000000000E+00 0.  1.
</event>
<event>
 5    1  0.8752570E-005  0.9118800E+02  0.7818608E-02  0.1130116E+00
         25   -1    0    0    0    0  0.00000000000E+00  0.00000000000E+00  0.99999998245E-14  0.12500000000E+03  0.12500000000E+03 0.  0.
        -11    1    3    3    0    0 -0.59576122782E+01  0.24416173689E+02 -0.26225301046E+02  0.36323671302E+02  0.51100000000E-03 0.  1.
         23    2    1    0    0    0 -0.10922690466E+02 -0.25982172717E+02  0.57757940150E+01  0.96229559221E+02  0.91828044764E+02 0.  0.
         11    1    3    3    0    0 -0.49650781883E+01 -0.50398346406E+02  0.32001095061E+02  0.59905887918E+02  0.51100000000E-03 0. -1.
         22    1    1    0    0    0  0.10922690466E+02  0.25982172717E+02 -0.57757940150E+01  0.28770440779E+02  0.00000000000E+00 0. -1.
</event>
<event>
 5    1  0.8752570E-005  0.9118800E+02  0.7818608E-02  0.1130116E+00
         25   -1    0    0    0    0  0.00000000000E+00  0.00000000000E+00  0.99999998245E-14  0.12500000000E+03  0.12500000000E+03 0.  0.
        -11    1    3    3    0    0 -0.23121993230E+01 -0.19268222513E+02 -0.32634659862E+02  0.37968825226E+02  0.51100000000E-03 0.  1.
         23    2    1    0    0    0 -0.17384080953E+01 -0.15049841660E+02  0.25003954968E+02  0.95764446974E+02  0.91192717601E+02 0.  0.
         11    1    3    3    0    0  0.57379122769E+00  0.42183808528E+01  0.57638614830E+02  0.57795621748E+02  0.51100000000E-03 0. -1.
         22    1    1    0    0    0  0.17384080953E+01  0.15049841660E+02 -0.25003954968E+02  0.29235553026E+02  0.00000000000E+00 0. -1.
</event>
<event>
 5    1  0.8752570E-005  0.9118800E+02  0.7818608E-02  0.1130116E+00
         25   -1    0    0    0    0  0.00000000000E+00  0.00000000000E+00  0.99999998245E-14  0.12500000000E+03  0.12500000000E+03 0.  0.
        -11    1    3    3    0    0  0.51147118554E+02  0.27029982292E+02  0.50003455011E+01  0.58065920594E+02  0.51100000000E-03 0.  1.
         23    2    1    0    0    0  0.15694800738E+02  0.11585764551E+02  0.17588826085E+02  0.98733604863E+02  0.95175633519E+02 0.  0.
         11    1    3    3    0    0 -0.35452317816E+02 -0.15444217740E+02  0.12588480584E+02  0.40667684269E+02  0.51100000000E-03 0. -1.
         22    1    1    0    0    0 -0.15694800738E+02 -0.11585764551E+02 -0.17588826085E+02  0.26266395137E+02  0.00000000000E+00 0.  1.
</event>
<event>
 5    1  0.8752570E-005  0.9118800E+02  0.7818608E-02  0.1130116E+00
         25   -1    0    0    0    0  0.00000000000E+00  0.00000000000E+00  0.99999998245E-14  0.12500000000E+03  0.12500000000E+03 0.  0.
        -11    1    3    3    0    0 -0.11053139928E+02  0.44956999935E+01  0.54651468576E+02  0.55938950995E+02  0.51100000000E-03 0. -1.
         23    2    1    0    0    0  0.10572508074E+02  0.14612246333E+02  0.19434735241E+02  0.98485766016E+02  0.94849573031E+02 0.  0.
         11    1    3    3    0    0  0.21625648002E+02  0.10116546339E+02 -0.35216733335E+02  0.42546815021E+02  0.51100000000E-03 0.  1.
         22    1    1    0    0    0 -0.10572508074E+02 -0.14612246333E+02 -0.19434735241E+02  0.26514233984E+02  0.00000000000E+00 0. -1.
</event>
<event>
 5    1  0.8752570E-005  0.9118800E+02  0.7818608E-02  0.1130116E+00
         25   -1    0    0    0    0  0.00000000000E+00  0.00000000000E+00  0.99999998245E-14  0.12500000000E+03  0.12500000000E+03 0.  0.
        -11    1    3    3    0    0 -0.26444889175E+02  0.48714209609E+02  0.44231851495E+01  0.55605493869E+02  0.51100000000E-03 0.  1.
         23    2    1    0    0    0 -0.84581699394E+01  0.21593053137E+02 -0.18435267459E+02  0.95374678587E+02  0.90656878651E+02 0.  0.
         11    1    3    3    0    0  0.17986719236E+02 -0.27121156471E+02 -0.22858452609E+02  0.39769184718E+02  0.51100000000E-03 0. -1.
         22    1    1    0    0    0  0.84581699394E+01 -0.21593053137E+02  0.18435267459E+02  0.29625321413E+02  0.00000000000E+00 0.  1.
</event>
<event>
 5    1  0.8752570E-005  0.9118800E+02  0.7818608E-02  0.1130116E+00
         25   -1    0    0    0    0  0.00000000000E+00  0.00000000000E+00  0.99999998245E-14  0.12500000000E+03  0.12500000000E+03 0.  0.
        -11    1    3    3    0    0 -0.34001646378E+02  0.62962582461E+01  0.17625348935E+02  0.38812468997E+02  0.51100000000E-03 0. -1.
         23    2    1    0    0    0 -0.79648048296E+01 -0.28427527187E+01 -0.29987092985E+02  0.93843217357E+02  0.88520078735E+02 0.  0.
         11    1    3    3    0    0  0.26036841548E+02 -0.91390109648E+01 -0.47612441920E+02  0.55030748360E+02  0.51100000000E-03 0.  1.
         22    1    1    0    0    0  0.79648048296E+01  0.28427527187E+01  0.29987092985E+02  0.31156782643E+02  0.00000000000E+00 0.  1.
</event>
<event>
 5    1  0.8752570E-005  0.9118800E+02  0.7818608E-02  0.1130116E+00
         25   -1    0    0    0    0  0.00000000000E+00  0.00000000000E+00  0.99999998245E-14  0.12500000000E+03  0.12500000000E+03 0.  0.
        -11    1    3    3    0    0  0.47873029653E+02 -0.24503447600E+02  0.25559576477E+02  0.59544419238E+02  0.51100000000E-03 0.  1.
         23    2    1    0    0    0  0.24143810846E+02  0.18640220759E+01  0.14828661751E+02  0.96604799881E+02  0.92337424537E+02 0.  0.
         11    1    3    3    0    0 -0.23729218806E+02  0.26367469676E+02 -0.10730914726E+02  0.37060380643E+02  0.51100000000E-03 0. -1.
         22    1    1    0    0    0 -0.24143810846E+02 -0.18640220759E+01 -0.14828661751E+02  0.28395200119E+02  0.00000000000E+00 0.  1.
</event>
<event>
 5    1  0.8752570E-005  0.9118800E+02  0.7818608E-02  0.1130116E+00
         25   -1    0    0    0    0  0.00000000000E+00  0.00000000000E+00  0.99999998245E-14  0.12500000000E+03  0.12500000000E+03 0.  0.
        -11    1    3    3    0    0  0.35655601169E+02 -0.18359557871E+02 -0.64314931714E+01  0.40617229898E+02  0.51100000000E-03 0.  1.
         23    2    1    0    0    0 -0.19290868939E+02 -0.19563866323E+02 -0.10167943809E+02  0.95703761825E+02  0.91109497069E+02 0.  0.
         11    1    3    3    0    0 -0.54946470107E+02 -0.12043084528E+01 -0.37364506374E+01  0.55086531927E+02  0.51100000000E-03 0. -1.
         22    1    1    0    0    0  0.19290868939E+02  0.19563866323E+02  0.10167943809E+02  0.29296238175E+02  0.00000000000E+00 0. -1.
</event>
<event>
 5    1  0.8752570E-005  0.9118800E+02  0.7818608E-02  0.1130116E+00
         25   -1    0    0    0    0  0.00000000000E+00  0.00000000000E+00  0.99999998245E-14  0.12500000000E+03  0.12500000000E+03 0.  0.
        -11    1    3    3    0    0 -0.12146124297E+02 -0.34776847081E+02 -0.27403174592E+02  0.45911778514E+02  0.51100000000E-03 0. -1.
         23    2    1    0    0    0 -0.13466785110E+02 -0.17706152958E+02  0.19233886407E+02  0.95592440766E+02  0.90956639074E+02 0.  0.
         11    1    3    3    0    0 -0.13206608137E+01  0.17070694124E+02  0.46637061000E+02  0.49680662252E+02  0.51100000000E-03 0.  1.
         22    1    1    0    0    0  0.13466785110E+02  0.17706152958E+02 -0.19233886407E+02  0.29407559234E+02  0.00000000000E+00 0.  1.
</event>
<event>
 5    1  0.8752570E-005  0.9118800E+02  0.7818608E-02  0.1130116E+00
         25   -1    0    0    0    0  0.00000000000E+00  0.00000000000E+00  0.99999998245E-14  0.12500000000E+03  0.12500000000E+03 0.  0.
        -11    1    3    3    0    0  0.48606034920E+01  0.10235086650E+02  0.32942519896E+02  0.34836648553E+02  0.51100000000E-03 0.  1.
         23    2    1    0    0    0 -0.30724693494E+02  0.55664918728E+01 -0.11288637066E+02  0.91797199684E+02  0.85582123840E+02 0.  0.
         11    1    3    3    0    0 -0.35585296986E+02 -0.46685947772E+01 -0.44231156961E+02  0.56960551131E+02  0.51100000000E-03 0. -1.
         22    1    1    0    0    0  0.30724693494E+02 -0.55664918728E+01  0.11288637066E+02  0.33202800316E+02  0.00000000000E+00 0. -1.
</event>
<event>
 5    1  0.8752570E-005  0.9118800E+02  0.7818608E-02  0.1130116E+00
         25   -1    0    0    0    0  0.00000000000E+00  0.00000000000E+00  0.99999998245E-14  0.12500000000E+03  0.12500000000E+03 0.  0.
        -11    1    3    3    0    0  0.35029033084E+02 -0.39363343620E+02 -0.54315605610E+01  0.52971764461E+02  0.51100000000E-03 0.  1.
         23    2    1    0    0    0 -0.53804273721E+01 -0.29773269041E+02 -0.11669857291E+01  0.94721981509E+02  0.89752411540E+02 0.  0.
         11    1    3    3    0    0 -0.40409460456E+02  0.95900745797E+01  0.42645748320E+01  0.41750217048E+02  0.51100000000E-03 0. -1.
         22    1    1    0    0    0  0.53804273721E+01  0.29773269041E+02  0.11669857291E+01  0.30278018491E+02  0.00000000000E+00 0.  1.
</event>
<event>
 5    1  0.8752570E-005  0.9118800E+02  0.7818608E-02  0.1130116E+00
         25   -1    0    0    0    0  0.00000000000E+00  0.00000000000E+00  0.99999998245E-14  0.12500000000E+03  0.12500000000E+03 0.  0.
        -11    1    3    3    0    0 -0.23838178995E+02  0.38020771743E+02 -0.14987247074E+02  0.47312318024E+02  0.51100000000E-03 0.  1.
         23    2    1    0    0    0  0.99979181982E+01  0.26572699668E+02  0.14028023215E+02  0.93332158721E+02  0.87795442252E+02 0.  0.
         11    1    3    3    0    0  0.33836097193E+02 -0.11448072074E+02  0.29015270289E+02  0.46019840696E+02  0.51100000000E-03 0. -1.
         22    1    1    0    0    0 -0.99979181982E+01 -0.26572699668E+02 -0.14028023215E+02  0.31667841279E+02  0.00000000000E+00 0.  1.
</event>
<event>
 5    1  0.8752570E-005  0.9118800E+02  0.7818608E-02  0.1130116E+00
         25   -1    0    0    0    0  0.00000000000E+00  0.00000000000E+00  0.99999998245E-14  0.12500000000E+03  0.12500000000E+03 0.  0.
        -11    1    3    3    0    0 -0.18462031238E+02 -0.26980754980E+02 -0.29351862364E+02  0.43935629747E+02  0.51100000000E-03 0. -1.
         23    2    1    0    0    0 -0.22025750388E+02  0.18941302173E+02 -0.70710442177E+01  0.95101734591E+02  0.90279752147E+02 0.  0.
         11    1    3    3    0    0 -0.35637191508E+01  0.45922057153E+02  0.22280818146E+02  0.51166104844E+02  0.51100000000E-03 0.  1.
         22    1    1    0    0    0  0.22025750388E+02 -0.18941302173E+02  0.70710442177E+01  0.29898265409E+02  0.00000000000E+00 0.  1.
</event>
<event>
 5    1  0.8752570E-005  0.9118800E+02  0.7818608E-02  0.1130116E+00
         25   -1    0    0    0    0  0.00000000000E+00  0.00000000000E+00  0.99999998245E-14  0.12500000000E+03  0.12500000000E+03 0.  0.
        -11    1    3    3    0    0  0.40961757551E+02  0.23252132607E+02  0.12852639843E+02  0.48823330525E+02  0.51100000000E-03 0.  1.
         23    2    1    0    0    0  0.18402874543E+02 -0.25556052835E+00 -0.21855336663E+02  0.96427515977E+02  0.92097117187E+02 0.  0.
         11    1    3    3    0    0 -0.22558883008E+02 -0.23507693135E+02 -0.34707976506E+02  0.47604185451E+02  0.51100000000E-03 0. -1.
         22    1    1    0    0    0 -0.18402874543E+02  0.25556052835E+00  0.21855336663E+02  0.28572484023E+02  0.00000000000E+00 0. -1.
</event>
<event>
 5    1  0.8752570E-005  0.9118800E+02  0.7818608E-02  0.1130116E+00
         25   -1    0    0    0    0  0.00000000000E+00  0.00000000000E+00  0.99999998245E-14  0.12500000000E+03  0.12500000000E+03 0.  0.
        -11    1    3    3    0    0 -0.42429011998E+02  0.43622716150E+02  0.72822908817E+01  0.61287798004E+02  0.51100000000E-03 0. -1.
         23    2    1    0    0    0 -0.23587907366E+02  0.15670133654E+02  0.96549925061E+01  0.95080752969E+02  0.90250696630E+02 0.  0.
         11    1    3    3    0    0  0.18841104632E+02 -0.27952582496E+02  0.23727016245E+01  0.33792954965E+02  0.51100000000E-03 0.  1.
         22    1    1    0    0    0  0.23587907366E+02 -0.15670133654E+02 -0.96549925061E+01  0.29919247031E+02  0.00000000000E+00 0. -1.
</event>
<event>
 5    1  0.8752570E-005  0.9118800E+02  0.7818608E-02  0.1130116E+00
         25   -1    0    0    0    0  0.00000000000E+00  0.00000000000E+00  0.99999998245E-14  0.12500000000E+03  0.12500000000E+03 0.  0.
        -11    1    3    3    0    0  0.45923902783E+01  0.47451998627E+01 -0.35812250550E+02  0.36415989070E+02  0.51100000000E-03 0.  1.
         23    2    1    0    0    0 -0.24661690958E+02 -0.84697239028E+01  0.13792611803E+02  0.95501332840E+02  0.90831344864E+02 0.  0.
         11    1    3    3    0    0 -0.29254081236E+02 -0.13214923765E+02  0.49604862353E+02  0.59085343770E+02  0.51100000000E-03 0. -1.
         22    1    1    0    0    0  0.24661690958E+02  0.84697239028E+01 -0.13792611803E+02  0.29498667160E+02  0.00000000000E+00 0. -1.
</event>
<event>
 5    1  0.8752570E-005  0.9118800E+02  0.7818608E-02  0.1130116E+00
         25   -1    0    0    0    0  0.00000000000E+00  0.00000000000E+00  0.99999998245E-14  0.12500000000E+03  0.12500000000E+03 0.  0.
        -11    1    3    3    0    0  0.32182549206E+02 -0.38472769416E+01  0.14805472307E+02  0.35633130984E+02  0.51100000000E-03 0.  1.
         23    2    1    0    0    0  0.96255239787E+01 -0.80696747204E+01 -0.33559737683E+02  0.89166686515E+02  0.81649688479E+02 0.  0.
         11    1    3    3    0    0 -0.22557025227E+02 -0.42223977788E+01 -0.48365209990E+02  0.53533555531E+02  0.51100000000E-03 0. -1.
         22    1    1    0    0    0 -0.96255239787E+01  0.80696747204E+01  0.33559737683E+02  0.35833313485E+02  0.00000000000E+00 0. -1.
</event>
<event>
 5    1  0.8752570E-005  0.9118800E+02  0.7818608E-02  0.1130116E+00
         25   -1    0    0    0    0  0.00000000000E+00  0.00000000000E+00  0.99999998245E-14  0.12500000000E+03  0.12500000000E+03 0.  0.
        -11    1    3    3    0    0  0.15434543751E+02  0.24760033108E+02 -0.65243642906E+01  0.29897352892E+02  0.51100000000E-03 0.  1.
         23    2    1    0    0    0 -0.57417722389E+01 -0.30100801222E+02  0.12790639899E+02  0.91794177443E+02  0.85577709485E+02 0.  0.
         11    1    3    3    0    0 -0.21176315990E+02 -0.54860834330E+02  0.19315004190E+02  0.61896824550E+02  0.51100000000E-03 0. -1.
         22    1    1    0    0    0  0.57417722389E+01  0.30100801222E+02 -0.12790639899E+02  0.33205822557E+02  0.00000000000E+00 0. -1.
</event>
<event>
 5    1  0.8752570E-005  0.9118800E+02  0.7818608E-02  0.1130116E+00
         25   -1    0    0    0    0  0.00000000000E+00  0.00000000000E+00  0.99999998245E-14  0.12500000000E+03  0.12500000000E+03 0.  0.
        -11    1    3    3    0    0  0.32166246729E+02 -0.18866721241E+02 -0.12187256586E+02  0.39231999979E+02  0.51100000000E-03 0. -1.
         23    2    1    0    0    0 -0.23207481188E+02 -0.92537107058E+00 -0.14732962218E+02  0.97495388198E+02  0.93535271686E+02 0.  0.
         11    1    3    3    0    0 -0.55373727916E+02  0.17941350170E+02 -0.25457056313E+01  0.58263388219E+02  0.51100000000E-03 0.  1.
         22    1    1    0    0    0  0.23207481188E+02  0.92537107058E+00  0.14732962218E+02  0.27504611802E+02  0.00000000000E+00 0.  1.
</event>
<event>
 5    1  0.8752570E-005  0.9118800E+02  0.7818608E-02  0.1130116E+00
         25   -1    0    0    0    0  0.00000000000E+00  0.00000000000E+00  0.99999998245E-14  0.12500000000E+03  0.12500000000E+03 0.  0.
        -11    1    3    3    0    0  0.25729068518E+02 -0.20131766419E+02  0.42709283236E+02  0.53771329356E+02  0.51100000000E-03 0. -1.
         23    2    1    0    0    0 -0.10905300287E+02 -0.86282624220E+01  0.25723249854E+02  0.95758624009E+02  0.91184735577E+02 0.  0.
         11    1    3    3    0    0 -0.36634368805E+02  0.11503503997E+02 -0.16986033381E+02  0.41987294653E+02  0.51100000000E-03 0.  1.
         22    1    1    0    0    0  0.10905300287E+02  0.86282624220E+01 -0.25723249854E+02  0.29241375991E+02  0.00000000000E+00 0. -1.
</event>
<event>
 5    1  0.8752570E-005  0.9118800E+02  0.7818608E-02  0.1130116E+00
         25   -1    0    0    0    0  0.00000000000E+00  0.00000000000E+00  0.99999998245E-14  0.12500000000E+03  0.12500000000E+03 0.  0.
        -11    1    3    3    0    0  0.24037059093E+02  0.31537537110E+02  0.64480622477E+01  0.40174294814E+02  0.51100000000E-03 0. -1.
         23    2    1    0    0    0  0.10578681111E+02  0.15495639423E+02 -0.34252459053E+02  0.85945495953E+02  0.76559610685E+02 0.  0.
         11    1    3    3    0    0 -0.13458377982E+02 -0.16041897687E+02 -0.40700521301E+02  0.45771201139E+02  0.51100000000E-03 0.  1.
         22    1    1    0    0    0 -0.10578681111E+02 -0.15495639423E+02  0.34252459053E+02  0.39054504047E+02  0.00000000000E+00 0. -1.
</event>
<event>
 5    1  0.8752570E-005  0.9118800E+02  0.7818608E-02  0.1130116E+00
         25   -1    0    0    0    0  0.00000000000E+00  0.00000000000E+00  0.99999998245E-14  0.12500000000E+03  0.12500000000E+03 0.  0.
        -11    1    3    3    0    0 -0.46255602418E+02  0.16321029326E+02  0.27008627559E+02  0.55994845444E+02  0.51100000000E-03 0. -1.
         23    2    1    0    0    0 -0.23681611870E+02  0.19180637408E+02 -0.37932569936E+01  0.94289995267E+02  0.89148745457E+02 0.  0.
         11    1    3    3    0    0  0.22573990549E+02  0.28596080817E+01 -0.30801884553E+02  0.38295149823E+02  0.51100000000E-03 0.  1.
         22    1    1    0    0    0  0.23681611870E+02 -0.19180637408E+02  0.37932569936E+01  0.30710004733E+02  0.00000000000E+00 0. -1.
</event>
<event>
 5    1  0.8752570E-005  0.9118800E+02  0.7818608E-02  0.1130116E+00
         25   -1    0    0    0    0  0.00000000000E+00  0.00000000000E+00  0.99999998245E-14  0.12500000000E+03  0.12500000000E+03 0.  0.
        -11    1    3    3    0    0  0.14149054444E+02 -0.24084009747E+02  0.47672780068E+02  0.55253318694E+02  0.51100000000E-03 0.  1.
         23    2    1    0    0    0  0.25886224935E+02 -0.25378582628E+02  0.24546506992E+02  0.81219866342E+02  0.68410281284E+02 0.  0.
         11    1    3    3    0    0  0.11737170492E+02 -0.12945728818E+01 -0.23126273075E+02  0.25966547647E+02  0.51100000000E-03 0. -1.
         22    1    1    0    0    0 -0.25886224935E+02  0.25378582628E+02 -0.24546506992E+02  0.43780133658E+02  0.00000000000E+00 0.  1.
</event>
<event>
 5    1  0.8752570E-005  0.9118800E+02  0.7818608E-02  0.1130116E+00
         25   -1    0    0    0    0  0.00000000000E+00  0.00000000000E+00  0.99999998245E-14  0.12500000000E+03  0.12500000000E+03 0.  0.
        -11    1    3    3    0    0  0.39436254736E+02  0.30560779299E+02  0.36476001499E+02  0.61803544434E+02  0.51100000000E-03 0.  1.
         23    2    1    0    0    0  0.20923596219E+02  0.16526747078E+02  0.11355086138E+02  0.96019519863E+02  0.91541684308E+02 0.  0.
         11    1    3    3    0    0 -0.18512658517E+02 -0.14034032221E+02 -0.25120915361E+02  0.34215975429E+02  0.51100000000E-03 0. -1.
         22    1    1    0    0    0 -0.20923596219E+02 -0.16526747078E+02 -0.11355086138E+02  0.28980480137E+02  0.00000000000E+00 0.  1.
</event>
<event>
 5    1  0.8752570E-005  0.9118800E+02  0.7818608E-02  0.1130116E+00
         25   -1    0    0    0    0  0.00000000000E+00  0.00000000000E+00  0.99999998245E-14  0.12500000000E+03  0.12500000000E+03 0.  0.
        -11    1    3    3    0    0 -0.20325524429E+02 -0.27825903529E+02 -0.67138516801E+01  0.35106746576E+02  0.51100000000E-03 0. -1.
         23    2    1    0    0    0  0.25451567139E+02  0.10157638491E+02 -0.12517633687E+02  0.94872752488E+02  0.89962148273E+02 0.  0.
         11    1    3    3    0    0  0.45777091568E+02  0.37983542020E+02 -0.58037820065E+01  0.59766005912E+02  0.51100000000E-03 0.  1.
         22    1    1    0    0    0 -0.25451567139E+02 -0.10157638491E+02  0.12517633687E+02  0.30127247512E+02  0.00000000000E+00 0.  1.
</event>
<event>
 5    1  0.8752570E-005  0.9118800E+02  0.7818608E-02  0.1130116E+00
         25   -1    0    0    0    0  0.00000000000E+00  0.00000000000E+00  0.99999998245E-14  0.12500000000E+03  0.12500000000E+03 0.  0.
        -11    1    3    3    0    0 -0.37795467625E+02 -0.24745540747E+02  0.24621014692E+02  0.51449329681E+02  0.51100000000E-03 0.  1.
         23    2    1    0    0    0 -0.28212829803E+02  0.84423894938E+00 -0.95503684816E+01  0.95202583282E+02  0.90419277926E+02 0.  0.
         11    1    3    3    0    0  0.95826378223E+01  0.25589779696E+02 -0.34171383173E+02  0.43753253602E+02  0.51100000000E-03 0. -1.
         22    1    1    0    0    0  0.28212829803E+02 -0.84423894938E+00  0.95503684816E+01  0.29797416718E+02  0.00000000000E+00 0.  1.
</event>
<event>
 5    1  0.8752570E-005  0.9118800E+02  0.7818608E-02  0.1130116E+00
         25   -1    0    0    0    0  0.00000000000E+00  0.00000000000E+00  0.99999998245E-14  0.12500000000E+03  0.12500000000E+03 0.  0.
        -11    1    3    3    0    0  0.43631332253E+02  0.59471169224E+01  0.32061902322E+02  0.54470422567E+02  0.51100000000E-03 0.  1.
         23    2    1    0    0    0  0.29407325274E+02 -0.77214552589E+01 -0.27380900504E+01  0.94472818862E+02  0.89404724235E+02 0.  0.
         11    1    3    3    0    0 -0.14224006979E+02 -0.13668572181E+02 -0.34799992372E+02  0.40002396295E+02  0.51100000000E-03 0. -1.
         22    1    1    0    0    0 -0.29407325274E+02  0.77214552589E+01  0.27380900504E+01  0.30527181138E+02  0.00000000000E+00 0.  1.
</event>
<event>
 5    1  0.8752570E-005  0.9118800E+02  0.7818608E-02  0.1130116E+00
         25   -1    0    0    0    0  0.00000000000E+00  0.00000000000E+00  0.99999998245E-14  0.12500000000E+03  0.12500000000E+03 0.  0.
        -11    1    3    3    0    0 -0.26377544720E+02 -0.26894792175E+02  0.31026525748E+01  0.37798560354E+02  0.51100000000E-03 0.  1.
         23    2    1    0    0    0  0.26131850258E+02 -0.59732196904E+01  0.13042249995E+02  0.95189712576E+02  0.90401483085E+02 0.  0.
         11    1    3    3    0    0  0.52509394978E+02  0.20921572485E+02  0.99395974198E+01  0.57391152222E+02  0.51100000000E-03 0. -1.
         22    1    1    0    0    0 -0.26131850258E+02  0.59732196904E+01 -0.13042249995E+02  0.29810287424E+02  0.00000000000E+00 0. -1.
</event>
<event>
 5    1  0.8752570E-005  0.9118800E+02  0.7818608E-02  0.1130116E+00
         25   -1    0    0    0    0  0.00000000000E+00  0.00000000000E+00  0.99999998245E-14  0.12500000000E+03  0.12500000000E+03 0.  0.
        -11    1    3    3    0    0  0.35089865787E+02  0.90714434066E+01 -0.18363833730E+02  0.40630286191E+02  0.51100000000E-03 0.  1.
         23    2    1    0    0    0 -0.15020781471E+02  0.25122906326E+02 -0.23352769333E+01  0.95636113734E+02  0.91016638224E+02 0.  0.
         11    1    3    3    0    0 -0.50110647258E+02  0.16051462920E+02  0.16028556797E+02  0.55005827543E+02  0.51100000000E-03 0. -1.
         22    1    1    0    0    0  0.15020781471E+02 -0.25122906326E+02  0.23352769333E+01  0.29363886266E+02  0.00000000000E+00 0. -1.
</event>
<event>
 5    1  0.8752570E-005  0.9118800E+02  0.7818608E-02  0.1130116E+00
         25   -1    0    0    0    0  0.00000000000E+00  0.00000000000E+00  0.99999998245E-14  0.12500000000E+03  0.12500000000E+03 0.  0.
        -11    1    3    3    0    0  0.19529389858E+02  0.15402780382E+02 -0.48524551895E+02  0.54527743843E+02  0.51100000000E-03 0.  1.
         23    2    1    0    0    0  0.18618956592E+02 -0.12615313046E+02 -0.16390716791E+02  0.97170748038E+02  0.93100413584E+02 0.  0.
         11    1    3    3    0    0 -0.91043326670E+00 -0.28018093427E+02  0.32133835104E+02  0.42643004195E+02  0.51100000000E-03 0. -1.
         22    1    1    0    0    0 -0.18618956592E+02  0.12615313046E+02  0.16390716791E+02  0.27829251962E+02  0.00000000000E+00 0.  1.
</event>
<event>
 5    1  0.8752570E-005  0.9118800E+02  0.7818608E-02  0.1130116E+00
         25   -1    0    0    0    0  0.00000000000E+00  0.00000000000E+00  0.99999998245E-14  0.12500000000E+03  0.12500000000E+03 0.  0.
        -11    1    3    3    0    0  0.21860130160E+02  0.19444143548E+02  0.17801958718E+02  0.34246893923E+02  0.51100000000E-03 0.  1.
         23    2    1    0    0    0 -0.70698192564E+01 -0.13629259716E+02 -0.25047144221E+02  0.95621461943E+02  0.90996513591E+02 0.  0.
         11    1    3    3    0    0 -0.28929949417E+02 -0.33073403264E+02 -0.42849102939E+02  0.61374568020E+02  0.51100000000E-03 0. -1.
         22    1    1    0    0    0  0.70698192564E+01  0.13629259716E+02  0.25047144221E+02  0.29378538057E+02  0.00000000000E+00 0. -1.
</event>
<event>
 5    1  0.8752570E-005  0.9118800E+02  0.7818608E-02  0.1130116E+00
         25   -1    0    0    0    0  0.00000000000E+00  0.00000000000E+00  0.99999998245E-14  0.12500000000E+03  0.12500000000E+03 0.  0.
        -11    1    3    3    0    0 -0.22850389424E+02 -0.42501633251E+02  0.21300487563E+02  0.52746942059E+02  0.51100000000E-03 0.  1.
         23    2    1    0    0    0  0.50131318528E+01 -0.28288241550E+02 -0.75453478526E+01  0.95296660538E+02  0.90549241491E+02 0.  0.
         11    1    3    3    0    0  0.27863521277E+02  0.14213391701E+02 -0.28845835416E+02  0.42549718480E+02  0.51100000000E-03 0. -1.
         22    1    1    0    0    0 -0.50131318528E+01  0.28288241550E+02  0.75453478526E+01  0.29703339462E+02  0.00000000000E+00 0.  1.
</event>
<event>
 5    1  0.8752570E-005  0.9118800E+02  0.7818608E-02  0.1130116E+00
         25   -1    0    0    0    0  0.00000000000E+00  0.00000000000E+00  0.99999998245E-14  0.12500000000E+03  0.12500000000E+03 0.  0.
        -11    1    3    3    0    0 -0.41436020608E+02 -0.34069207435E+02 -0.18518030307E+02  0.56750084985E+02  0.51100000000E-03 0.  1.
         23    2    1    0    0    0 -0.16779771221E+02 -0.20669022611E+02  0.98126842887E+01  0.96626456146E+02  0.92366736634E+02 0.  0.
         11    1    3    3    0    0  0.24656249387E+02  0.13400184825E+02  0.28330714596E+02  0.39876371161E+02  0.51100000000E-03 0. -1.
         22    1    1    0    0    0  0.16779771221E+02  0.20669022611E+02 -0.98126842887E+01  0.28373543854E+02  0.00000000000E+00 0.  1.
</event>
<event>
 5    1  0.8752570E-005  0.9118800E+02  0.7818608E-02  0.1130116E+00
         25   -1    0    0    0    0  0.00000000000E+00  0.00000000000E+00  0.99999998245E-14  0.12500000000E+03  0.12500000000E+03 0.  0.
        -11    1    3    3    0    0 -0.27944243426E+00 -0.16521433343E+02 -0.55101051126E+02  0.57525313413E+02  0.51100000000E-03 0.  1.
         23    2    1    0    0    0  0.45011565074E+01 -0.22006156113E+02 -0.15693336969E+02  0.97599048521E+02  0.93673700312E+02 0.  0.
         11    1    3    3    0    0  0.47805989417E+01 -0.54847227696E+01  0.39407714157E+02  0.40073735108E+02  0.51100000000E-03 0. -1.
         22    1    1    0    0    0 -0.45011565074E+01  0.22006156113E+02  0.15693336969E+02  0.27400951479E+02  0.00000000000E+00 0.  1.
</event>
<event>
 5    1  0.8752570E-005  0.9118800E+02  0.7818608E-02  0.1130116E+00
         25   -1    0    0    0    0  0.00000000000E+00  0.00000000000E+00  0.99999998245E-14  0.12500000000E+03  0.12500000000E+03 0.  0.
        -11    1    3    3    0    0 -0.31652844657E+02  0.46192802657E+02  0.80070131612E-01  0.55997178533E+02  0.51100000000E-03 0.  1.
         23    2    1    0    0    0 -0.22770175500E+02  0.11419629912E+02 -0.15563919126E+02  0.95148292876E+02  0.90344193056E+02 0.  0.
         11    1    3    3    0    0  0.88826691562E+01 -0.34773172745E+02 -0.15643989258E+02  0.39151114343E+02  0.51100000000E-03 0. -1.
         22    1    1    0    0    0  0.22770175500E+02 -0.11419629912E+02  0.15563919126E+02  0.29851707124E+02  0.00000000000E+00 0.  1.
</event>
<event>
 5    1  0.8752570E-005  0.9118800E+02  0.7818608E-02  0.1130116E+00
         25   -1    0    0    0    0  0.00000000000E+00  0.00000000000E+00  0.99999998245E-14  0.12500000000E+03  0.12500000000E+03 0.  0.
        -11    1    3    3    0    0  0.52424642412E+02  0.39634659535E+01 -0.25551746178E+02  0.58454631359E+02  0.51100000000E-03 0.  1.
         23    2    1    0    0    0  0.30421596190E+02  0.42309763829E+01  0.25883084791E+01  0.94176729299E+02  0.88989787756E+02 0.  0.
         11    1    3    3    0    0 -0.22003046222E+02  0.26751042939E+00  0.28140054657E+02  0.35722097940E+02  0.51100000000E-03 0. -1.
         22    1    1    0    0    0 -0.30421596190E+02 -0.42309763829E+01 -0.25883084791E+01  0.30823270701E+02  0.00000000000E+00 0.  1.
</event>
<event>
 5    1  0.8752570E-005  0.9118800E+02  0.7818608E-02  0.1130116E+00
         25   -1    0    0    0    0  0.00000000000E+00  0.00000000000E+00  0.99999998245E-14  0.12500000000E+03  0.12500000000E+03 0.  0.
        -11    1    3    3    0    0 -0.10212106532E+02  0.12442674154E+01  0.53151582971E+02  0.54138028167E+02  0.51100000000E-03 0.  1.
         23    2    1    0    0    0  0.12542668039E+02  0.15524985633E+02  0.21186174552E+02  0.95893339378E+02  0.91369222632E+02 0.  0.
         11    1    3    3    0    0  0.22754774571E+02  0.14280718218E+02 -0.31965408420E+02  0.41755311211E+02  0.51100000000E-03 0. -1.
         22    1    1    0    0    0 -0.12542668039E+02 -0.15524985633E+02 -0.21186174552E+02  0.29106660622E+02  0.00000000000E+00 0.  1.
</event>
<event>
 5    1  0.8752570E-005  0.9118800E+02  0.7818608E-02  0.1130116E+00
         25   -1    0    0    0    0  0.00000000000E+00  0.00000000000E+00  0.99999998245E-14  0.12500000000E+03  0.12500000000E+03 0.  0.
        -11    1    3    3    0    0  0.48501562815E+02  0.22205802886E+02  0.30778138430E+02  0.61585656470E+02  0.51100000000E-03 0.  1.
         23    2    1    0    0    0  0.19716414293E+02  0.62499180632E+01  0.20029436923E+02  0.96208042584E+02  0.91798750787E+02 0.  0.
         11    1    3    3    0    0 -0.28785148522E+02 -0.15955884823E+02 -0.10748701507E+02  0.34622386115E+02  0.51100000000E-03 0. -1.
         22    1    1    0    0    0 -0.19716414293E+02 -0.62499180632E+01 -0.20029436923E+02  0.28791957416E+02  0.00000000000E+00 0.  1.
</event>
<event>
 5    1  0.8752570E-005  0.9118800E+02  0.7818608E-02  0.1130116E+00
         25   -1    0    0    0    0  0.00000000000E+00  0.00000000000E+00  0.99999998245E-14  0.12500000000E+03  0.12500000000E+03 0.  0.
        -11    1    3    3    0    0 -0.96195133802E+01  0.31376132217E+02 -0.28269336705E+02  0.43314571550E+02  0.51100000000E-03 0.  1.
         23    2    1    0    0    0  0.10504372060E+02  0.18033455176E+02  0.19244599560E+02  0.96611587748E+02  0.92346613024E+02 0.  0.
         11    1    3    3    0    0  0.20123885440E+02 -0.13342677041E+02  0.47513936265E+02  0.53297016197E+02  0.51100000000E-03 0. -1.
         22    1    1    0    0    0 -0.10504372060E+02 -0.18033455176E+02 -0.19244599560E+02  0.28388412252E+02  0.00000000000E+00 0. -1.
</event>
<event>
 5    1  0.8752570E-005  0.9118800E+02  0.7818608E-02  0.1130116E+00
         25   -1    0    0    0    0  0.00000000000E+00  0.00000000000E+00  0.99999998245E-14  0.12500000000E+03  0.12500000000E+03 0.  0.
        -11    1    3    3    0    0  0.17446323640E+02 -0.52910450407E+02  0.34609935988E+01  0.55819964598E+02  0.51100000000E-03 0. -1.
         23    2    1    0    0    0 -0.12798521881E+02 -0.24213626316E+02  0.20285448082E+01  0.97536991138E+02  0.93590853103E+02 0.  0.
         11    1    3    3    0    0 -0.30244845522E+02  0.28696824091E+02 -0.14324487906E+01  0.41717026540E+02  0.51100000000E-03 0.  1.
         22    1    1    0    0    0  0.12798521881E+02  0.24213626316E+02 -0.20285448082E+01  0.27463008862E+02  0.00000000000E+00 0. -1.
</event>
<event>
 5    1  0.8752570E-005  0.9118800E+02  0.7818608E-02  0.1130116E+00
         25   -1    0    0    0    0  0.00000000000E+00  0.00000000000E+00  0.99999998245E-14  0.12500000000E+03  0.12500000000E+03 0.  0.
        -11    1    3    3    0    0 -0.24444460163E+02  0.70484765923E+01  0.22026273618E+02  0.33650696645E+02  0.51100000000E-03 0.  1.
         23    2    1    0    0    0  0.13659534220E+02  0.10260379535E+01 -0.26216366204E+02  0.95420725399E+02  0.90720346945E+02 0.  0.
         11    1    3    3    0    0  0.38103994383E+02 -0.60224386387E+01 -0.48242639822E+02  0.61770028754E+02  0.51100000000E-03 0. -1.
         22    1    1    0    0    0 -0.13659534220E+02 -0.10260379535E+01  0.26216366204E+02  0.29579274601E+02  0.00000000000E+00 0. -1.
</event>
<event>
 5    1  0.8752570E-005  0.9118800E+02  0.7818608E-02  0.1130116E+00
         25   -1    0    0    0    0  0.00000000000E+00  0.00000000000E+00  0.99999998245E-14  0.12500000000E+03  0.12500000000E+03 0.  0.
        -11    1    3    3    0    0 -0.33205935095E+02  0.73018691779E+01 -0.21630247594E+02  0.40296637952E+02  0.51100000000E-03 0.  1.
         23    2    1    0    0    0  0.63702056054E+00 -0.29327778351E+02  0.22288501186E+01  0.95580752031E+02  0.90940574046E+02 0.  0.
         11    1    3    3    0    0  0.33842955656E+02 -0.36629647529E+02  0.23859097713E+02  0.55284114079E+02  0.51100000000E-03 0. -1.
         22    1    1    0    0    0 -0.63702056054E+00  0.29327778351E+02 -0.22288501186E+01  0.29419247969E+02  0.00000000000E+00 0. -1.
</event>
<event>
 5    1  0.8752570E-005  0.9118800E+02  0.7818608E-02  0.1130116E+00
         25   -1    0    0    0    0  0.00000000000E+00  0.00000000000E+00  0.99999998245E-14  0.12500000000E+03  0.12500000000E+03 0.  0.
        -11    1    3    3    0    0  0.18886097135E+02  0.53527932242E+02  0.25211620123E+02  0.62109177942E+02  0.51100000000E-03 0. -1.
         23    2    1    0    0    0  0.42128778328E+01  0.26738704081E+02  0.12175102505E+02  0.95319370684E+02  0.90580586612E+02 0.  0.
         11    1    3    3    0    0 -0.14673219303E+02 -0.26789228160E+02 -0.13036517617E+02  0.33210192742E+02  0.51100000000E-03 0.  1.
         22    1    1    0    0    0 -0.42128778328E+01 -0.26738704081E+02 -0.12175102505E+02  0.29680629316E+02  0.00000000000E+00 0. -1.
</event>
<event>
 5    1  0.8752570E-005  0.9118800E+02  0.7818608E-02  0.1130116E+00
         25   -1    0    0    0    0  0.00000000000E+00  0.00000000000E+00  0.99999998245E-14  0.12500000000E+03  0.12500000000E+03 0.  0.
        -11    1    3    3    0    0 -0.31124596519E+02  0.26848135638E+01 -0.17661805845E+01  0.31290064341E+02  0.51100000000E-03 0.  1.
         23    2    1    0    0    0  0.29827761603E+02  0.33186524212E+01 -0.11190107258E+02  0.92969899835E+02  0.87278147085E+02 0.  0.
         11    1    3    3    0    0  0.60952358122E+02  0.63383885742E+00 -0.94239266737E+01  0.61679835494E+02  0.51100000000E-03 0. -1.
         22    1    1    0    0    0 -0.29827761603E+02 -0.33186524212E+01  0.11190107258E+02  0.32030100165E+02  0.00000000000E+00 0. -1.
</event>
<event>
 5    1  0.8752570E-005  0.9118800E+02  0.7818608E-02  0.1130116E+00
         25   -1    0    0    0    0  0.00000000000E+00  0.00000000000E+00  0.99999998245E-14  0.12500000000E+03  0.12500000000E+03 0.  0.
        -11    1    3    3    0    0  0.39946046979E+02  0.39245365086E+02  0.38246879689E+01  0.56129436023E+02  0.51100000000E-03 0. -1.
         23    2    1    0    0    0  0.11937561022E+02  0.17211335655E+02  0.20692531889E+02  0.95556557365E+02  0.90907311815E+02 0.  0.
         11    1    3    3    0    0 -0.28008485956E+02 -0.22034029431E+02  0.16867843920E+02  0.39427121342E+02  0.51100000000E-03 0.  1.
         22    1    1    0    0    0 -0.11937561022E+02 -0.17211335655E+02 -0.20692531889E+02  0.29443442635E+02  0.00000000000E+00 0. -1.
</event>
<event>
 5    1  0.8752570E-005  0.9118800E+02  0.7818608E-02  0.1130116E+00
         25   -1    0    0    0    0  0.00000000000E+00  0.00000000000E+00  0.99999998245E-14  0.12500000000E+03  0.12500000000E+03 0.  0.
        -11    1    3    3    0    0 -0.20711377399E+02  0.29364292417E+02  0.25771672696E+02  0.44219926918E+02  0.51100000000E-03 0. -1.
         23    2    1    0    0    0 -0.17629072248E+02 -0.17328840481E+02  0.23220936622E+02  0.91084151222E+02  0.84534240433E+02 0.  0.
         11    1    3    3    0    0  0.30823051506E+01 -0.46693132897E+02 -0.25507360737E+01  0.46864224304E+02  0.51100000000E-03 0.  1.
         22    1    1    0    0    0  0.17629072248E+02  0.17328840481E+02 -0.23220936622E+02  0.33915848778E+02  0.00000000000E+00 0.  1.
</event>
<event>
 5    1  0.8752570E-005  0.9118800E+02  0.7818608E-02  0.1130116E+00
         25   -1    0    0    0    0  0.00000000000E+00  0.00000000000E+00  0.99999998245E-14  0.12500000000E+03  0.12500000000E+03 0.  0.
        -11    1    3    3    0    0  0.22819247849E+02 -0.29627539608E+01 -0.48933929645E+02  0.54074258702E+02  0.51100000000E-03 0. -1.
         23    2    1    0    0    0 -0.10525061603E+02  0.73283189879E+01 -0.26500389114E+02  0.95559351160E+02  0.90911153276E+02 0.  0.
         11    1    3    3    0    0 -0.33344309452E+02  0.10291072949E+02  0.22433540531E+02  0.41485092458E+02  0.51100000000E-03 0.  1.
         22    1    1    0    0    0  0.10525061603E+02 -0.73283189879E+01  0.26500389114E+02  0.29440648840E+02  0.00000000000E+00 0. -1.
</event>
<event>
 5    1  0.8752570E-005  0.9118800E+02  0.7818608E-02  0.1130116E+00
         25   -1    0    0    0    0  0.00000000000E+00  0.00000000000E+00  0.99999998245E-14  0.12500000000E+03  0.12500000000E+03 0.  0.
        -11    1    3    3    0    0  0.23953934512E+02 -0.60378223399E+01  0.22567997267E+02  0.33459838286E+02  0.51100000000E-03 0.  1.
         23    2    1    0    0    0 -0.17548034336E+02  0.43180341796E+01 -0.22862010640E+02  0.95858097887E+02  0.91320996884E+02 0.  0.
         11    1    3    3    0    0 -0.41501968848E+02  0.10355856520E+02 -0.45430007908E+02  0.62398259601E+02  0.51100000000E-03 0. -1.
         22    1    1    0    0    0  0.17548034336E+02 -0.43180341796E+01  0.22862010640E+02  0.29141902113E+02  0.00000000000E+00 0. -1.
</event>
<event>
 5    1  0.8752570E-005  0.9118800E+02  0.7818608E-02  0.1130116E+00
         25   -1    0    0    0    0  0.00000000000E+00  0.00000000000E+00  0.99999998245E-14  0.12500000000E+03  0.12500000000E+03 0.  0.
        -11    1    3    3    0    0  0.25812877561E+02 -0.34386079938E+02 -0.93795356842E+01  0.44007758764E+02  0.51100000000E-03 0.  1.
         23    2    1    0    0    0 -0.22940329256E+02 -0.77554361740E+01 -0.77144366798E+01  0.99585082532E+02  0.96287437565E+02 0.  0.
         11    1    3    3    0    0 -0.48753206817E+02  0.26630643764E+02  0.16650990044E+01  0.55577323768E+02  0.51100000000E-03 0. -1.
         22    1    1    0    0    0  0.22940329256E+02  0.77554361740E+01  0.77144366798E+01  0.25414917468E+02  0.00000000000E+00 0. -1.
</event>
<event>
 5    1  0.8752570E-005  0.9118800E+02  0.7818608E-02  0.1130116E+00
         25   -1    0    0    0    0  0.00000000000E+00  0.00000000000E+00  0.99999998245E-14  0.12500000000E+03  0.12500000000E+03 0.  0.
        -11    1    3    3    0    0 -0.38885554489E+02  0.11736144816E+02 -0.70117387707E+01  0.41218781204E+02  0.51100000000E-03 0. -1.
         23    2    1    0    0    0  0.39474011664E+01  0.17516588957E+02  0.24440448337E+02  0.94672646347E+02  0.89683675141E+02 0.  0.
         11    1    3    3    0    0  0.42832955656E+02  0.57804441408E+01  0.31452187108E+02  0.53453865144E+02  0.51100000000E-03 0.  1.
         22    1    1    0    0    0 -0.39474011664E+01 -0.17516588957E+02 -0.24440448337E+02  0.30327353653E+02  0.00000000000E+00 0.  1.
</event>
<event>
 5    1  0.8752570E-005  0.9118800E+02  0.7818608E-02  0.1130116E+00
         25   -1    0    0    0    0  0.00000000000E+00  0.00000000000E+00  0.99999998245E-14  0.12500000000E+03  0.12500000000E+03 0.  0.
        -11    1    3    3    0    0  0.45539689363E+02 -0.70435363860E+01 -0.34399370290E+02  0.57504707535E+02  0.51100000000E-03 0. -1.
         23    2    1    0    0    0  0.26923403867E+02 -0.10361109232E+02 -0.70432411984E+00  0.96143140629E+02  0.91710332882E+02 0.  0.
         11    1    3    3    0    0 -0.18616285497E+02 -0.33175728461E+01  0.33695046170E+02  0.38638433094E+02  0.51100000000E-03 0.  1.
         22    1    1    0    0    0 -0.26923403867E+02  0.10361109232E+02  0.70432411984E+00  0.28856859371E+02  0.00000000000E+00 0. -1.
</event>
<event>
 5    1  0.8752570E-005  0.9118800E+02  0.7818608E-02  0.1130116E+00
         25   -1    0    0    0    0  0.00000000000E+00  0.00000000000E+00  0.99999998245E-14  0.12500000000E+03  0.12500000000E+03 0.  0.
        -11    1    3    3    0    0 -0.30304493231E+02 -0.47830033436E+02  0.25853678620E+02  0.62245378197E+02  0.51100000000E-03 0. -1.
         23    2    1    0    0    0 -0.17917672090E+02 -0.20844685895E+02  0.12170671012E+02  0.94938909932E+02  0.90054025357E+02 0.  0.
         11    1    3    3    0    0  0.12386821141E+02  0.26985347540E+02 -0.13683007608E+02  0.32693531735E+02  0.51100000000E-03 0.  1.
         22    1    1    0    0    0  0.17917672090E+02  0.20844685895E+02 -0.12170671012E+02  0.30061090068E+02  0.00000000000E+00 0. -1.
</event>
<event>
 5    1  0.8752570E-005  0.9118800E+02  0.7818608E-02  0.1130116E+00
         25   -1    0    0    0    0  0.00000000000E+00  0.00000000000E+00  0.99999998245E-14  0.12500000000E+03  0.12500000000E+03 0.  0.
        -11    1    3    3    0    0  0.26090810222E+02 -0.26446183266E+02 -0.21457823366E+02  0.42901855103E+02  0.51100000000E-03 0. -1.
         23    2    1    0    0    0 -0.63440132172E+01 -0.29135996106E+02  0.14872363259E+02  0.91678235915E+02  0.85408190350E+02 0.  0.
         11    1    3    3    0    0 -0.32434823440E+02 -0.26898128399E+01  0.36330186625E+02  0.48776380812E+02  0.51100000000E-03 0.  1.
         22    1    1    0    0    0  0.63440132172E+01  0.29135996106E+02 -0.14872363259E+02  0.33321764085E+02  0.00000000000E+00 0.  1.
</event>
<event>
 5    1  0.8752570E-005  0.9118800E+02  0.7818608E-02  0.1130116E+00
         25   -1    0    0    0    0  0.00000000000E+00  0.00000000000E+00  0.99999998245E-14  0.12500000000E+03  0.12500000000E+03 0.  0.
        -11    1    3    3    0    0  0.51654971023E+01 -0.60446918742E+02 -0.26653528103E+01  0.60725747847E+02  0.51100000000E-03 0.  1.
         23    2    1    0    0    0 -0.16476387170E+01 -0.19608465414E+02 -0.10242600650E+02  0.10281627855E+03  0.10039456976E+03 0.  0.
         11    1    3    3    0    0 -0.68131358193E+01  0.40838453328E+02 -0.75772478399E+01  0.42090530705E+02  0.51100000000E-03 0. -1.
         22    1    1    0    0    0  0.16476387170E+01  0.19608465414E+02  0.10242600650E+02  0.22183721449E+02  0.00000000000E+00 0.  1.
</event>
<event>
 5    1  0.8752570E-005  0.9118800E+02  0.7818608E-02  0.1130116E+00
         25   -1    0    0    0    0  0.00000000000E+00  0.00000000000E+00  0.99999998245E-14  0.12500000000E+03  0.12500000000E+03 0.  0.
        -11    1    3    3    0    0 -0.17674123545E+02 -0.32829767109E+02 -0.44172085784E+01  0.37545705260E+02  0.51100000000E-03 0. -1.
         23    2    1    0    0    0  0.38887223354E+01  0.13549959166E+02 -0.27834930543E+02  0.93798927693E+02  0.88457514792E+02 0.  0.
         11    1    3    3    0    0  0.21562845881E+02  0.46379726275E+02 -0.23417721965E+02  0.56253222433E+02  0.51100000000E-03 0.  1.
         22    1    1    0    0    0 -0.38887223354E+01 -0.13549959166E+02  0.27834930543E+02  0.31201072307E+02  0.00000000000E+00 0.  1.
</event>
<event>
 5    1  0.8752570E-005  0.9118800E+02  0.7818608E-02  0.1130116E+00
         25   -1    0    0    0    0  0.00000000000E+00  0.00000000000E+00  0.99999998245E-14  0.12500000000E+03  0.12500000000E+03 0.  0.
        -11    1    3    3    0    0  0.44791574724E+02 -0.53571752437E+01 -0.16370126343E+02  0.47989223057E+02  0.51100000000E-03 0.  1.
         23    2    1    0    0    0 -0.99385734177E+01 -0.15571023277E+02 -0.99081949039E+01  0.10403802648E+03  0.10190439942E+03 0.  0.
         11    1    3    3    0    0 -0.54730148142E+02 -0.10213848034E+02  0.64619314392E+01  0.56048803426E+02  0.51100000000E-03 0. -1.
         22    1    1    0    0    0  0.99385734177E+01  0.15571023277E+02  0.99081949039E+01  0.20961973517E+02  0.00000000000E+00 0. -1.
</event>
<event>
 5    1  0.8752570E-005  0.9118800E+02  0.7818608E-02  0.1130116E+00
         25   -1    0    0    0    0  0.00000000000E+00  0.00000000000E+00  0.99999998245E-14  0.12500000000E+03  0.12500000000E+03 0.  0.
        -11    1    3    3    0    0  0.51077022319E+01 -0.29737399837E+02  0.43310748535E+02  0.52784680639E+02  0.51100000000E-03 0.  1.
         23    2    1    0    0    0 -0.11500499939E+02  0.55547164466E+01  0.27133238871E+02  0.95011184997E+02  0.90154291353E+02 0.  0.
         11    1    3    3    0    0 -0.16608202171E+02  0.35292116284E+02 -0.16177509665E+02  0.42226504359E+02  0.51100000000E-03 0. -1.
         22    1    1    0    0    0  0.11500499939E+02 -0.55547164466E+01 -0.27133238871E+02  0.29988815003E+02  0.00000000000E+00 0.  1.
</event>
<event>
 5    1  0.8752570E-005  0.9118800E+02  0.7818608E-02  0.1130116E+00
         25   -1    0    0    0    0  0.00000000000E+00  0.00000000000E+00  0.99999998245E-14  0.12500000000E+03  0.12500000000E+03 0.  0.
        -11    1    3    3    0    0 -0.44632346654E+02  0.17010816108E+02  0.67205797511E+01  0.48234639264E+02  0.51100000000E-03 0.  1.
         23    2    1    0    0    0  0.13385339812E+02  0.74651368612E+01  0.92712657731E+01  0.10708765902E+03  0.10557895034E+03 0.  0.
         11    1    3    3    0    0  0.58017686467E+02 -0.95456792469E+01  0.25506860220E+01  0.58853019758E+02  0.51100000000E-03 0. -1.
         22    1    1    0    0    0 -0.13385339812E+02 -0.74651368612E+01 -0.92712657731E+01  0.17912340977E+02  0.00000000000E+00 0. -1.
</event>
<event>
 5    1  0.8752570E-005  0.9118800E+02  0.7818608E-02  0.1130116E+00
         25   -1    0    0    0    0  0.00000000000E+00  0.00000000000E+00  0.99999998245E-14  0.12500000000E+03  0.12500000000E+03 0.  0.
        -11    1    3    3    0    0 -0.35959996511E+02  0.21596932822E+02  0.33165743068E+02  0.53474436602E+02  0.51100000000E-03 0. -1.
         23    2    1    0    0    0 -0.77850356169E+01  0.28290864370E+02  0.26592460818E+01  0.95537288379E+02  0.90880812577E+02 0.  0.
         11    1    3    3    0    0  0.28174960894E+02  0.66939315474E+01 -0.30506496986E+02  0.42062851777E+02  0.51100000000E-03 0.  1.
         22    1    1    0    0    0  0.77850356169E+01 -0.28290864370E+02 -0.26592460818E+01  0.29462711621E+02  0.00000000000E+00 0. -1.
</event>
<event>
 5    1  0.8752570E-005  0.9118800E+02  0.7818608E-02  0.1130116E+00
         25   -1    0    0    0    0  0.00000000000E+00  0.00000000000E+00  0.99999998245E-14  0.12500000000E+03  0.12500000000E+03 0.  0.
        -11    1    3    3    0    0 -0.18268252867E+02  0.30153587555E+02  0.82148769946E+01  0.36200167259E+02  0.51100000000E-03 0.  1.
         23    2    1    0    0    0  0.24801749975E+02 -0.69131948810E+01  0.17624974442E+02  0.93798096382E+02  0.88456340053E+02 0.  0.
         11    1    3    3    0    0  0.43070002842E+02 -0.37066782436E+02  0.94100974478E+01  0.57597929123E+02  0.51100000000E-03 0. -1.
         22    1    1    0    0    0 -0.24801749975E+02  0.69131948810E+01 -0.17624974442E+02  0.31201903618E+02  0.00000000000E+00 0. -1.
</event>
<event>
 5    1  0.8752570E-005  0.9118800E+02  0.7818608E-02  0.1130116E+00
         25   -1    0    0    0    0  0.00000000000E+00  0.00000000000E+00  0.99999998245E-14  0.12500000000E+03  0.12500000000E+03 0.  0.
        -11    1    3    3    0    0  0.33349151747E+02 -0.11469973441E+02  0.23967734153E+00  0.35267317143E+02  0.51100000000E-03 0.  1.
         23    2    1    0    0    0 -0.26223836272E+02  0.25188549678E+01 -0.90132244046E+01  0.97156285568E+02  0.93080993721E+02 0.  0.
         11    1    3    3    0    0 -0.59572988019E+02  0.13988828409E+02 -0.92529017461E+01  0.61888968425E+02  0.51100000000E-03 0. -1.
         22    1    1    0    0    0  0.26223836272E+02 -0.25188549678E+01  0.90132244046E+01  0.27843714432E+02  0.00000000000E+00 0. -1.
</event>
<event>
 5    1  0.8752570E-005  0.9118800E+02  0.7818608E-02  0.1130116E+00
         25   -1    0    0    0    0  0.00000000000E+00  0.00000000000E+00  0.99999998245E-14  0.12500000000E+03  0.12500000000E+03 0.  0.
        -11    1    3    3    0    0 -0.12066787903E+02 -0.16928868971E+02  0.57184564219E+02  0.60846268251E+02  0.51100000000E-03 0. -1.
         23    2    1    0    0    0 -0.59831974200E+01 -0.17460891034E+02  0.23308290708E+02  0.95268572473E+02  0.90510458613E+02 0.  0.
         11    1    3    3    0    0  0.60835904827E+01 -0.53202206333E+00 -0.33876273512E+02  0.34422304222E+02  0.51100000000E-03 0.  1.
         22    1    1    0    0    0  0.59831974200E+01  0.17460891034E+02 -0.23308290708E+02  0.29731427527E+02  0.00000000000E+00 0. -1.
</event>
<event>
 5    1  0.8752570E-005  0.9118800E+02  0.7818608E-02  0.1130116E+00
         25   -1    0    0    0    0  0.00000000000E+00  0.00000000000E+00  0.99999998245E-14  0.12500000000E+03  0.12500000000E+03 0.  0.
        -11    1    3    3    0    0 -0.20483700084E+02 -0.40057725436E+02  0.95554648589E+00  0.45001293377E+02  0.51100000000E-03 0.  1.
         23    2    1    0    0    0  0.12705680892E+02 -0.12767876000E+02 -0.24231101121E+02  0.94807298133E+02  0.89871155179E+02 0.  0.
         11    1    3    3    0    0  0.33189380976E+02  0.27289849436E+02 -0.25186647607E+02  0.49806004756E+02  0.51100000000E-03 0. -1.
         22    1    1    0    0    0 -0.12705680892E+02  0.12767876000E+02  0.24231101121E+02  0.30192701867E+02  0.00000000000E+00 0. -1.
</event>
<event>
 5    1  0.8752570E-005  0.9118800E+02  0.7818608E-02  0.1130116E+00
         25   -1    0    0    0    0  0.00000000000E+00  0.00000000000E+00  0.99999998245E-14  0.12500000000E+03  0.12500000000E+03 0.  0.
        -11    1    3    3    0    0 -0.30549538097E+02 -0.15331116326E+02  0.34604050368E+02  0.48639055376E+02  0.51100000000E-03 0.  1.
         23    2    1    0    0    0  0.11913787384E+02 -0.21807581050E+02  0.15969426478E+02  0.95461355767E+02  0.90776312669E+02 0.  0.
         11    1    3    3    0    0  0.42463325481E+02 -0.64764647237E+01 -0.18634623890E+02  0.46822300392E+02  0.51100000000E-03 0. -1.
         22    1    1    0    0    0 -0.11913787384E+02  0.21807581050E+02 -0.15969426478E+02  0.29538644233E+02  0.00000000000E+00 0.  1.
</event>
<event>
 5    1  0.8752570E-005  0.9118800E+02  0.7818608E-02  0.1130116E+00
         25   -1    0    0    0    0  0.00000000000E+00  0.00000000000E+00  0.99999998245E-14  0.12500000000E+03  0.12500000000E+03 0.  0.
        -11    1    3    3    0    0  0.29092514798E+02  0.19078986500E+02  0.27401999748E+01  0.34898292785E+02  0.51100000000E-03 0.  1.
         23    2    1    0    0    0 -0.16699324093E+02 -0.17983570684E+02  0.16541413069E+02  0.95404483684E+02  0.90697965363E+02 0.  0.
         11    1    3    3    0    0 -0.45791838891E+02 -0.37062557184E+02  0.13801213094E+02  0.60506190899E+02  0.51100000000E-03 0. -1.
         22    1    1    0    0    0  0.16699324093E+02  0.17983570684E+02 -0.16541413069E+02  0.29595516316E+02  0.00000000000E+00 0. -1.
</event>
<event>
 5    1  0.8752570E-005  0.9118800E+02  0.7818608E-02  0.1130116E+00
         25   -1    0    0    0    0  0.00000000000E+00  0.00000000000E+00  0.99999998245E-14  0.12500000000E+03  0.12500000000E+03 0.  0.
        -11    1    3    3    0    0  0.55965985773E+02 -0.11527927026E+02  0.24587799912E+02  0.62206467267E+02  0.51100000000E-03 0.  1.
         23    2    1    0    0    0  0.25978471823E+02 -0.23363407962E+01  0.14521415053E+02  0.95146843020E+02  0.90342187017E+02 0.  0.
         11    1    3    3    0    0 -0.29987513950E+02  0.91915862301E+01 -0.10066384859E+02  0.32940375753E+02  0.51100000000E-03 0. -1.
         22    1    1    0    0    0 -0.25978471823E+02  0.23363407962E+01 -0.14521415053E+02  0.29853156980E+02  0.00000000000E+00 0.  1.
</event>
<event>
 5    1  0.8752570E-005  0.9118800E+02  0.7818608E-02  0.1130116E+00
         25   -1    0    0    0    0  0.00000000000E+00  0.00000000000E+00  0.99999998245E-14  0.12500000000E+03  0.12500000000E+03 0.  0.
        -11    1    3    3    0    0 -0.10133928953E+02 -0.15402300748E+02 -0.37101207830E+02  0.41429784057E+02  0.51100000000E-03 0. -1.
         23    2    1    0    0    0 -0.26851527222E+01  0.28668524235E+02 -0.68447144014E+01  0.95403641404E+02  0.90696804524E+02 0.  0.
         11    1    3    3    0    0  0.74487762307E+01  0.44070824982E+02  0.30256493429E+02  0.53973857346E+02  0.51100000000E-03 0.  1.
         22    1    1    0    0    0  0.26851527222E+01 -0.28668524235E+02  0.68447144014E+01  0.29596358596E+02  0.00000000000E+00 0.  1.
</event>
<event>
 5    1  0.8752570E-005  0.9118800E+02  0.7818608E-02  0.1130116E+00
         25   -1    0    0    0    0  0.00000000000E+00  0.00000000000E+00  0.99999998245E-14  0.12500000000E+03  0.12500000000E+03 0.  0.
        -11    1    3    3    0    0  0.23508555271E+01  0.21957936265E+01  0.59907002900E+02  0.59993308194E+02  0.51100000000E-03 0.  1.
         23    2    1    0    0    0  0.15691217813E+01 -0.11456083296E+02  0.27041434417E+02  0.95590083934E+02  0.90953400066E+02 0.  0.
         11    1    3    3    0    0 -0.78173374572E+00 -0.13651876923E+02 -0.32865568482E+02  0.35596775740E+02  0.51100000000E-03 0. -1.
         22    1    1    0    0    0 -0.15691217813E+01  0.11456083296E+02 -0.27041434417E+02  0.29409916066E+02  0.00000000000E+00 0.  1.
</event>
<event>
 5    1  0.8752570E-005  0.9118800E+02  0.7818608E-02  0.1130116E+00
         25   -1    0    0    0    0  0.00000000000E+00  0.00000000000E+00  0.99999998245E-14  0.12500000000E+03  0.12500000000E+03 0.  0.
        -11    1    3    3    0    0 -0.22686207308E+02  0.81693655389E+01  0.23045614107E+02  0.33354203111E+02  0.51100000000E-03 0. -1.
         23    2    1    0    0    0 -0.24510969170E+01 -0.76705167351E+01 -0.30878710732E+02  0.93088568200E+02  0.87447939083E+02 0.  0.
         11    1    3    3    0    0  0.20235110391E+02 -0.15839882274E+02 -0.53924324839E+02  0.59734365089E+02  0.51100000000E-03 0.  1.
         22    1    1    0    0    0  0.24510969170E+01  0.76705167351E+01  0.30878710732E+02  0.31911431800E+02  0.00000000000E+00 0.  1.
</event>
<event>
 5    1  0.8752570E-005  0.9118800E+02  0.7818608E-02  0.1130116E+00
         25   -1    0    0    0    0  0.00000000000E+00  0.00000000000E+00  0.99999998245E-14  0.12500000000E+03  0.12500000000E+03 0.  0.
        -11    1    3    3    0    0  0.28109873709E+02 -0.92013093878E+01  0.10338293858E+01  0.29595572268E+02  0.51100000000E-03 0. -1.
         23    2    1    0    0    0 -0.33375880352E+02 -0.14785394327E+01  0.13252068416E+01  0.91565113410E+02  0.85242468010E+02 0.  0.
         11    1    3    3    0    0 -0.61485754061E+02  0.77227699552E+01  0.29137745579E+00  0.61969541142E+02  0.51100000000E-03 0.  1.
         22    1    1    0    0    0  0.33375880352E+02  0.14785394327E+01 -0.13252068416E+01  0.33434886590E+02  0.00000000000E+00 0.  1.
</event>
<event>
 5    1  0.8752570E-005  0.9118800E+02  0.7818608E-02  0.1130116E+00
         25   -1    0    0    0    0  0.00000000000E+00  0.00000000000E+00  0.99999998245E-14  0.12500000000E+03  0.12500000000E+03 0.  0.
        -11    1    3    3    0    0  0.41111640168E+02 -0.27378629444E+02 -0.20159786262E+02  0.53349538798E+02  0.51100000000E-03 0.  1.
         23    2    1    0    0    0  0.95812139645E+01 -0.26497487679E+02  0.80812747799E+01  0.95687485328E+02  0.91087163377E+02 0.  0.
         11    1    3    3    0    0 -0.31530426204E+02  0.88114176546E+00  0.28241061042E+02  0.42337946530E+02  0.51100000000E-03 0. -1.
         22    1    1    0    0    0 -0.95812139645E+01  0.26497487679E+02 -0.80812747799E+01  0.29312514672E+02  0.00000000000E+00 0. -1.
</event>
<event>
 5    1  0.8752570E-005  0.9118800E+02  0.7818608E-02  0.1130116E+00
         25   -1    0    0    0    0  0.00000000000E+00  0.00000000000E+00  0.99999998245E-14  0.12500000000E+03  0.12500000000E+03 0.  0.
        -11    1    3    3    0    0 -0.46704548664E+02  0.21219357849E+02 -0.27412880131E+02  0.58163923619E+02  0.51100000000E-03 0. -1.
         23    2    1    0    0    0 -0.10529149998E+02  0.10269252029E+02 -0.24946388402E+02  0.96040669358E+02  0.91570559349E+02 0.  0.
         11    1    3    3    0    0  0.36175398666E+02 -0.10950105820E+02  0.24664917285E+01  0.37876745739E+02  0.51100000000E-03 0.  1.
         22    1    1    0    0    0  0.10529149998E+02 -0.10269252029E+02  0.24946388402E+02  0.28959330642E+02  0.00000000000E+00 0. -1.
</event>
<event>
 5    1  0.8752570E-005  0.9118800E+02  0.7818608E-02  0.1130116E+00
         25   -1    0    0    0    0  0.00000000000E+00  0.00000000000E+00  0.99999998245E-14  0.12500000000E+03  0.12500000000E+03 0.  0.
        -11    1    3    3    0    0 -0.54430507493E+00  0.38555970777E+02 -0.38938818989E+02  0.54800463274E+02  0.51100000000E-03 0.  1.
         23    2    1    0    0    0  0.20310907224E+02  0.95412508463E+01 -0.18136304398E+02  0.96147028625E+02  0.91715632016E+02 0.  0.
         11    1    3    3    0    0  0.20855212299E+02 -0.29014719931E+02  0.20802514591E+02  0.41346565350E+02  0.51100000000E-03 0. -1.
         22    1    1    0    0    0 -0.20310907224E+02 -0.95412508463E+01  0.18136304398E+02  0.28852971375E+02  0.00000000000E+00 0.  1.
</event>
<event>
 5    1  0.8752570E-005  0.9118800E+02  0.7818608E-02  0.1130116E+00
         25   -1    0    0    0    0  0.00000000000E+00  0.00000000000E+00  0.99999998245E-14  0.12500000000E+03  0.12500000000E+03 0.  0.
        -11    1    3    3    0    0  0.18084271597E+02 -0.19350354029E+01 -0.54417743671E+02  0.57376616035E+02  0.51100000000E-03 0. -1.
         23    2    1    0    0    0  0.27438601427E+02  0.15150456678E+01 -0.27321192721E+02  0.86249260867E+02  0.77053975996E+02 0.  0.
         11    1    3    3    0    0  0.93543298302E+01  0.34500810707E+01  0.27096550950E+02  0.28872644832E+02  0.51100000000E-03 0.  1.
         22    1    1    0    0    0 -0.27438601427E+02 -0.15150456678E+01  0.27321192721E+02  0.38750739133E+02  0.00000000000E+00 0. -1.
</event>
<event>
 5    1  0.8752570E-005  0.9118800E+02  0.7818608E-02  0.1130116E+00
         25   -1    0    0    0    0  0.00000000000E+00  0.00000000000E+00  0.99999998245E-14  0.12500000000E+03  0.12500000000E+03 0.  0.
        -11    1    3    3    0    0  0.42990290866E+02 -0.28643094974E+02 -0.32816076220E+02  0.61200382819E+02  0.51100000000E-03 0.  1.
         23    2    1    0    0    0  0.22731069734E+02 -0.94300182972E+01 -0.65511324039E+01  0.99533470749E+02  0.96220412009E+02 0.  0.
         11    1    3    3    0    0 -0.20259221132E+02  0.19213076677E+02  0.26264943816E+02  0.38333087930E+02  0.51100000000E-03 0. -1.
         22    1    1    0    0    0 -0.22731069734E+02  0.94300182972E+01  0.65511324039E+01  0.25466529251E+02  0.00000000000E+00 0.  1.
</event>
<event>
 5    1  0.8752570E-005  0.9118800E+02  0.7818608E-02  0.1130116E+00
         25   -1    0    0    0    0  0.00000000000E+00  0.00000000000E+00  0.99999998245E-14  0.12500000000E+03  0.12500000000E+03 0.  0.
        -11    1    3    3    0    0  0.28116063381E+02 -0.22246144133E+02 -0.46500490614E+02  0.58717114851E+02  0.51100000000E-03 0. -1.
         23    2    1    0    0    0  0.25950601915E+02 -0.66566321643E+01 -0.14129509079E+02  0.94711594325E+02  0.89737943932E+02 0.  0.
         11    1    3    3    0    0 -0.21654614660E+01  0.15589511969E+02  0.32370981535E+02  0.35994479474E+02  0.51100000000E-03 0.  1.
         22    1    1    0    0    0 -0.25950601915E+02  0.66566321643E+01  0.14129509079E+02  0.30288405675E+02  0.00000000000E+00 0. -1.
</event>
<event>
 5    1  0.8752570E-005  0.9118800E+02  0.7818608E-02  0.1130116E+00
         25   -1    0    0    0    0  0.00000000000E+00  0.00000000000E+00  0.99999998245E-14  0.12500000000E+03  0.12500000000E+03 0.  0.
        -11    1    3    3    0    0 -0.36111124077E+02 -0.15538533761E+02 -0.54062943888E+01  0.39682330235E+02  0.51100000000E-03 0. -1.
         23    2    1    0    0    0 -0.94971509986E+00  0.22407868448E+02  0.17785915274E+02  0.96375651810E+02  0.92026696955E+02 0.  0.
         11    1    3    3    0    0  0.35161408977E+02  0.37946402210E+02  0.23192209663E+02  0.56693321575E+02  0.51100000000E-03 0.  1.
         22    1    1    0    0    0  0.94971509986E+00 -0.22407868448E+02 -0.17785915274E+02  0.28624348190E+02  0.00000000000E+00 0.  1.
</event>
<event>
 5    1  0.8752570E-005  0.9118800E+02  0.7818608E-02  0.1130116E+00
         25   -1    0    0    0    0  0.00000000000E+00  0.00000000000E+00  0.99999998245E-14  0.12500000000E+03  0.12500000000E+03 0.  0.
        -11    1    3    3    0    0 -0.44068151624E+02 -0.10535890538E+02 -0.18496800377E+02  0.48940153263E+02  0.51100000000E-03 0.  1.
         23    2    1    0    0    0 -0.21960194483E+02  0.15244330477E+02  0.13013405120E+02  0.95268056467E+02  0.90509745977E+02 0.  0.
         11    1    3    3    0    0  0.22107957141E+02  0.25780221015E+02  0.31510205498E+02  0.46327903204E+02  0.51100000000E-03 0. -1.
         22    1    1    0    0    0  0.21960194483E+02 -0.15244330477E+02 -0.13013405120E+02  0.29731943533E+02  0.00000000000E+00 0.  1.
</event>
<event>
 5    1  0.8752570E-005  0.9118800E+02  0.7818608E-02  0.1130116E+00
         25   -1    0    0    0    0  0.00000000000E+00  0.00000000000E+00  0.99999998245E-14  0.12500000000E+03  0.12500000000E+03 0.  0.
        -11    1    3    3    0    0 -0.58932628443E+01 -0.16608735400E+02 -0.59593359023E+02  0.62144582052E+02  0.51100000000E-03 0. -1.
         23    2    1    0    0    0 -0.34769059841E+01 -0.12347965099E+02 -0.26958549961E+02  0.95144941244E+02  0.90339555628E+02 0.  0.
         11    1    3    3    0    0  0.24163568603E+01  0.42607703013E+01  0.32634809062E+02  0.33000359192E+02  0.51100000000E-03 0.  1.
         22    1    1    0    0    0  0.34769059841E+01  0.12347965099E+02  0.26958549961E+02  0.29855058756E+02  0.00000000000E+00 0. -1.
</event>
<event>
 5    1  0.8752570E-005  0.9118800E+02  0.7818608E-02  0.1130116E+00
         25   -1    0    0    0    0  0.00000000000E+00  0.00000000000E+00  0.99999998245E-14  0.12500000000E+03  0.12500000000E+03 0.  0.
        -11    1    3    3    0    0 -0.38896026776E+02  0.64912190259E+01 -0.26280735773E+02  0.47388963867E+02  0.51100000000E-03 0.  1.
         23    2    1    0    0    0 -0.17708783979E+02 -0.27123274005E+02 -0.57960596512E+01  0.92093050427E+02  0.86013153684E+02 0.  0.
         11    1    3    3    0    0  0.21187242797E+02 -0.33614493030E+02  0.20484676122E+02  0.44704086559E+02  0.51100000000E-03 0. -1.
         22    1    1    0    0    0  0.17708783979E+02  0.27123274005E+02  0.57960596512E+01  0.32906949573E+02  0.00000000000E+00 0. -1.
</event>
<event>
 5    1  0.8752570E-005  0.9118800E+02  0.7818608E-02  0.1130116E+00
         25   -1    0    0    0    0  0.00000000000E+00  0.00000000000E+00  0.99999998245E-14  0.12500000000E+03  0.12500000000E+03 0.  0.
        -11    1    3    3    0    0 -0.14599060028E+02  0.44873690316E+02 -0.14926433684E+02  0.49493222355E+02  0.51100000000E-03 0. -1.
         23    2    1    0    0    0  0.17629307554E+02  0.20996111981E+02  0.89359177746E+01  0.96164608038E+02  0.91739588016E+02 0.  0.
         11    1    3    3    0    0  0.32228367583E+02 -0.23877578335E+02  0.23862351459E+02  0.46671385683E+02  0.51100000000E-03 0.  1.
         22    1    1    0    0    0 -0.17629307554E+02 -0.20996111981E+02 -0.89359177746E+01  0.28835391962E+02  0.00000000000E+00 0. -1.
</event>
<event>
 5    1  0.8752570E-005  0.9118800E+02  0.7818608E-02  0.1130116E+00
         25   -1    0    0    0    0  0.00000000000E+00  0.00000000000E+00  0.99999998245E-14  0.12500000000E+03  0.12500000000E+03 0.  0.
        -11    1    3    3    0    0  0.87283590171E+01  0.36820813489E+02  0.29769278120E+02  0.48147341330E+02  0.51100000000E-03 0. -1.
         23    2    1    0    0    0 -0.17308314551E+02  0.23021770202E+02 -0.70900874471E+01  0.95337751335E+02  0.90605948114E+02 0.  0.
         11    1    3    3    0    0 -0.26036673568E+02 -0.13799043286E+02 -0.36859365567E+02  0.47190410005E+02  0.51100000000E-03 0.  1.
         22    1    1    0    0    0  0.17308314551E+02 -0.23021770202E+02  0.70900874471E+01  0.29662248665E+02  0.00000000000E+00 0. -1.
</event>
<event>
 5    1  0.8752570E-005  0.9118800E+02  0.7818608E-02  0.1130116E+00
         25   -1    0    0    0    0  0.00000000000E+00  0.00000000000E+00  0.99999998245E-14  0.12500000000E+03  0.12500000000E+03 0.  0.
        -11    1    3    3    0    0 -0.44124784312E+02  0.10629523627E+02  0.50721489709E+01  0.45669574758E+02  0.51100000000E-03 0. -1.
         23    2    1    0    0    0 -0.38559823216E+01  0.15280150404E+02 -0.24515940044E+02  0.95855825415E+02  0.91317886274E+02 0.  0.
         11    1    3    3    0    0  0.40268801990E+02  0.46506267771E+01 -0.29588089015E+02  0.50186250657E+02  0.51100000000E-03 0.  1.
         22    1    1    0    0    0  0.38559823216E+01 -0.15280150404E+02  0.24515940044E+02  0.29144174585E+02  0.00000000000E+00 0.  1.
</event>
<event>
 5    1  0.8752570E-005  0.9118800E+02  0.7818608E-02  0.1130116E+00
         25   -1    0    0    0    0  0.00000000000E+00  0.00000000000E+00  0.99999998245E-14  0.12500000000E+03  0.12500000000E+03 0.  0.
        -11    1    3    3    0    0 -0.21488314980E+02  0.10661411573E+02  0.31272636703E+02  0.39413083919E+02  0.51100000000E-03 0.  1.
         23    2    1    0    0    0  0.17121424548E+02  0.20392343768E+02 -0.98087117833E+01  0.96623923989E+02  0.92363309800E+02 0.  0.
         11    1    3    3    0    0  0.38609739528E+02  0.97309321954E+01 -0.41081348486E+02  0.57210840070E+02  0.51100000000E-03 0. -1.
         22    1    1    0    0    0 -0.17121424548E+02 -0.20392343768E+02  0.98087117833E+01  0.28376076011E+02  0.00000000000E+00 0. -1.
</event>
<event>
 5    1  0.8752570E-005  0.9118800E+02  0.7818608E-02  0.1130116E+00
         25   -1    0    0    0    0  0.00000000000E+00  0.00000000000E+00  0.99999998245E-14  0.12500000000E+03  0.12500000000E+03 0.  0.
        -11    1    3    3    0    0 -0.33562389196E+02  0.14194662565E+02 -0.19977490659E+01  0.36495388962E+02  0.51100000000E-03 0.  1.
         23    2    1    0    0    0  0.26083320172E+02  0.45814962679E+01  0.70758249959E+01  0.97588378403E+02  0.93659460818E+02 0.  0.
         11    1    3    3    0    0  0.59645709368E+02 -0.96131662971E+01  0.90735740619E+01  0.61092989440E+02  0.51100000000E-03 0. -1.
         22    1    1    0    0    0 -0.26083320172E+02 -0.45814962679E+01 -0.70758249959E+01  0.27411621597E+02  0.00000000000E+00 0. -1.
</event>
<event>
 5    1  0.8752570E-005  0.9118800E+02  0.7818608E-02  0.1130116E+00
         25   -1    0    0    0    0  0.00000000000E+00  0.00000000000E+00  0.99999998245E-14  0.12500000000E+03  0.12500000000E+03 0.  0.
        -11    1    3    3    0    0 -0.36941051304E+02 -0.31379460452E+01  0.45387201934E+02  0.58604488535E+02  0.51100000000E-03 0. -1.
         23    2    1    0    0    0 -0.32878984933E+01  0.38967052604E+00  0.28291431923E+02  0.96515491230E+02  0.92216445429E+02 0.  0.
         11    1    3    3    0    0  0.33653152811E+02  0.35276165712E+01 -0.17095770011E+02  0.37911002695E+02  0.51100000000E-03 0.  1.
         22    1    1    0    0    0  0.32878984933E+01 -0.38967052604E+00 -0.28291431923E+02  0.28484508770E+02  0.00000000000E+00 0. -1.
</event>
<event>
 5    1  0.8752570E-005  0.9118800E+02  0.7818608E-02  0.1130116E+00
         25   -1    0    0    0    0  0.00000000000E+00  0.00000000000E+00  0.99999998245E-14  0.12500000000E+03  0.12500000000E+03 0.  0.
        -11    1    3    3    0    0  0.92447871771E+01 -0.34361479258E+01 -0.56896555680E+02  0.57745053909E+02  0.51100000000E-03 0.  1.
         23    2    1    0    0    0  0.14925725109E+02  0.12021297881E+02 -0.26799598967E+02  0.92052961020E+02  0.85954873363E+02 0.  0.
         11    1    3    3    0    0  0.56809379323E+01  0.15457445807E+02  0.30096956713E+02  0.34307907110E+02  0.51100000000E-03 0. -1.
         22    1    1    0    0    0 -0.14925725109E+02 -0.12021297881E+02  0.26799598967E+02  0.32947038980E+02  0.00000000000E+00 0.  1.
</event>
<event>
 5    1  0.8752570E-005  0.9118800E+02  0.7818608E-02  0.1130116E+00
         25   -1    0    0    0    0  0.00000000000E+00  0.00000000000E+00  0.99999998245E-14  0.12500000000E+03  0.12500000000E+03 0.  0.
        -11    1    3    3    0    0 -0.29577631491E+02 -0.25649658078E+02 -0.27091348262E+02  0.47609688038E+02  0.51100000000E-03 0. -1.
         23    2    1    0    0    0 -0.25371104965E+02  0.15526419346E+02 -0.40519789744E+01  0.94980319814E+02  0.90111486247E+02 0.  0.
         11    1    3    3    0    0  0.42065265262E+01  0.41176077424E+02  0.23039369288E+02  0.47370631776E+02  0.51100000000E-03 0.  1.
         22    1    1    0    0    0  0.25371104965E+02 -0.15526419346E+02  0.40519789744E+01  0.30019680186E+02  0.00000000000E+00 0.  1.
</event>
<event>
 5    1  0.8752570E-005  0.9118800E+02  0.7818608E-02  0.1130116E+00
         25   -1    0    0    0    0  0.00000000000E+00  0.00000000000E+00  0.99999998245E-14  0.12500000000E+03  0.12500000000E+03 0.  0.
        -11    1    3    3    0    0 -0.16792573797E+02 -0.51108308328E+02 -0.23509656418E+02  0.58709059437E+02  0.51100000000E-03 0. -1.
         23    2    1    0    0    0  0.74362109787E+01 -0.24384876437E+02 -0.13543276362E+02  0.96132375103E+02  0.91695658435E+02 0.  0.
         11    1    3    3    0    0  0.24228784775E+02  0.26723431891E+02  0.99663800557E+01  0.37423315666E+02  0.51100000000E-03 0.  1.
         22    1    1    0    0    0 -0.74362109787E+01  0.24384876437E+02  0.13543276362E+02  0.28867624897E+02  0.00000000000E+00 0. -1.
</event>
<event>
 5    1  0.8752570E-005  0.9118800E+02  0.7818608E-02  0.1130116E+00
         25   -1    0    0    0    0  0.00000000000E+00  0.00000000000E+00  0.99999998245E-14  0.12500000000E+03  0.12500000000E+03 0.  0.
        -11    1    3    3    0    0 -0.15766852601E+02  0.31821877105E+02 -0.22383828714E+01  0.35584208037E+02  0.51100000000E-03 0.  1.
         23    2    1    0    0    0 -0.80839390376E+01 -0.27944016067E+02 -0.19864868190E+01  0.95842424069E+02  0.91299540071E+02 0.  0.
         11    1    3    3    0    0  0.76829135632E+01 -0.59765893172E+02  0.25189605240E+00  0.60258216032E+02  0.51100000000E-03 0. -1.
         22    1    1    0    0    0  0.80839390376E+01  0.27944016067E+02  0.19864868190E+01  0.29157575931E+02  0.00000000000E+00 0. -1.
</event>
<event>
 5    1  0.8752570E-005  0.9118800E+02  0.7818608E-02  0.1130116E+00
         25   -1    0    0    0    0  0.00000000000E+00  0.00000000000E+00  0.99999998245E-14  0.12500000000E+03  0.12500000000E+03 0.  0.
        -11    1    3    3    0    0 -0.54315610241E+02 -0.56323046442E+01  0.41009378562E+01  0.54760625115E+02  0.51100000000E-03 0.  1.
         23    2    1    0    0    0 -0.16113075908E+02 -0.18876252528E+02  0.14160286272E+02  0.96426273746E+02  0.92095431138E+02 0.  0.
         11    1    3    3    0    0  0.38202534333E+02 -0.13243947884E+02  0.10059348416E+02  0.41665648631E+02  0.51100000000E-03 0. -1.
         22    1    1    0    0    0  0.16113075908E+02  0.18876252528E+02 -0.14160286272E+02  0.28573726254E+02  0.00000000000E+00 0. -1.
</event>
<event>
 5    1  0.8752570E-005  0.9118800E+02  0.7818608E-02  0.1130116E+00
         25   -1    0    0    0    0  0.00000000000E+00  0.00000000000E+00  0.99999998245E-14  0.12500000000E+03  0.12500000000E+03 0.  0.
        -11    1    3    3    0    0 -0.30239470240E+02 -0.15078975390E+02  0.43676596809E+01  0.34071652595E+02  0.51100000000E-03 0. -1.
         23    2    1    0    0    0  0.19463862608E+02  0.10167543213E+02 -0.20357030106E+02  0.95056226735E+02  0.90216720644E+02 0.  0.
         11    1    3    3    0    0  0.49703332848E+02  0.25246518603E+02 -0.24724689786E+02  0.60984574140E+02  0.51100000000E-03 0.  1.
         22    1    1    0    0    0 -0.19463862608E+02 -0.10167543213E+02  0.20357030106E+02  0.29943773265E+02  0.00000000000E+00 0.  1.
</event>
<event>
 5    1  0.8752570E-005  0.9118800E+02  0.7818608E-02  0.1130116E+00
         25   -1    0    0    0    0  0.00000000000E+00  0.00000000000E+00  0.99999998245E-14  0.12500000000E+03  0.12500000000E+03 0.  0.
        -11    1    3    3    0    0  0.36556855576E+02 -0.18642387533E+02  0.29356657906E+02  0.50455482023E+02  0.51100000000E-03 0.  1.
         23    2    1    0    0    0 -0.57368056309E+01 -0.23863662459E+02  0.18017674510E+02  0.94552965340E+02  0.89516709809E+02 0.  0.
         11    1    3    3    0    0 -0.42293661207E+02 -0.52212749268E+01 -0.11338983396E+02  0.44097483317E+02  0.51100000000E-03 0. -1.
         22    1    1    0    0    0  0.57368056309E+01  0.23863662459E+02 -0.18017674510E+02  0.30447034660E+02  0.00000000000E+00 0.  1.
</event>
<event>
 5    1  0.8752570E-005  0.9118800E+02  0.7818608E-02  0.1130116E+00
         25   -1    0    0    0    0  0.00000000000E+00  0.00000000000E+00  0.99999998245E-14  0.12500000000E+03  0.12500000000E+03 0.  0.
        -11    1    3    3    0    0 -0.70815796385E+01 -0.39183159273E+02 -0.30802782654E+01  0.39936910937E+02  0.51100000000E-03 0. -1.
         23    2    1    0    0    0 -0.10391914648E+02  0.14940998090E+02 -0.21153573612E+02  0.97094821440E+02  0.92998415900E+02 0.  0.
         11    1    3    3    0    0 -0.33103350090E+01  0.54124157362E+02 -0.18073295346E+02  0.57157910502E+02  0.51100000000E-03 0.  1.
         22    1    1    0    0    0  0.10391914648E+02 -0.14940998090E+02  0.21153573612E+02  0.27905178560E+02  0.00000000000E+00 0.  1.
</event>
<event>
 5    1  0.8752570E-005  0.9118800E+02  0.7818608E-02  0.1130116E+00
         25   -1    0    0    0    0  0.00000000000E+00  0.00000000000E+00  0.99999998245E-14  0.12500000000E+03  0.12500000000E+03 0.  0.
        -11    1    3    3    0    0 -0.80114945636E+01 -0.48765169488E+02  0.21690511205E+02  0.53969473565E+02  0.51100000000E-03 0. -1.
         23    2    1    0    0    0 -0.16049343722E+02 -0.89940432301E+01  0.24174942629E+02  0.94620696212E+02  0.89611238430E+02 0.  0.
         11    1    3    3    0    0 -0.80378491588E+01  0.39771126258E+02  0.24844314240E+01  0.40651222647E+02  0.51100000000E-03 0.  1.
         22    1    1    0    0    0  0.16049343722E+02  0.89940432301E+01 -0.24174942629E+02  0.30379303788E+02  0.00000000000E+00 0.  1.
</event>
<event>
 5    1  0.8752570E-005  0.9118800E+02  0.7818608E-02  0.1130116E+00
         25   -1    0    0    0    0  0.00000000000E+00  0.00000000000E+00  0.99999998245E-14  0.12500000000E+03  0.12500000000E+03 0.  0.
        -11    1    3    3    0    0 -0.12456077977E+02  0.38861812230E+02 -0.90880192481E+01  0.41808927546E+02  0.51100000000E-03 0.  1.
         23    2    1    0    0    0  0.28669440721E+02  0.46143329394E+01 -0.91852560505E+00  0.95947072625E+02  0.91442704227E+02 0.  0.
         11    1    3    3    0    0  0.41125518699E+02 -0.34247479291E+02  0.81694936431E+01  0.54138145080E+02  0.51100000000E-03 0. -1.
         22    1    1    0    0    0 -0.28669440721E+02 -0.46143329394E+01  0.91852560505E+00  0.29052927375E+02  0.00000000000E+00 0.  1.
</event>
<event>
 5    1  0.8752570E-005  0.9118800E+02  0.7818608E-02  0.1130116E+00
         25   -1    0    0    0    0  0.00000000000E+00  0.00000000000E+00  0.99999998245E-14  0.12500000000E+03  0.12500000000E+03 0.  0.
        -11    1    3    3    0    0  0.15836126732E+02 -0.29025674687E+02  0.36058249566E+02  0.48923103570E+02  0.51100000000E-03 0. -1.
         23    2    1    0    0    0 -0.16247707675E+02 -0.24990860562E+02  0.32062268600E+01  0.95019823099E+02  0.90166267389E+02 0.  0.
         11    1    3    3    0    0 -0.32083834406E+02  0.40348141248E+01 -0.32852022706E+02  0.46096719529E+02  0.51100000000E-03 0.  1.
         22    1    1    0    0    0  0.16247707675E+02  0.24990860562E+02 -0.32062268600E+01  0.29980176901E+02  0.00000000000E+00 0.  1.
</event>
<event>
 5    1  0.8752570E-005  0.9118800E+02  0.7818608E-02  0.1130116E+00
         25   -1    0    0    0    0  0.00000000000E+00  0.00000000000E+00  0.99999998245E-14  0.12500000000E+03  0.12500000000E+03 0.  0.
        -11    1    3    3    0    0  0.24076377343E+02 -0.12907771638E+02  0.42156930069E+02  0.50234343509E+02  0.51100000000E-03 0.  1.
         23    2    1    0    0    0  0.18873969110E+02  0.20147177009E+02  0.13600421382E+02  0.94224897837E+02  0.89057422258E+02 0.  0.
         11    1    3    3    0    0 -0.52024082333E+01  0.33054948646E+02 -0.28556508688E+02  0.43990554329E+02  0.51100000000E-03 0. -1.
         22    1    1    0    0    0 -0.18873969110E+02 -0.20147177009E+02 -0.13600421382E+02  0.30775102163E+02  0.00000000000E+00 0.  1.
</event>
<event>
 4    1  0.8752570E-005  0.9118800E+02  0.7818608E-02  0.1130116E+00
         25   -1    0    0    0    0  0.00000000000E+00  0.00000000000E+00  0.99999998245E-14  0.12500000000E+03  0.12500000000E+03 0.  0.
        -11    1    1    0    0    0 -0.31255677021E+02 -0.19811999753E+00  0.19480247977E+02  0.36829833819E+02  0.51100000000E-03 0. -1.
         11    1    1    0    0    0 -0.42319179884E+01 -0.32056403168E+02  0.74343400525E+01  0.33178178465E+02  0.51100000000E-03 0.  1.
         22    1    1    0    0    0  0.35487595010E+02  0.32254523166E+02 -0.26914588030E+02  0.54991987717E+02  0.00000000000E+00 0. -1.
</event>
<event>
 5    1  0.8752570E-005  0.9118800E+02  0.7818608E-02  0.1130116E+00
         25   -1    0    0    0    0  0.00000000000E+00  0.00000000000E+00  0.99999998245E-14  0.12500000000E+03  0.12500000000E+03 0.  0.
        -11    1    3    3    0    0  0.21192816531E+02 -0.66211208323E+01 -0.27995997251E+02  0.35731646701E+02  0.51100000000E-03 0.  1.
         23    2    1    0    0    0 -0.11065050358E+02  0.25233733290E+02  0.10804733776E+02  0.95404072794E+02  0.90697399073E+02 0.  0.
         11    1    3    3    0    0 -0.32257866889E+02  0.31854854123E+02  0.38800731027E+02  0.59672426094E+02  0.51100000000E-03 0. -1.
         22    1    1    0    0    0  0.11065050358E+02 -0.25233733290E+02 -0.10804733776E+02  0.29595927206E+02  0.00000000000E+00 0. -1.
</event>
<event>
 5    1  0.8752570E-005  0.9118800E+02  0.7818608E-02  0.1130116E+00
         25   -1    0    0    0    0  0.00000000000E+00  0.00000000000E+00  0.99999998245E-14  0.12500000000E+03  0.12500000000E+03 0.  0.
        -11    1    3    3    0    0 -0.48054495292E+02  0.30377056299E+02 -0.94692479277E+00  0.56858567815E+02  0.51100000000E-03 0. -1.
         23    2    1    0    0    0 -0.28611326343E+02 -0.34938790178E+01  0.25156874035E+01  0.96066561407E+02  0.91605896927E+02 0.  0.
         11    1    3    3    0    0  0.19443168949E+02 -0.33870935317E+02  0.34626121963E+01  0.39207993592E+02  0.51100000000E-03 0.  1.
         22    1    1    0    0    0  0.28611326343E+02  0.34938790178E+01 -0.25156874035E+01  0.28933438593E+02  0.00000000000E+00 0. -1.
</event>
<event>
 5    1  0.8752570E-005  0.9118800E+02  0.7818608E-02  0.1130116E+00
         25   -1    0    0    0    0  0.00000000000E+00  0.00000000000E+00  0.99999998245E-14  0.12500000000E+03  0.12500000000E+03 0.  0.
        -11    1    3    3    0    0 -0.15371193825E+02 -0.45362606429E+02  0.24090036306E+01  0.47956677954E+02  0.51100000000E-03 0.  1.
         23    2    1    0    0    0 -0.14277975300E+02 -0.36859709178E+01  0.25446752481E+02  0.95589386743E+02  0.90952441891E+02 0.  0.
         11    1    3    3    0    0  0.10932185244E+01  0.41676635511E+02  0.23037748851E+02  0.47632708789E+02  0.51100000000E-03 0. -1.
         22    1    1    0    0    0  0.14277975300E+02  0.36859709178E+01 -0.25446752481E+02  0.29410613257E+02  0.00000000000E+00 0. -1.
</event>
<event>
 5    1  0.8752570E-005  0.9118800E+02  0.7818608E-02  0.1130116E+00
         25   -1    0    0    0    0  0.00000000000E+00  0.00000000000E+00  0.99999998245E-14  0.12500000000E+03  0.12500000000E+03 0.  0.
        -11    1    3    3    0    0 -0.27397965742E+02  0.18623863835E+02  0.10656566488E+02  0.34800276444E+02  0.51100000000E-03 0. -1.
         23    2    1    0    0    0  0.96041844935E+01 -0.27278058779E+02 -0.46390071697E+01  0.95710868261E+02  0.91119246404E+02 0.  0.
         11    1    3    3    0    0  0.37002150236E+02 -0.45901922614E+02 -0.15295573658E+02  0.60910591817E+02  0.51100000000E-03 0.  1.
         22    1    1    0    0    0 -0.96041844935E+01  0.27278058779E+02  0.46390071697E+01  0.29289131739E+02  0.00000000000E+00 0.  1.
</event>
<event>
 5    1  0.8752570E-005  0.9118800E+02  0.7818608E-02  0.1130116E+00
         25   -1    0    0    0    0  0.00000000000E+00  0.00000000000E+00  0.99999998245E-14  0.12500000000E+03  0.12500000000E+03 0.  0.
        -11    1    3    3    0    0 -0.20268668731E+02  0.25588213991E+02 -0.10202054521E+02  0.34200256491E+02  0.51100000000E-03 0.  1.
         23    2    1    0    0    0  0.13557659058E+02 -0.25269213443E+02  0.10351697832E+01  0.96304794065E+02  0.91930400392E+02 0.  0.
         11    1    3    3    0    0  0.33826327789E+02 -0.50857427434E+02  0.11237224305E+02  0.62104537574E+02  0.51100000000E-03 0. -1.
         22    1    1    0    0    0 -0.13557659058E+02  0.25269213443E+02 -0.10351697832E+01  0.28695205935E+02  0.00000000000E+00 0. -1.
</event>
<event>
 5    1  0.8752570E-005  0.9118800E+02  0.7818608E-02  0.1130116E+00
         25   -1    0    0    0    0  0.00000000000E+00  0.00000000000E+00  0.99999998245E-14  0.12500000000E+03  0.12500000000E+03 0.  0.
        -11    1    3    3    0    0 -0.26072747905E+02 -0.83919333943E+00 -0.45457563477E+02  0.52410709843E+02  0.51100000000E-03 0.  1.
         23    2    1    0    0    0 -0.16579495766E+02  0.21328770302E+02 -0.82427992217E+01  0.96755710994E+02  0.92541492037E+02 0.  0.
         11    1    3    3    0    0  0.94932521388E+01  0.22167963642E+02  0.37214764255E+02  0.44345001150E+02  0.51100000000E-03 0. -1.
         22    1    1    0    0    0  0.16579495766E+02 -0.21328770302E+02  0.82427992217E+01  0.28244289006E+02  0.00000000000E+00 0.  1.
</event>
<event>
 5    1  0.8752570E-005  0.9118800E+02  0.7818608E-02  0.1130116E+00
         25   -1    0    0    0    0  0.00000000000E+00  0.00000000000E+00  0.99999998245E-14  0.12500000000E+03  0.12500000000E+03 0.  0.
        -11    1    3    3    0    0  0.15354405502E+02  0.25972318331E+02  0.29045704452E+02  0.41880449319E+02  0.51100000000E-03 0.  1.
         23    2    1    0    0    0  0.48544169124E+01 -0.18415808196E+02 -0.11366905850E+02  0.10282086783E+03  0.10040028366E+03 0.  0.
         11    1    3    3    0    0 -0.10499988590E+02 -0.44388126527E+02 -0.40412610302E+02  0.60940418514E+02  0.51100000000E-03 0. -1.
         22    1    1    0    0    0 -0.48544169124E+01  0.18415808196E+02  0.11366905850E+02  0.22179132167E+02  0.00000000000E+00 0. -1.
</event>
<event>
 5    1  0.8752570E-005  0.9118800E+02  0.7818608E-02  0.1130116E+00
         25   -1    0    0    0    0  0.00000000000E+00  0.00000000000E+00  0.99999998245E-14  0.12500000000E+03  0.12500000000E+03 0.  0.
        -11    1    3    3    0    0 -0.29154215796E+02  0.17356647793E+02 -0.24398236510E+01  0.34017264161E+02  0.51100000000E-03 0.  1.
         23    2    1    0    0    0  0.14796103756E+02 -0.24137185301E+02  0.84953759729E+01  0.95441586418E+02  0.90749085970E+02 0.  0.
         11    1    3    3    0    0  0.43950319552E+02 -0.41493833094E+02  0.10935199624E+02  0.61424322256E+02  0.51100000000E-03 0. -1.
         22    1    1    0    0    0 -0.14796103756E+02  0.24137185301E+02 -0.84953759729E+01  0.29558413582E+02  0.00000000000E+00 0. -1.
</event>
<event>
 5    1  0.8752570E-005  0.9118800E+02  0.7818608E-02  0.1130116E+00
         25   -1    0    0    0    0  0.00000000000E+00  0.00000000000E+00  0.99999998245E-14  0.12500000000E+03  0.12500000000E+03 0.  0.
        -11    1    3    3    0    0 -0.31441712118E+02  0.31461714747E+02 -0.41491349553E+02  0.60827237679E+02  0.51100000000E-03 0.  1.
         23    2    1    0    0    0 -0.22606294601E+02  0.91393929461E+01 -0.16046974527E+02  0.95809617157E+02  0.91254612428E+02 0.  0.
         11    1    3    3    0    0  0.88354175164E+01 -0.22322321801E+02  0.25444375025E+02  0.34982379478E+02  0.51100000000E-03 0. -1.
         22    1    1    0    0    0  0.22606294601E+02 -0.91393929461E+01  0.16046974527E+02  0.29190382843E+02  0.00000000000E+00 0.  1.
</event>
<event>
 5    1  0.8752570E-005  0.9118800E+02  0.7818608E-02  0.1130116E+00
         25   -1    0    0    0    0  0.00000000000E+00  0.00000000000E+00  0.99999998245E-14  0.12500000000E+03  0.12500000000E+03 0.  0.
        -11    1    3    3    0    0 -0.76911868924E+01 -0.22995588155E+02  0.35606241501E+02  0.43078484937E+02  0.51100000000E-03 0. -1.
         23    2    1    0    0    0  0.16069619373E+02 -0.23323733020E+02 -0.10374037312E+02  0.94836282740E+02  0.89911460254E+02 0.  0.
         11    1    3    3    0    0  0.23760806265E+02 -0.32814486515E+00 -0.45980278813E+02  0.51757797803E+02  0.51100000000E-03 0.  1.
         22    1    1    0    0    0 -0.16069619373E+02  0.23323733020E+02  0.10374037312E+02  0.30163717260E+02  0.00000000000E+00 0. -1.
</event>
<event>
 5    1  0.8752570E-005  0.9118800E+02  0.7818608E-02  0.1130116E+00
         25   -1    0    0    0    0  0.00000000000E+00  0.00000000000E+00  0.99999998245E-14  0.12500000000E+03  0.12500000000E+03 0.  0.
        -11    1    3    3    0    0 -0.30992530675E+02  0.48084307564E+02  0.66520823277E+01  0.57592428245E+02  0.51100000000E-03 0. -1.
         23    2    1    0    0    0 -0.46952207521E+01  0.23248447406E+02  0.17691309183E+02  0.95410849534E+02  0.90706738358E+02 0.  0.
         11    1    3    3    0    0  0.26297309923E+02 -0.24835860158E+02  0.11039226856E+02  0.37818421289E+02  0.51100000000E-03 0.  1.
         22    1    1    0    0    0  0.46952207521E+01 -0.23248447406E+02 -0.17691309183E+02  0.29589150466E+02  0.00000000000E+00 0. -1.
</event>
<event>
 5    1  0.8752570E-005  0.9118800E+02  0.7818608E-02  0.1130116E+00
         25   -1    0    0    0    0  0.00000000000E+00  0.00000000000E+00  0.99999998245E-14  0.12500000000E+03  0.12500000000E+03 0.  0.
        -11    1    3    3    0    0  0.19681562956E+02  0.30183081025E+02 -0.13261657332E+02  0.38396013543E+02  0.51100000000E-03 0.  1.
         23    2    1    0    0    0 -0.14116485959E+02 -0.14198025100E+02 -0.22434823710E+02  0.94930407261E+02  0.90042222403E+02 0.  0.
         11    1    3    3    0    0 -0.33798048915E+02 -0.44381106126E+02 -0.91731663782E+01  0.56534393718E+02  0.51100000000E-03 0. -1.
         22    1    1    0    0    0  0.14116485959E+02  0.14198025100E+02  0.22434823710E+02  0.30069592739E+02  0.00000000000E+00 0. -1.
</event>
<event>
 5    1  0.8752570E-005  0.9118800E+02  0.7818608E-02  0.1130116E+00
         25   -1    0    0    0    0  0.00000000000E+00  0.00000000000E+00  0.99999998245E-14  0.12500000000E+03  0.12500000000E+03 0.  0.
        -11    1    3    3    0    0  0.28779241453E+02  0.47883828784E+02  0.17133309086E+02  0.58435058639E+02  0.51100000000E-03 0.  1.
         23    2    1    0    0    0  0.24833106420E+02  0.15289370606E+02 -0.76172700875E+00  0.95827611410E+02  0.91279257515E+02 0.  0.
         11    1    3    3    0    0 -0.39461350334E+01 -0.32594458178E+02 -0.17895036095E+02  0.37392552771E+02  0.51100000000E-03 0. -1.
         22    1    1    0    0    0 -0.24833106420E+02 -0.15289370606E+02  0.76172700875E+00  0.29172388590E+02  0.00000000000E+00 0.  1.
</event>
<event>
 5    1  0.8752570E-005  0.9118800E+02  0.7818608E-02  0.1130116E+00
         25   -1    0    0    0    0  0.00000000000E+00  0.00000000000E+00  0.99999998245E-14  0.12500000000E+03  0.12500000000E+03 0.  0.
        -11    1    3    3    0    0 -0.36934414574E+02  0.73091116843E+01 -0.19360379720E+00  0.37651182933E+02  0.51100000000E-03 0.  1.
         23    2    1    0    0    0  0.12838558560E+02 -0.13978317364E+02  0.21811596702E+02  0.96086894097E+02  0.91633637516E+02 0.  0.
         11    1    3    3    0    0  0.49772973134E+02 -0.21287429048E+02  0.22005200500E+02  0.58435711165E+02  0.51100000000E-03 0. -1.
         22    1    1    0    0    0 -0.12838558560E+02  0.13978317364E+02 -0.21811596702E+02  0.28913105903E+02  0.00000000000E+00 0. -1.
</event>
<event>
 5    1  0.8752570E-005  0.9118800E+02  0.7818608E-02  0.1130116E+00
         25   -1    0    0    0    0  0.00000000000E+00  0.00000000000E+00  0.99999998245E-14  0.12500000000E+03  0.12500000000E+03 0.  0.
        -11    1    3    3    0    0  0.29803259591E+02  0.25624501149E+02 -0.11247039452E+02  0.40882089454E+02  0.51100000000E-03 0. -1.
         23    2    1    0    0    0 -0.12816240204E+02 -0.68523505252E+01 -0.24892529933E+02  0.96175552613E+02  0.91754499363E+02 0.  0.
         11    1    3    3    0    0 -0.42619499795E+02 -0.32476851674E+02 -0.13645490481E+02  0.55293463160E+02  0.51100000000E-03 0.  1.
         22    1    1    0    0    0  0.12816240204E+02  0.68523505252E+01  0.24892529933E+02  0.28824447387E+02  0.00000000000E+00 0.  1.
</event>
<event>
 5    1  0.8752570E-005  0.9118800E+02  0.7818608E-02  0.1130116E+00
         25   -1    0    0    0    0  0.00000000000E+00  0.00000000000E+00  0.99999998245E-14  0.12500000000E+03  0.12500000000E+03 0.  0.
        -11    1    3    3    0    0  0.34682171785E+02 -0.34215397831E+02 -0.19102713895E+02  0.52330298746E+02  0.51100000000E-03 0.  1.
         23    2    1    0    0    0  0.10041137155E+02 -0.86042149699E+00 -0.28430544737E+02  0.94836103790E+02  0.89911211467E+02 0.  0.
         11    1    3    3    0    0 -0.24641034630E+02  0.33354976334E+02 -0.93278308425E+01  0.42505805043E+02  0.51100000000E-03 0. -1.
         22    1    1    0    0    0 -0.10041137155E+02  0.86042149699E+00  0.28430544737E+02  0.30163896210E+02  0.00000000000E+00 0.  1.
</event>
<event>
 5    1  0.8752570E-005  0.9118800E+02  0.7818608E-02  0.1130116E+00
         25   -1    0    0    0    0  0.00000000000E+00  0.00000000000E+00  0.99999998245E-14  0.12500000000E+03  0.12500000000E+03 0.  0.
        -11    1    3    3    0    0 -0.11047858248E+02 -0.38973481178E+02  0.42004566917E+02  0.58355557140E+02  0.51100000000E-03 0. -1.
         23    2    1    0    0    0 -0.13279815168E+02 -0.24325092536E+02  0.69282689939E+01  0.96433156824E+02  0.92104772982E+02 0.  0.
         11    1    3    3    0    0 -0.22319569207E+01  0.14648388642E+02 -0.35076297923E+02  0.38077599684E+02  0.51100000000E-03 0.  1.
         22    1    1    0    0    0  0.13279815168E+02  0.24325092536E+02 -0.69282689939E+01  0.28566843176E+02  0.00000000000E+00 0. -1.
</event>
<event>
 5    1  0.8752570E-005  0.9118800E+02  0.7818608E-02  0.1130116E+00
         25   -1    0    0    0    0  0.00000000000E+00  0.00000000000E+00  0.99999998245E-14  0.12500000000E+03  0.12500000000E+03 0.  0.
        -11    1    3    3    0    0 -0.20386844868E+02  0.49784808606E+02  0.22697792613E+02  0.58389557297E+02  0.51100000000E-03 0.  1.
         23    2    1    0    0    0  0.41855849990E+01  0.28224136872E+02  0.36230960320E+01  0.96238083360E+02  0.91839647430E+02 0.  0.
         11    1    3    3    0    0  0.24572429867E+02 -0.21560671734E+02 -0.19074696581E+02  0.37848526063E+02  0.51100000000E-03 0. -1.
         22    1    1    0    0    0 -0.41855849990E+01 -0.28224136872E+02 -0.36230960320E+01  0.28761916640E+02  0.00000000000E+00 0.  1.
</event>
<event>
 5    1  0.8752570E-005  0.9118800E+02  0.7818608E-02  0.1130116E+00
         25   -1    0    0    0    0  0.00000000000E+00  0.00000000000E+00  0.99999998245E-14  0.12500000000E+03  0.12500000000E+03 0.  0.
        -11    1    3    3    0    0 -0.11750775364E+02  0.28825343453E+01 -0.43441245044E+02  0.45094694779E+02  0.51100000000E-03 0.  1.
         23    2    1    0    0    0 -0.28400496121E+02 -0.20936046514E+02 -0.12438120223E+02  0.87588597217E+02  0.79196902112E+02 0.  0.
         11    1    3    3    0    0 -0.16649720757E+02 -0.23818580859E+02  0.31003124822E+02  0.42493902438E+02  0.51100000000E-03 0. -1.
         22    1    1    0    0    0  0.28400496121E+02  0.20936046514E+02  0.12438120223E+02  0.37411402783E+02  0.00000000000E+00 0. -1.
</event>
<event>
 5    1  0.8752570E-005  0.9118800E+02  0.7818608E-02  0.1130116E+00
         25   -1    0    0    0    0  0.00000000000E+00  0.00000000000E+00  0.99999998245E-14  0.12500000000E+03  0.12500000000E+03 0.  0.
        -11    1    3    3    0    0  0.27594632993E+01  0.28253391407E+02 -0.43039566321E+02  0.51558442888E+02  0.51100000000E-03 0. -1.
         23    2    1    0    0    0 -0.19548067847E+02 -0.32059085802E+01 -0.21635716278E+02  0.95665565878E+02  0.91057078086E+02 0.  0.
         11    1    3    3    0    0 -0.22307531147E+02 -0.31459299987E+02  0.21403850042E+02  0.44107122990E+02  0.51100000000E-03 0.  1.
         22    1    1    0    0    0  0.19548067847E+02  0.32059085802E+01  0.21635716278E+02  0.29334434122E+02  0.00000000000E+00 0. -1.
</event>
<event>
 5    1  0.8752570E-005  0.9118800E+02  0.7818608E-02  0.1130116E+00
         25   -1    0    0    0    0  0.00000000000E+00  0.00000000000E+00  0.99999998245E-14  0.12500000000E+03  0.12500000000E+03 0.  0.
        -11    1    3    3    0    0 -0.29641257177E+02 -0.45091830230E+02  0.11598585716E+02  0.55194243100E+02  0.51100000000E-03 0.  1.
         23    2    1    0    0    0 -0.47962661042E+01 -0.26854545705E+02 -0.13145708929E+02  0.94718314828E+02  0.89747304734E+02 0.  0.
         11    1    3    3    0    0  0.24844991073E+02  0.18237284524E+02 -0.24744294645E+02  0.39524071728E+02  0.51100000000E-03 0. -1.
         22    1    1    0    0    0  0.47962661042E+01  0.26854545705E+02  0.13145708929E+02  0.30281685172E+02  0.00000000000E+00 0.  1.
</event>
<event>
 5    1  0.8752570E-005  0.9118800E+02  0.7818608E-02  0.1130116E+00
         25   -1    0    0    0    0  0.00000000000E+00  0.00000000000E+00  0.99999998245E-14  0.12500000000E+03  0.12500000000E+03 0.  0.
        -11    1    3    3    0    0 -0.20400257206E+02  0.75040552243E+01  0.24530617583E+02  0.32775486848E+02  0.51100000000E-03 0.  1.
         23    2    1    0    0    0  0.32915792654E+02  0.31451905331E+01 -0.71323957571E+00  0.91926591645E+02  0.85770903640E+02 0.  0.
         11    1    3    3    0    0  0.53316049861E+02 -0.43588646912E+01 -0.25243857158E+02  0.59151104796E+02  0.51100000000E-03 0. -1.
         22    1    1    0    0    0 -0.32915792654E+02 -0.31451905331E+01  0.71323957571E+00  0.33073408355E+02  0.00000000000E+00 0. -1.
</event>
<event>
 5    1  0.8752570E-005  0.9118800E+02  0.7818608E-02  0.1130116E+00
         25   -1    0    0    0    0  0.00000000000E+00  0.00000000000E+00  0.99999998245E-14  0.12500000000E+03  0.12500000000E+03 0.  0.
        -11    1    3    3    0    0  0.21612656085E+02  0.73960106724E+01  0.30899437998E+02  0.38426334014E+02  0.51100000000E-03 0.  1.
         23    2    1    0    0    0 -0.15442871343E+02  0.25303385953E+02 -0.71833306719E+01  0.94498461423E+02  0.89440568848E+02 0.  0.
         11    1    3    3    0    0 -0.37055527428E+02  0.17907375280E+02 -0.38082768670E+02  0.56072127410E+02  0.51100000000E-03 0. -1.
         22    1    1    0    0    0  0.15442871343E+02 -0.25303385953E+02  0.71833306719E+01  0.30501538577E+02  0.00000000000E+00 0. -1.
</event>
<event>
 5    1  0.8752570E-005  0.9118800E+02  0.7818608E-02  0.1130116E+00
         25   -1    0    0    0    0  0.00000000000E+00  0.00000000000E+00  0.99999998245E-14  0.12500000000E+03  0.12500000000E+03 0.  0.
        -11    1    3    3    0    0  0.53889357168E+02  0.62275366106E+01  0.20985524805E+01  0.54288571090E+02  0.51100000000E-03 0. -1.
         23    2    1    0    0    0  0.18929268909E+02 -0.87508881523E+01  0.19803384051E+02  0.96241187703E+02  0.91843872554E+02 0.  0.
         11    1    3    3    0    0 -0.34960088259E+02 -0.14978424763E+02  0.17704831570E+02  0.41952616613E+02  0.51100000000E-03 0.  1.
         22    1    1    0    0    0 -0.18929268909E+02  0.87508881523E+01 -0.19803384051E+02  0.28758812297E+02  0.00000000000E+00 0. -1.
</event>
<event>
 5    1  0.8752570E-005  0.9118800E+02  0.7818608E-02  0.1130116E+00
         25   -1    0    0    0    0  0.00000000000E+00  0.00000000000E+00  0.99999998245E-14  0.12500000000E+03  0.12500000000E+03 0.  0.
        -11    1    3    3    0    0  0.16950859435E+02  0.50145724376E+02 -0.18520707886E+02  0.56079781826E+02  0.51100000000E-03 0. -1.
         23    2    1    0    0    0 -0.15168798368E+01  0.25739543949E+02  0.94471053267E+01  0.97539613146E+02  0.93594354993E+02 0.  0.
         11    1    3    3    0    0 -0.18467739272E+02 -0.24406180428E+02  0.27967813213E+02  0.41459831320E+02  0.51100000000E-03 0.  1.
         22    1    1    0    0    0  0.15168798368E+01 -0.25739543949E+02 -0.94471053267E+01  0.27460386854E+02  0.00000000000E+00 0. -1.
</event>
<event>
 5    1  0.8752570E-005  0.9118800E+02  0.7818608E-02  0.1130116E+00
         25   -1    0    0    0    0  0.00000000000E+00  0.00000000000E+00  0.99999998245E-14  0.12500000000E+03  0.12500000000E+03 0.  0.
        -11    1    3    3    0    0 -0.49635907657E+02 -0.32204230774E+02 -0.18048154916E+02  0.61859289559E+02  0.51100000000E-03 0.  1.
         23    2    1    0    0    0 -0.30108570453E+02 -0.13962481734E+02 -0.14372283459E+02  0.88833172068E+02  0.81137494520E+02 0.  0.
         11    1    3    3    0    0  0.19527337204E+02  0.18241749040E+02  0.36758714568E+01  0.26973882508E+02  0.51100000000E-03 0. -1.
         22    1    1    0    0    0  0.30108570453E+02  0.13962481734E+02  0.14372283459E+02  0.36166827932E+02  0.00000000000E+00 0.  1.
</event>
<event>
 5    1  0.8752570E-005  0.9118800E+02  0.7818608E-02  0.1130116E+00
         25   -1    0    0    0    0  0.00000000000E+00  0.00000000000E+00  0.99999998245E-14  0.12500000000E+03  0.12500000000E+03 0.  0.
        -11    1    3    3    0    0  0.42665451415E+01  0.30294841037E+02  0.24282955563E+02  0.39059476853E+02  0.51100000000E-03 0. -1.
         23    2    1    0    0    0  0.17898747845E+02  0.82795721668E+01 -0.24053896794E+02  0.93895234438E+02  0.88593502073E+02 0.  0.
         11    1    3    3    0    0  0.13632202704E+02 -0.22015268870E+02 -0.48336852356E+02  0.54835757585E+02  0.51100000000E-03 0.  1.
         22    1    1    0    0    0 -0.17898747845E+02 -0.82795721668E+01  0.24053896794E+02  0.31104765562E+02  0.00000000000E+00 0.  1.
</event>
<event>
 5    1  0.8752570E-005  0.9118800E+02  0.7818608E-02  0.1130116E+00
         25   -1    0    0    0    0  0.00000000000E+00  0.00000000000E+00  0.99999998245E-14  0.12500000000E+03  0.12500000000E+03 0.  0.
        -11    1    3    3    0    0  0.57965725820E+01  0.24382002643E+02 -0.20437736213E+02  0.32338574000E+02  0.51100000000E-03 0. -1.
         23    2    1    0    0    0  0.29616883975E+01 -0.21853475809E+02  0.21042232200E+02  0.94518504973E+02  0.89468576849E+02 0.  0.
         11    1    3    3    0    0 -0.28348841845E+01 -0.46235478452E+02  0.41479968413E+02  0.62179930973E+02  0.51100000000E-03 0.  1.
         22    1    1    0    0    0 -0.29616883975E+01  0.21853475809E+02 -0.21042232200E+02  0.30481495027E+02  0.00000000000E+00 0.  1.
</event>
<event>
 5    1  0.8752570E-005  0.9118800E+02  0.7818608E-02  0.1130116E+00
         25   -1    0    0    0    0  0.00000000000E+00  0.00000000000E+00  0.99999998245E-14  0.12500000000E+03  0.12500000000E+03 0.  0.
        -11    1    3    3    0    0 -0.18696438112E+02  0.32898692106E+01  0.14840193254E+01  0.19041595288E+02  0.51100000000E-03 0. -1.
         23    2    1    0    0    0  0.33980522602E+02  0.19991387972E+02 -0.22859505540E+02  0.79427107806E+02  0.65052109509E+02 0.  0.
         11    1    3    3    0    0  0.52676960714E+02  0.16701518762E+02 -0.24343524865E+02  0.60385512519E+02  0.51100000000E-03 0.  1.
         22    1    1    0    0    0 -0.33980522602E+02 -0.19991387972E+02  0.22859505540E+02  0.45572892194E+02  0.00000000000E+00 0.  1.
</event>
<event>
 5    1  0.8752570E-005  0.9118800E+02  0.7818608E-02  0.1130116E+00
         25   -1    0    0    0    0  0.00000000000E+00  0.00000000000E+00  0.99999998245E-14  0.12500000000E+03  0.12500000000E+03 0.  0.
        -11    1    3    3    0    0 -0.46521361774E+01 -0.41832829043E+02  0.23046067616E+02  0.47986968956E+02  0.51100000000E-03 0.  1.
         23    2    1    0    0    0  0.21406351424E+02 -0.61469541999E+01  0.24097390449E+02  0.92186875284E+02  0.86149398262E+02 0.  0.
         11    1    3    3    0    0  0.26058487601E+02  0.35685874843E+02  0.10513228331E+01  0.44199906327E+02  0.51100000000E-03 0. -1.
         22    1    1    0    0    0 -0.21406351424E+02  0.61469541999E+01 -0.24097390449E+02  0.32813124716E+02  0.00000000000E+00 0.  1.
</event>
<event>
 5    1  0.8752570E-005  0.9118800E+02  0.7818608E-02  0.1130116E+00
         25   -1    0    0    0    0  0.00000000000E+00  0.00000000000E+00  0.99999998245E-14  0.12500000000E+03  0.12500000000E+03 0.  0.
        -11    1    3    3    0    0  0.95731975885E+01  0.66243405124E+01 -0.31865433095E+02  0.33925415634E+02  0.51100000000E-03 0. -1.
         23    2    1    0    0    0 -0.87781665179E+01 -0.12526588167E+02  0.24441396990E+02  0.96166798559E+02  0.91742572668E+02 0.  0.
         11    1    3    3    0    0 -0.18351364106E+02 -0.19150928679E+02  0.56306830086E+02  0.62241382925E+02  0.51100000000E-03 0.  1.
         22    1    1    0    0    0  0.87781665179E+01  0.12526588167E+02 -0.24441396990E+02  0.28833201441E+02  0.00000000000E+00 0.  1.
</event>
<event>
 5    1  0.8752570E-005  0.9118800E+02  0.7818608E-02  0.1130116E+00
         25   -1    0    0    0    0  0.00000000000E+00  0.00000000000E+00  0.99999998245E-14  0.12500000000E+03  0.12500000000E+03 0.  0.
        -11    1    3    3    0    0 -0.38051477705E+02 -0.31595150494E+01  0.31720225179E+02  0.49639401452E+02  0.51100000000E-03 0.  1.
         23    2    1    0    0    0 -0.13828937237E+02 -0.25851562091E+02 -0.18914541956E+00  0.95681430055E+02  0.91078853274E+02 0.  0.
         11    1    3    3    0    0  0.24222540468E+02 -0.22692047041E+02 -0.31909370598E+02  0.46042028603E+02  0.51100000000E-03 0. -1.
         22    1    1    0    0    0  0.13828937237E+02  0.25851562091E+02  0.18914541956E+00  0.29318569945E+02  0.00000000000E+00 0.  1.
</event>
<event>
 5    1  0.8752570E-005  0.9118800E+02  0.7818608E-02  0.1130116E+00
         25   -1    0    0    0    0  0.00000000000E+00  0.00000000000E+00  0.99999998245E-14  0.12500000000E+03  0.12500000000E+03 0.  0.
        -11    1    3    3    0    0  0.20580340878E+02 -0.39817451019E+02 -0.10296576060E+02  0.45989121705E+02  0.51100000000E-03 0.  1.
         23    2    1    0    0    0 -0.14570275691E+02  0.12455573626E+01  0.13545604248E+02  0.10506691842E+03  0.10315875923E+03 0.  0.
         11    1    3    3    0    0 -0.35150616570E+02  0.41063008382E+02  0.23842180308E+02  0.59077796715E+02  0.51100000000E-03 0. -1.
         22    1    1    0    0    0  0.14570275691E+02 -0.12455573626E+01 -0.13545604248E+02  0.19933081580E+02  0.00000000000E+00 0. -1.
</event>
<event>
 5    1  0.8752570E-005  0.9118800E+02  0.7818608E-02  0.1130116E+00
         25   -1    0    0    0    0  0.00000000000E+00  0.00000000000E+00  0.99999998245E-14  0.12500000000E+03  0.12500000000E+03 0.  0.
        -11    1    3    3    0    0  0.17954645244E+02 -0.26700419856E+02 -0.50081399609E+02  0.59526702356E+02  0.51100000000E-03 0.  1.
         23    2    1    0    0    0  0.12199588976E+02  0.34828012444E+00 -0.26323884064E+02  0.95984518918E+02  0.91493878098E+02 0.  0.
         11    1    3    3    0    0 -0.57550562680E+01  0.27048699981E+02  0.23757515545E+02  0.36457816561E+02  0.51100000000E-03 0. -1.
         22    1    1    0    0    0 -0.12199588976E+02 -0.34828012444E+00  0.26323884064E+02  0.29015481082E+02  0.00000000000E+00 0.  1.
</event>
<event>
 5    1  0.8752570E-005  0.9118800E+02  0.7818608E-02  0.1130116E+00
         25   -1    0    0    0    0  0.00000000000E+00  0.00000000000E+00  0.99999998245E-14  0.12500000000E+03  0.12500000000E+03 0.  0.
        -11    1    3    3    0    0 -0.18089722390E+02  0.10751393124E+01  0.46459566434E+02  0.49868680494E+02  0.51100000000E-03 0.  1.
         23    2    1    0    0    0 -0.22241616363E+02  0.19325908912E+02  0.53299205277E+01  0.95056915547E+02  0.90217675024E+02 0.  0.
         11    1    3    3    0    0 -0.41518939738E+01  0.18250769600E+02 -0.41129645906E+02  0.45188235053E+02  0.51100000000E-03 0. -1.
         22    1    1    0    0    0  0.22241616363E+02 -0.19325908912E+02 -0.53299205277E+01  0.29943084453E+02  0.00000000000E+00 0. -1.
</event>
<event>
 5    1  0.8752570E-005  0.9118800E+02  0.7818608E-02  0.1130116E+00
         25   -1    0    0    0    0  0.00000000000E+00  0.00000000000E+00  0.99999998245E-14  0.12500000000E+03  0.12500000000E+03 0.  0.
        -11    1    3    3    0    0  0.27149755101E+02  0.24527288687E+01  0.22965516019E+02  0.35644635042E+02  0.51100000000E-03 0.  1.
         23    2    1    0    0    0 -0.29027084489E+02 -0.39281882952E+01  0.32184067656E+01  0.95532043855E+02  0.90873598827E+02 0.  0.
         11    1    3    3    0    0 -0.56176839591E+02 -0.63809171638E+01 -0.19747109253E+02  0.59887408814E+02  0.51100000000E-03 0. -1.
         22    1    1    0    0    0  0.29027084489E+02  0.39281882952E+01 -0.32184067656E+01  0.29467956145E+02  0.00000000000E+00 0. -1.
</event>
<event>
 5    1  0.8752570E-005  0.9118800E+02  0.7818608E-02  0.1130116E+00
         25   -1    0    0    0    0  0.00000000000E+00  0.00000000000E+00  0.99999998245E-14  0.12500000000E+03  0.12500000000E+03 0.  0.
        -11    1    3    3    0    0 -0.51542491226E+02  0.52910163659E+01  0.24554728976E+01  0.51871500879E+02  0.51100000000E-03 0. -1.
         23    2    1    0    0    0 -0.12052330368E+02  0.25873433634E+02  0.30404321816E+00  0.96455549092E+02  0.92135157639E+02 0.  0.
         11    1    3    3    0    0  0.39490160858E+02  0.20582417268E+02 -0.21514296794E+01  0.44584048214E+02  0.51100000000E-03 0.  1.
         22    1    1    0    0    0  0.12052330368E+02 -0.25873433634E+02 -0.30404321816E+00  0.28544450908E+02  0.00000000000E+00 0. -1.
</event>
<event>
 5    1  0.8752570E-005  0.9118800E+02  0.7818608E-02  0.1130116E+00
         25   -1    0    0    0    0  0.00000000000E+00  0.00000000000E+00  0.99999998245E-14  0.12500000000E+03  0.12500000000E+03 0.  0.
        -11    1    3    3    0    0  0.70080915735E+01 -0.44882488763E+02  0.13216347207E+02  0.47309861327E+02  0.51100000000E-03 0. -1.
         23    2    1    0    0    0  0.18267161117E+02 -0.11357911041E+02 -0.19853748627E+02  0.95727783599E+02  0.91142448397E+02 0.  0.
         11    1    3    3    0    0  0.11259069543E+02  0.33524577722E+02 -0.33070095834E+02  0.48417922272E+02  0.51100000000E-03 0.  1.
         22    1    1    0    0    0 -0.18267161117E+02  0.11357911041E+02  0.19853748627E+02  0.29272216401E+02  0.00000000000E+00 0. -1.
</event>
<event>
 5    1  0.8752570E-005  0.9118800E+02  0.7818608E-02  0.1130116E+00
         25   -1    0    0    0    0  0.00000000000E+00  0.00000000000E+00  0.99999998245E-14  0.12500000000E+03  0.12500000000E+03 0.  0.
        -11    1    3    3    0    0 -0.29813837242E+02  0.14281330526E+02 -0.41249980147E+01  0.33314214707E+02  0.51100000000E-03 0.  1.
         23    2    1    0    0    0  0.25515374579E+02 -0.13403544850E+02 -0.73120314791E+01  0.95265253342E+02  0.90505874591E+02 0.  0.
         11    1    3    3    0    0  0.55329211821E+02 -0.27684875376E+02 -0.31870334645E+01  0.61951038635E+02  0.51100000000E-03 0. -1.
         22    1    1    0    0    0 -0.25515374579E+02  0.13403544850E+02  0.73120314791E+01  0.29734746658E+02  0.00000000000E+00 0. -1.
</event>
<event>
 5    1  0.8752570E-005  0.9118800E+02  0.7818608E-02  0.1130116E+00
         25   -1    0    0    0    0  0.00000000000E+00  0.00000000000E+00  0.99999998245E-14  0.12500000000E+03  0.12500000000E+03 0.  0.
        -11    1    3    3    0    0 -0.42952209743E+02 -0.17365468270E+02 -0.71215768777E+01  0.46873965776E+02  0.51100000000E-03 0. -1.
         23    2    1    0    0    0 -0.11073806469E+02  0.12785302224E+02 -0.25462757289E+02  0.94431304388E+02  0.89346662483E+02 0.  0.
         11    1    3    3    0    0  0.31878403274E+02  0.30150770494E+02 -0.18341180411E+02  0.47557338612E+02  0.51100000000E-03 0.  1.
         22    1    1    0    0    0  0.11073806469E+02 -0.12785302224E+02  0.25462757289E+02  0.30568695612E+02  0.00000000000E+00 0. -1.
</event>
<event>
 5    1  0.8752570E-005  0.9118800E+02  0.7818608E-02  0.1130116E+00
         25   -1    0    0    0    0  0.00000000000E+00  0.00000000000E+00  0.99999998245E-14  0.12500000000E+03  0.12500000000E+03 0.  0.
        -11    1    3    3    0    0 -0.16315164356E+01  0.55370245040E+01  0.34870717480E+02  0.35345260277E+02  0.51100000000E-03 0.  1.
         23    2    1    0    0    0 -0.89821893111E+01 -0.11617802812E+02 -0.23867158653E+02  0.96976896511E+02  0.92839776646E+02 0.  0.
         11    1    3    3    0    0 -0.73506728755E+01 -0.17154827316E+02 -0.58737876133E+02  0.61631636234E+02  0.51100000000E-03 0. -1.
         22    1    1    0    0    0  0.89821893111E+01  0.11617802812E+02  0.23867158653E+02  0.28023103489E+02  0.00000000000E+00 0. -1.
</event>
<event>
 5    1  0.8752570E-005  0.9118800E+02  0.7818608E-02  0.1130116E+00
         25   -1    0    0    0    0  0.00000000000E+00  0.00000000000E+00  0.99999998245E-14  0.12500000000E+03  0.12500000000E+03 0.  0.
        -11    1    3    3    0    0  0.45864375792E+02  0.54265947060E+01  0.23018575110E+02  0.51602748931E+02  0.51100000000E-03 0. -1.
         23    2    1    0    0    0  0.20376704555E+02  0.64430178456E+01 -0.16058325353E+02  0.98268139223E+02  0.94562332911E+02 0.  0.
         11    1    3    3    0    0 -0.25487671237E+02  0.10164231396E+01 -0.39076900463E+02  0.46665390292E+02  0.51100000000E-03 0.  1.
         22    1    1    0    0    0 -0.20376704555E+02 -0.64430178456E+01  0.16058325353E+02  0.26731860777E+02  0.00000000000E+00 0. -1.
</event>
<event>
 5    1  0.8752570E-005  0.9118800E+02  0.7818608E-02  0.1130116E+00
         25   -1    0    0    0    0  0.00000000000E+00  0.00000000000E+00  0.99999998245E-14  0.12500000000E+03  0.12500000000E+03 0.  0.
        -11    1    3    3    0    0 -0.39544065791E+02  0.17869644633E+02 -0.42583900607E+02  0.60798404006E+02  0.51100000000E-03 0.  1.
         23    2    1    0    0    0 -0.24447328235E+02  0.81526706626E+00 -0.16163167492E+02  0.95681328448E+02  0.91078713825E+02 0.  0.
         11    1    3    3    0    0  0.15096737556E+02 -0.17054377567E+02  0.26420733115E+02  0.34882924442E+02  0.51100000000E-03 0. -1.
         22    1    1    0    0    0  0.24447328235E+02 -0.81526706626E+00  0.16163167492E+02  0.29318671552E+02  0.00000000000E+00 0.  1.
</event>
<event>
 5    1  0.8752570E-005  0.9118800E+02  0.7818608E-02  0.1130116E+00
         25   -1    0    0    0    0  0.00000000000E+00  0.00000000000E+00  0.99999998245E-14  0.12500000000E+03  0.12500000000E+03 0.  0.
        -11    1    3    3    0    0  0.10090067410E+02  0.39593030332E+02 -0.31371701369E+02  0.51513116371E+02  0.51100000000E-03 0. -1.
         23    2    1    0    0    0  0.10818038082E+02  0.47308321450E+02 -0.84100826622E+01  0.75747216152E+02  0.57548275718E+02 0.  0.
         11    1    3    3    0    0  0.72797067150E+00  0.77152911178E+01  0.22961618707E+02  0.24234099781E+02  0.51100000000E-03 0.  1.
         22    1    1    0    0    0 -0.10818038082E+02 -0.47308321450E+02  0.84100826622E+01  0.49252783848E+02  0.00000000000E+00 0. -1.
</event>
<event>
 5    1  0.8752570E-005  0.9118800E+02  0.7818608E-02  0.1130116E+00
         25   -1    0    0    0    0  0.00000000000E+00  0.00000000000E+00  0.99999998245E-14  0.12500000000E+03  0.12500000000E+03 0.  0.
        -11    1    3    3    0    0  0.35501868280E+02 -0.82285149725E+01  0.10121195394E+02  0.37822344011E+02  0.51100000000E-03 0.  1.
         23    2    1    0    0    0 -0.16176655604E+02 -0.20469043358E+02 -0.13124430249E+02  0.95795264222E+02  0.91234949748E+02 0.  0.
         11    1    3    3    0    0 -0.51678523884E+02 -0.12240528385E+02 -0.23245625644E+02  0.57972920211E+02  0.51100000000E-03 0. -1.
         22    1    1    0    0    0  0.16176655604E+02  0.20469043358E+02  0.13124430249E+02  0.29204735778E+02  0.00000000000E+00 0. -1.
</event>
<event>
 5    1  0.8752570E-005  0.9118800E+02  0.7818608E-02  0.1130116E+00
         25   -1    0    0    0    0  0.00000000000E+00  0.00000000000E+00  0.99999998245E-14  0.12500000000E+03  0.12500000000E+03 0.  0.
        -11    1    3    3    0    0 -0.39676105565E+02  0.15405835057E+02 -0.42460976489E+02  0.60120442707E+02  0.51100000000E-03 0. -1.
         23    2    1    0    0    0 -0.11400303533E+02  0.93114811831E+00 -0.27466537428E+02  0.95246939053E+02  0.90480576718E+02 0.  0.
         11    1    3    3    0    0  0.28275802032E+02 -0.14474686939E+02  0.14994439061E+02  0.35126496346E+02  0.51100000000E-03 0.  1.
         22    1    1    0    0    0  0.11400303533E+02 -0.93114811831E+00  0.27466537428E+02  0.29753060947E+02  0.00000000000E+00 0. -1.
</event>
<event>
 5    1  0.8752570E-005  0.9118800E+02  0.7818608E-02  0.1130116E+00
         25   -1    0    0    0    0  0.00000000000E+00  0.00000000000E+00  0.99999998245E-14  0.12500000000E+03  0.12500000000E+03 0.  0.
        -11    1    3    3    0    0  0.26788868590E+01 -0.40562764157E+02 -0.33573202241E+00  0.40652515139E+02  0.51100000000E-03 0. -1.
         23    2    1    0    0    0  0.30288142114E+02  0.18260053686E+01  0.11404718461E+02  0.92584364089E+02  0.86724223965E+02 0.  0.
         11    1    3    3    0    0  0.27609255255E+02  0.42388769526E+02  0.11740450483E+02  0.51931848951E+02  0.51100000000E-03 0.  1.
         22    1    1    0    0    0 -0.30288142114E+02 -0.18260053686E+01 -0.11404718461E+02  0.32415635911E+02  0.00000000000E+00 0.  1.
</event>
<event>
 5    1  0.8752570E-005  0.9118800E+02  0.7818608E-02  0.1130116E+00
         25   -1    0    0    0    0  0.00000000000E+00  0.00000000000E+00  0.99999998245E-14  0.12500000000E+03  0.12500000000E+03 0.  0.
        -11    1    3    3    0    0  0.29148571011E+02 -0.43446387727E+02 -0.18379581079E+02  0.55453014340E+02  0.51100000000E-03 0. -1.
         23    2    1    0    0    0  0.15468686810E+02 -0.49585313612E+01 -0.23301600044E+02  0.96595213969E+02  0.92324446883E+02 0.  0.
         11    1    3    3    0    0 -0.13679884201E+02  0.38487856366E+02 -0.49220189647E+01  0.41142199629E+02  0.51100000000E-03 0.  1.
         22    1    1    0    0    0 -0.15468686810E+02  0.49585313612E+01  0.23301600044E+02  0.28404786031E+02  0.00000000000E+00 0. -1.
</event>
<event>
 5    1  0.8752570E-005  0.9118800E+02  0.7818608E-02  0.1130116E+00
         25   -1    0    0    0    0  0.00000000000E+00  0.00000000000E+00  0.99999998245E-14  0.12500000000E+03  0.12500000000E+03 0.  0.
        -11    1    3    3    0    0  0.11290419750E+02  0.30909405685E+02 -0.49149259253E+01  0.33271931640E+02  0.51100000000E-03 0.  1.
         23    2    1    0    0    0 -0.13281918431E+02 -0.25934848268E+02 -0.61844181676E+01  0.95212876273E+02  0.90433506336E+02 0.  0.
         11    1    3    3    0    0 -0.24572338181E+02 -0.56844253953E+02 -0.12694922422E+01  0.61940944633E+02  0.51100000000E-03 0. -1.
         22    1    1    0    0    0  0.13281918431E+02  0.25934848268E+02  0.61844181676E+01  0.29787123727E+02  0.00000000000E+00 0. -1.
</event>
<event>
 5    1  0.8752570E-005  0.9118800E+02  0.7818608E-02  0.1130116E+00
         25   -1    0    0    0    0  0.00000000000E+00  0.00000000000E+00  0.99999998245E-14  0.12500000000E+03  0.12500000000E+03 0.  0.
        -11    1    3    3    0    0 -0.38672586028E+02  0.29791919516E+02  0.16535772843E+02  0.51541819548E+02  0.51100000000E-03 0.  1.
         23    2    1    0    0    0 -0.82850253939E+01  0.29268933136E+01  0.29575670131E+02  0.94146659599E+02  0.88947540155E+02 0.  0.
         11    1    3    3    0    0  0.30387560634E+02 -0.26865026203E+02  0.13039897287E+02  0.42604840050E+02  0.51100000000E-03 0. -1.
         22    1    1    0    0    0  0.82850253939E+01 -0.29268933136E+01 -0.29575670131E+02  0.30853340401E+02  0.00000000000E+00 0.  1.
</event>
<event>
 5    1  0.8752570E-005  0.9118800E+02  0.7818608E-02  0.1130116E+00
         25   -1    0    0    0    0  0.00000000000E+00  0.00000000000E+00  0.99999998245E-14  0.12500000000E+03  0.12500000000E+03 0.  0.
        -11    1    3    3    0    0 -0.21382823349E+02 -0.59536885589E+01 -0.32279013427E+02  0.39174050721E+02  0.51100000000E-03 0.  1.
         23    2    1    0    0    0  0.54586257394E+01  0.28289959397E+02  0.41121553345E+01  0.95896250772E+02  0.91373205553E+02 0.  0.
         11    1    3    3    0    0  0.26841449088E+02  0.34243647956E+02  0.36391168762E+02  0.56722200051E+02  0.51100000000E-03 0. -1.
         22    1    1    0    0    0 -0.54586257394E+01 -0.28289959397E+02 -0.41121553345E+01  0.29103749228E+02  0.00000000000E+00 0. -1.
</event>
<event>
 5    1  0.8752570E-005  0.9118800E+02  0.7818608E-02  0.1130116E+00
         25   -1    0    0    0    0  0.00000000000E+00  0.00000000000E+00  0.99999998245E-14  0.12500000000E+03  0.12500000000E+03 0.  0.
        -11    1    3    3    0    0 -0.19161851912E+02 -0.12838208963E+02  0.24708868535E+02  0.33801247945E+02  0.51100000000E-03 0. -1.
         23    2    1    0    0    0  0.22036753732E+02  0.23953787690E+02  0.87618974169E+01  0.91292830049E+02  0.84842250750E+02 0.  0.
         11    1    3    3    0    0  0.41198605644E+02  0.36791996653E+02 -0.15946971118E+02  0.57491582104E+02  0.51100000000E-03 0.  1.
         22    1    1    0    0    0 -0.22036753732E+02 -0.23953787690E+02 -0.87618974169E+01  0.33707169951E+02  0.00000000000E+00 0.  1.
</event>
<event>
 5    1  0.8752570E-005  0.9118800E+02  0.7818608E-02  0.1130116E+00
         25   -1    0    0    0    0  0.00000000000E+00  0.00000000000E+00  0.99999998245E-14  0.12500000000E+03  0.12500000000E+03 0.  0.
        -11    1    3    3    0    0  0.28158467249E+02  0.24697408978E+01 -0.43375375279E+02  0.51772792843E+02  0.51100000000E-03 0.  1.
         23    2    1    0    0    0 -0.11215173961E+02  0.11425940892E+02 -0.22931020099E+02  0.97032806093E+02  0.92915023130E+02 0.  0.
         11    1    3    3    0    0 -0.39373641210E+02  0.89561999947E+01  0.20444355180E+02  0.45260013250E+02  0.51100000000E-03 0. -1.
         22    1    1    0    0    0  0.11215173961E+02 -0.11425940892E+02  0.22931020099E+02  0.27967193907E+02  0.00000000000E+00 0.  1.
</event>
<event>
 5    1  0.8752570E-005  0.9118800E+02  0.7818608E-02  0.1130116E+00
         25   -1    0    0    0    0  0.00000000000E+00  0.00000000000E+00  0.99999998245E-14  0.12500000000E+03  0.12500000000E+03 0.  0.
        -11    1    3    3    0    0 -0.24621089109E+02 -0.28111848091E+01  0.45885956342E+02  0.52149993083E+02  0.51100000000E-03 0. -1.
         23    2    1    0    0    0 -0.31878003175E+01  0.22751011842E+02  0.15384229000E+02  0.97351399445E+02  0.93342647602E+02 0.  0.
         11    1    3    3    0    0  0.21433288791E+02  0.25562196651E+02 -0.30501727342E+02  0.45201406362E+02  0.51100000000E-03 0.  1.
         22    1    1    0    0    0  0.31878003175E+01 -0.22751011842E+02 -0.15384229000E+02  0.27648600555E+02  0.00000000000E+00 0. -1.
</event>
<event>
 5    1  0.8752570E-005  0.9118800E+02  0.7818608E-02  0.1130116E+00
         25   -1    0    0    0    0  0.00000000000E+00  0.00000000000E+00  0.99999998245E-14  0.12500000000E+03  0.12500000000E+03 0.  0.
        -11    1    3    3    0    0  0.31770738569E+00 -0.29964713808E+02 -0.25298962394E+02  0.39217630093E+02  0.51100000000E-03 0. -1.
         23    2    1    0    0    0 -0.18725780230E+02  0.20571592149E+02 -0.11019603352E+02  0.95078821768E+02  0.90248021817E+02 0.  0.
         11    1    3    3    0    0 -0.19043487616E+02  0.50536305957E+02  0.14279359043E+02  0.55861191675E+02  0.51100000000E-03 0.  1.
         22    1    1    0    0    0  0.18725780230E+02 -0.20571592149E+02  0.11019603352E+02  0.29921178232E+02  0.00000000000E+00 0.  1.
</event>
<event>
 5    1  0.8752570E-005  0.9118800E+02  0.7818608E-02  0.1130116E+00
         25   -1    0    0    0    0  0.00000000000E+00  0.00000000000E+00  0.99999998245E-14  0.12500000000E+03  0.12500000000E+03 0.  0.
        -11    1    3    3    0    0  0.23160174662E+02 -0.41444391090E+02  0.21884942395E+02  0.52277929828E+02  0.51100000000E-03 0.  1.
         23    2    1    0    0    0  0.32684930936E+00 -0.65211185363E+01  0.29580988173E+02  0.94706986305E+02  0.89731524985E+02 0.  0.
         11    1    3    3    0    0 -0.22833325353E+02  0.34923272554E+02  0.76960457786E+01  0.42429056476E+02  0.51100000000E-03 0. -1.
         22    1    1    0    0    0 -0.32684930936E+00  0.65211185363E+01 -0.29580988173E+02  0.30293013695E+02  0.00000000000E+00 0.  1.
</event>
<event>
 5    1  0.8752570E-005  0.9118800E+02  0.7818608E-02  0.1130116E+00
         25   -1    0    0    0    0  0.00000000000E+00  0.00000000000E+00  0.99999998245E-14  0.12500000000E+03  0.12500000000E+03 0.  0.
        -11    1    3    3    0    0  0.47480430943E+02 -0.28048399523E+02 -0.16347574801E+02  0.57518233982E+02  0.51100000000E-03 0. -1.
         23    2    1    0    0    0  0.20187119685E+02 -0.28848095158E+01 -0.21924469735E+02  0.95057984365E+02  0.90219155900E+02 0.  0.
         11    1    3    3    0    0 -0.27293311258E+02  0.25163590007E+02 -0.55768949338E+01  0.37539750383E+02  0.51100000000E-03 0.  1.
         22    1    1    0    0    0 -0.20187119685E+02  0.28848095158E+01  0.21924469735E+02  0.29942015635E+02  0.00000000000E+00 0. -1.
</event>
<event>
 5    1  0.8752570E-005  0.9118800E+02  0.7818608E-02  0.1130116E+00
         25   -1    0    0    0    0  0.00000000000E+00  0.00000000000E+00  0.99999998245E-14  0.12500000000E+03  0.12500000000E+03 0.  0.
        -11    1    3    3    0    0 -0.60585404169E+01 -0.29535309391E+02  0.51894839214E+02  0.60017620330E+02  0.51100000000E-03 0.  1.
         23    2    1    0    0    0  0.95775601149E+01 -0.14324258091E+02  0.24772252334E+02  0.94824206501E+02  0.89894669615E+02 0.  0.
         11    1    3    3    0    0  0.15636100532E+02  0.15211051301E+02 -0.27122586880E+02  0.34806586171E+02  0.51100000000E-03 0. -1.
         22    1    1    0    0    0 -0.95775601149E+01  0.14324258091E+02 -0.24772252334E+02  0.30175793499E+02  0.00000000000E+00 0.  1.
</event>
<event>
 5    1  0.8752570E-005  0.9118800E+02  0.7818608E-02  0.1130116E+00
         25   -1    0    0    0    0  0.00000000000E+00  0.00000000000E+00  0.99999998245E-14  0.12500000000E+03  0.12500000000E+03 0.  0.
        -11    1    3    3    0    0 -0.58610422472E+02  0.15207107184E+01  0.17560451486E+02  0.61203461014E+02  0.51100000000E-03 0. -1.
         23    2    1    0    0    0 -0.23413681825E+02  0.74525858388E+01  0.13043971693E+02  0.97181180294E+02  0.93114419257E+02 0.  0.
         11    1    3    3    0    0  0.35196740647E+02  0.59318751204E+01 -0.45164797926E+01  0.35977719280E+02  0.51100000000E-03 0.  1.
         22    1    1    0    0    0  0.23413681825E+02 -0.74525858388E+01 -0.13043971693E+02  0.27818819706E+02  0.00000000000E+00 0. -1.
</event>
<event>
 5    1  0.8752570E-005  0.9118800E+02  0.7818608E-02  0.1130116E+00
         25   -1    0    0    0    0  0.00000000000E+00  0.00000000000E+00  0.99999998245E-14  0.12500000000E+03  0.12500000000E+03 0.  0.
        -11    1    3    3    0    0  0.11867274793E+02 -0.27666228241E+02 -0.32640345582E+02  0.44403204345E+02  0.51100000000E-03 0.  1.
         23    2    1    0    0    0  0.24949751126E+02  0.69910074142E+00  0.10713581693E+02  0.97838268542E+02  0.93992378072E+02 0.  0.
         11    1    3    3    0    0  0.13082476333E+02  0.28365328983E+02  0.43353927276E+02  0.53435064197E+02  0.51100000000E-03 0. -1.
         22    1    1    0    0    0 -0.24949751126E+02 -0.69910074142E+00 -0.10713581693E+02  0.27161731458E+02  0.00000000000E+00 0. -1.
</event>
<event>
 5    1  0.8752570E-005  0.9118800E+02  0.7818608E-02  0.1130116E+00
         25   -1    0    0    0    0  0.00000000000E+00  0.00000000000E+00  0.99999998245E-14  0.12500000000E+03  0.12500000000E+03 0.  0.
        -11    1    3    3    0    0  0.56537679189E+01  0.77667299486E+01  0.39362057931E+02  0.40517388743E+02  0.51100000000E-03 0.  1.
         23    2    1    0    0    0 -0.27115382630E+02  0.99059828993E+01 -0.49902925149E+01  0.95703660779E+02  0.91109358436E+02 0.  0.
         11    1    3    3    0    0 -0.32769150549E+02  0.21392529507E+01 -0.44352350445E+02  0.55186272036E+02  0.51100000000E-03 0. -1.
         22    1    1    0    0    0  0.27115382630E+02 -0.99059828993E+01  0.49902925149E+01  0.29296339221E+02  0.00000000000E+00 0. -1.
</event>
<event>
 5    1  0.8752570E-005  0.9118800E+02  0.7818608E-02  0.1130116E+00
         25   -1    0    0    0    0  0.00000000000E+00  0.00000000000E+00  0.99999998245E-14  0.12500000000E+03  0.12500000000E+03 0.  0.
        -11    1    3    3    0    0 -0.14262904828E+02 -0.78649589426E+01 -0.37002017484E+02  0.40428174970E+02  0.51100000000E-03 0.  1.
         23    2    1    0    0    0  0.27723031291E+02 -0.15675914759E+02 -0.76581738801E+01  0.92244109008E+02  0.86232402565E+02 0.  0.
         11    1    3    3    0    0  0.41985936119E+02 -0.78109558166E+01  0.29343843604E+02  0.51815934038E+02  0.51100000000E-03 0. -1.
         22    1    1    0    0    0 -0.27723031291E+02  0.15675914759E+02  0.76581738801E+01  0.32755890992E+02  0.00000000000E+00 0. -1.
</event>
<event>
 5    1  0.8752570E-005  0.9118800E+02  0.7818608E-02  0.1130116E+00
         25   -1    0    0    0    0  0.00000000000E+00  0.00000000000E+00  0.99999998245E-14  0.12500000000E+03  0.12500000000E+03 0.  0.
        -11    1    3    3    0    0 -0.43693100805E+02  0.24169518380E+02 -0.26023791293E+02  0.56307107813E+02  0.51100000000E-03 0. -1.
         23    2    1    0    0    0 -0.13237659891E+02  0.29392901866E+01 -0.28421589460E+02  0.93509337675E+02  0.88047341918E+02 0.  0.
         11    1    3    3    0    0  0.30455440914E+02 -0.21230228193E+02 -0.23977981672E+01  0.37202229862E+02  0.51100000000E-03 0.  1.
         22    1    1    0    0    0  0.13237659891E+02 -0.29392901866E+01  0.28421589460E+02  0.31490662325E+02  0.00000000000E+00 0. -1.
</event>
<event>
 5    1  0.8752570E-005  0.9118800E+02  0.7818608E-02  0.1130116E+00
         25   -1    0    0    0    0  0.00000000000E+00  0.00000000000E+00  0.99999998245E-14  0.12500000000E+03  0.12500000000E+03 0.  0.
        -11    1    3    3    0    0  0.69842878335E+01 -0.64691850970E+01 -0.32924402743E+02  0.34273122539E+02  0.51100000000E-03 0. -1.
         23    2    1    0    0    0  0.21274962288E+01  0.15863287063E+02  0.24305655513E+02  0.95897852200E+02  0.91375396306E+02 0.  0.
         11    1    3    3    0    0 -0.48567916047E+01  0.22332472159E+02  0.57230058256E+02  0.61624729661E+02  0.51100000000E-03 0.  1.
         22    1    1    0    0    0 -0.21274962288E+01 -0.15863287063E+02 -0.24305655513E+02  0.29102147800E+02  0.00000000000E+00 0.  1.
</event>
<event>
 5    1  0.8752570E-005  0.9118800E+02  0.7818608E-02  0.1130116E+00
         25   -1    0    0    0    0  0.00000000000E+00  0.00000000000E+00  0.99999998245E-14  0.12500000000E+03  0.12500000000E+03 0.  0.
        -11    1    3    3    0    0 -0.19473652017E+02 -0.34645502362E+02  0.93275759107E+01  0.40823248639E+02  0.51100000000E-03 0.  1.
         23    2    1    0    0    0  0.26956605193E+02 -0.93266660536E+01 -0.59311416305E+01  0.95865420815E+02  0.91331019943E+02 0.  0.
         11    1    3    3    0    0  0.46430257210E+02  0.25318836309E+02 -0.15258717541E+02  0.55042172176E+02  0.51100000000E-03 0. -1.
         22    1    1    0    0    0 -0.26956605193E+02  0.93266660536E+01  0.59311416305E+01  0.29134579185E+02  0.00000000000E+00 0. -1.
</event>
<event>
 5    1  0.8752570E-005  0.9118800E+02  0.7818608E-02  0.1130116E+00
         25   -1    0    0    0    0  0.00000000000E+00  0.00000000000E+00  0.99999998245E-14  0.12500000000E+03  0.12500000000E+03 0.  0.
        -11    1    3    3    0    0  0.10856407447E+02 -0.15142780825E+02  0.48157192704E+02  0.51636039770E+02  0.51100000000E-03 0.  1.
         23    2    1    0    0    0 -0.18064964857E+02 -0.18037993400E+02  0.16549712637E+02  0.94576240378E+02  0.89549204879E+02 0.  0.
         11    1    3    3    0    0 -0.28921372304E+02 -0.28952125748E+01 -0.31607480066E+02  0.42940200607E+02  0.51100000000E-03 0. -1.
         22    1    1    0    0    0  0.18064964857E+02  0.18037993400E+02 -0.16549712637E+02  0.30423759622E+02  0.00000000000E+00 0. -1.
</event>
<event>
 5    1  0.8752570E-005  0.9118800E+02  0.7818608E-02  0.1130116E+00
         25   -1    0    0    0    0  0.00000000000E+00  0.00000000000E+00  0.99999998245E-14  0.12500000000E+03  0.12500000000E+03 0.  0.
        -11    1    3    3    0    0 -0.44632824756E+01 -0.39875277759E+02 -0.22596356861E+02  0.46049473510E+02  0.51100000000E-03 0.  1.
         23    2    1    0    0    0  0.43907140307E+01  0.92459705163E+01 -0.26969493258E+02  0.96153511356E+02  0.91724466959E+02 0.  0.
         11    1    3    3    0    0  0.88539965063E+01  0.49121248276E+02 -0.43731363968E+01  0.50104037846E+02  0.51100000000E-03 0. -1.
         22    1    1    0    0    0 -0.43907140307E+01 -0.92459705163E+01  0.26969493258E+02  0.28846488644E+02  0.00000000000E+00 0. -1.
</event>
<event>
 5    1  0.8752570E-005  0.9118800E+02  0.7818608E-02  0.1130116E+00
         25   -1    0    0    0    0  0.00000000000E+00  0.00000000000E+00  0.99999998245E-14  0.12500000000E+03  0.12500000000E+03 0.  0.
        -11    1    3    3    0    0 -0.10820290838E+02 -0.70117294128E+01 -0.48158981679E+02  0.49855095625E+02  0.51100000000E-03 0.  1.
         23    2    1    0    0    0 -0.29043086307E+02  0.97372904952E+01 -0.15984086451E+02  0.90448491957E+02  0.83589012371E+02 0.  0.
         11    1    3    3    0    0 -0.18222795469E+02  0.16749019908E+02  0.32174895228E+02  0.40593396332E+02  0.51100000000E-03 0. -1.
         22    1    1    0    0    0  0.29043086307E+02 -0.97372904952E+01  0.15984086451E+02  0.34551508043E+02  0.00000000000E+00 0. -1.
</event>
<event>
 5    1  0.8752570E-005  0.9118800E+02  0.7818608E-02  0.1130116E+00
         25   -1    0    0    0    0  0.00000000000E+00  0.00000000000E+00  0.99999998245E-14  0.12500000000E+03  0.12500000000E+03 0.  0.
        -11    1    3    3    0    0 -0.23738086707E+02 -0.42614746113E+02 -0.31998157607E+02  0.58338627317E+02  0.51100000000E-03 0.  1.
         23    2    1    0    0    0  0.52299550348E+01 -0.22745367948E+02 -0.13467286176E+02  0.98054276969E+02  0.94279208960E+02 0.  0.
         11    1    3    3    0    0  0.28968041742E+02  0.19869378165E+02  0.18530871430E+02  0.39715649652E+02  0.51100000000E-03 0. -1.
         22    1    1    0    0    0 -0.52299550348E+01  0.22745367948E+02  0.13467286176E+02  0.26945723031E+02  0.00000000000E+00 0.  1.
</event>
<event>
 5    1  0.8752570E-005  0.9118800E+02  0.7818608E-02  0.1130116E+00
         25   -1    0    0    0    0  0.00000000000E+00  0.00000000000E+00  0.99999998245E-14  0.12500000000E+03  0.12500000000E+03 0.  0.
        -11    1    3    3    0    0  0.14216672824E+02  0.36582972168E+02  0.47323244425E+02  0.61481030424E+02  0.51100000000E-03 0.  1.
         23    2    1    0    0    0 -0.15255972163E+01  0.16405170681E+02  0.22298740762E+02  0.97274724320E+02  0.93239911412E+02 0.  0.
         11    1    3    3    0    0 -0.15742270040E+02 -0.20177801487E+02 -0.25024503663E+02  0.35793693896E+02  0.51100000000E-03 0. -1.
         22    1    1    0    0    0  0.15255972163E+01 -0.16405170681E+02 -0.22298740762E+02  0.27725275680E+02  0.00000000000E+00 0.  1.
</event>
<event>
 5    1  0.8752570E-005  0.9118800E+02  0.7818608E-02  0.1130116E+00
         25   -1    0    0    0    0  0.00000000000E+00  0.00000000000E+00  0.99999998245E-14  0.12500000000E+03  0.12500000000E+03 0.  0.
        -11    1    3    3    0    0  0.11602924480E+02  0.23898741099E+02 -0.27307720658E+02  0.38098415852E+02  0.51100000000E-03 0.  1.
         23    2    1    0    0    0 -0.27995866648E+02  0.35122825294E+01  0.88103462030E+01  0.95441128604E+02  0.90748455365E+02 0.  0.
         11    1    3    3    0    0 -0.39598791128E+02 -0.20386458569E+02  0.36118066861E+02  0.57342712753E+02  0.51100000000E-03 0. -1.
         22    1    1    0    0    0  0.27995866648E+02 -0.35122825294E+01 -0.88103462030E+01  0.29558871396E+02  0.00000000000E+00 0. -1.
</event>
<event>
 5    1  0.8752570E-005  0.9118800E+02  0.7818608E-02  0.1130116E+00
         25   -1    0    0    0    0  0.00000000000E+00  0.00000000000E+00  0.99999998245E-14  0.12500000000E+03  0.12500000000E+03 0.  0.
        -11    1    3    3    0    0 -0.10063479805E+02 -0.55534911605E+02  0.21836294361E+02  0.60516310069E+02  0.51100000000E-03 0.  1.
         23    2    1    0    0    0 -0.15250531870E+02 -0.22392732286E+02  0.86597061484E+01  0.96557009790E+02  0.92272706948E+02 0.  0.
         11    1    3    3    0    0 -0.51870520650E+01  0.33142179319E+02 -0.13176588212E+02  0.36040699720E+02  0.51100000000E-03 0. -1.
         22    1    1    0    0    0  0.15250531870E+02  0.22392732286E+02 -0.86597061484E+01  0.28442990210E+02  0.00000000000E+00 0.  1.
</event>
<event>
 5    1  0.8752570E-005  0.9118800E+02  0.7818608E-02  0.1130116E+00
         25   -1    0    0    0    0  0.00000000000E+00  0.00000000000E+00  0.99999998245E-14  0.12500000000E+03  0.12500000000E+03 0.  0.
        -11    1    3    3    0    0  0.11236705069E+02 -0.10727343420E+02 -0.41871702983E+02  0.44660709227E+02  0.51100000000E-03 0.  1.
         23    2    1    0    0    0 -0.24363428999E+02 -0.15342324588E+02 -0.56469603838E+01  0.95659724644E+02  0.91049059089E+02 0.  0.
         11    1    3    3    0    0 -0.35600134069E+02 -0.46149811681E+01  0.36224742599E+02  0.50999015417E+02  0.51100000000E-03 0. -1.
         22    1    1    0    0    0  0.24363428999E+02  0.15342324588E+02  0.56469603838E+01  0.29340275356E+02  0.00000000000E+00 0. -1.
</event>
<event>
 5    1  0.8752570E-005  0.9118800E+02  0.7818608E-02  0.1130116E+00
         25   -1    0    0    0    0  0.00000000000E+00  0.00000000000E+00  0.99999998245E-14  0.12500000000E+03  0.12500000000E+03 0.  0.
        -11    1    3    3    0    0  0.28864728745E+02  0.23867894709E+02 -0.20868699526E+02  0.42876002421E+02  0.51100000000E-03 0. -1.
         23    2    1    0    0    0  0.14449790029E+02 -0.24614356355E+02 -0.40902364610E+01  0.96166113600E+02  0.91741639401E+02 0.  0.
         11    1    3    3    0    0 -0.14414938716E+02 -0.48482251064E+02  0.16778463065E+02  0.53290111179E+02  0.51100000000E-03 0.  1.
         22    1    1    0    0    0 -0.14449790029E+02  0.24614356355E+02  0.40902364610E+01  0.28833886400E+02  0.00000000000E+00 0.  1.
</event>
<event>
 5    1  0.8752570E-005  0.9118800E+02  0.7818608E-02  0.1130116E+00
         25   -1    0    0    0    0  0.00000000000E+00  0.00000000000E+00  0.99999998245E-14  0.12500000000E+03  0.12500000000E+03 0.  0.
        -11    1    3    3    0    0  0.56307816709E+02 -0.17035663892E+02  0.20494188798E+02  0.62296033915E+02  0.51100000000E-03 0.  1.
         23    2    1    0    0    0  0.25088254669E+02 -0.11236922584E+02  0.87629985860E+01  0.96147286164E+02  0.91715983018E+02 0.  0.
         11    1    3    3    0    0 -0.31219562040E+02  0.57987413080E+01 -0.11731190212E+02  0.33851252249E+02  0.51100000000E-03 0. -1.
         22    1    1    0    0    0 -0.25088254669E+02  0.11236922584E+02 -0.87629985860E+01  0.28852713836E+02  0.00000000000E+00 0.  1.
</event>
<event>
 5    1  0.8752570E-005  0.9118800E+02  0.7818608E-02  0.1130116E+00
         25   -1    0    0    0    0  0.00000000000E+00  0.00000000000E+00  0.99999998245E-14  0.12500000000E+03  0.12500000000E+03 0.  0.
        -11    1    3    3    0    0 -0.52584536011E+02 -0.52380520880E+01  0.94169730001E+01  0.53677276364E+02  0.51100000000E-03 0.  1.
         23    2    1    0    0    0 -0.23180425624E+02  0.18208608878E+02  0.15375306636E+02  0.91754163817E+02  0.85519243181E+02 0.  0.
         11    1    3    3    0    0  0.29404110387E+02  0.23446660966E+02  0.59583336358E+01  0.38076887453E+02  0.51100000000E-03 0. -1.
         22    1    1    0    0    0  0.23180425624E+02 -0.18208608878E+02 -0.15375306636E+02  0.33245836183E+02  0.00000000000E+00 0.  1.
</event>
<event>
 5    1  0.8752570E-005  0.9118800E+02  0.7818608E-02  0.1130116E+00
         25   -1    0    0    0    0  0.00000000000E+00  0.00000000000E+00  0.99999998245E-14  0.12500000000E+03  0.12500000000E+03 0.  0.
        -11    1    3    3    0    0  0.29808407574E+02 -0.34758241059E+01 -0.39737653465E+02  0.49796622561E+02  0.51100000000E-03 0.  1.
         23    2    1    0    0    0  0.17494852728E+02 -0.24802691227E+02 -0.23616290085E+01  0.94556270667E+02  0.89521325207E+02 0.  0.
         11    1    3    3    0    0 -0.12313554846E+02 -0.21326867122E+02  0.37376024457E+02  0.44759648106E+02  0.51100000000E-03 0. -1.
         22    1    1    0    0    0 -0.17494852728E+02  0.24802691227E+02  0.23616290085E+01  0.30443729333E+02  0.00000000000E+00 0.  1.
</event>
<event>
 5    1  0.8752570E-005  0.9118800E+02  0.7818608E-02  0.1130116E+00
         25   -1    0    0    0    0  0.00000000000E+00  0.00000000000E+00  0.99999998245E-14  0.12500000000E+03  0.12500000000E+03 0.  0.
        -11    1    3    3    0    0 -0.36753996944E+02  0.67697603774E+01  0.67220652975E+00  0.37378306661E+02  0.51100000000E-03 0. -1.
         23    2    1    0    0    0  0.94427582240E+01 -0.25148707027E+02  0.13439789559E+02  0.94962505241E+02  0.90086771006E+02 0.  0.
         11    1    3    3    0    0  0.46196755168E+02 -0.31918467404E+02  0.12767583029E+02  0.57584198581E+02  0.51100000000E-03 0.  1.
         22    1    1    0    0    0 -0.94427582240E+01  0.25148707027E+02 -0.13439789559E+02  0.30037494759E+02  0.00000000000E+00 0.  1.
</event>
<event>
 5    1  0.8752570E-005  0.9118800E+02  0.7818608E-02  0.1130116E+00
         25   -1    0    0    0    0  0.00000000000E+00  0.00000000000E+00  0.99999998245E-14  0.12500000000E+03  0.12500000000E+03 0.  0.
        -11    1    3    3    0    0  0.37565999210E+02 -0.23669948779E+02 -0.30914595910E+02  0.54103447324E+02  0.51100000000E-03 0.  1.
         23    2    1    0    0    0  0.17715294271E+01 -0.42033783440E+01 -0.29788323852E+02  0.94864457132E+02  0.89950621360E+02 0.  0.
         11    1    3    3    0    0 -0.35794469783E+02  0.19466570435E+02  0.11262720573E+01  0.40761009808E+02  0.51100000000E-03 0. -1.
         22    1    1    0    0    0 -0.17715294271E+01  0.42033783440E+01  0.29788323852E+02  0.30135542868E+02  0.00000000000E+00 0.  1.
</event>
<event>
 5    1  0.8752570E-005  0.9118800E+02  0.7818608E-02  0.1130116E+00
         25   -1    0    0    0    0  0.00000000000E+00  0.00000000000E+00  0.99999998245E-14  0.12500000000E+03  0.12500000000E+03 0.  0.
        -11    1    3    3    0    0  0.48625302513E+02  0.89680717128E+01 -0.30343223717E+02  0.58013425865E+02  0.51100000000E-03 0.  1.
         23    2    1    0    0    0  0.12221001006E+02  0.13960329630E+02 -0.22938579621E+02  0.95497083127E+02  0.90825496320E+02 0.  0.
         11    1    3    3    0    0 -0.36404301507E+02  0.49922579174E+01  0.74046440967E+01  0.37483657262E+02  0.51100000000E-03 0. -1.
         22    1    1    0    0    0 -0.12221001006E+02 -0.13960329630E+02  0.22938579621E+02  0.29502916873E+02  0.00000000000E+00 0.  1.
</event>
<event>
 5    1  0.8752570E-005  0.9118800E+02  0.7818608E-02  0.1130116E+00
         25   -1    0    0    0    0  0.00000000000E+00  0.00000000000E+00  0.99999998245E-14  0.12500000000E+03  0.12500000000E+03 0.  0.
        -11    1    3    3    0    0 -0.10135507996E+02  0.23201376356E+02  0.41508279498E+02  0.48620671060E+02  0.51100000000E-03 0. -1.
         23    2    1    0    0    0 -0.11696179856E+02  0.24265514880E+02 -0.70018900783E+01  0.97167603404E+02  0.93096191389E+02 0.  0.
         11    1    3    3    0    0 -0.15606718601E+01  0.10641385238E+01 -0.48510169576E+02  0.48546932344E+02  0.51100000000E-03 0.  1.
         22    1    1    0    0    0  0.11696179856E+02 -0.24265514880E+02  0.70018900783E+01  0.27832396596E+02  0.00000000000E+00 0. -1.
</event>
<event>
 5    1  0.8752570E-005  0.9118800E+02  0.7818608E-02  0.1130116E+00
         25   -1    0    0    0    0  0.00000000000E+00  0.00000000000E+00  0.99999998245E-14  0.12500000000E+03  0.12500000000E+03 0.  0.
        -11    1    3    3    0    0  0.18138461610E+01 -0.10678010688E+02  0.37997009722E+02  0.39510539078E+02  0.51100000000E-03 0.  1.
         23    2    1    0    0    0  0.26390367113E+02 -0.43561794554E+01 -0.12080628057E+02  0.95650905464E+02  0.91036950553E+02 0.  0.
         11    1    3    3    0    0  0.24576520952E+02  0.63218312323E+01 -0.50077637779E+02  0.56140366387E+02  0.51100000000E-03 0. -1.
         22    1    1    0    0    0 -0.26390367113E+02  0.43561794554E+01  0.12080628057E+02  0.29349094536E+02  0.00000000000E+00 0. -1.
</event>
<event>
 5    1  0.8752570E-005  0.9118800E+02  0.7818608E-02  0.1130116E+00
         25   -1    0    0    0    0  0.00000000000E+00  0.00000000000E+00  0.99999998245E-14  0.12500000000E+03  0.12500000000E+03 0.  0.
        -11    1    3    3    0    0 -0.47079753936E+02  0.31174301291E+02 -0.18964496080E+02  0.59565026681E+02  0.51100000000E-03 0. -1.
         23    2    1    0    0    0 -0.14944170737E+02  0.24580152271E+02 -0.29138136282E+01  0.96086293311E+02  0.91632817962E+02 0.  0.
         11    1    3    3    0    0  0.32135583199E+02 -0.65941490205E+01  0.16050682451E+02  0.36521266630E+02  0.51100000000E-03 0.  1.
         22    1    1    0    0    0  0.14944170737E+02 -0.24580152271E+02  0.29138136282E+01  0.28913706689E+02  0.00000000000E+00 0. -1.
</event>
<event>
 5    1  0.8752570E-005  0.9118800E+02  0.7818608E-02  0.1130116E+00
         25   -1    0    0    0    0  0.00000000000E+00  0.00000000000E+00  0.99999998245E-14  0.12500000000E+03  0.12500000000E+03 0.  0.
        -11    1    3    3    0    0  0.14038580621E+02 -0.17749671935E+02  0.27159527974E+02  0.35352122421E+02  0.51100000000E-03 0.  1.
         23    2    1    0    0    0  0.10711456772E+02  0.15933287809E+02 -0.22482779561E+02  0.95435150206E+02  0.90740220142E+02 0.  0.
         11    1    3    3    0    0 -0.33271238487E+01  0.33682959743E+02 -0.49642307535E+02  0.60083027785E+02  0.51100000000E-03 0. -1.
         22    1    1    0    0    0 -0.10711456772E+02 -0.15933287809E+02  0.22482779561E+02  0.29564849794E+02  0.00000000000E+00 0. -1.
</event>
<event>
 5    1  0.8752570E-005  0.9118800E+02  0.7818608E-02  0.1130116E+00
         25   -1    0    0    0    0  0.00000000000E+00  0.00000000000E+00  0.99999998245E-14  0.12500000000E+03  0.12500000000E+03 0.  0.
        -11    1    3    3    0    0 -0.67811629768E+01  0.90407020232E+01 -0.44196456293E+02  0.45618474476E+02  0.51100000000E-03 0. -1.
         23    2    1    0    0    0  0.22853316158E+02  0.17086052900E+02 -0.40232532768E+01  0.96183445208E+02  0.91765251060E+02 0.  0.
         11    1    3    3    0    0  0.29634479135E+02  0.80453508771E+01  0.40173203016E+02  0.50564970732E+02  0.51100000000E-03 0.  1.
         22    1    1    0    0    0 -0.22853316158E+02 -0.17086052900E+02  0.40232532768E+01  0.28816554792E+02  0.00000000000E+00 0.  1.
</event>
<event>
 5    1  0.8752570E-005  0.9118800E+02  0.7818608E-02  0.1130116E+00
         25   -1    0    0    0    0  0.00000000000E+00  0.00000000000E+00  0.99999998245E-14  0.12500000000E+03  0.12500000000E+03 0.  0.
        -11    1    3    3    0    0 -0.26132877185E+02  0.17558643134E+02  0.45347669632E+02  0.55205474004E+02  0.51100000000E-03 0. -1.
         23    2    1    0    0    0 -0.13613354355E+02  0.25883692841E+02  0.92215676564E+01  0.94335259957E+02  0.89212190810E+02 0.  0.
         11    1    3    3    0    0  0.12519522830E+02  0.83250497064E+01 -0.36126101976E+02  0.39129785953E+02  0.51100000000E-03 0.  1.
         22    1    1    0    0    0  0.13613354355E+02 -0.25883692841E+02 -0.92215676564E+01  0.30664740043E+02  0.00000000000E+00 0. -1.
</event>
<event>
 5    1  0.8752570E-005  0.9118800E+02  0.7818608E-02  0.1130116E+00
         25   -1    0    0    0    0  0.00000000000E+00  0.00000000000E+00  0.99999998245E-14  0.12500000000E+03  0.12500000000E+03 0.  0.
        -11    1    3    3    0    0 -0.34701863500E+02  0.15302516669E+02 -0.41705649052E+02  0.56371513283E+02  0.51100000000E-03 0.  1.
         23    2    1    0    0    0  0.14946458418E+01  0.35809265885E+01 -0.27877689034E+02  0.96853551782E+02  0.92673555805E+02 0.  0.
         11    1    3    3    0    0  0.36196509341E+02 -0.11721590080E+02  0.13827960018E+02  0.40482038499E+02  0.51100000000E-03 0. -1.
         22    1    1    0    0    0 -0.14946458418E+01 -0.35809265885E+01  0.27877689034E+02  0.28146448218E+02  0.00000000000E+00 0.  1.
</event>
<event>
 5    1  0.8752570E-005  0.9118800E+02  0.7818608E-02  0.1130116E+00
         25   -1    0    0    0    0  0.00000000000E+00  0.00000000000E+00  0.99999998245E-14  0.12500000000E+03  0.12500000000E+03 0.  0.
        -11    1    3    3    0    0  0.23526008296E+02  0.25291528851E+02  0.10275276198E+01  0.34557058776E+02  0.51100000000E-03 0.  1.
         23    2    1    0    0    0 -0.19334744022E+02 -0.16048347700E+02  0.15017675140E+02  0.95726934617E+02  0.91141284028E+02 0.  0.
         11    1    3    3    0    0 -0.42860752318E+02 -0.41339876551E+02  0.13990147520E+02  0.61169875841E+02  0.51100000000E-03 0. -1.
         22    1    1    0    0    0  0.19334744022E+02  0.16048347700E+02 -0.15017675140E+02  0.29273065383E+02  0.00000000000E+00 0. -1.
</event>
<event>
 5    1  0.8752570E-005  0.9118800E+02  0.7818608E-02  0.1130116E+00
         25   -1    0    0    0    0  0.00000000000E+00  0.00000000000E+00  0.99999998245E-14  0.12500000000E+03  0.12500000000E+03 0.  0.
        -11    1    3    3    0    0  0.35517352296E+02  0.45329537486E+02 -0.18464449514E+02  0.60474665596E+02  0.51100000000E-03 0.  1.
         23    2    1    0    0    0  0.17583550919E+02  0.11780917788E+02 -0.15759472438E+02  0.98611891724E+02  0.95015645717E+02 0.  0.
         11    1    3    3    0    0 -0.17933801377E+02 -0.33548619698E+02  0.27049770760E+01  0.38137226128E+02  0.51100000000E-03 0. -1.
         22    1    1    0    0    0 -0.17583550919E+02 -0.11780917788E+02  0.15759472438E+02  0.26388108276E+02  0.00000000000E+00 0.  1.
</event>
<event>
 5    1  0.8752570E-005  0.9118800E+02  0.7818608E-02  0.1130116E+00
         25   -1    0    0    0    0  0.00000000000E+00  0.00000000000E+00  0.99999998245E-14  0.12500000000E+03  0.12500000000E+03 0.  0.
        -11    1    3    3    0    0  0.20682813024E+01 -0.19968691580E+02 -0.33338582531E+02  0.38916417055E+02  0.51100000000E-03 0.  1.
         23    2    1    0    0    0 -0.21382205249E+02 -0.40744514174E+02 -0.10188769046E+02  0.77871185552E+02  0.61990292691E+02 0.  0.
         11    1    3    3    0    0 -0.23450486551E+02 -0.20775822594E+02  0.23149813485E+02  0.38954768496E+02  0.51100000000E-03 0. -1.
         22    1    1    0    0    0  0.21382205249E+02  0.40744514174E+02  0.10188769046E+02  0.47128814448E+02  0.00000000000E+00 0.  1.
</event>
<event>
 5    1  0.8752570E-005  0.9118800E+02  0.7818608E-02  0.1130116E+00
         25   -1    0    0    0    0  0.00000000000E+00  0.00000000000E+00  0.99999998245E-14  0.12500000000E+03  0.12500000000E+03 0.  0.
        -11    1    3    3    0    0  0.12982436890E+02  0.48533950087E+02  0.27250459520E+02  0.57154838141E+02  0.51100000000E-03 0. -1.
         23    2    1    0    0    0 -0.84385697431E+01  0.27262720544E+02  0.22116330390E+01  0.96375592382E+02  0.92026616235E+02 0.  0.
         11    1    3    3    0    0 -0.21421006633E+02 -0.21271229543E+02 -0.25038826481E+02  0.39220754241E+02  0.51100000000E-03 0.  1.
         22    1    1    0    0    0  0.84385697431E+01 -0.27262720544E+02 -0.22116330390E+01  0.28624407618E+02  0.00000000000E+00 0. -1.
</event>
<event>
 5    1  0.8752570E-005  0.9118800E+02  0.7818608E-02  0.1130116E+00
         25   -1    0    0    0    0  0.00000000000E+00  0.00000000000E+00  0.99999998245E-14  0.12500000000E+03  0.12500000000E+03 0.  0.
        -11    1    3    3    0    0 -0.28340425119E+02  0.19781532135E+02  0.40381745762E+02  0.53152366839E+02  0.51100000000E-03 0. -1.
         23    2    1    0    0    0  0.10219136464E+02  0.15803242688E+02  0.21984056068E+02  0.96060892365E+02  0.91598160960E+02 0.  0.
         11    1    3    3    0    0  0.38559561584E+02 -0.39782894477E+01 -0.18397689694E+02  0.42908525526E+02  0.51100000000E-03 0.  1.
         22    1    1    0    0    0 -0.10219136464E+02 -0.15803242688E+02 -0.21984056068E+02  0.28939107635E+02  0.00000000000E+00 0. -1.
</event>
<event>
 5    1  0.8752570E-005  0.9118800E+02  0.7818608E-02  0.1130116E+00
         25   -1    0    0    0    0  0.00000000000E+00  0.00000000000E+00  0.99999998245E-14  0.12500000000E+03  0.12500000000E+03 0.  0.
        -11    1    3    3    0    0  0.30190840890E+02  0.38786568474E+02 -0.31642535089E+02  0.58456263948E+02  0.51100000000E-03 0.  1.
         23    2    1    0    0    0  0.72263836131E+01  0.30371479279E+02 -0.73520629891E+01  0.92926643395E+02  0.87216173092E+02 0.  0.
         11    1    3    3    0    0 -0.22964457277E+02 -0.84150891951E+01  0.24290472100E+02  0.34470379448E+02  0.51100000000E-03 0. -1.
         22    1    1    0    0    0 -0.72263836131E+01 -0.30371479279E+02  0.73520629891E+01  0.32073356605E+02  0.00000000000E+00 0.  1.
</event>
<event>
 5    1  0.8752570E-005  0.9118800E+02  0.7818608E-02  0.1130116E+00
         25   -1    0    0    0    0  0.00000000000E+00  0.00000000000E+00  0.99999998245E-14  0.12500000000E+03  0.12500000000E+03 0.  0.
        -11    1    3    3    0    0  0.62094666284E+01  0.16427838329E+02  0.35586531398E+02  0.39684160130E+02  0.51100000000E-03 0.  1.
         23    2    1    0    0    0 -0.17809793521E+02 -0.22937539866E+02  0.37546426671E+01  0.95718319346E+02  0.91129467443E+02 0.  0.
         11    1    3    3    0    0 -0.24019260149E+02 -0.39365378195E+02 -0.31831888731E+02  0.56034159216E+02  0.51100000000E-03 0. -1.
         22    1    1    0    0    0  0.17809793521E+02  0.22937539866E+02 -0.37546426671E+01  0.29281680654E+02  0.00000000000E+00 0. -1.
</event>
<event>
 5    1  0.8752570E-005  0.9118800E+02  0.7818608E-02  0.1130116E+00
         25   -1    0    0    0    0  0.00000000000E+00  0.00000000000E+00  0.99999998245E-14  0.12500000000E+03  0.12500000000E+03 0.  0.
        -11    1    3    3    0    0  0.15522650548E+02  0.36515707271E+02  0.45283513872E+02  0.60207525995E+02  0.51100000000E-03 0.  1.
         23    2    1    0    0    0  0.14629115075E+02  0.19835281461E+02  0.11697016623E+02  0.97718695112E+02  0.93833223210E+02 0.  0.
         11    1    3    3    0    0 -0.89353547345E+00 -0.16680425810E+02 -0.33586497249E+02  0.37511169117E+02  0.51100000000E-03 0. -1.
         22    1    1    0    0    0 -0.14629115075E+02 -0.19835281461E+02 -0.11697016623E+02  0.27281304888E+02  0.00000000000E+00 0.  1.
</event>
<event>
 5    1  0.8752570E-005  0.9118800E+02  0.7818608E-02  0.1130116E+00
         25   -1    0    0    0    0  0.00000000000E+00  0.00000000000E+00  0.99999998245E-14  0.12500000000E+03  0.12500000000E+03 0.  0.
        -11    1    3    3    0    0  0.14371874538E+02 -0.88160710864E+01  0.52814249454E+02  0.55440227568E+02  0.51100000000E-03 0. -1.
         23    2    1    0    0    0  0.24543888038E+02 -0.80851447294E+01  0.13922515581E+02  0.95646832447E+02  0.91031357848E+02 0.  0.
         11    1    3    3    0    0  0.10172013500E+02  0.73092635698E+00 -0.38891733873E+02  0.40206604879E+02  0.51100000000E-03 0.  1.
         22    1    1    0    0    0 -0.24543888038E+02  0.80851447294E+01 -0.13922515581E+02  0.29353167553E+02  0.00000000000E+00 0. -1.
</event>
<event>
 5    1  0.8752570E-005  0.9118800E+02  0.7818608E-02  0.1130116E+00
         25   -1    0    0    0    0  0.00000000000E+00  0.00000000000E+00  0.99999998245E-14  0.12500000000E+03  0.12500000000E+03 0.  0.
        -11    1    3    3    0    0 -0.55589524631E+02  0.19009439306E+02 -0.19432813636E+02  0.61880435337E+02  0.51100000000E-03 0.  1.
         23    2    1    0    0    0 -0.22730999994E+02  0.93851717923E+01 -0.14440406755E+02  0.96481494472E+02  0.92170351079E+02 0.  0.
         11    1    3    3    0    0  0.32858524637E+02 -0.96242675138E+01  0.49924068808E+01  0.34601059135E+02  0.51100000000E-03 0. -1.
         22    1    1    0    0    0  0.22730999994E+02 -0.93851717923E+01  0.14440406755E+02  0.28518505528E+02  0.00000000000E+00 0.  1.
</event>
<event>
 5    1  0.8752570E-005  0.9118800E+02  0.7818608E-02  0.1130116E+00
         25   -1    0    0    0    0  0.00000000000E+00  0.00000000000E+00  0.99999998245E-14  0.12500000000E+03  0.12500000000E+03 0.  0.
        -11    1    3    3    0    0 -0.40111765811E+02  0.13193468035E+02 -0.42395925295E+02  0.59836743203E+02  0.51100000000E-03 0. -1.
         23    2    1    0    0    0 -0.21345657424E+02 -0.63526333757E+01 -0.21377312484E+02  0.94129584864E+02  0.88923541405E+02 0.  0.
         11    1    3    3    0    0  0.18766108388E+02 -0.19546101411E+02  0.21018612812E+02  0.34292841660E+02  0.51100000000E-03 0.  1.
         22    1    1    0    0    0  0.21345657424E+02  0.63526333757E+01  0.21377312484E+02  0.30870415136E+02  0.00000000000E+00 0. -1.
</event>
<event>
 5    1  0.8752570E-005  0.9118800E+02  0.7818608E-02  0.1130116E+00
         25   -1    0    0    0    0  0.00000000000E+00  0.00000000000E+00  0.99999998245E-14  0.12500000000E+03  0.12500000000E+03 0.  0.
        -11    1    3    3    0    0 -0.48819518160E+02  0.77108690938E+00  0.22626574231E+02  0.53813583695E+02  0.51100000000E-03 0. -1.
         23    2    1    0    0    0 -0.21910184235E+02  0.17024471817E+02 -0.63143856857E+01  0.96543712813E+02  0.92254692040E+02 0.  0.
         11    1    3    3    0    0  0.26909333925E+02  0.16253384908E+02 -0.28940959917E+02  0.42730129118E+02  0.51100000000E-03 0.  1.
         22    1    1    0    0    0  0.21910184235E+02 -0.17024471817E+02  0.63143856857E+01  0.28456287187E+02  0.00000000000E+00 0. -1.
</event>
<event>
 5    1  0.8752570E-005  0.9118800E+02  0.7818608E-02  0.1130116E+00
         25   -1    0    0    0    0  0.00000000000E+00  0.00000000000E+00  0.99999998245E-14  0.12500000000E+03  0.12500000000E+03 0.  0.
        -11    1    3    3    0    0  0.51445025503E+02  0.32948155584E+02  0.12776364228E+02  0.62413196430E+02  0.51100000000E-03 0.  1.
         23    2    1    0    0    0  0.26566306589E+02  0.17321070677E+02  0.89938212114E+01  0.92035216440E+02  0.85929064408E+02 0.  0.
         11    1    3    3    0    0 -0.24878718914E+02 -0.15627084908E+02 -0.37825430167E+01  0.29622020010E+02  0.51100000000E-03 0. -1.
         22    1    1    0    0    0 -0.26566306589E+02 -0.17321070677E+02 -0.89938212114E+01  0.32964783560E+02  0.00000000000E+00 0.  1.
</event>
<event>
 5    1  0.8752570E-005  0.9118800E+02  0.7818608E-02  0.1130116E+00
         25   -1    0    0    0    0  0.00000000000E+00  0.00000000000E+00  0.99999998245E-14  0.12500000000E+03  0.12500000000E+03 0.  0.
        -11    1    3    3    0    0  0.14525671331E+02 -0.24936566492E+02  0.30372567156E+02  0.41896542959E+02  0.51100000000E-03 0. -1.
         23    2    1    0    0    0  0.23791922342E+02 -0.29671892364E+02 -0.11677498094E+02  0.85215069097E+02  0.75357595996E+02 0.  0.
         11    1    3    3    0    0  0.92662510112E+01 -0.47353258719E+01 -0.42050065251E+02  0.43318526138E+02  0.51100000000E-03 0.  1.
         22    1    1    0    0    0 -0.23791922342E+02  0.29671892364E+02  0.11677498094E+02  0.39784930903E+02  0.00000000000E+00 0. -1.
</event>
<event>
 5    1  0.8752570E-005  0.9118800E+02  0.7818608E-02  0.1130116E+00
         25   -1    0    0    0    0  0.00000000000E+00  0.00000000000E+00  0.99999998245E-14  0.12500000000E+03  0.12500000000E+03 0.  0.
        -11    1    3    3    0    0 -0.36184523279E+02 -0.29976189807E+02  0.31475870244E+02  0.56556362049E+02  0.51100000000E-03 0. -1.
         23    2    1    0    0    0 -0.27981398946E+02 -0.87297086938E+01 -0.34329673986E+00  0.95686447614E+02  0.91085739298E+02 0.  0.
         11    1    3    3    0    0  0.82031243335E+01  0.21246481114E+02 -0.31819166984E+02  0.39130085565E+02  0.51100000000E-03 0.  1.
         22    1    1    0    0    0  0.27981398946E+02  0.87297086938E+01  0.34329673986E+00  0.29313552386E+02  0.00000000000E+00 0. -1.
</event>
<event>
 5    1  0.8752570E-005  0.9118800E+02  0.7818608E-02  0.1130116E+00
         25   -1    0    0    0    0  0.00000000000E+00  0.00000000000E+00  0.99999998245E-14  0.12500000000E+03  0.12500000000E+03 0.  0.
        -11    1    3    3    0    0  0.18274146190E+02 -0.35746429850E+02  0.10957707341E+02  0.41615177717E+02  0.51100000000E-03 0. -1.
         23    2    1    0    0    0  0.18904568745E+02  0.61587257885E+01 -0.22304307845E+02  0.95120328461E+02  0.90305493273E+02 0.  0.
         11    1    3    3    0    0  0.63042255504E+00  0.41905155638E+02 -0.33262015187E+02  0.53505150745E+02  0.51100000000E-03 0.  1.
         22    1    1    0    0    0 -0.18904568745E+02 -0.61587257885E+01  0.22304307845E+02  0.29879671539E+02  0.00000000000E+00 0.  1.
</event>
<event>
 5    1  0.8752570E-005  0.9118800E+02  0.7818608E-02  0.1130116E+00
         25   -1    0    0    0    0  0.00000000000E+00  0.00000000000E+00  0.99999998245E-14  0.12500000000E+03  0.12500000000E+03 0.  0.
        -11    1    3    3    0    0  0.51696078726E+00 -0.10258797535E+02 -0.23535972105E+02  0.25679800594E+02  0.51100000000E-03 0.  1.
         23    2    1    0    0    0 -0.26336013385E+02  0.17832580650E+02  0.22585866695E+02  0.85990925312E+02  0.76633747970E+02 0.  0.
         11    1    3    3    0    0 -0.26852974172E+02  0.28091378185E+02  0.46121838800E+02  0.60311124718E+02  0.51100000000E-03 0. -1.
         22    1    1    0    0    0  0.26336013385E+02 -0.17832580650E+02 -0.22585866695E+02  0.39009074688E+02  0.00000000000E+00 0. -1.
</event>
<event>
 5    1  0.8752570E-005  0.9118800E+02  0.7818608E-02  0.1130116E+00
         25   -1    0    0    0    0  0.00000000000E+00  0.00000000000E+00  0.99999998245E-14  0.12500000000E+03  0.12500000000E+03 0.  0.
        -11    1    3    3    0    0  0.31759252095E+02 -0.24428880473E+01 -0.40467177051E+01  0.32109090926E+02  0.51100000000E-03 0.  1.
         23    2    1    0    0    0 -0.27360751193E+02 -0.74259084884E-02  0.14391094036E+02  0.94085369991E+02  0.88861366734E+02 0.  0.
         11    1    3    3    0    0 -0.59120003289E+02  0.24354621388E+01  0.18437811741E+02  0.61976279065E+02  0.51100000000E-03 0. -1.
         22    1    1    0    0    0  0.27360751193E+02  0.74259084884E-02 -0.14391094036E+02  0.30914630009E+02  0.00000000000E+00 0. -1.
</event>
<event>
 5    1  0.8752570E-005  0.9118800E+02  0.7818608E-02  0.1130116E+00
         25   -1    0    0    0    0  0.00000000000E+00  0.00000000000E+00  0.99999998245E-14  0.12500000000E+03  0.12500000000E+03 0.  0.
        -11    1    3    3    0    0 -0.48170157165E+01  0.14675416964E+02  0.30933566088E+02  0.34575381627E+02  0.51100000000E-03 0. -1.
         23    2    1    0    0    0 -0.18770950632E+01  0.25450848471E+01 -0.29016853085E+02  0.95811325729E+02  0.91256952788E+02 0.  0.
         11    1    3    3    0    0  0.29399206534E+01 -0.12130332117E+02 -0.59950419173E+02  0.61235944102E+02  0.51100000000E-03 0.  1.
         22    1    1    0    0    0  0.18770950632E+01 -0.25450848471E+01  0.29016853085E+02  0.29188674271E+02  0.00000000000E+00 0.  1.
</event>
<event>
 5    1  0.8752570E-005  0.9118800E+02  0.7818608E-02  0.1130116E+00
         25   -1    0    0    0    0  0.00000000000E+00  0.00000000000E+00  0.99999998245E-14  0.12500000000E+03  0.12500000000E+03 0.  0.
        -11    1    3    3    0    0 -0.87472169016E+01 -0.96610393677E+01  0.33660723963E+02  0.36095620554E+02  0.51100000000E-03 0.  1.
         23    2    1    0    0    0 -0.16438663190E+02 -0.12125409604E+00 -0.24479310077E+02  0.95513037256E+02  0.90847450784E+02 0.  0.
         11    1    3    3    0    0 -0.76914462882E+01  0.95397852717E+01 -0.58140034040E+02  0.59417416702E+02  0.51100000000E-03 0. -1.
         22    1    1    0    0    0  0.16438663190E+02  0.12125409604E+00  0.24479310077E+02  0.29486962744E+02  0.00000000000E+00 0. -1.
</event>
<event>
 5    1  0.8752570E-005  0.9118800E+02  0.7818608E-02  0.1130116E+00
         25   -1    0    0    0    0  0.00000000000E+00  0.00000000000E+00  0.99999998245E-14  0.12500000000E+03  0.12500000000E+03 0.  0.
        -11    1    3    3    0    0 -0.21340863771E+02 -0.27056018914E+02  0.13457771119E+02  0.36994218869E+02  0.51100000000E-03 0. -1.
         23    2    1    0    0    0 -0.59473679711E+01  0.28458799357E+02  0.79060714690E+01  0.94870605504E+02  0.89959165047E+02 0.  0.
         11    1    3    3    0    0  0.15393495800E+02  0.55514818271E+02 -0.55516996498E+01  0.57876386635E+02  0.51100000000E-03 0.  1.
         22    1    1    0    0    0  0.59473679711E+01 -0.28458799357E+02 -0.79060714690E+01  0.30129394496E+02  0.00000000000E+00 0.  1.
</event>
<event>
 5    1  0.8752570E-005  0.9118800E+02  0.7818608E-02  0.1130116E+00
         25   -1    0    0    0    0  0.00000000000E+00  0.00000000000E+00  0.99999998245E-14  0.12500000000E+03  0.12500000000E+03 0.  0.
        -11    1    3    3    0    0  0.46352483503E+01 -0.38209297391E+02  0.17603474626E+01  0.38529660754E+02  0.51100000000E-03 0. -1.
         23    2    1    0    0    0  0.10368790838E+02  0.12752601304E+02 -0.23993787245E+02  0.95916628637E+02  0.91401078546E+02 0.  0.
         11    1    3    3    0    0  0.57335424881E+01  0.50961898695E+02 -0.25754134707E+02  0.57386967883E+02  0.51100000000E-03 0.  1.
         22    1    1    0    0    0 -0.10368790838E+02 -0.12752601304E+02  0.23993787245E+02  0.29083371363E+02  0.00000000000E+00 0. -1.
</event>
<event>
 5    1  0.8752570E-005  0.9118800E+02  0.7818608E-02  0.1130116E+00
         25   -1    0    0    0    0  0.00000000000E+00  0.00000000000E+00  0.99999998245E-14  0.12500000000E+03  0.12500000000E+03 0.  0.
        -11    1    3    3    0    0 -0.49033741670E+02  0.19196150682E+02  0.23579376770E+02  0.57695641363E+02  0.51100000000E-03 0. -1.
         23    2    1    0    0    0 -0.27109352308E+02 -0.70485671366E+01  0.16066648365E+02  0.92708569698E+02  0.86903063379E+02 0.  0.
         11    1    3    3    0    0  0.21924389362E+02 -0.26244717819E+02 -0.75127284053E+01  0.35012928335E+02  0.51100000000E-03 0.  1.
         22    1    1    0    0    0  0.27109352308E+02  0.70485671366E+01 -0.16066648365E+02  0.32291430302E+02  0.00000000000E+00 0. -1.
</event>
<event>
 4    1  0.8752570E-005  0.9118800E+02  0.7818608E-02  0.1130116E+00
         25   -1    0    0    0    0  0.00000000000E+00  0.00000000000E+00  0.99999998245E-14  0.12500000000E+03  0.12500000000E+03 0.  0.
        -11    1    1    0    0    0 -0.29694581792E+01  0.17603889615E+01 -0.20977990651E+02  0.21260120959E+02  0.51100000000E-03 0.  1.
         11    1    1    0    0    0  0.32141848317E+02  0.37983619806E+02 -0.98518496498E+00  0.49767704151E+02  0.51100000000E-03 0. -1.
         22    1    1    0    0    0 -0.29172390137E+02 -0.39744008768E+02  0.21963175616E+02  0.53972174890E+02  0.00000000000E+00 0. -1.
</event>
<event>
 5    1  0.8752570E-005  0.9118800E+02  0.7818608E-02  0.1130116E+00
         25   -1    0    0    0    0  0.00000000000E+00  0.00000000000E+00  0.99999998245E-14  0.12500000000E+03  0.12500000000E+03 0.  0.
        -11    1    3    3    0    0  0.39938393486E+01  0.49494928836E+02  0.19447474017E+02  0.53328256854E+02  0.51100000000E-03 0. -1.
         23    2    1    0    0    0 -0.21316094292E+02  0.20089170756E+02  0.14096703577E+02  0.92493574339E+02  0.86593265239E+02 0.  0.
         11    1    3    3    0    0 -0.25309933640E+02 -0.29405758080E+02 -0.53507704392E+01  0.39165317485E+02  0.51100000000E-03 0.  1.
         22    1    1    0    0    0  0.21316094292E+02 -0.20089170756E+02 -0.14096703577E+02  0.32506425661E+02  0.00000000000E+00 0. -1.
</event>
<event>
 5    1  0.8752570E-005  0.9118800E+02  0.7818608E-02  0.1130116E+00
         25   -1    0    0    0    0  0.00000000000E+00  0.00000000000E+00  0.99999998245E-14  0.12500000000E+03  0.12500000000E+03 0.  0.
        -11    1    3    3    0    0 -0.52494312014E+02 -0.70142842783E+01 -0.90891710307E+01  0.53735146860E+02  0.51100000000E-03 0.  1.
         23    2    1    0    0    0 -0.26658483790E+02 -0.84473177012E+01  0.18429580654E+02  0.91508487980E+02  0.85159391701E+02 0.  0.
         11    1    3    3    0    0  0.25835828224E+02 -0.14330334228E+01  0.27518751685E+02  0.37773341120E+02  0.51100000000E-03 0. -1.
         22    1    1    0    0    0  0.26658483790E+02  0.84473177012E+01 -0.18429580654E+02  0.33491512020E+02  0.00000000000E+00 0.  1.
</event>
<event>
 5    1  0.8752570E-005  0.9118800E+02  0.7818608E-02  0.1130116E+00
         25   -1    0    0    0    0  0.00000000000E+00  0.00000000000E+00  0.99999998245E-14  0.12500000000E+03  0.12500000000E+03 0.  0.
        -11    1    3    3    0    0  0.34093151811E+02  0.66346894456E+01  0.45029984434E+02  0.56868810458E+02  0.51100000000E-03 0.  1.
         23    2    1    0    0    0  0.16400028704E+02 -0.15627840388E+02  0.18664076779E+02  0.95648030753E+02  0.91033003291E+02 0.  0.
         11    1    3    3    0    0 -0.17693123107E+02 -0.22262529834E+02 -0.26365907656E+02  0.38779220295E+02  0.51100000000E-03 0. -1.
         22    1    1    0    0    0 -0.16400028704E+02  0.15627840388E+02 -0.18664076779E+02  0.29351969247E+02  0.00000000000E+00 0.  1.
</event>
<event>
 5    1  0.8752570E-005  0.9118800E+02  0.7818608E-02  0.1130116E+00
         25   -1    0    0    0    0  0.00000000000E+00  0.00000000000E+00  0.99999998245E-14  0.12500000000E+03  0.12500000000E+03 0.  0.
        -11    1    3    3    0    0  0.34672316335E+02 -0.90022171832E+01 -0.40042836940E+02  0.53727443869E+02  0.51100000000E-03 0.  1.
         23    2    1    0    0    0 -0.90787813394E+00  0.38838528837E+01 -0.32427798230E+02  0.92327830589E+02  0.86353677671E+02 0.  0.
         11    1    3    3    0    0 -0.35580194469E+02  0.12886070067E+02  0.76150387094E+01  0.38600386721E+02  0.51100000000E-03 0. -1.
         22    1    1    0    0    0  0.90787813394E+00 -0.38838528837E+01  0.32427798230E+02  0.32672169411E+02  0.00000000000E+00 0.  1.
</event>
<event>
 5    1  0.8752570E-005  0.9118800E+02  0.7818608E-02  0.1130116E+00
         25   -1    0    0    0    0  0.00000000000E+00  0.00000000000E+00  0.99999998245E-14  0.12500000000E+03  0.12500000000E+03 0.  0.
        -11    1    3    3    0    0 -0.18696328678E+02  0.12544469728E+02 -0.41383436608E+02  0.47111625450E+02  0.51100000000E-03 0. -1.
         23    2    1    0    0    0  0.20250782320E+02  0.16900895197E+02 -0.12405156907E+02  0.95851717702E+02  0.91312263281E+02 0.  0.
         11    1    3    3    0    0  0.38947110999E+02  0.43564254686E+01  0.28978279701E+02  0.48740092252E+02  0.51100000000E-03 0.  1.
         22    1    1    0    0    0 -0.20250782320E+02 -0.16900895197E+02  0.12405156907E+02  0.29148282298E+02  0.00000000000E+00 0. -1.
</event>
<event>
 5    1  0.8752570E-005  0.9118800E+02  0.7818608E-02  0.1130116E+00
         25   -1    0    0    0    0  0.00000000000E+00  0.00000000000E+00  0.99999998245E-14  0.12500000000E+03  0.12500000000E+03 0.  0.
        -11    1    3    3    0    0 -0.39532463300E+02 -0.15024472056E+02 -0.21832403749E+02  0.47594162129E+02  0.51100000000E-03 0.  1.
         23    2    1    0    0    0 -0.15591169222E+02 -0.14967888933E+02  0.19844654304E+02  0.95658347673E+02  0.91047168645E+02 0.  0.
         11    1    3    3    0    0  0.23941294078E+02  0.56583122640E-01  0.41677058053E+02  0.48064185544E+02  0.51100000000E-03 0. -1.
         22    1    1    0    0    0  0.15591169222E+02  0.14967888933E+02 -0.19844654304E+02  0.29341652327E+02  0.00000000000E+00 0. -1.
</event>
<event>
 5    1  0.8752570E-005  0.9118800E+02  0.7818608E-02  0.1130116E+00
         25   -1    0    0    0    0  0.00000000000E+00  0.00000000000E+00  0.99999998245E-14  0.12500000000E+03  0.12500000000E+03 0.  0.
        -11    1    3    3    0    0  0.27119546813E+02  0.19615240759E+02  0.11130715744E+02  0.35272089853E+02  0.51100000000E-03 0. -1.
         23    2    1    0    0    0 -0.13995783242E+02  0.12558592983E+02 -0.27205443945E+02  0.91928314429E+02  0.85773414339E+02 0.  0.
         11    1    3    3    0    0 -0.41115330054E+02 -0.70566477759E+01 -0.38336159688E+02  0.56656224576E+02  0.51100000000E-03 0.  1.
         22    1    1    0    0    0  0.13995783242E+02 -0.12558592983E+02  0.27205443945E+02  0.33071685571E+02  0.00000000000E+00 0.  1.
</event>
<event>
 5    1  0.8752570E-005  0.9118800E+02  0.7818608E-02  0.1130116E+00
         25   -1    0    0    0    0  0.00000000000E+00  0.00000000000E+00  0.99999998245E-14  0.12500000000E+03  0.12500000000E+03 0.  0.
        -11    1    3    3    0    0  0.30588719931E+01  0.43496338685E+02 -0.42572825711E+02  0.60940410781E+02  0.51100000000E-03 0.  1.
         23    2    1    0    0    0  0.86824329676E+01  0.12690104973E+02 -0.21022759370E+02  0.98954274478E+02  0.95465012541E+02 0.  0.
         11    1    3    3    0    0  0.56235609745E+01 -0.30806233713E+02  0.21550066341E+02  0.38013863697E+02  0.51100000000E-03 0. -1.
         22    1    1    0    0    0 -0.86824329676E+01 -0.12690104973E+02  0.21022759370E+02  0.26045725522E+02  0.00000000000E+00 0.  1.
</event>
<event>
 5    1  0.8752570E-005  0.9118800E+02  0.7818608E-02  0.1130116E+00
         25   -1    0    0    0    0  0.00000000000E+00  0.00000000000E+00  0.99999998245E-14  0.12500000000E+03  0.12500000000E+03 0.  0.
        -11    1    3    3    0    0 -0.54000136082E+01 -0.17026662425E+02  0.38332995853E+02  0.42290494814E+02  0.51100000000E-03 0.  1.
         23    2    1    0    0    0  0.29555459060E+02  0.12145496816E+00  0.22762908231E+01  0.95356764491E+02  0.90632174876E+02 0.  0.
         11    1    3    3    0    0  0.34955472668E+02  0.17148117393E+02 -0.36056705030E+02  0.53066269677E+02  0.51100000000E-03 0. -1.
         22    1    1    0    0    0 -0.29555459060E+02 -0.12145496816E+00 -0.22762908231E+01  0.29643235509E+02  0.00000000000E+00 0.  1.
</event>
<event>
 5    1  0.8752570E-005  0.9118800E+02  0.7818608E-02  0.1130116E+00
         25   -1    0    0    0    0  0.00000000000E+00  0.00000000000E+00  0.99999998245E-14  0.12500000000E+03  0.12500000000E+03 0.  0.
        -11    1    3    3    0    0 -0.65380128470E+01 -0.20384144368E+02 -0.42063347895E+02  0.47197290070E+02  0.51100000000E-03 0. -1.
         23    2    1    0    0    0 -0.26425054491E+02 -0.91889648873E+01  0.21367410247E+01  0.96941378459E+02  0.92791942618E+02 0.  0.
         11    1    3    3    0    0 -0.19887041644E+02  0.11195179481E+02  0.44200088919E+02  0.49744088389E+02  0.51100000000E-03 0.  1.
         22    1    1    0    0    0  0.26425054491E+02  0.91889648873E+01 -0.21367410247E+01  0.28058621541E+02  0.00000000000E+00 0.  1.
</event>
<event>
 5    1  0.8752570E-005  0.9118800E+02  0.7818608E-02  0.1130116E+00
         25   -1    0    0    0    0  0.00000000000E+00  0.00000000000E+00  0.99999998245E-14  0.12500000000E+03  0.12500000000E+03 0.  0.
        -11    1    3    3    0    0  0.39930530467E+01  0.46388614201E+02 -0.18138336952E+02  0.49968462732E+02  0.51100000000E-03 0.  1.
         23    2    1    0    0    0  0.19076936429E+02  0.37082190117E+01 -0.22292092748E+02  0.95426062304E+02  0.90727700159E+02 0.  0.
         11    1    3    3    0    0  0.15083883382E+02 -0.42680395190E+02 -0.41537557959E+01  0.45457599573E+02  0.51100000000E-03 0. -1.
         22    1    1    0    0    0 -0.19076936429E+02 -0.37082190117E+01  0.22292092748E+02  0.29573937696E+02  0.00000000000E+00 0. -1.
</event>
<event>
 5    1  0.8752570E-005  0.9118800E+02  0.7818608E-02  0.1130116E+00
         25   -1    0    0    0    0  0.00000000000E+00  0.00000000000E+00  0.99999998245E-14  0.12500000000E+03  0.12500000000E+03 0.  0.
        -11    1    3    3    0    0 -0.31705779188E+02  0.10259983982E+02  0.13174426190E+02  0.35834190530E+02  0.51100000000E-03 0. -1.
         23    2    1    0    0    0  0.24772721014E+02 -0.83286936099E+01  0.14107143232E+02  0.95300398422E+02  0.90554401360E+02 0.  0.
         11    1    3    3    0    0  0.56478500203E+02 -0.18588677592E+02  0.93271704130E+00  0.59466207892E+02  0.51100000000E-03 0.  1.
         22    1    1    0    0    0 -0.24772721014E+02  0.83286936099E+01 -0.14107143232E+02  0.29699601578E+02  0.00000000000E+00 0.  1.
</event>
<event>
 5    1  0.8752570E-005  0.9118800E+02  0.7818608E-02  0.1130116E+00
         25   -1    0    0    0    0  0.00000000000E+00  0.00000000000E+00  0.99999998245E-14  0.12500000000E+03  0.12500000000E+03 0.  0.
        -11    1    3    3    0    0 -0.19931600602E+01 -0.96397979916E+01  0.37418793025E+02  0.38691917296E+02  0.51100000000E-03 0. -1.
         23    2    1    0    0    0 -0.15347368358E+02  0.15379156604E+02 -0.15211900570E+02  0.98477140193E+02  0.94838204582E+02 0.  0.
         11    1    3    3    0    0 -0.13354208298E+02  0.25018954596E+02 -0.52630693595E+02  0.59785222897E+02  0.51100000000E-03 0.  1.
         22    1    1    0    0    0  0.15347368358E+02 -0.15379156604E+02  0.15211900570E+02  0.26522859807E+02  0.00000000000E+00 0.  1.
</event>
<event>
 5    1  0.8752570E-005  0.9118800E+02  0.7818608E-02  0.1130116E+00
         25   -1    0    0    0    0  0.00000000000E+00  0.00000000000E+00  0.99999998245E-14  0.12500000000E+03  0.12500000000E+03 0.  0.
        -11    1    3    3    0    0 -0.25443802120E+02  0.35878587024E+02  0.27829852698E+02  0.52049599178E+02  0.51100000000E-03 0. -1.
         23    2    1    0    0    0 -0.20217860841E+01  0.25984459347E+02 -0.95372877790E+01  0.97246809107E+02  0.93202479993E+02 0.  0.
         11    1    3    3    0    0  0.23422016036E+02 -0.98941276768E+01 -0.37367140477E+02  0.45197209929E+02  0.51100000000E-03 0.  1.
         22    1    1    0    0    0  0.20217860841E+01 -0.25984459347E+02  0.95372877790E+01  0.27753190893E+02  0.00000000000E+00 0. -1.
</event>
<event>
 5    1  0.8752570E-005  0.9118800E+02  0.7818608E-02  0.1130116E+00
         25   -1    0    0    0    0  0.00000000000E+00  0.00000000000E+00  0.99999998245E-14  0.12500000000E+03  0.12500000000E+03 0.  0.
        -11    1    3    3    0    0 -0.13928655820E+01 -0.24402509141E+02  0.19063455637E+02  0.30997384857E+02  0.51100000000E-03 0.  1.
         23    2    1    0    0    0  0.87039493753E+01  0.17122608426E+02 -0.25719982701E+02  0.92899221751E+02  0.87176862973E+02 0.  0.
         11    1    3    3    0    0  0.10096814957E+02  0.41525117567E+02 -0.44783438338E+02  0.61901836894E+02  0.51100000000E-03 0. -1.
         22    1    1    0    0    0 -0.87039493753E+01 -0.17122608426E+02  0.25719982701E+02  0.32100778249E+02  0.00000000000E+00 0. -1.
</event>
<event>
 5    1  0.8752570E-005  0.9118800E+02  0.7818608E-02  0.1130116E+00
         25   -1    0    0    0    0  0.00000000000E+00  0.00000000000E+00  0.99999998245E-14  0.12500000000E+03  0.12500000000E+03 0.  0.
        -11    1    3    3    0    0 -0.42219190391E+02  0.29780633246E+02 -0.29021197259E+02  0.59258552500E+02  0.51100000000E-03 0.  1.
         23    2    1    0    0    0 -0.86641731787E+01  0.16797930720E+02 -0.22139756106E+02  0.95889741090E+02  0.91364299771E+02 0.  0.
         11    1    3    3    0    0  0.33555017212E+02 -0.12982702526E+02  0.68814411525E+01  0.36631188591E+02  0.51100000000E-03 0. -1.
         22    1    1    0    0    0  0.86641731787E+01 -0.16797930720E+02  0.22139756106E+02  0.29110258910E+02  0.00000000000E+00 0.  1.
</event>
<event>
 5    1  0.8752570E-005  0.9118800E+02  0.7818608E-02  0.1130116E+00
         25   -1    0    0    0    0  0.00000000000E+00  0.00000000000E+00  0.99999998245E-14  0.12500000000E+03  0.12500000000E+03 0.  0.
        -11    1    3    3    0    0 -0.24753131518E+02  0.40407370062E+02  0.54222762566E+01  0.47695640842E+02  0.51100000000E-03 0. -1.
         23    2    1    0    0    0 -0.28376800548E+02 -0.72639437413E+01  0.13620229930E+01  0.95676582828E+02  0.91072200516E+02 0.  0.
         11    1    3    3    0    0 -0.36236690300E+01 -0.47671313803E+02 -0.40602532636E+01  0.47980941985E+02  0.51100000000E-03 0.  1.
         22    1    1    0    0    0  0.28376800548E+02  0.72639437413E+01 -0.13620229930E+01  0.29323417172E+02  0.00000000000E+00 0. -1.
</event>
<event>
 5    1  0.8752570E-005  0.9118800E+02  0.7818608E-02  0.1130116E+00
         25   -1    0    0    0    0  0.00000000000E+00  0.00000000000E+00  0.99999998245E-14  0.12500000000E+03  0.12500000000E+03 0.  0.
        -11    1    3    3    0    0  0.11371803857E+02  0.24114665477E+02  0.51489958351E+02  0.57983194335E+02  0.51100000000E-03 0. -1.
         23    2    1    0    0    0  0.10122207572E+02 -0.36603566826E+01  0.30012484408E+02  0.93115732445E+02  0.87486759635E+02 0.  0.
         11    1    3    3    0    0 -0.12495962856E+01 -0.27775022159E+02 -0.21477473943E+02  0.35132538110E+02  0.51100000000E-03 0.  1.
         22    1    1    0    0    0 -0.10122207572E+02  0.36603566826E+01 -0.30012484408E+02  0.31884267555E+02  0.00000000000E+00 0. -1.
</event>
<event>
 5    1  0.8752570E-005  0.9118800E+02  0.7818608E-02  0.1130116E+00
         25   -1    0    0    0    0  0.00000000000E+00  0.00000000000E+00  0.99999998245E-14  0.12500000000E+03  0.12500000000E+03 0.  0.
        -11    1    3    3    0    0  0.24315668830E+02 -0.21430720171E+02  0.40484026926E+02  0.51860234806E+02  0.51100000000E-03 0. -1.
         23    2    1    0    0    0  0.28458194564E+02 -0.19183215456E+01  0.58097519733E+00  0.96471306942E+02  0.92156533873E+02 0.  0.
         11    1    3    3    0    0  0.41425257346E+01  0.19512398625E+02 -0.39903051729E+02  0.44611072136E+02  0.51100000000E-03 0.  1.
         22    1    1    0    0    0 -0.28458194564E+02  0.19183215456E+01 -0.58097519733E+00  0.28528693058E+02  0.00000000000E+00 0. -1.
</event>
<event>
 5    1  0.8752570E-005  0.9118800E+02  0.7818608E-02  0.1130116E+00
         25   -1    0    0    0    0  0.00000000000E+00  0.00000000000E+00  0.99999998245E-14  0.12500000000E+03  0.12500000000E+03 0.  0.
        -11    1    3    3    0    0 -0.43339231219E+02  0.22967694472E+02  0.32641413022E+02  0.58917448997E+02  0.51100000000E-03 0.  1.
         23    2    1    0    0    0 -0.96798818664E+01  0.88465806117E+01  0.25805819617E+02  0.96053455688E+02  0.91588011891E+02 0.  0.
         11    1    3    3    0    0  0.33659349353E+02 -0.14121113860E+02 -0.68355934043E+01  0.37136006691E+02  0.51100000000E-03 0. -1.
         22    1    1    0    0    0  0.96798818664E+01 -0.88465806117E+01 -0.25805819617E+02  0.28946544312E+02  0.00000000000E+00 0.  1.
</event>
<event>
 5    1  0.8752570E-005  0.9118800E+02  0.7818608E-02  0.1130116E+00
         25   -1    0    0    0    0  0.00000000000E+00  0.00000000000E+00  0.99999998245E-14  0.12500000000E+03  0.12500000000E+03 0.  0.
        -11    1    3    3    0    0  0.48413155659E+02 -0.21945270489E+00 -0.35830866783E+02  0.60230663412E+02  0.51100000000E-03 0.  1.
         23    2    1    0    0    0  0.17606528321E+02  0.99332935785E+01 -0.20848006143E+02  0.95960380151E+02  0.91460893489E+02 0.  0.
         11    1    3    3    0    0 -0.30806627338E+02  0.10152746283E+02  0.14982860640E+02  0.35729716739E+02  0.51100000000E-03 0. -1.
         22    1    1    0    0    0 -0.17606528321E+02 -0.99332935785E+01  0.20848006143E+02  0.29039619849E+02  0.00000000000E+00 0.  1.
</event>
<event>
 5    1  0.8752570E-005  0.9118800E+02  0.7818608E-02  0.1130116E+00
         25   -1    0    0    0    0  0.00000000000E+00  0.00000000000E+00  0.99999998245E-14  0.12500000000E+03  0.12500000000E+03 0.  0.
        -11    1    3    3    0    0 -0.31978159626E+02  0.23152646262E+02  0.13691657934E+02  0.41786471725E+02  0.51100000000E-03 0.  1.
         23    2    1    0    0    0  0.62073164022E+01 -0.89739495268E+01  0.29025220124E+02  0.93991518092E+02  0.88729248407E+02 0.  0.
         11    1    3    3    0    0  0.38185476028E+02 -0.32126595789E+02  0.15333562190E+02  0.52205046367E+02  0.51100000000E-03 0. -1.
         22    1    1    0    0    0 -0.62073164022E+01  0.89739495268E+01 -0.29025220124E+02  0.31008481908E+02  0.00000000000E+00 0. -1.
</event>
<event>
 5    1  0.8752570E-005  0.9118800E+02  0.7818608E-02  0.1130116E+00
         25   -1    0    0    0    0  0.00000000000E+00  0.00000000000E+00  0.99999998245E-14  0.12500000000E+03  0.12500000000E+03 0.  0.
        -11    1    3    3    0    0  0.43653246664E+02 -0.16941591464E+01  0.23866798496E+02  0.49780520189E+02  0.51100000000E-03 0. -1.
         23    2    1    0    0    0  0.19892064131E+02 -0.14094014388E+02 -0.14539776047E+02  0.96614430700E+02  0.92350461153E+02 0.  0.
         11    1    3    3    0    0 -0.23761182533E+02 -0.12399855241E+02 -0.38406574544E+02  0.46833910512E+02  0.51100000000E-03 0.  1.
         22    1    1    0    0    0 -0.19892064131E+02  0.14094014388E+02  0.14539776047E+02  0.28385569300E+02  0.00000000000E+00 0. -1.
</event>
<event>
 5    1  0.8752570E-005  0.9118800E+02  0.7818608E-02  0.1130116E+00
         25   -1    0    0    0    0  0.00000000000E+00  0.00000000000E+00  0.99999998245E-14  0.12500000000E+03  0.12500000000E+03 0.  0.
        -11    1    3    3    0    0 -0.15498718682E+02 -0.22156960974E+02  0.40621303147E+02  0.48797863376E+02  0.51100000000E-03 0. -1.
         23    2    1    0    0    0 -0.15418837274E+02 -0.24536415120E+02 -0.59388289730E+01  0.95418825254E+02  0.90717728771E+02 0.  0.
         11    1    3    3    0    0  0.79881408687E-01 -0.23794541462E+01 -0.46560132120E+02  0.46620961878E+02  0.51100000000E-03 0.  1.
         22    1    1    0    0    0  0.15418837274E+02  0.24536415120E+02  0.59388289730E+01  0.29581174746E+02  0.00000000000E+00 0.  1.
</event>
<event>
 5    1  0.8752570E-005  0.9118800E+02  0.7818608E-02  0.1130116E+00
         25   -1    0    0    0    0  0.00000000000E+00  0.00000000000E+00  0.99999998245E-14  0.12500000000E+03  0.12500000000E+03 0.  0.
        -11    1    3    3    0    0  0.34699667792E+01  0.30120435515E+02  0.24145839526E+02  0.38759552006E+02  0.51100000000E-03 0.  1.
         23    2    1    0    0    0  0.21080870871E+02 -0.91931924052E+01 -0.15469029894E+02  0.97283420321E+02  0.93251568782E+02 0.  0.
         11    1    3    3    0    0  0.17610904091E+02 -0.39313627920E+02 -0.39614869419E+02  0.58523868315E+02  0.51100000000E-03 0. -1.
         22    1    1    0    0    0 -0.21080870871E+02  0.91931924052E+01  0.15469029894E+02  0.27716579679E+02  0.00000000000E+00 0. -1.
</event>
<event>
 5    1  0.8752570E-005  0.9118800E+02  0.7818608E-02  0.1130116E+00
         25   -1    0    0    0    0  0.00000000000E+00  0.00000000000E+00  0.99999998245E-14  0.12500000000E+03  0.12500000000E+03 0.  0.
        -11    1    3    3    0    0 -0.47185620445E+02 -0.12813779422E+02 -0.27048715010E+02  0.55877622568E+02  0.51100000000E-03 0.  1.
         23    2    1    0    0    0 -0.17772242270E+02  0.13272924306E+02 -0.18511628081E+02  0.96108764492E+02  0.91663466676E+02 0.  0.
         11    1    3    3    0    0  0.29413378175E+02  0.26086703728E+02  0.85370869291E+01  0.40231141925E+02  0.51100000000E-03 0. -1.
         22    1    1    0    0    0  0.17772242270E+02 -0.13272924306E+02  0.18511628081E+02  0.28891235508E+02  0.00000000000E+00 0. -1.
</event>
<event>
 5    1  0.8752570E-005  0.9118800E+02  0.7818608E-02  0.1130116E+00
         25   -1    0    0    0    0  0.00000000000E+00  0.00000000000E+00  0.99999998245E-14  0.12500000000E+03  0.12500000000E+03 0.  0.
        -11    1    3    3    0    0 -0.17908496399E+01 -0.36251635216E+02  0.29242444250E+02  0.46610178548E+02  0.51100000000E-03 0. -1.
         23    2    1    0    0    0  0.18723294133E+02  0.72269178645E+01  0.21988526379E+02  0.95229454534E+02  0.90456418421E+02 0.  0.
         11    1    3    3    0    0  0.20514143773E+02  0.43478553080E+02 -0.72539178716E+01  0.48619275986E+02  0.51100000000E-03 0.  1.
         22    1    1    0    0    0 -0.18723294133E+02 -0.72269178645E+01 -0.21988526379E+02  0.29770545466E+02  0.00000000000E+00 0.  1.
</event>
<event>
 5    1  0.8752570E-005  0.9118800E+02  0.7818608E-02  0.1130116E+00
         25   -1    0    0    0    0  0.00000000000E+00  0.00000000000E+00  0.99999998245E-14  0.12500000000E+03  0.12500000000E+03 0.  0.
        -11    1    3    3    0    0  0.28355494648E+02 -0.51465410254E+02  0.34254062616E+01  0.58859629099E+02  0.51100000000E-03 0.  1.
         23    2    1    0    0    0 -0.16066587740E+01 -0.27521856331E+02 -0.60420153885E+00  0.97424667041E+02  0.93440712541E+02 0.  0.
         11    1    3    3    0    0 -0.29962153422E+02  0.23943553923E+02 -0.40296078004E+01  0.38565037941E+02  0.51100000000E-03 0. -1.
         22    1    1    0    0    0  0.16066587740E+01  0.27521856331E+02  0.60420153885E+00  0.27575332959E+02  0.00000000000E+00 0.  1.
</event>
<event>
 5    1  0.8752570E-005  0.9118800E+02  0.7818608E-02  0.1130116E+00
         25   -1    0    0    0    0  0.00000000000E+00  0.00000000000E+00  0.99999998245E-14  0.12500000000E+03  0.12500000000E+03 0.  0.
        -11    1    3    3    0    0 -0.34642991052E+02 -0.10598984820E+02 -0.10730344372E+02  0.37783800747E+02  0.51100000000E-03 0. -1.
         23    2    1    0    0    0  0.24536921934E+02 -0.62868746305E+01 -0.11631584136E+02  0.97127449343E+02  0.93042261020E+02 0.  0.
         11    1    3    3    0    0  0.59179912986E+02  0.43121101892E+01 -0.90123976389E+00  0.59343648596E+02  0.51100000000E-03 0.  1.
         22    1    1    0    0    0 -0.24536921934E+02  0.62868746305E+01  0.11631584136E+02  0.27872550657E+02  0.00000000000E+00 0.  1.
</event>
<event>
 5    1  0.8752570E-005  0.9118800E+02  0.7818608E-02  0.1130116E+00
         25   -1    0    0    0    0  0.00000000000E+00  0.00000000000E+00  0.99999998245E-14  0.12500000000E+03  0.12500000000E+03 0.  0.
        -11    1    3    3    0    0  0.24139744214E+02 -0.26862639124E+02  0.21070842975E+02  0.41812785788E+02  0.51100000000E-03 0. -1.
         23    2    1    0    0    0 -0.96726648102E+01 -0.19728028906E+02 -0.19861541487E+02  0.95381823161E+02  0.90666729235E+02 0.  0.
         11    1    3    3    0    0 -0.33812409024E+02  0.71346102187E+01 -0.40932384462E+02  0.53569037372E+02  0.51100000000E-03 0.  1.
         22    1    1    0    0    0  0.96726648102E+01  0.19728028906E+02  0.19861541487E+02  0.29618176839E+02  0.00000000000E+00 0.  1.
</event>
<event>
 5    1  0.8752570E-005  0.9118800E+02  0.7818608E-02  0.1130116E+00
         25   -1    0    0    0    0  0.00000000000E+00  0.00000000000E+00  0.99999998245E-14  0.12500000000E+03  0.12500000000E+03 0.  0.
        -11    1    3    3    0    0 -0.23252410438E+02 -0.11782543777E+01 -0.28789368539E+02  0.37025540046E+02  0.51100000000E-03 0. -1.
         23    2    1    0    0    0  0.10395314443E+02 -0.27483049695E+02  0.92250888257E+01  0.94202551295E+02  0.89026051376E+02 0.  0.
         11    1    3    3    0    0  0.33647724881E+02 -0.26304795318E+02  0.38014457365E+02  0.57177011249E+02  0.51100000000E-03 0.  1.
         22    1    1    0    0    0 -0.10395314443E+02  0.27483049695E+02 -0.92250888257E+01  0.30797448705E+02  0.00000000000E+00 0.  1.
</event>
<event>
 5    1  0.8752570E-005  0.9118800E+02  0.7818608E-02  0.1130116E+00
         25   -1    0    0    0    0  0.00000000000E+00  0.00000000000E+00  0.99999998245E-14  0.12500000000E+03  0.12500000000E+03 0.  0.
        -11    1    3    3    0    0  0.10376275999E+02 -0.36221682510E+02 -0.10196940850E+02  0.39034023498E+02  0.51100000000E-03 0. -1.
         23    2    1    0    0    0 -0.23591534069E+01  0.60106741815E+01  0.27311199770E+02  0.96935869125E+02  0.92784520698E+02 0.  0.
         11    1    3    3    0    0 -0.12735429406E+02  0.42232356692E+02  0.37508140620E+02  0.57901845627E+02  0.51100000000E-03 0.  1.
         22    1    1    0    0    0  0.23591534069E+01 -0.60106741815E+01 -0.27311199770E+02  0.28064130875E+02  0.00000000000E+00 0. -1.
</event>
<event>
 5    1  0.8752570E-005  0.9118800E+02  0.7818608E-02  0.1130116E+00
         25   -1    0    0    0    0  0.00000000000E+00  0.00000000000E+00  0.99999998245E-14  0.12500000000E+03  0.12500000000E+03 0.  0.
        -11    1    3    3    0    0 -0.94971288199E+01 -0.17678944567E+02 -0.48165268184E+02  0.52178861585E+02  0.51100000000E-03 0. -1.
         23    2    1    0    0    0  0.16729925864E+02  0.67647067578E+01 -0.21903410706E+02  0.96620234717E+02  0.92358316784E+02 0.  0.
         11    1    3    3    0    0  0.26227054684E+02  0.24443651324E+02  0.26261857477E+02  0.44441373132E+02  0.51100000000E-03 0.  1.
         22    1    1    0    0    0 -0.16729925864E+02 -0.67647067578E+01  0.21903410706E+02  0.28379765283E+02  0.00000000000E+00 0. -1.
</event>
<event>
 5    1  0.8752570E-005  0.9118800E+02  0.7818608E-02  0.1130116E+00
         25   -1    0    0    0    0  0.00000000000E+00  0.00000000000E+00  0.99999998245E-14  0.12500000000E+03  0.12500000000E+03 0.  0.
        -11    1    3    3    0    0  0.50044906564E+02  0.21409587106E+02  0.25306385932E+02  0.60027295977E+02  0.51100000000E-03 0.  1.
         23    2    1    0    0    0  0.15476676614E+02  0.11693823732E+02  0.21352686014E+02  0.96151945777E+02  0.91722333399E+02 0.  0.
         11    1    3    3    0    0 -0.34568229950E+02 -0.97157633747E+01 -0.39536999181E+01  0.36124649800E+02  0.51100000000E-03 0. -1.
         22    1    1    0    0    0 -0.15476676614E+02 -0.11693823732E+02 -0.21352686014E+02  0.28848054223E+02  0.00000000000E+00 0.  1.
</event>
<event>
 5    1  0.8752570E-005  0.9118800E+02  0.7818608E-02  0.1130116E+00
         25   -1    0    0    0    0  0.00000000000E+00  0.00000000000E+00  0.99999998245E-14  0.12500000000E+03  0.12500000000E+03 0.  0.
        -11    1    3    3    0    0  0.12413417588E+02 -0.47597856206E+02 -0.32807409604E+02  0.59126770390E+02  0.51100000000E-03 0.  1.
         23    2    1    0    0    0  0.25318465835E+01 -0.12410084362E+02 -0.25683151372E+02  0.96363577294E+02  0.92010294661E+02 0.  0.
         11    1    3    3    0    0 -0.98815710047E+01  0.35187771843E+02  0.71242582320E+01  0.37236806904E+02  0.51100000000E-03 0. -1.
         22    1    1    0    0    0 -0.25318465835E+01  0.12410084362E+02  0.25683151372E+02  0.28636422706E+02  0.00000000000E+00 0.  1.
</event>
<event>
 5    1  0.8752570E-005  0.9118800E+02  0.7818608E-02  0.1130116E+00
         25   -1    0    0    0    0  0.00000000000E+00  0.00000000000E+00  0.99999998245E-14  0.12500000000E+03  0.12500000000E+03 0.  0.
        -11    1    3    3    0    0 -0.21907706002E+02  0.28419877058E+02 -0.50924267927E+02  0.62297014844E+02  0.51100000000E-03 0.  1.
         23    2    1    0    0    0 -0.13383487903E+02  0.11632776170E+02 -0.25838774191E+02  0.93661820704E+02  0.88263555197E+02 0.  0.
         11    1    3    3    0    0  0.85242180993E+01 -0.16787100888E+02  0.25085493736E+02  0.31364805860E+02  0.51100000000E-03 0. -1.
         22    1    1    0    0    0  0.13383487903E+02 -0.11632776170E+02  0.25838774191E+02  0.31338179296E+02  0.00000000000E+00 0.  1.
</event>
<event>
 5    1  0.8752570E-005  0.9118800E+02  0.7818608E-02  0.1130116E+00
         25   -1    0    0    0    0  0.00000000000E+00  0.00000000000E+00  0.99999998245E-14  0.12500000000E+03  0.12500000000E+03 0.  0.
        -11    1    3    3    0    0  0.10564104471E+02  0.44525323372E+02  0.25627750271E+02  0.52448892351E+02  0.51100000000E-03 0.  1.
         23    2    1    0    0    0  0.26889306985E+02  0.86469146785E+01  0.78942508144E+01  0.95672143626E+02  0.91066107342E+02 0.  0.
         11    1    3    3    0    0  0.16325202514E+02 -0.35878408693E+02 -0.17733499457E+02  0.43223251274E+02  0.51100000000E-03 0. -1.
         22    1    1    0    0    0 -0.26889306985E+02 -0.86469146785E+01 -0.78942508144E+01  0.29327856374E+02  0.00000000000E+00 0.  1.
</event>
<event>
 5    1  0.8752570E-005  0.9118800E+02  0.7818608E-02  0.1130116E+00
         25   -1    0    0    0    0  0.00000000000E+00  0.00000000000E+00  0.99999998245E-14  0.12500000000E+03  0.12500000000E+03 0.  0.
        -11    1    3    3    0    0  0.46705045038E+02 -0.38113848578E+02  0.61468753033E+01  0.60595468161E+02  0.51100000000E-03 0.  1.
         23    2    1    0    0    0  0.23941103200E+02 -0.11737944027E+02  0.11710928363E+02  0.95877816093E+02  0.91347983137E+02 0.  0.
         11    1    3    3    0    0 -0.22763941838E+02  0.26375904551E+02  0.55640530593E+01  0.35282347932E+02  0.51100000000E-03 0. -1.
         22    1    1    0    0    0 -0.23941103200E+02  0.11737944027E+02 -0.11710928363E+02  0.29122183907E+02  0.00000000000E+00 0.  1.
</event>
<event>
 5    1  0.8752570E-005  0.9118800E+02  0.7818608E-02  0.1130116E+00
         25   -1    0    0    0    0  0.00000000000E+00  0.00000000000E+00  0.99999998245E-14  0.12500000000E+03  0.12500000000E+03 0.  0.
        -11    1    3    3    0    0  0.11326945268E+02 -0.42716684730E+01 -0.31225908056E+02  0.33490359431E+02  0.51100000000E-03 0. -1.
         23    2    1    0    0    0 -0.10749509327E+02 -0.79982890339E+00  0.27037671877E+02  0.95892829448E+02  0.91368525007E+02 0.  0.
         11    1    3    3    0    0 -0.22076454595E+02  0.34718395696E+01  0.58263579932E+02  0.62402470017E+02  0.51100000000E-03 0.  1.
         22    1    1    0    0    0  0.10749509327E+02  0.79982890339E+00 -0.27037671877E+02  0.29107170552E+02  0.00000000000E+00 0.  1.
</event>
<event>
 5    1  0.8752570E-005  0.9118800E+02  0.7818608E-02  0.1130116E+00
         25   -1    0    0    0    0  0.00000000000E+00  0.00000000000E+00  0.99999998245E-14  0.12500000000E+03  0.12500000000E+03 0.  0.
        -11    1    3    3    0    0 -0.29990736136E+02  0.24593876133E+02 -0.38996910488E+02  0.55000563861E+02  0.51100000000E-03 0.  1.
         23    2    1    0    0    0 -0.24563459032E+02  0.16256159243E+02  0.30588151001E+00  0.95542916023E+02  0.90888552666E+02 0.  0.
         11    1    3    3    0    0  0.54272771039E+01 -0.83377168899E+01  0.39302791998E+02  0.40542352162E+02  0.51100000000E-03 0. -1.
         22    1    1    0    0    0  0.24563459032E+02 -0.16256159243E+02 -0.30588151001E+00  0.29457083977E+02  0.00000000000E+00 0.  1.
</event>
<event>
 5    1  0.8752570E-005  0.9118800E+02  0.7818608E-02  0.1130116E+00
         25   -1    0    0    0    0  0.00000000000E+00  0.00000000000E+00  0.99999998245E-14  0.12500000000E+03  0.12500000000E+03 0.  0.
        -11    1    3    3    0    0 -0.40645881577E+02 -0.52343989411E+01 -0.22013751592E+02  0.46519800955E+02  0.51100000000E-03 0.  1.
         23    2    1    0    0    0 -0.12668946162E+02 -0.27621571937E+02  0.83489117292E+01  0.93485594403E+02  0.88013627358E+02 0.  0.
         11    1    3    3    0    0  0.27976935415E+02 -0.22387172995E+02  0.30362663322E+02  0.46965793448E+02  0.51100000000E-03 0. -1.
         22    1    1    0    0    0  0.12668946162E+02  0.27621571937E+02 -0.83489117292E+01  0.31514405597E+02  0.00000000000E+00 0.  1.
</event>
<event>
 5    1  0.8752570E-005  0.9118800E+02  0.7818608E-02  0.1130116E+00
         25   -1    0    0    0    0  0.00000000000E+00  0.00000000000E+00  0.99999998245E-14  0.12500000000E+03  0.12500000000E+03 0.  0.
        -11    1    3    3    0    0  0.19574710069E+02  0.35308334465E+02  0.45633497164E+02  0.60928349893E+02  0.51100000000E-03 0.  1.
         23    2    1    0    0    0  0.11592914608E+00  0.20162367394E+02  0.23177979883E+02  0.94279432786E+02  0.89133934035E+02 0.  0.
         11    1    3    3    0    0 -0.19458780923E+02 -0.15145967070E+02 -0.22455517282E+02  0.33351082893E+02  0.51100000000E-03 0. -1.
         22    1    1    0    0    0 -0.11592914608E+00 -0.20162367394E+02 -0.23177979883E+02  0.30720567214E+02  0.00000000000E+00 0.  1.
</event>
<event>
 5    1  0.8752570E-005  0.9118800E+02  0.7818608E-02  0.1130116E+00
         25   -1    0    0    0    0  0.00000000000E+00  0.00000000000E+00  0.99999998245E-14  0.12500000000E+03  0.12500000000E+03 0.  0.
        -11    1    3    3    0    0  0.47767234633E+02 -0.12400049937E+02 -0.34298029073E+02  0.60098458728E+02  0.51100000000E-03 0.  1.
         23    2    1    0    0    0  0.22986864834E+02  0.62564509208E+01 -0.18025444157E+02  0.95126001773E+02  0.90313345875E+02 0.  0.
         11    1    3    3    0    0 -0.24780369799E+02  0.18656500858E+02  0.16272584916E+02  0.35027543045E+02  0.51100000000E-03 0. -1.
         22    1    1    0    0    0 -0.22986864834E+02 -0.62564509208E+01  0.18025444157E+02  0.29873998227E+02  0.00000000000E+00 0.  1.
</event>
<event>
 5    1  0.8752570E-005  0.9118800E+02  0.7818608E-02  0.1130116E+00
         25   -1    0    0    0    0  0.00000000000E+00  0.00000000000E+00  0.99999998245E-14  0.12500000000E+03  0.12500000000E+03 0.  0.
        -11    1    3    3    0    0 -0.13870558570E+02  0.30851704111E+02 -0.21527063678E+02  0.40095317837E+02  0.51100000000E-03 0.  1.
         23    2    1    0    0    0 -0.25467594380E+00  0.11786025987E+02  0.27854950788E+02  0.94753123272E+02  0.89795772829E+02 0.  0.
         11    1    3    3    0    0  0.13615882626E+02 -0.19065678124E+02  0.49382014466E+02  0.54657805435E+02  0.51100000000E-03 0. -1.
         22    1    1    0    0    0  0.25467594380E+00 -0.11786025987E+02 -0.27854950788E+02  0.30246876728E+02  0.00000000000E+00 0. -1.
</event>
<event>
 5    1  0.8752570E-005  0.9118800E+02  0.7818608E-02  0.1130116E+00
         25   -1    0    0    0    0  0.00000000000E+00  0.00000000000E+00  0.99999998245E-14  0.12500000000E+03  0.12500000000E+03 0.  0.
        -11    1    3    3    0    0 -0.54455566875E+02 -0.35728855721E+01  0.17614360468E+02  0.57344921048E+02  0.51100000000E-03 0.  1.
         23    2    1    0    0    0 -0.35763443047E+02  0.10651676502E+02  0.22622885834E+02  0.81361977195E+02  0.68669456811E+02 0.  0.
         11    1    3    3    0    0  0.18692123828E+02  0.14224562074E+02  0.50085253656E+01  0.24017056147E+02  0.51100000000E-03 0. -1.
         22    1    1    0    0    0  0.35763443047E+02 -0.10651676502E+02 -0.22622885834E+02  0.43638022805E+02  0.00000000000E+00 0.  1.
</event>
<event>
 5    1  0.8752570E-005  0.9118800E+02  0.7818608E-02  0.1130116E+00
         25   -1    0    0    0    0  0.00000000000E+00  0.00000000000E+00  0.99999998245E-14  0.12500000000E+03  0.12500000000E+03 0.  0.
        -11    1    3    3    0    0 -0.19842928423E+02 -0.11482626727E+02  0.25764125752E+02  0.34487428158E+02  0.51100000000E-03 0. -1.
         23    2    1    0    0    0 -0.66118069368E-01  0.16318836805E+02 -0.24695944149E+02  0.95399350283E+02  0.90690890230E+02 0.  0.
         11    1    3    3    0    0  0.19776810354E+02  0.27801463532E+02 -0.50460069901E+02  0.60911922125E+02  0.51100000000E-03 0.  1.
         22    1    1    0    0    0  0.66118069368E-01 -0.16318836805E+02  0.24695944149E+02  0.29600649717E+02  0.00000000000E+00 0.  1.
</event>
<event>
 5    1  0.8752570E-005  0.9118800E+02  0.7818608E-02  0.1130116E+00
         25   -1    0    0    0    0  0.00000000000E+00  0.00000000000E+00  0.99999998245E-14  0.12500000000E+03  0.12500000000E+03 0.  0.
        -11    1    3    3    0    0 -0.18423802187E+02  0.41429606600E+02  0.35872282660E+02  0.57815823557E+02  0.51100000000E-03 0.  1.
         23    2    1    0    0    0  0.80116056918E+01  0.23130300740E+02  0.18139992812E+02  0.94532706433E+02  0.89488416056E+02 0.  0.
         11    1    3    3    0    0  0.26435407878E+02 -0.18299305860E+02 -0.17732289848E+02  0.36716882876E+02  0.51100000000E-03 0. -1.
         22    1    1    0    0    0 -0.80116056918E+01 -0.23130300740E+02 -0.18139992812E+02  0.30467293567E+02  0.00000000000E+00 0.  1.
</event>
<event>
 5    1  0.8752570E-005  0.9118800E+02  0.7818608E-02  0.1130116E+00
         25   -1    0    0    0    0  0.00000000000E+00  0.00000000000E+00  0.99999998245E-14  0.12500000000E+03  0.12500000000E+03 0.  0.
        -11    1    3    3    0    0 -0.55269454344E+02 -0.74739675108E+01  0.16511271533E+02  0.58165237572E+02  0.51100000000E-03 0. -1.
         23    2    1    0    0    0 -0.18857709704E+02 -0.11401102981E+02  0.20370266194E+02  0.94990899559E+02  0.90126160963E+02 0.  0.
         11    1    3    3    0    0  0.36411744641E+02 -0.39271354699E+01  0.38589946605E+01  0.36825661988E+02  0.51100000000E-03 0.  1.
         22    1    1    0    0    0  0.18857709704E+02  0.11401102981E+02 -0.20370266194E+02  0.30009100441E+02  0.00000000000E+00 0. -1.
</event>
<event>
 5    1  0.8752570E-005  0.9118800E+02  0.7818608E-02  0.1130116E+00
         25   -1    0    0    0    0  0.00000000000E+00  0.00000000000E+00  0.99999998245E-14  0.12500000000E+03  0.12500000000E+03 0.  0.
        -11    1    3    3    0    0  0.17927080165E+02  0.18965549318E+02 -0.25716941385E+02  0.36639232233E+02  0.51100000000E-03 0. -1.
         23    2    1    0    0    0 -0.29472886119E+01  0.23272359148E+01  0.28066801806E+02  0.96683081015E+02  0.92443335367E+02 0.  0.
         11    1    3    3    0    0 -0.20874368777E+02 -0.16638313403E+02  0.53783743191E+02  0.60043848782E+02  0.51100000000E-03 0.  1.
         22    1    1    0    0    0  0.29472886119E+01 -0.23272359148E+01 -0.28066801806E+02  0.28316918985E+02  0.00000000000E+00 0.  1.
</event>
<event>
 5    1  0.8752570E-005  0.9118800E+02  0.7818608E-02  0.1130116E+00
         25   -1    0    0    0    0  0.00000000000E+00  0.00000000000E+00  0.99999998245E-14  0.12500000000E+03  0.12500000000E+03 0.  0.
        -11    1    3    3    0    0  0.34318785759E+01 -0.34558460010E+02  0.70713579696E+01  0.35441064496E+02  0.51100000000E-03 0.  1.
         23    2    1    0    0    0 -0.13745612712E+02  0.18436729964E+02 -0.17274235628E+02  0.96237974739E+02  0.91839499589E+02 0.  0.
         11    1    3    3    0    0 -0.17177491288E+02  0.52995189973E+02 -0.24345593597E+02  0.60796910243E+02  0.51100000000E-03 0. -1.
         22    1    1    0    0    0  0.13745612712E+02 -0.18436729964E+02  0.17274235628E+02  0.28762025261E+02  0.00000000000E+00 0. -1.
</event>
<event>
 5    1  0.8752570E-005  0.9118800E+02  0.7818608E-02  0.1130116E+00
         25   -1    0    0    0    0  0.00000000000E+00  0.00000000000E+00  0.99999998245E-14  0.12500000000E+03  0.12500000000E+03 0.  0.
        -11    1    3    3    0    0  0.34309297845E+02 -0.30588125501E+02 -0.44577796819E+01  0.46180441100E+02  0.51100000000E-03 0.  1.
         23    2    1    0    0    0  0.17780786974E+02  0.14362746493E+02 -0.17949103643E+02  0.95937735914E+02  0.91429940273E+02 0.  0.
         11    1    3    3    0    0 -0.16528510871E+02  0.44950871995E+02 -0.13491323961E+02  0.49757294813E+02  0.51100000000E-03 0. -1.
         22    1    1    0    0    0 -0.17780786974E+02 -0.14362746493E+02  0.17949103643E+02  0.29062264086E+02  0.00000000000E+00 0.  1.
</event>
<event>
 5    1  0.8752570E-005  0.9118800E+02  0.7818608E-02  0.1130116E+00
         25   -1    0    0    0    0  0.00000000000E+00  0.00000000000E+00  0.99999998245E-14  0.12500000000E+03  0.12500000000E+03 0.  0.
        -11    1    3    3    0    0  0.13703771812E+02 -0.19931651307E+02  0.44532141721E+02  0.50677171707E+02  0.51100000000E-03 0.  1.
         23    2    1    0    0    0 -0.45703506899E+01  0.15959967971E+02  0.23816645743E+02  0.95968270849E+02  0.91471677104E+02 0.  0.
         11    1    3    3    0    0 -0.18274122502E+02  0.35891619278E+02 -0.20715495978E+02  0.45291099142E+02  0.51100000000E-03 0. -1.
         22    1    1    0    0    0  0.45703506899E+01 -0.15959967971E+02 -0.23816645743E+02  0.29031729151E+02  0.00000000000E+00 0. -1.
</event>
<event>
 5    1  0.8752570E-005  0.9118800E+02  0.7818608E-02  0.1130116E+00
         25   -1    0    0    0    0  0.00000000000E+00  0.00000000000E+00  0.99999998245E-14  0.12500000000E+03  0.12500000000E+03 0.  0.
        -11    1    3    3    0    0  0.15354472544E+02  0.27496446393E+02  0.43871262620E+02  0.54004648647E+02  0.51100000000E-03 0.  1.
         23    2    1    0    0    0  0.21140960066E+02 -0.58747736090E+01  0.17790331852E+02  0.96752007773E+02  0.92536489793E+02 0.  0.
         11    1    3    3    0    0  0.57864875215E+01 -0.33371220002E+02 -0.26080930767E+02  0.42747359126E+02  0.51100000000E-03 0. -1.
         22    1    1    0    0    0 -0.21140960066E+02  0.58747736090E+01 -0.17790331852E+02  0.28247992227E+02  0.00000000000E+00 0.  1.
</event>
<event>
 5    1  0.8752570E-005  0.9118800E+02  0.7818608E-02  0.1130116E+00
         25   -1    0    0    0    0  0.00000000000E+00  0.00000000000E+00  0.99999998245E-14  0.12500000000E+03  0.12500000000E+03 0.  0.
        -11    1    3    3    0    0 -0.43017101619E+02 -0.53522910808E+01 -0.16616802244E+02  0.46424521199E+02  0.51100000000E-03 0.  1.
         23    2    1    0    0    0 -0.13322098304E+00 -0.28036418559E+02 -0.30612468032E+01  0.96796635920E+02  0.92596754694E+02 0.  0.
         11    1    3    3    0    0  0.42883880636E+02 -0.22684127478E+02  0.13555555440E+02  0.50372114720E+02  0.51100000000E-03 0. -1.
         22    1    1    0    0    0  0.13322098304E+00  0.28036418559E+02  0.30612468032E+01  0.28203364080E+02  0.00000000000E+00 0.  1.
</event>
<event>
 5    1  0.8752570E-005  0.9118800E+02  0.7818608E-02  0.1130116E+00
         25   -1    0    0    0    0  0.00000000000E+00  0.00000000000E+00  0.99999998245E-14  0.12500000000E+03  0.12500000000E+03 0.  0.
        -11    1    3    3    0    0 -0.52088438316E+02  0.12654521229E+02 -0.31579051353E+01  0.53696505276E+02  0.51100000000E-03 0.  1.
         23    2    1    0    0    0 -0.14040903951E+02 -0.49174440209E+01 -0.21015365811E+02  0.99251721618E+02  0.95853692702E+02 0.  0.
         11    1    3    3    0    0  0.38047534365E+02 -0.17571965249E+02 -0.17857460675E+02  0.45555216342E+02  0.51100000000E-03 0. -1.
         22    1    1    0    0    0  0.14040903951E+02  0.49174440209E+01  0.21015365811E+02  0.25748278382E+02  0.00000000000E+00 0.  1.
</event>
<event>
 5    1  0.8752570E-005  0.9118800E+02  0.7818608E-02  0.1130116E+00
         25   -1    0    0    0    0  0.00000000000E+00  0.00000000000E+00  0.99999998245E-14  0.12500000000E+03  0.12500000000E+03 0.  0.
        -11    1    3    3    0    0  0.46246381574E+01 -0.27469736355E+02  0.28222333547E+02  0.39654429823E+02  0.51100000000E-03 0.  1.
         23    2    1    0    0    0 -0.27727026820E+02  0.56994173447E+01 -0.44450074462E+01  0.96346388263E+02  0.91986939648E+02 0.  0.
         11    1    3    3    0    0 -0.32351664978E+02  0.33169153699E+02 -0.32667340993E+02  0.56691958440E+02  0.51100000000E-03 0. -1.
         22    1    1    0    0    0  0.27727026820E+02 -0.56994173447E+01  0.44450074462E+01  0.28653611737E+02  0.00000000000E+00 0. -1.
</event>
<event>
 5    1  0.8752570E-005  0.9118800E+02  0.7818608E-02  0.1130116E+00
         25   -1    0    0    0    0  0.00000000000E+00  0.00000000000E+00  0.99999998245E-14  0.12500000000E+03  0.12500000000E+03 0.  0.
        -11    1    3    3    0    0  0.35516628404E+02 -0.53772873082E+01 -0.32318377938E+02  0.48320013087E+02  0.51100000000E-03 0.  1.
         23    2    1    0    0    0  0.27940274416E+02 -0.21444031558E+02  0.47842682530E+01  0.89455736797E+02  0.82091011684E+02 0.  0.
         11    1    3    3    0    0 -0.75763539872E+01 -0.16066744250E+02  0.37102646191E+02  0.41135723710E+02  0.51100000000E-03 0. -1.
         22    1    1    0    0    0 -0.27940274416E+02  0.21444031558E+02 -0.47842682530E+01  0.35544263203E+02  0.00000000000E+00 0.  1.
</event>
<event>
 5    1  0.8752570E-005  0.9118800E+02  0.7818608E-02  0.1130116E+00
         25   -1    0    0    0    0  0.00000000000E+00  0.00000000000E+00  0.99999998245E-14  0.12500000000E+03  0.12500000000E+03 0.  0.
        -11    1    3    3    0    0 -0.33531358761E+02  0.51126698808E+02  0.23090631600E+01  0.61185154444E+02  0.51100000000E-03 0.  1.
         23    2    1    0    0    0 -0.10389836305E+02  0.30830456122E+02  0.50018604019E+01  0.92083676836E+02  0.85999530284E+02 0.  0.
         11    1    3    3    0    0  0.23141522456E+02 -0.20296242687E+02  0.26927972419E+01  0.30898522392E+02  0.51100000000E-03 0. -1.
         22    1    1    0    0    0  0.10389836305E+02 -0.30830456122E+02 -0.50018604019E+01  0.32916323164E+02  0.00000000000E+00 0.  1.
</event>
<event>
 5    1  0.8752570E-005  0.9118800E+02  0.7818608E-02  0.1130116E+00
         25   -1    0    0    0    0  0.00000000000E+00  0.00000000000E+00  0.99999998245E-14  0.12500000000E+03  0.12500000000E+03 0.  0.
        -11    1    3    3    0    0  0.83793164261E+01 -0.48939434960E+02  0.27610220497E+02  0.56812019099E+02  0.51100000000E-03 0.  1.
         23    2    1    0    0    0  0.42557041043E+01 -0.97865269392E+01  0.26759874065E+02  0.96190661463E+02  0.91775080310E+02 0.  0.
         11    1    3    3    0    0 -0.41236123218E+01  0.39152908021E+02 -0.85034643181E+00  0.39378642364E+02  0.51100000000E-03 0. -1.
         22    1    1    0    0    0 -0.42557041043E+01  0.97865269392E+01 -0.26759874065E+02  0.28809338537E+02  0.00000000000E+00 0.  1.
</event>
<event>
 5    1  0.8752570E-005  0.9118800E+02  0.7818608E-02  0.1130116E+00
         25   -1    0    0    0    0  0.00000000000E+00  0.00000000000E+00  0.99999998245E-14  0.12500000000E+03  0.12500000000E+03 0.  0.
        -11    1    3    3    0    0  0.13174822296E+02  0.29752825921E+02 -0.19720016825E+02  0.38048464577E+02  0.51100000000E-03 0. -1.
         23    2    1    0    0    0 -0.21376647616E+02  0.15479854050E+02  0.19465050129E+02  0.92205562648E+02  0.86176508760E+02 0.  0.
         11    1    3    3    0    0 -0.34551469912E+02 -0.14272971871E+02  0.39185066954E+02  0.54157098071E+02  0.51100000000E-03 0.  1.
         22    1    1    0    0    0  0.21376647616E+02 -0.15479854050E+02 -0.19465050129E+02  0.32794437352E+02  0.00000000000E+00 0.  1.
</event>
<event>
 5    1  0.8752570E-005  0.9118800E+02  0.7818608E-02  0.1130116E+00
         25   -1    0    0    0    0  0.00000000000E+00  0.00000000000E+00  0.99999998245E-14  0.12500000000E+03  0.12500000000E+03 0.  0.
        -11    1    3    3    0    0 -0.12472271976E+02 -0.23058412356E+02  0.21366573305E+02  0.33819793076E+02  0.51100000000E-03 0.  1.
         23    2    1    0    0    0  0.77658580752E+01  0.11282291914E+02 -0.25931069494E+02  0.95673918987E+02  0.91068544222E+02 0.  0.
         11    1    3    3    0    0  0.20238130051E+02  0.34340704270E+02 -0.47297642799E+02  0.61854125912E+02  0.51100000000E-03 0. -1.
         22    1    1    0    0    0 -0.77658580752E+01 -0.11282291914E+02  0.25931069494E+02  0.29326081013E+02  0.00000000000E+00 0. -1.
</event>
<event>
 5    1  0.8752570E-005  0.9118800E+02  0.7818608E-02  0.1130116E+00
         25   -1    0    0    0    0  0.00000000000E+00  0.00000000000E+00  0.99999998245E-14  0.12500000000E+03  0.12500000000E+03 0.  0.
        -11    1    3    3    0    0 -0.46896702605E+01 -0.41630442813E+02  0.10786772197E+01  0.41907640362E+02  0.51100000000E-03 0. -1.
         23    2    1    0    0    0  0.20426613132E+02 -0.56032733457E-01  0.22163784345E+02  0.94858948256E+02  0.89942965617E+02 0.  0.
         11    1    3    3    0    0  0.25116283393E+02  0.41574410079E+02  0.21085107126E+02  0.52951307894E+02  0.51100000000E-03 0.  1.
         22    1    1    0    0    0 -0.20426613132E+02  0.56032733457E-01 -0.22163784345E+02  0.30141051744E+02  0.00000000000E+00 0. -1.
</event>
<event>
 5    1  0.8752570E-005  0.9118800E+02  0.7818608E-02  0.1130116E+00
         25   -1    0    0    0    0  0.00000000000E+00  0.00000000000E+00  0.99999998245E-14  0.12500000000E+03  0.12500000000E+03 0.  0.
        -11    1    3    3    0    0 -0.45311096572E+02 -0.98627932456E+01  0.21628504824E+02  0.51167982023E+02  0.51100000000E-03 0. -1.
         23    2    1    0    0    0 -0.97879235868E+01  0.18103116204E+02  0.19840462670E+02  0.96413810618E+02  0.92078513533E+02 0.  0.
         11    1    3    3    0    0  0.35523172985E+02  0.27965909449E+02 -0.17880421533E+01  0.45245828595E+02  0.51100000000E-03 0.  1.
         22    1    1    0    0    0  0.97879235868E+01 -0.18103116204E+02 -0.19840462670E+02  0.28586189382E+02  0.00000000000E+00 0. -1.
</event>
<event>
 5    1  0.8752570E-005  0.9118800E+02  0.7818608E-02  0.1130116E+00
         25   -1    0    0    0    0  0.00000000000E+00  0.00000000000E+00  0.99999998245E-14  0.12500000000E+03  0.12500000000E+03 0.  0.
        -11    1    3    3    0    0 -0.83618930140E+01 -0.23792621312E+02 -0.24186786353E+02  0.34942963784E+02  0.51100000000E-03 0.  1.
         23    2    1    0    0    0  0.23294908271E+02  0.62864256371E+01  0.17405466796E+02  0.95248997109E+02  0.90483419902E+02 0.  0.
         11    1    3    3    0    0  0.31656801285E+02  0.30079046950E+02  0.41592253149E+02  0.60306033324E+02  0.51100000000E-03 0. -1.
         22    1    1    0    0    0 -0.23294908271E+02 -0.62864256371E+01 -0.17405466796E+02  0.29751002891E+02  0.00000000000E+00 0. -1.
</event>
<event>
 5    1  0.8752570E-005  0.9118800E+02  0.7818608E-02  0.1130116E+00
         25   -1    0    0    0    0  0.00000000000E+00  0.00000000000E+00  0.99999998245E-14  0.12500000000E+03  0.12500000000E+03 0.  0.
        -11    1    3    3    0    0  0.16483413377E+02  0.35848020891E+02 -0.15494099563E+02  0.42389275058E+02  0.51100000000E-03 0.  1.
         23    2    1    0    0    0  0.25138932727E+02 -0.13824188606E+02  0.31318430405E+01  0.96140295045E+02  0.91706454305E+02 0.  0.
         11    1    3    3    0    0  0.86555193501E+01 -0.49672209497E+02  0.18625942603E+02  0.53751019987E+02  0.51100000000E-03 0. -1.
         22    1    1    0    0    0 -0.25138932727E+02  0.13824188606E+02 -0.31318430405E+01  0.28859704955E+02  0.00000000000E+00 0. -1.
</event>
<event>
 5    1  0.8752570E-005  0.9118800E+02  0.7818608E-02  0.1130116E+00
         25   -1    0    0    0    0  0.00000000000E+00  0.00000000000E+00  0.99999998245E-14  0.12500000000E+03  0.12500000000E+03 0.  0.
        -11    1    3    3    0    0  0.48163194823E+02  0.22170684857E+01  0.25298275569E+02  0.54448245842E+02  0.51100000000E-03 0. -1.
         23    2    1    0    0    0  0.12077152192E+02  0.21059434114E+02  0.15082307789E+02  0.96419702967E+02  0.92086512268E+02 0.  0.
         11    1    3    3    0    0 -0.36086042631E+02  0.18842365628E+02 -0.10215967780E+02  0.41971457125E+02  0.51100000000E-03 0.  1.
         22    1    1    0    0    0 -0.12077152192E+02 -0.21059434114E+02 -0.15082307789E+02  0.28580297033E+02  0.00000000000E+00 0. -1.
</event>
<event>
 5    1  0.8752570E-005  0.9118800E+02  0.7818608E-02  0.1130116E+00
         25   -1    0    0    0    0  0.00000000000E+00  0.00000000000E+00  0.99999998245E-14  0.12500000000E+03  0.12500000000E+03 0.  0.
        -11    1    3    3    0    0  0.17286610271E+02  0.37564973388E+02  0.74771207767E+01  0.42022154343E+02  0.51100000000E-03 0. -1.
         23    2    1    0    0    0 -0.27518303333E+02  0.71432108568E+01  0.11619903181E+01  0.96545954573E+02  0.92257729450E+02 0.  0.
         11    1    3    3    0    0 -0.44804913604E+02 -0.30421762531E+02 -0.63151304586E+01  0.54523800230E+02  0.51100000000E-03 0.  1.
         22    1    1    0    0    0  0.27518303333E+02 -0.71432108568E+01 -0.11619903181E+01  0.28454045427E+02  0.00000000000E+00 0.  1.
</event>
<event>
 5    1  0.8752570E-005  0.9118800E+02  0.7818608E-02  0.1130116E+00
         25   -1    0    0    0    0  0.00000000000E+00  0.00000000000E+00  0.99999998245E-14  0.12500000000E+03  0.12500000000E+03 0.  0.
        -11    1    3    3    0    0 -0.45486384056E+02 -0.20651429504E+02  0.21041206202E+02  0.54205396721E+02  0.51100000000E-03 0.  1.
         23    2    1    0    0    0 -0.28148739157E+02  0.10118421229E+02  0.45684612153E+00  0.95084407533E+02  0.90255758172E+02 0.  0.
         11    1    3    3    0    0  0.17337644899E+02  0.30769850733E+02 -0.20584360080E+02  0.40879010812E+02  0.51100000000E-03 0. -1.
         22    1    1    0    0    0  0.28148739157E+02 -0.10118421229E+02 -0.45684612153E+00  0.29915592467E+02  0.00000000000E+00 0.  1.
</event>
<event>
 5    1  0.8752570E-005  0.9118800E+02  0.7818608E-02  0.1130116E+00
         25   -1    0    0    0    0  0.00000000000E+00  0.00000000000E+00  0.99999998245E-14  0.12500000000E+03  0.12500000000E+03 0.  0.
        -11    1    3    3    0    0 -0.70568257445E+01 -0.26169292656E+01 -0.37580689510E+02  0.38326953084E+02  0.51100000000E-03 0.  1.
         23    2    1    0    0    0 -0.22925324979E+02 -0.81041692150E+01  0.16934005943E+02  0.95368789404E+02  0.90648758133E+02 0.  0.
         11    1    3    3    0    0 -0.15868499235E+02 -0.54872399495E+01  0.54514695453E+02  0.57041836321E+02  0.51100000000E-03 0. -1.
         22    1    1    0    0    0  0.22925324979E+02  0.81041692150E+01 -0.16934005943E+02  0.29631210596E+02  0.00000000000E+00 0. -1.
</event>
<event>
 5    1  0.8752570E-005  0.9118800E+02  0.7818608E-02  0.1130116E+00
         25   -1    0    0    0    0  0.00000000000E+00  0.00000000000E+00  0.99999998245E-14  0.12500000000E+03  0.12500000000E+03 0.  0.
        -11    1    3    3    0    0  0.17468162550E+02 -0.46210854828E+02  0.30679551690E+02  0.58153372207E+02  0.51100000000E-03 0.  1.
         23    2    1    0    0    0  0.53114009211E+01 -0.10932861227E+02  0.26680956726E+02  0.95680861435E+02  0.91078072876E+02 0.  0.
         11    1    3    3    0    0 -0.12156761629E+02  0.35277993601E+02 -0.39985949639E+01  0.37527489228E+02  0.51100000000E-03 0. -1.
         22    1    1    0    0    0 -0.53114009211E+01  0.10932861227E+02 -0.26680956726E+02  0.29319138565E+02  0.00000000000E+00 0.  1.
</event>
<event>
 5    1  0.8752570E-005  0.9118800E+02  0.7818608E-02  0.1130116E+00
         25   -1    0    0    0    0  0.00000000000E+00  0.00000000000E+00  0.99999998245E-14  0.12500000000E+03  0.12500000000E+03 0.  0.
        -11    1    3    3    0    0 -0.20829369115E+02  0.18397123430E+02 -0.55874452106E+02  0.62404095752E+02  0.51100000000E-03 0.  1.
         23    2    1    0    0    0 -0.90430359045E+01  0.10294213464E+02 -0.23504068082E+02  0.97793593666E+02  0.93932946384E+02 0.  0.
         11    1    3    3    0    0  0.11786333211E+02 -0.81029099660E+01  0.32370384024E+02  0.35389497914E+02  0.51100000000E-03 0. -1.
         22    1    1    0    0    0  0.90430359045E+01 -0.10294213464E+02  0.23504068082E+02  0.27206406334E+02  0.00000000000E+00 0.  1.
</event>
<event>
 5    1  0.8752570E-005  0.9118800E+02  0.7818608E-02  0.1130116E+00
         25   -1    0    0    0    0  0.00000000000E+00  0.00000000000E+00  0.99999998245E-14  0.12500000000E+03  0.12500000000E+03 0.  0.
        -11    1    3    3    0    0  0.16352030162E+02  0.22033964534E+02  0.54155413248E+02  0.60709910788E+02  0.51100000000E-03 0.  1.
         23    2    1    0    0    0 -0.31468903792E+01  0.94859322581E+01  0.25754801485E+02  0.97374004463E+02  0.93372914252E+02 0.  0.
         11    1    3    3    0    0 -0.19498920541E+02 -0.12548032276E+02 -0.28400611763E+02  0.36664093676E+02  0.51100000000E-03 0. -1.
         22    1    1    0    0    0  0.31468903792E+01 -0.94859322581E+01 -0.25754801485E+02  0.27625995537E+02  0.00000000000E+00 0.  1.
</event>
<event>
 5    1  0.8752570E-005  0.9118800E+02  0.7818608E-02  0.1130116E+00
         25   -1    0    0    0    0  0.00000000000E+00  0.00000000000E+00  0.99999998245E-14  0.12500000000E+03  0.12500000000E+03 0.  0.
        -11    1    3    3    0    0 -0.26802569578E+02  0.29265206972E+02 -0.19918733019E+01  0.39734086558E+02  0.51100000000E-03 0.  1.
         23    2    1    0    0    0 -0.83558264026E+01 -0.21293732176E+02 -0.18010106692E+02  0.95886312362E+02  0.91359608637E+02 0.  0.
         11    1    3    3    0    0  0.18446743176E+02 -0.50558939147E+02 -0.16018233391E+02  0.56152225804E+02  0.51100000000E-03 0. -1.
         22    1    1    0    0    0  0.83558264026E+01  0.21293732176E+02  0.18010106692E+02  0.29113687638E+02  0.00000000000E+00 0. -1.
</event>
<event>
 5    1  0.8752570E-005  0.9118800E+02  0.7818608E-02  0.1130116E+00
         25   -1    0    0    0    0  0.00000000000E+00  0.00000000000E+00  0.99999998245E-14  0.12500000000E+03  0.12500000000E+03 0.  0.
        -11    1    3    3    0    0 -0.21247985784E+02  0.30008660631E+02 -0.11032023556E+02  0.38388828541E+02  0.51100000000E-03 0. -1.
         23    2    1    0    0    0  0.35568220335E+01 -0.86990941661E+01  0.25956210413E+02  0.97394745404E+02  0.93400676395E+02 0.  0.
         11    1    3    3    0    0  0.24804807818E+02 -0.38707754798E+02  0.36988233970E+02  0.59005916863E+02  0.51100000000E-03 0.  1.
         22    1    1    0    0    0 -0.35568220335E+01  0.86990941661E+01 -0.25956210413E+02  0.27605254596E+02  0.00000000000E+00 0.  1.
</event>
<event>
 5    1  0.8752570E-005  0.9118800E+02  0.7818608E-02  0.1130116E+00
         25   -1    0    0    0    0  0.00000000000E+00  0.00000000000E+00  0.99999998245E-14  0.12500000000E+03  0.12500000000E+03 0.  0.
        -11    1    3    3    0    0  0.34469444468E+02 -0.85167568704E+01 -0.46429275008E+02  0.58449596470E+02  0.51100000000E-03 0.  1.
         23    2    1    0    0    0  0.25525639670E+02  0.47534121961E+01 -0.12040259029E+02  0.96379709199E+02  0.92032207948E+02 0.  0.
         11    1    3    3    0    0 -0.89438047984E+01  0.13270169066E+02  0.34389015979E+02  0.37930112729E+02  0.51100000000E-03 0. -1.
         22    1    1    0    0    0 -0.25525639670E+02 -0.47534121961E+01  0.12040259029E+02  0.28620290801E+02  0.00000000000E+00 0.  1.
</event>
<event>
 5    1  0.8752570E-005  0.9118800E+02  0.7818608E-02  0.1130116E+00
         25   -1    0    0    0    0  0.00000000000E+00  0.00000000000E+00  0.99999998245E-14  0.12500000000E+03  0.12500000000E+03 0.  0.
        -11    1    3    3    0    0  0.11452534245E+02 -0.44289409406E+02  0.16846474082E+02  0.48749523232E+02  0.51100000000E-03 0. -1.
         23    2    1    0    0    0  0.25015435614E+02 -0.11769814829E+02 -0.12552024200E+02  0.94637953435E+02  0.89635307545E+02 0.  0.
         11    1    3    3    0    0  0.13562901370E+02  0.32519594576E+02 -0.29398498282E+02  0.45888430203E+02  0.51100000000E-03 0.  1.
         22    1    1    0    0    0 -0.25015435614E+02  0.11769814829E+02  0.12552024200E+02  0.30362046565E+02  0.00000000000E+00 0. -1.
</event>
<event>
 5    1  0.8752570E-005  0.9118800E+02  0.7818608E-02  0.1130116E+00
         25   -1    0    0    0    0  0.00000000000E+00  0.00000000000E+00  0.99999998245E-14  0.12500000000E+03  0.12500000000E+03 0.  0.
        -11    1    3    3    0    0 -0.25537443361E+02 -0.21086357151E+02 -0.80042426743E+01  0.34071445117E+02  0.51100000000E-03 0. -1.
         23    2    1    0    0    0  0.13749792723E+02  0.18197658758E+02  0.18504163153E+02  0.95629680999E+02  0.91007803236E+02 0.  0.
         11    1    3    3    0    0  0.39287236084E+02  0.39284015910E+02  0.26508405828E+02  0.61558235882E+02  0.51100000000E-03 0.  1.
         22    1    1    0    0    0 -0.13749792723E+02 -0.18197658758E+02 -0.18504163153E+02  0.29370319001E+02  0.00000000000E+00 0.  1.
</event>
<event>
 5    1  0.8752570E-005  0.9118800E+02  0.7818608E-02  0.1130116E+00
         25   -1    0    0    0    0  0.00000000000E+00  0.00000000000E+00  0.99999998245E-14  0.12500000000E+03  0.12500000000E+03 0.  0.
        -11    1    3    3    0    0 -0.46120365738E+01  0.26772748709E+02  0.24689617339E+02  0.36710055290E+02  0.51100000000E-03 0.  1.
         23    2    1    0    0    0 -0.43416331446E+01  0.41356764277E+01 -0.29215229459E+02  0.95175794558E+02  0.90382236305E+02 0.  0.
         11    1    3    3    0    0  0.27040342915E+00 -0.22637072281E+02 -0.53904846799E+02  0.58465739268E+02  0.51100000000E-03 0. -1.
         22    1    1    0    0    0  0.43416331446E+01 -0.41356764277E+01  0.29215229459E+02  0.29824205442E+02  0.00000000000E+00 0. -1.
</event>
<event>
 5    1  0.8752570E-005  0.9118800E+02  0.7818608E-02  0.1130116E+00
         25   -1    0    0    0    0  0.00000000000E+00  0.00000000000E+00  0.99999998245E-14  0.12500000000E+03  0.12500000000E+03 0.  0.
        -11    1    3    3    0    0  0.78644735816E+01 -0.13170236916E+02 -0.57550891399E+02  0.59560139240E+02  0.51100000000E-03 0.  1.
         23    2    1    0    0    0 -0.33153890068E+01 -0.17174068609E+02 -0.22934583906E+02  0.96156706572E+02  0.91728821223E+02 0.  0.
         11    1    3    3    0    0 -0.11179862588E+02 -0.40038316935E+01  0.34616307494E+02  0.36596567332E+02  0.51100000000E-03 0. -1.
         22    1    1    0    0    0  0.33153890068E+01  0.17174068609E+02  0.22934583906E+02  0.28843293428E+02  0.00000000000E+00 0.  1.
</event>
<event>
 5    1  0.8752570E-005  0.9118800E+02  0.7818608E-02  0.1130116E+00
         25   -1    0    0    0    0  0.00000000000E+00  0.00000000000E+00  0.99999998245E-14  0.12500000000E+03  0.12500000000E+03 0.  0.
        -11    1    3    3    0    0 -0.10810556384E+02  0.33874357521E+01 -0.47265311718E+02  0.48604038334E+02  0.51100000000E-03 0.  1.
         23    2    1    0    0    0  0.18903492678E+02 -0.15009794270E+02 -0.12841935630E+02  0.97658616162E+02  0.93753154829E+02 0.  0.
         11    1    3    3    0    0  0.29714049063E+02 -0.18397230022E+02  0.34423376089E+02  0.49054577827E+02  0.51100000000E-03 0. -1.
         22    1    1    0    0    0 -0.18903492678E+02  0.15009794270E+02  0.12841935630E+02  0.27341383838E+02  0.00000000000E+00 0. -1.
</event>
<event>
 5    1  0.8752570E-005  0.9118800E+02  0.7818608E-02  0.1130116E+00
         25   -1    0    0    0    0  0.00000000000E+00  0.00000000000E+00  0.99999998245E-14  0.12500000000E+03  0.12500000000E+03 0.  0.
        -11    1    3    3    0    0  0.37374883648E+02  0.16203730342E+02 -0.22277096234E+02  0.46429643780E+02  0.51100000000E-03 0.  1.
         23    2    1    0    0    0 -0.85244340745E+01 -0.20283890789E+01 -0.27542385005E+02  0.96097347694E+02  0.91647896449E+02 0.  0.
         11    1    3    3    0    0 -0.45899317722E+02 -0.18232119421E+02 -0.52652887711E+01  0.49667703914E+02  0.51100000000E-03 0. -1.
         22    1    1    0    0    0  0.85244340745E+01  0.20283890789E+01  0.27542385005E+02  0.28902652306E+02  0.00000000000E+00 0. -1.
</event>
<event>
 5    1  0.8752570E-005  0.9118800E+02  0.7818608E-02  0.1130116E+00
         25   -1    0    0    0    0  0.00000000000E+00  0.00000000000E+00  0.99999998245E-14  0.12500000000E+03  0.12500000000E+03 0.  0.
        -11    1    3    3    0    0 -0.56811946152E+02  0.22614036620E+02 -0.10704704059E+02  0.62077230665E+02  0.51100000000E-03 0.  1.
         23    2    1    0    0    0 -0.32605223834E+02  0.14731788025E+02 -0.11102745688E+02  0.87538057158E+02  0.79117092272E+02 0.  0.
         11    1    3    3    0    0  0.24206722318E+02 -0.78822485958E+01 -0.39804162839E+00  0.25460826493E+02  0.51100000000E-03 0. -1.
         22    1    1    0    0    0  0.32605223834E+02 -0.14731788025E+02  0.11102745688E+02  0.37461942842E+02  0.00000000000E+00 0.  1.
</event>
<event>
 5    1  0.8752570E-005  0.9118800E+02  0.7818608E-02  0.1130116E+00
         25   -1    0    0    0    0  0.00000000000E+00  0.00000000000E+00  0.99999998245E-14  0.12500000000E+03  0.12500000000E+03 0.  0.
        -11    1    3    3    0    0  0.14352897490E+02 -0.18010547594E+02 -0.28621078594E+02  0.36736244108E+02  0.51100000000E-03 0.  1.
         23    2    1    0    0    0  0.15022397951E+02  0.23296062791E+02  0.12109617483E+02  0.94750672448E+02  0.89792361100E+02 0.  0.
         11    1    3    3    0    0  0.66950046126E+00  0.41306610385E+02  0.40730696077E+02  0.58014428340E+02  0.51100000000E-03 0. -1.
         22    1    1    0    0    0 -0.15022397951E+02 -0.23296062791E+02 -0.12109617483E+02  0.30249327552E+02  0.00000000000E+00 0. -1.
</event>
<event>
 5    1  0.8752570E-005  0.9118800E+02  0.7818608E-02  0.1130116E+00
         25   -1    0    0    0    0  0.00000000000E+00  0.00000000000E+00  0.99999998245E-14  0.12500000000E+03  0.12500000000E+03 0.  0.
        -11    1    3    3    0    0  0.74635925330E+01 -0.22730172187E+02  0.25219729901E+02  0.34762058594E+02  0.51100000000E-03 0. -1.
         23    2    1    0    0    0  0.19723989877E+02  0.13700100579E+02 -0.19739907802E+02  0.93913145985E+02  0.88618770564E+02 0.  0.
         11    1    3    3    0    0  0.12260397344E+02  0.36430272766E+02 -0.44959637703E+02  0.59151087391E+02  0.51100000000E-03 0.  1.
         22    1    1    0    0    0 -0.19723989877E+02 -0.13700100579E+02  0.19739907802E+02  0.31086854015E+02  0.00000000000E+00 0.  1.
</event>
<event>
 5    1  0.8752570E-005  0.9118800E+02  0.7818608E-02  0.1130116E+00
         25   -1    0    0    0    0  0.00000000000E+00  0.00000000000E+00  0.99999998245E-14  0.12500000000E+03  0.12500000000E+03 0.  0.
        -11    1    3    3    0    0  0.53800813933E+02 -0.14967754503E+02  0.21741718480E+01  0.55886387235E+02  0.51100000000E-03 0. -1.
         23    2    1    0    0    0  0.21306431354E+02 -0.17779900723E+02 -0.15738320559E+02  0.93097278787E+02  0.87460389301E+02 0.  0.
         11    1    3    3    0    0 -0.32494382579E+02 -0.28121462200E+01 -0.17912492407E+02  0.37210891551E+02  0.51100000000E-03 0.  1.
         22    1    1    0    0    0 -0.21306431354E+02  0.17779900723E+02  0.15738320559E+02  0.31902721213E+02  0.00000000000E+00 0. -1.
</event>
<event>
 5    1  0.8752570E-005  0.9118800E+02  0.7818608E-02  0.1130116E+00
         25   -1    0    0    0    0  0.00000000000E+00  0.00000000000E+00  0.99999998245E-14  0.12500000000E+03  0.12500000000E+03 0.  0.
        -11    1    3    3    0    0  0.48804670020E+02  0.78783217710E+01  0.37285158460E+02  0.61920487816E+02  0.51100000000E-03 0.  1.
         23    2    1    0    0    0  0.18637394548E+02  0.62191296933E+01  0.20996208166E+02  0.96244638639E+02  0.91848569176E+02 0.  0.
         11    1    3    3    0    0 -0.30167275472E+02 -0.16591920777E+01 -0.16288950294E+02  0.34324150823E+02  0.51100000000E-03 0. -1.
         22    1    1    0    0    0 -0.18637394548E+02 -0.62191296933E+01 -0.20996208166E+02  0.28755361361E+02  0.00000000000E+00 0.  1.
</event>
<event>
 5    1  0.8752570E-005  0.9118800E+02  0.7818608E-02  0.1130116E+00
         25   -1    0    0    0    0  0.00000000000E+00  0.00000000000E+00  0.99999998245E-14  0.12500000000E+03  0.12500000000E+03 0.  0.
        -11    1    3    3    0    0 -0.27771809587E+02 -0.21335571223E+02 -0.30781388521E+02  0.46625892879E+02  0.51100000000E-03 0.  1.
         23    2    1    0    0    0 -0.26842498271E+02  0.39753206501E+01  0.11190545618E+02  0.95647807596E+02  0.91032696868E+02 0.  0.
         11    1    3    3    0    0  0.92931131697E+00  0.25310891873E+02  0.41971934139E+02  0.49021914718E+02  0.51100000000E-03 0. -1.
         22    1    1    0    0    0  0.26842498271E+02 -0.39753206501E+01 -0.11190545618E+02  0.29352192404E+02  0.00000000000E+00 0. -1.
</event>
<event>
 5    1  0.8752570E-005  0.9118800E+02  0.7818608E-02  0.1130116E+00
         25   -1    0    0    0    0  0.00000000000E+00  0.00000000000E+00  0.99999998245E-14  0.12500000000E+03  0.12500000000E+03 0.  0.
        -11    1    3    3    0    0 -0.46288610413E+02  0.83331830323E+01  0.92055603077E+01  0.47925147201E+02  0.51100000000E-03 0. -1.
         23    2    1    0    0    0 -0.17386631585E+02 -0.15259807360E+02 -0.19296277614E+02  0.94875209406E+02  0.89965562031E+02 0.  0.
         11    1    3    3    0    0  0.28901978828E+02 -0.23592990393E+02 -0.28501837922E+02  0.46950062205E+02  0.51100000000E-03 0.  1.
         22    1    1    0    0    0  0.17386631585E+02  0.15259807360E+02  0.19296277614E+02  0.30124790594E+02  0.00000000000E+00 0.  1.
</event>
<event>
 5    1  0.8752570E-005  0.9118800E+02  0.7818608E-02  0.1130116E+00
         25   -1    0    0    0    0  0.00000000000E+00  0.00000000000E+00  0.99999998245E-14  0.12500000000E+03  0.12500000000E+03 0.  0.
        -11    1    3    3    0    0 -0.15857354508E+02  0.30657374345E+02  0.34156200415E+02  0.48558998350E+02  0.51100000000E-03 0. -1.
         23    2    1    0    0    0 -0.29430414435E+02  0.33871657252E+01 -0.13540775044E+01  0.95344381454E+02  0.90615094567E+02 0.  0.
         11    1    3    3    0    0 -0.13573059927E+02 -0.27270208620E+02 -0.35510277920E+02  0.46785383104E+02  0.51100000000E-03 0.  1.
         22    1    1    0    0    0  0.29430414435E+02 -0.33871657252E+01  0.13540775044E+01  0.29655618546E+02  0.00000000000E+00 0.  1.
</event>
<event>
 5    1  0.8752570E-005  0.9118800E+02  0.7818608E-02  0.1130116E+00
         25   -1    0    0    0    0  0.00000000000E+00  0.00000000000E+00  0.99999998245E-14  0.12500000000E+03  0.12500000000E+03 0.  0.
        -11    1    3    3    0    0 -0.26387114169E+02 -0.16187269040E+02  0.27359539209E+02  0.41314063697E+02  0.51100000000E-03 0.  1.
         23    2    1    0    0    0  0.22692212912E+02 -0.18050686687E+02  0.39029887120E+01  0.95742571241E+02  0.91162727089E+02 0.  0.
         11    1    3    3    0    0  0.49079327081E+02 -0.18634176463E+01 -0.23456550497E+02  0.54428507544E+02  0.51100000000E-03 0. -1.
         22    1    1    0    0    0 -0.22692212912E+02  0.18050686687E+02 -0.39029887120E+01  0.29257428759E+02  0.00000000000E+00 0. -1.
</event>
<event>
 5    1  0.8752570E-005  0.9118800E+02  0.7818608E-02  0.1130116E+00
         25   -1    0    0    0    0  0.00000000000E+00  0.00000000000E+00  0.99999998245E-14  0.12500000000E+03  0.12500000000E+03 0.  0.
        -11    1    3    3    0    0  0.46334744146E+02 -0.12132306784E+02  0.27442572335E+02  0.55201414470E+02  0.51100000000E-03 0.  1.
         23    2    1    0    0    0  0.96562250436E+01  0.58582253885E+01  0.26642602891E+02  0.96062312193E+02  0.91600098517E+02 0.  0.
         11    1    3    3    0    0 -0.36678519102E+02  0.17990532172E+02 -0.79996944383E+00  0.40860897723E+02  0.51100000000E-03 0. -1.
         22    1    1    0    0    0 -0.96562250436E+01 -0.58582253885E+01 -0.26642602891E+02  0.28937687807E+02  0.00000000000E+00 0.  1.
</event>
<event>
 5    1  0.8752570E-005  0.9118800E+02  0.7818608E-02  0.1130116E+00
         25   -1    0    0    0    0  0.00000000000E+00  0.00000000000E+00  0.99999998245E-14  0.12500000000E+03  0.12500000000E+03 0.  0.
        -11    1    3    3    0    0 -0.34026215139E+02 -0.13357821878E+02  0.22222366915E+02  0.42779063963E+02  0.51100000000E-03 0. -1.
         23    2    1    0    0    0 -0.15141781789E+02  0.72048670387E+01 -0.23367666456E+02  0.96238367564E+02  0.91840034250E+02 0.  0.
         11    1    3    3    0    0  0.18884433350E+02  0.20562688917E+02 -0.45590033371E+02  0.53459303601E+02  0.51100000000E-03 0.  1.
         22    1    1    0    0    0  0.15141781789E+02 -0.72048670387E+01  0.23367666456E+02  0.28761632436E+02  0.00000000000E+00 0.  1.
</event>
<event>
 5    1  0.8752570E-005  0.9118800E+02  0.7818608E-02  0.1130116E+00
         25   -1    0    0    0    0  0.00000000000E+00  0.00000000000E+00  0.99999998245E-14  0.12500000000E+03  0.12500000000E+03 0.  0.
        -11    1    3    3    0    0  0.79050629744E+01  0.60800708677E+01 -0.39324304477E+02  0.40569178021E+02  0.51100000000E-03 0.  1.
         23    2    1    0    0    0 -0.10838535903E+01  0.26556418890E+02  0.11457737209E+02  0.96056989362E+02  0.91592834547E+02 0.  0.
         11    1    3    3    0    0 -0.89889165647E+01  0.20476348022E+02  0.50782041686E+02  0.55487811341E+02  0.51100000000E-03 0. -1.
         22    1    1    0    0    0  0.10838535903E+01 -0.26556418890E+02 -0.11457737209E+02  0.28943010638E+02  0.00000000000E+00 0. -1.
</event>
<event>
 5    1  0.8752570E-005  0.9118800E+02  0.7818608E-02  0.1130116E+00
         25   -1    0    0    0    0  0.00000000000E+00  0.00000000000E+00  0.99999998245E-14  0.12500000000E+03  0.12500000000E+03 0.  0.
        -11    1    3    3    0    0 -0.21739178734E+02 -0.67979613284E+01 -0.39913722869E+01  0.23124342656E+02  0.51100000000E-03 0.  1.
         23    2    1    0    0    0  0.27574784627E+02  0.20609960591E+02  0.20831269825E+02  0.84762194079E+02  0.74602603974E+02 0.  0.
         11    1    3    3    0    0  0.49313963362E+02  0.27407921919E+02  0.24822642112E+02  0.61637851423E+02  0.51100000000E-03 0. -1.
         22    1    1    0    0    0 -0.27574784627E+02 -0.20609960591E+02 -0.20831269825E+02  0.40237805921E+02  0.00000000000E+00 0. -1.
</event>
<event>
 5    1  0.8752570E-005  0.9118800E+02  0.7818608E-02  0.1130116E+00
         25   -1    0    0    0    0  0.00000000000E+00  0.00000000000E+00  0.99999998245E-14  0.12500000000E+03  0.12500000000E+03 0.  0.
        -11    1    3    3    0    0  0.19659039827E+02 -0.34266638919E+02  0.47427523961E+02  0.61725605862E+02  0.51100000000E-03 0.  1.
         23    2    1    0    0    0  0.15345041605E+02 -0.14170431762E+02  0.19311421455E+02  0.96553516267E+02  0.92267974220E+02 0.  0.
         11    1    3    3    0    0 -0.43139982214E+01  0.20096207156E+02 -0.28116102507E+02  0.34827910405E+02  0.51100000000E-03 0. -1.
         22    1    1    0    0    0 -0.15345041605E+02  0.14170431762E+02 -0.19311421455E+02  0.28446483733E+02  0.00000000000E+00 0.  1.
</event>
<event>
 5    1  0.8752570E-005  0.9118800E+02  0.7818608E-02  0.1130116E+00
         25   -1    0    0    0    0  0.00000000000E+00  0.00000000000E+00  0.99999998245E-14  0.12500000000E+03  0.12500000000E+03 0.  0.
        -11    1    3    3    0    0  0.24337705555E+02 -0.12010833179E+02 -0.24180889902E+02  0.36349683108E+02  0.51100000000E-03 0.  1.
         23    2    1    0    0    0 -0.23046880819E+02 -0.19170939224E+02  0.78747021860E+01  0.94004926831E+02  0.88748136363E+02 0.  0.
         11    1    3    3    0    0 -0.47384586374E+02 -0.71601060456E+01  0.32055592088E+02  0.57655243723E+02  0.51100000000E-03 0. -1.
         22    1    1    0    0    0  0.23046880819E+02  0.19170939224E+02 -0.78747021860E+01  0.30995073169E+02  0.00000000000E+00 0. -1.
</event>
<event>
 5    1  0.8752570E-005  0.9118800E+02  0.7818608E-02  0.1130116E+00
         25   -1    0    0    0    0  0.00000000000E+00  0.00000000000E+00  0.99999998245E-14  0.12500000000E+03  0.12500000000E+03 0.  0.
        -11    1    3    3    0    0  0.35200925156E+02  0.18675443777E+02  0.95436166076E+01  0.40975089388E+02  0.51100000000E-03 0.  1.
         23    2    1    0    0    0 -0.15217370943E+02  0.19862675873E+02 -0.13663382611E+02  0.96490663010E+02  0.92182784469E+02 0.  0.
         11    1    3    3    0    0 -0.50418296099E+02  0.11872320958E+01 -0.23206999218E+02  0.55515573622E+02  0.51100000000E-03 0. -1.
         22    1    1    0    0    0  0.15217370943E+02 -0.19862675873E+02  0.13663382611E+02  0.28509336990E+02  0.00000000000E+00 0. -1.
</event>
<event>
 5    1  0.8752570E-005  0.9118800E+02  0.7818608E-02  0.1130116E+00
         25   -1    0    0    0    0  0.00000000000E+00  0.00000000000E+00  0.99999998245E-14  0.12500000000E+03  0.12500000000E+03 0.  0.
        -11    1    3    3    0    0  0.17302462198E+02  0.39333411651E+02  0.37813178539E+00  0.42972496485E+02  0.51100000000E-03 0. -1.
         23    2    1    0    0    0  0.26406482789E+02 -0.12128462898E+02 -0.50180689393E+01  0.95511307906E+02  0.90845071283E+02 0.  0.
         11    1    3    3    0    0  0.91040205906E+01 -0.51461874549E+02 -0.53962007247E+01  0.52538811421E+02  0.51100000000E-03 0.  1.
         22    1    1    0    0    0 -0.26406482789E+02  0.12128462898E+02  0.50180689393E+01  0.29488692094E+02  0.00000000000E+00 0.  1.
</event>
<event>
 5    1  0.8752570E-005  0.9118800E+02  0.7818608E-02  0.1130116E+00
         25   -1    0    0    0    0  0.00000000000E+00  0.00000000000E+00  0.99999998245E-14  0.12500000000E+03  0.12500000000E+03 0.  0.
        -11    1    3    3    0    0 -0.61289658757E+01  0.53264621315E+02  0.16633173538E+02  0.56136855707E+02  0.51100000000E-03 0.  1.
         23    2    1    0    0    0  0.53628549547E+01  0.27486687467E+02 -0.10311396661E+02  0.95157025914E+02  0.90356275258E+02 0.  0.
         11    1    3    3    0    0  0.11491820830E+02 -0.25777933847E+02 -0.26944570200E+02  0.39020170207E+02  0.51100000000E-03 0. -1.
         22    1    1    0    0    0 -0.53628549547E+01 -0.27486687467E+02  0.10311396661E+02  0.29842974086E+02  0.00000000000E+00 0.  1.
</event>
<event>
 5    1  0.8752570E-005  0.9118800E+02  0.7818608E-02  0.1130116E+00
         25   -1    0    0    0    0  0.00000000000E+00  0.00000000000E+00  0.99999998245E-14  0.12500000000E+03  0.12500000000E+03 0.  0.
        -11    1    3    3    0    0  0.27110329466E+02 -0.18046253176E+02  0.11873710235E+02  0.34664422863E+02  0.51100000000E-03 0. -1.
         23    2    1    0    0    0 -0.15892423970E+02  0.54783484185E+01 -0.24206960404E+02  0.95528685590E+02  0.90868979291E+02 0.  0.
         11    1    3    3    0    0 -0.43002753436E+02  0.23524601594E+02 -0.36080670639E+02  0.60864262727E+02  0.51100000000E-03 0.  1.
         22    1    1    0    0    0  0.15892423970E+02 -0.54783484185E+01  0.24206960404E+02  0.29471314410E+02  0.00000000000E+00 0.  1.
</event>
<event>
 5    1  0.8752570E-005  0.9118800E+02  0.7818608E-02  0.1130116E+00
         25   -1    0    0    0    0  0.00000000000E+00  0.00000000000E+00  0.99999998245E-14  0.12500000000E+03  0.12500000000E+03 0.  0.
        -11    1    3    3    0    0  0.39823491153E+02 -0.24306601786E+02  0.13019075122E+02  0.48437770957E+02  0.51100000000E-03 0. -1.
         23    2    1    0    0    0  0.15990549893E+02 -0.32624847403E+01 -0.23201807795E+02  0.96633375641E+02  0.92376100320E+02 0.  0.
         11    1    3    3    0    0 -0.23832941260E+02  0.21044117046E+02 -0.36220882917E+02  0.48195604684E+02  0.51100000000E-03 0.  1.
         22    1    1    0    0    0 -0.15990549893E+02  0.32624847403E+01  0.23201807795E+02  0.28366624359E+02  0.00000000000E+00 0.  1.
</event>
<event>
 5    1  0.8752570E-005  0.9118800E+02  0.7818608E-02  0.1130116E+00
         25   -1    0    0    0    0  0.00000000000E+00  0.00000000000E+00  0.99999998245E-14  0.12500000000E+03  0.12500000000E+03 0.  0.
        -11    1    3    3    0    0 -0.60826303077E+02  0.10705039659E+02 -0.60790652496E+00  0.61764120416E+02  0.51100000000E-03 0.  1.
         23    2    1    0    0    0 -0.29129258311E+02  0.13137662413E+00  0.43613793739E+01  0.95545754472E+02  0.90892456331E+02 0.  0.
         11    1    3    3    0    0  0.31697044766E+02 -0.10573663035E+02  0.49692858989E+01  0.33781634056E+02  0.51100000000E-03 0. -1.
         22    1    1    0    0    0  0.29129258311E+02 -0.13137662413E+00 -0.43613793739E+01  0.29454245528E+02  0.00000000000E+00 0.  1.
</event>
<event>
 5    1  0.8752570E-005  0.9118800E+02  0.7818608E-02  0.1130116E+00
         25   -1    0    0    0    0  0.00000000000E+00  0.00000000000E+00  0.99999998245E-14  0.12500000000E+03  0.12500000000E+03 0.  0.
        -11    1    3    3    0    0  0.41231955550E+02 -0.34867486375E+01  0.30207936511E+02  0.51232323811E+02  0.51100000000E-03 0.  1.
         23    2    1    0    0    0  0.19569023625E+02 -0.20753021947E+02 -0.50092531146E+01  0.96039212332E+02  0.91568570389E+02 0.  0.
         11    1    3    3    0    0 -0.21662931925E+02 -0.17266273310E+02 -0.35217189626E+02  0.44806888522E+02  0.51100000000E-03 0. -1.
         22    1    1    0    0    0 -0.19569023625E+02  0.20753021947E+02  0.50092531146E+01  0.28960787668E+02  0.00000000000E+00 0.  1.
</event>
<event>
 5    1  0.8752570E-005  0.9118800E+02  0.7818608E-02  0.1130116E+00
         25   -1    0    0    0    0  0.00000000000E+00  0.00000000000E+00  0.99999998245E-14  0.12500000000E+03  0.12500000000E+03 0.  0.
        -11    1    3    3    0    0 -0.21541031827E+02 -0.23066534008E+02 -0.19916935287E+02  0.37319771634E+02  0.51100000000E-03 0.  1.
         23    2    1    0    0    0 -0.61687684339E+01  0.29724564418E+02 -0.57021913637E+01  0.94111192639E+02  0.88897683658E+02 0.  0.
         11    1    3    3    0    0  0.15372263393E+02  0.52791098425E+02  0.14214743923E+02  0.56791421006E+02  0.51100000000E-03 0. -1.
         22    1    1    0    0    0  0.61687684339E+01 -0.29724564418E+02  0.57021913637E+01  0.30888807361E+02  0.00000000000E+00 0. -1.
</event>
<event>
 5    1  0.8752570E-005  0.9118800E+02  0.7818608E-02  0.1130116E+00
         25   -1    0    0    0    0  0.00000000000E+00  0.00000000000E+00  0.99999998245E-14  0.12500000000E+03  0.12500000000E+03 0.  0.
        -11    1    3    3    0    0  0.84603436426E+01 -0.34162411517E+02 -0.11175756413E+02  0.36926214359E+02  0.51100000000E-03 0.  1.
         23    2    1    0    0    0 -0.27351984061E+02  0.87343665594E+01  0.65475492115E+01  0.95550202175E+02  0.90898572836E+02 0.  0.
         11    1    3    3    0    0 -0.35812327704E+02  0.42896778077E+02  0.17723305624E+02  0.58623987816E+02  0.51100000000E-03 0. -1.
         22    1    1    0    0    0  0.27351984061E+02 -0.87343665594E+01 -0.65475492115E+01  0.29449797825E+02  0.00000000000E+00 0. -1.
</event>
<event>
 5    1  0.8752570E-005  0.9118800E+02  0.7818608E-02  0.1130116E+00
         25   -1    0    0    0    0  0.00000000000E+00  0.00000000000E+00  0.99999998245E-14  0.12500000000E+03  0.12500000000E+03 0.  0.
        -11    1    3    3    0    0 -0.22802036985E+02 -0.12728434659E+02 -0.27532637488E+02  0.37947227394E+02  0.51100000000E-03 0.  1.
         23    2    1    0    0    0  0.14302900975E+02  0.24128046781E+02 -0.21610438357E+00  0.96950359737E+02  0.92804040506E+02 0.  0.
         11    1    3    3    0    0  0.37104937960E+02  0.36856481440E+02  0.27316533105E+02  0.59003132343E+02  0.51100000000E-03 0. -1.
         22    1    1    0    0    0 -0.14302900975E+02 -0.24128046781E+02  0.21610438357E+00  0.28049640263E+02  0.00000000000E+00 0. -1.
</event>
<event>
 5    1  0.8752570E-005  0.9118800E+02  0.7818608E-02  0.1130116E+00
         25   -1    0    0    0    0  0.00000000000E+00  0.00000000000E+00  0.99999998245E-14  0.12500000000E+03  0.12500000000E+03 0.  0.
        -11    1    3    3    0    0  0.12826566101E+01 -0.61699895086E+02  0.11770264932E+01  0.61724449396E+02  0.51100000000E-03 0. -1.
         23    2    1    0    0    0  0.14518201753E+01 -0.31501848750E+02 -0.63154185314E+01  0.92838551529E+02  0.87089826514E+02 0.  0.
         11    1    3    3    0    0  0.16916356517E+00  0.30198046336E+02 -0.74924450246E+01  0.31114102133E+02  0.51100000000E-03 0.  1.
         22    1    1    0    0    0 -0.14518201753E+01  0.31501848750E+02  0.63154185314E+01  0.32161448471E+02  0.00000000000E+00 0. -1.
</event>
<event>
 5    1  0.8752570E-005  0.9118800E+02  0.7818608E-02  0.1130116E+00
         25   -1    0    0    0    0  0.00000000000E+00  0.00000000000E+00  0.99999998245E-14  0.12500000000E+03  0.12500000000E+03 0.  0.
        -11    1    3    3    0    0 -0.31220500526E+02 -0.13724702790E+02  0.79518170369E+01  0.35018830852E+02  0.51100000000E-03 0. -1.
         23    2    1    0    0    0  0.14194144717E+02  0.25556559402E+02 -0.11129594834E+01  0.95745083293E+02  0.91166171485E+02 0.  0.
         11    1    3    3    0    0  0.45414645243E+02  0.39281262192E+02 -0.90647765202E+01  0.60726252441E+02  0.51100000000E-03 0.  1.
         22    1    1    0    0    0 -0.14194144717E+02 -0.25556559402E+02  0.11129594834E+01  0.29254916707E+02  0.00000000000E+00 0.  1.
</event>
<event>
 5    1  0.8752570E-005  0.9118800E+02  0.7818608E-02  0.1130116E+00
         25   -1    0    0    0    0  0.00000000000E+00  0.00000000000E+00  0.99999998245E-14  0.12500000000E+03  0.12500000000E+03 0.  0.
        -11    1    3    3    0    0  0.52199228450E+01 -0.48320157632E+02  0.27035423790E+02  0.55614740563E+02  0.51100000000E-03 0.  1.
         23    2    1    0    0    0  0.21718268292E+02 -0.21947581723E+02  0.50372721606E+01  0.93714961532E+02  0.88338781875E+02 0.  0.
         11    1    3    3    0    0  0.16498345447E+02  0.26372575909E+02 -0.21998151630E+02  0.38100220970E+02  0.51100000000E-03 0. -1.
         22    1    1    0    0    0 -0.21718268292E+02  0.21947581723E+02 -0.50372721606E+01  0.31285038468E+02  0.00000000000E+00 0.  1.
</event>
<event>
 5    1  0.8752570E-005  0.9118800E+02  0.7818608E-02  0.1130116E+00
         25   -1    0    0    0    0  0.00000000000E+00  0.00000000000E+00  0.99999998245E-14  0.12500000000E+03  0.12500000000E+03 0.  0.
        -11    1    3    3    0    0  0.41991132252E+02  0.15553246987E+02  0.30319884754E+02  0.54078221970E+02  0.51100000000E-03 0.  1.
         23    2    1    0    0    0  0.63410629681E+01  0.25955335981E+02  0.95668208970E+01  0.96620207761E+02  0.92358280302E+02 0.  0.
         11    1    3    3    0    0 -0.35650069284E+02  0.10402088994E+02 -0.20753063857E+02  0.42541985792E+02  0.51100000000E-03 0. -1.
         22    1    1    0    0    0 -0.63410629681E+01 -0.25955335981E+02 -0.95668208970E+01  0.28379792239E+02  0.00000000000E+00 0.  1.
</event>
<event>
 5    1  0.8752570E-005  0.9118800E+02  0.7818608E-02  0.1130116E+00
         25   -1    0    0    0    0  0.00000000000E+00  0.00000000000E+00  0.99999998245E-14  0.12500000000E+03  0.12500000000E+03 0.  0.
        -11    1    3    3    0    0  0.16246250883E+02 -0.16274009931E+02  0.25795912508E+02  0.34557389504E+02  0.51100000000E-03 0.  1.
         23    2    1    0    0    0  0.71197165127E+01  0.10186417257E+02 -0.27536672543E+02  0.94788714121E+02  0.89845303328E+02 0.  0.
         11    1    3    3    0    0 -0.91265343699E+01  0.26460427188E+02 -0.53332585051E+02  0.60231324616E+02  0.51100000000E-03 0. -1.
         22    1    1    0    0    0 -0.71197165127E+01 -0.10186417257E+02  0.27536672543E+02  0.30211285879E+02  0.00000000000E+00 0. -1.
</event>
<event>
 5    1  0.8752570E-005  0.9118800E+02  0.7818608E-02  0.1130116E+00
         25   -1    0    0    0    0  0.00000000000E+00  0.00000000000E+00  0.99999998245E-14  0.12500000000E+03  0.12500000000E+03 0.  0.
        -11    1    3    3    0    0 -0.14140968258E+02  0.59326420381E+02  0.81441078519E+01  0.61529810917E+02  0.51100000000E-03 0. -1.
         23    2    1    0    0    0 -0.82942174773E+01  0.27102085775E+02 -0.38278035370E+01  0.96399839566E+02  0.92059545358E+02 0.  0.
         11    1    3    3    0    0  0.58467507809E+01 -0.32224334606E+02 -0.11971911389E+02  0.34870028650E+02  0.51100000000E-03 0.  1.
         22    1    1    0    0    0  0.82942174773E+01 -0.27102085775E+02  0.38278035370E+01  0.28600160434E+02  0.00000000000E+00 0. -1.
</event>
<event>
 5    1  0.8752570E-005  0.9118800E+02  0.7818608E-02  0.1130116E+00
         25   -1    0    0    0    0  0.00000000000E+00  0.00000000000E+00  0.99999998245E-14  0.12500000000E+03  0.12500000000E+03 0.  0.
        -11    1    3    3    0    0  0.29568110026E+02  0.20251821595E+02 -0.49874166212E+02  0.61415322713E+02  0.51100000000E-03 0.  1.
         23    2    1    0    0    0  0.19266664999E+02  0.13668705399E+02 -0.18795270878E+02  0.94812252571E+02  0.89878045944E+02 0.  0.
         11    1    3    3    0    0 -0.10301445027E+02 -0.65831161958E+01  0.31078895334E+02  0.33396929858E+02  0.51100000000E-03 0. -1.
         22    1    1    0    0    0 -0.19266664999E+02 -0.13668705399E+02  0.18795270878E+02  0.30187747429E+02  0.00000000000E+00 0.  1.
</event>
<event>
 5    1  0.8752570E-005  0.9118800E+02  0.7818608E-02  0.1130116E+00
         25   -1    0    0    0    0  0.00000000000E+00  0.00000000000E+00  0.99999998245E-14  0.12500000000E+03  0.12500000000E+03 0.  0.
        -11    1    3    3    0    0  0.33002747689E+02 -0.41132666153E+02  0.18447541098E+02  0.55869395492E+02  0.51100000000E-03 0.  1.
         23    2    1    0    0    0  0.22210074805E+02 -0.25386242583E+02 -0.97203927525E+01  0.89896798285E+02  0.82759891078E+02 0.  0.
         11    1    3    3    0    0 -0.10792672884E+02  0.15746423569E+02 -0.28167933850E+02  0.34027402793E+02  0.51100000000E-03 0. -1.
         22    1    1    0    0    0 -0.22210074805E+02  0.25386242583E+02  0.97203927525E+01  0.35103201715E+02  0.00000000000E+00 0.  1.
</event>
<event>
 5    1  0.8752570E-005  0.9118800E+02  0.7818608E-02  0.1130116E+00
         25   -1    0    0    0    0  0.00000000000E+00  0.00000000000E+00  0.99999998245E-14  0.12500000000E+03  0.12500000000E+03 0.  0.
        -11    1    3    3    0    0  0.14927050824E+01 -0.14442530370E+02 -0.56537195652E+02  0.58371819780E+02  0.51100000000E-03 0. -1.
         23    2    1    0    0    0  0.15994580460E+02 -0.95932266039E+01 -0.21899097090E+02  0.96234968206E+02  0.91835407396E+02 0.  0.
         11    1    3    3    0    0  0.14501875377E+02  0.48493037666E+01  0.34638098562E+02  0.37863148426E+02  0.51100000000E-03 0.  1.
         22    1    1    0    0    0 -0.15994580460E+02  0.95932266039E+01  0.21899097090E+02  0.28765031794E+02  0.00000000000E+00 0. -1.
</event>
<event>
 5    1  0.8752570E-005  0.9118800E+02  0.7818608E-02  0.1130116E+00
         25   -1    0    0    0    0  0.00000000000E+00  0.00000000000E+00  0.99999998245E-14  0.12500000000E+03  0.12500000000E+03 0.  0.
        -11    1    3    3    0    0 -0.47963421167E+01 -0.16317791058E+02 -0.32954734211E+02  0.37084898677E+02  0.51100000000E-03 0.  1.
         23    2    1    0    0    0 -0.21174216402E+02 -0.88213220408E+01  0.20959345797E+02  0.93928190605E+02  0.88639989008E+02 0.  0.
         11    1    3    3    0    0 -0.16377874286E+02  0.74964690174E+01  0.53914080008E+02  0.56843291928E+02  0.51100000000E-03 0. -1.
         22    1    1    0    0    0  0.21174216402E+02  0.88213220408E+01 -0.20959345797E+02  0.31071809395E+02  0.00000000000E+00 0. -1.
</event>
<event>
 5    1  0.8752570E-005  0.9118800E+02  0.7818608E-02  0.1130116E+00
         25   -1    0    0    0    0  0.00000000000E+00  0.00000000000E+00  0.99999998245E-14  0.12500000000E+03  0.12500000000E+03 0.  0.
        -11    1    3    3    0    0 -0.17668217242E+02  0.28690421650E+02  0.37184887929E+02  0.50179897226E+02  0.51100000000E-03 0.  1.
         23    2    1    0    0    0 -0.28606112621E+02  0.12114347934E+02 -0.17478964493E+01  0.93885337103E+02  0.88579536440E+02 0.  0.
         11    1    3    3    0    0 -0.10937895379E+02 -0.16576073716E+02 -0.38932784379E+02  0.43705439878E+02  0.51100000000E-03 0. -1.
         22    1    1    0    0    0  0.28606112621E+02 -0.12114347934E+02  0.17478964493E+01  0.31114662897E+02  0.00000000000E+00 0.  1.
</event>
<event>
 5    1  0.8752570E-005  0.9118800E+02  0.7818608E-02  0.1130116E+00
         25   -1    0    0    0    0  0.00000000000E+00  0.00000000000E+00  0.99999998245E-14  0.12500000000E+03  0.12500000000E+03 0.  0.
        -11    1    3    3    0    0 -0.46505956928E+01 -0.38871407671E+02  0.11302247308E+02  0.40747455983E+02  0.51100000000E-03 0.  1.
         23    2    1    0    0    0  0.15905880883E+02  0.15756743391E+02  0.12944172029E+02  0.99138375951E+02  0.95705767787E+02 0.  0.
         11    1    3    3    0    0  0.20556476576E+02  0.54628151062E+02  0.16419247216E+01  0.58390919968E+02  0.51100000000E-03 0. -1.
         22    1    1    0    0    0 -0.15905880883E+02 -0.15756743391E+02 -0.12944172029E+02  0.25861624049E+02  0.00000000000E+00 0. -1.
</event>
<event>
 5    1  0.8752570E-005  0.9118800E+02  0.7818608E-02  0.1130116E+00
         25   -1    0    0    0    0  0.00000000000E+00  0.00000000000E+00  0.99999998245E-14  0.12500000000E+03  0.12500000000E+03 0.  0.
        -11    1    3    3    0    0 -0.49091729362E+02 -0.24007193228E+02 -0.94760756836E+01  0.55462953663E+02  0.51100000000E-03 0.  1.
         23    2    1    0    0    0 -0.30031698137E+02  0.52934383442E+01  0.63792037711E+01  0.93845263229E+02  0.88522967682E+02 0.  0.
         11    1    3    3    0    0  0.19060031224E+02  0.29300631572E+02  0.15855279455E+02  0.38382309566E+02  0.51100000000E-03 0. -1.
         22    1    1    0    0    0  0.30031698137E+02 -0.52934383442E+01 -0.63792037711E+01  0.31154736771E+02  0.00000000000E+00 0.  1.
</event>
<event>
 5    1  0.8752570E-005  0.9118800E+02  0.7818608E-02  0.1130116E+00
         25   -1    0    0    0    0  0.00000000000E+00  0.00000000000E+00  0.99999998245E-14  0.12500000000E+03  0.12500000000E+03 0.  0.
        -11    1    3    3    0    0 -0.94684742818E+01 -0.11960509366E+02 -0.48626911210E+02  0.50963538766E+02  0.51100000000E-03 0.  1.
         23    2    1    0    0    0  0.20923006903E+02 -0.14232428917E+02 -0.20544816410E+02  0.92405157891E+02  0.86465539221E+02 0.  0.
         11    1    3    3    0    0  0.30391481185E+02 -0.22719195514E+01  0.28082094800E+02  0.41441619125E+02  0.51100000000E-03 0. -1.
         22    1    1    0    0    0 -0.20923006903E+02  0.14232428917E+02  0.20544816410E+02  0.32594842109E+02  0.00000000000E+00 0.  1.
</event>
<event>
 5    1  0.8752570E-005  0.9118800E+02  0.7818608E-02  0.1130116E+00
         25   -1    0    0    0    0  0.00000000000E+00  0.00000000000E+00  0.99999998245E-14  0.12500000000E+03  0.12500000000E+03 0.  0.
        -11    1    3    3    0    0 -0.21797257600E+02  0.18606246934E+02 -0.15516272824E+02  0.32589378431E+02  0.51100000000E-03 0.  1.
         23    2    1    0    0    0  0.22714985570E+02 -0.11929042781E+02  0.15676442827E+02  0.94933016599E+02  0.90045844711E+02 0.  0.
         11    1    3    3    0    0  0.44512243171E+02 -0.30535289715E+02  0.31192715652E+02  0.62343638168E+02  0.51100000000E-03 0. -1.
         22    1    1    0    0    0 -0.22714985570E+02  0.11929042781E+02 -0.15676442827E+02  0.30066983401E+02  0.00000000000E+00 0. -1.
</event>
<event>
 5    1  0.8752570E-005  0.9118800E+02  0.7818608E-02  0.1130116E+00
         25   -1    0    0    0    0  0.00000000000E+00  0.00000000000E+00  0.99999998245E-14  0.12500000000E+03  0.12500000000E+03 0.  0.
        -11    1    3    3    0    0  0.47779706768E+02 -0.11574369420E+02  0.71225815133E+01  0.49674918963E+02  0.51100000000E-03 0. -1.
         23    2    1    0    0    0  0.89403572632E+01 -0.30494839243E+02  0.35062691840E+01  0.93028776501E+02  0.87362429712E+02 0.  0.
         11    1    3    3    0    0 -0.38839349505E+02 -0.18920469823E+02 -0.36163123293E+01  0.43353857538E+02  0.51100000000E-03 0.  1.
         22    1    1    0    0    0 -0.89403572632E+01  0.30494839243E+02 -0.35062691840E+01  0.31971223499E+02  0.00000000000E+00 0.  1.
</event>
<event>
 5    1  0.8752570E-005  0.9118800E+02  0.7818608E-02  0.1130116E+00
         25   -1    0    0    0    0  0.00000000000E+00  0.00000000000E+00  0.99999998245E-14  0.12500000000E+03  0.12500000000E+03 0.  0.
        -11    1    3    3    0    0 -0.59580604377E+01 -0.27116054783E+02 -0.29299785731E+02  0.40364047806E+02  0.51100000000E-03 0.  1.
         23    2    1    0    0    0 -0.32768176109E+01  0.24988334169E+02 -0.18736547297E+02  0.93595978238E+02  0.88170258929E+02 0.  0.
         11    1    3    3    0    0  0.26812428267E+01  0.52104388951E+02  0.10563238433E+02  0.53231930432E+02  0.51100000000E-03 0. -1.
         22    1    1    0    0    0  0.32768176109E+01 -0.24988334169E+02  0.18736547297E+02  0.31404021762E+02  0.00000000000E+00 0. -1.
</event>
<event>
 5    1  0.8752570E-005  0.9118800E+02  0.7818608E-02  0.1130116E+00
         25   -1    0    0    0    0  0.00000000000E+00  0.00000000000E+00  0.99999998245E-14  0.12500000000E+03  0.12500000000E+03 0.  0.
        -11    1    3    3    0    0 -0.57396783127E+02  0.16816248240E+02 -0.17583802833E+02  0.62340733398E+02  0.51100000000E-03 0.  1.
         23    2    1    0    0    0 -0.28302196497E+02  0.60905236714E+01 -0.60531881856E+01  0.95423828977E+02  0.90724623142E+02 0.  0.
         11    1    3    3    0    0  0.29094586630E+02 -0.10725724568E+02  0.11530614648E+02  0.33083095579E+02  0.51100000000E-03 0. -1.
         22    1    1    0    0    0  0.28302196497E+02 -0.60905236714E+01  0.60531881856E+01  0.29576171023E+02  0.00000000000E+00 0.  1.
</event>
<event>
 5    1  0.8752570E-005  0.9118800E+02  0.7818608E-02  0.1130116E+00
         25   -1    0    0    0    0  0.00000000000E+00  0.00000000000E+00  0.99999998245E-14  0.12500000000E+03  0.12500000000E+03 0.  0.
        -11    1    3    3    0    0 -0.20546001074E+02 -0.38690928296E+02 -0.15460515524E+02  0.46455932162E+02  0.51100000000E-03 0.  1.
         23    2    1    0    0    0 -0.26240915024E+02  0.95525858493E+01 -0.99893350114E+01  0.95341538616E+02  0.90611172899E+02 0.  0.
         11    1    3    3    0    0 -0.56949139491E+01  0.48243514145E+02  0.54711805128E+01  0.48885606454E+02  0.51100000000E-03 0. -1.
         22    1    1    0    0    0  0.26240915024E+02 -0.95525858493E+01  0.99893350114E+01  0.29658461384E+02  0.00000000000E+00 0. -1.
</event>
<event>
 5    1  0.8752570E-005  0.9118800E+02  0.7818608E-02  0.1130116E+00
         25   -1    0    0    0    0  0.00000000000E+00  0.00000000000E+00  0.99999998245E-14  0.12500000000E+03  0.12500000000E+03 0.  0.
        -11    1    3    3    0    0 -0.30279346829E+02  0.38411089090E+02  0.89307762602E+01  0.49719305851E+02  0.51100000000E-03 0. -1.
         23    2    1    0    0    0 -0.27766144158E+02 -0.62941867217E+01  0.10839300891E+02  0.94535824454E+02  0.89492771291E+02 0.  0.
         11    1    3    3    0    0  0.25132026704E+01 -0.44705275812E+02  0.19085246312E+01  0.44816518602E+02  0.51100000000E-03 0.  1.
         22    1    1    0    0    0  0.27766144158E+02  0.62941867217E+01 -0.10839300891E+02  0.30464175546E+02  0.00000000000E+00 0.  1.
</event>
<event>
 5    1  0.8752570E-005  0.9118800E+02  0.7818608E-02  0.1130116E+00
         25   -1    0    0    0    0  0.00000000000E+00  0.00000000000E+00  0.99999998245E-14  0.12500000000E+03  0.12500000000E+03 0.  0.
        -11    1    3    3    0    0 -0.25275982749E+02  0.96444789581E+01  0.34983139475E+02  0.44223425083E+02  0.51100000000E-03 0.  1.
         23    2    1    0    0    0  0.20253618527E+02 -0.28604410928E+00  0.26590714047E+02  0.91573110252E+02  0.85254193815E+02 0.  0.
         11    1    3    3    0    0  0.45529601276E+02 -0.99305230674E+01 -0.83924254284E+01  0.47349685169E+02  0.51100000000E-03 0. -1.
         22    1    1    0    0    0 -0.20253618527E+02  0.28604410928E+00 -0.26590714047E+02  0.33426889748E+02  0.00000000000E+00 0.  1.
</event>
<event>
 5    1  0.8752570E-005  0.9118800E+02  0.7818608E-02  0.1130116E+00
         25   -1    0    0    0    0  0.00000000000E+00  0.00000000000E+00  0.99999998245E-14  0.12500000000E+03  0.12500000000E+03 0.  0.
        -11    1    3    3    0    0 -0.10368890756E+02 -0.17881030577E+02  0.27679916524E+02  0.34545953874E+02  0.51100000000E-03 0. -1.
         23    2    1    0    0    0 -0.26503586123E+02  0.22284040971E+02 -0.65864068254E+01  0.89752314768E+02  0.82541375637E+02 0.  0.
         11    1    3    3    0    0 -0.16134695366E+02  0.40165071548E+02 -0.34266323349E+02  0.55206360894E+02  0.51100000000E-03 0.  1.
         22    1    1    0    0    0  0.26503586123E+02 -0.22284040971E+02  0.65864068254E+01  0.35247685232E+02  0.00000000000E+00 0.  1.
</event>
<event>
 5    1  0.8752570E-005  0.9118800E+02  0.7818608E-02  0.1130116E+00
         25   -1    0    0    0    0  0.00000000000E+00  0.00000000000E+00  0.99999998245E-14  0.12500000000E+03  0.12500000000E+03 0.  0.
        -11    1    3    3    0    0  0.22422682268E+02 -0.21748583390E+02 -0.90000670391E+01  0.32508133852E+02  0.51100000000E-03 0. -1.
         23    2    1    0    0    0 -0.18967248663E+02  0.12039213948E+02  0.21393507533E+02  0.93977728018E+02  0.88709819099E+02 0.  0.
         11    1    3    3    0    0 -0.41389930931E+02  0.33787797338E+02  0.30393574572E+02  0.61469594166E+02  0.51100000000E-03 0.  1.
         22    1    1    0    0    0  0.18967248663E+02 -0.12039213948E+02 -0.21393507533E+02  0.31022271982E+02  0.00000000000E+00 0.  1.
</event>
<event>
 5    1  0.8752570E-005  0.9118800E+02  0.7818608E-02  0.1130116E+00
         25   -1    0    0    0    0  0.00000000000E+00  0.00000000000E+00  0.99999998245E-14  0.12500000000E+03  0.12500000000E+03 0.  0.
        -11    1    3    3    0    0  0.41298333984E+02 -0.22318174722E+02  0.21891102278E+02  0.51796463895E+02  0.51100000000E-03 0.  1.
         23    2    1    0    0    0  0.24232647145E+01 -0.29280007393E+02  0.33377834094E+01  0.95430897158E+02  0.90734361129E+02 0.  0.
         11    1    3    3    0    0 -0.38875069270E+02 -0.69618326707E+01 -0.18553318869E+02  0.43634433263E+02  0.51100000000E-03 0. -1.
         22    1    1    0    0    0 -0.24232647145E+01  0.29280007393E+02 -0.33377834094E+01  0.29569102842E+02  0.00000000000E+00 0. -1.
</event>
<event>
 5    1  0.8752570E-005  0.9118800E+02  0.7818608E-02  0.1130116E+00
         25   -1    0    0    0    0  0.00000000000E+00  0.00000000000E+00  0.99999998245E-14  0.12500000000E+03  0.12500000000E+03 0.  0.
        -11    1    3    3    0    0 -0.10175067918E+02 -0.15878668068E+02  0.26963897397E+02  0.32904648149E+02  0.51100000000E-03 0.  1.
         23    2    1    0    0    0  0.13058326220E+02  0.24741324648E+02 -0.12726787461E+02  0.94265261543E+02  0.89114058294E+02 0.  0.
         11    1    3    3    0    0  0.23233394137E+02  0.40619992715E+02 -0.39690684857E+02  0.61360613394E+02  0.51100000000E-03 0. -1.
         22    1    1    0    0    0 -0.13058326220E+02 -0.24741324648E+02  0.12726787461E+02  0.30734738457E+02  0.00000000000E+00 0. -1.
</event>
<event>
 5    1  0.8752570E-005  0.9118800E+02  0.7818608E-02  0.1130116E+00
         25   -1    0    0    0    0  0.00000000000E+00  0.00000000000E+00  0.99999998245E-14  0.12500000000E+03  0.12500000000E+03 0.  0.
        -11    1    3    3    0    0  0.20548160526E+02 -0.97554137721E+01  0.28657052827E+02  0.36587179118E+02  0.51100000000E-03 0. -1.
         23    2    1    0    0    0 -0.97305639222E+01  0.27808972683E+02 -0.45917250050E+01  0.95182106472E+02  0.90390965356E+02 0.  0.
         11    1    3    3    0    0 -0.30278724448E+02  0.37564386455E+02 -0.33248777832E+02  0.58594927353E+02  0.51100000000E-03 0.  1.
         22    1    1    0    0    0  0.97305639222E+01 -0.27808972683E+02  0.45917250050E+01  0.29817893528E+02  0.00000000000E+00 0.  1.
</event>
<event>
 5    1  0.8752570E-005  0.9118800E+02  0.7818608E-02  0.1130116E+00
         25   -1    0    0    0    0  0.00000000000E+00  0.00000000000E+00  0.99999998245E-14  0.12500000000E+03  0.12500000000E+03 0.  0.
        -11    1    3    3    0    0  0.17637000568E+02 -0.40780845017E+02 -0.24167039771E+02  0.50578522328E+02  0.51100000000E-03 0. -1.
         23    2    1    0    0    0  0.25922231785E+02  0.23109344877E+01 -0.13245065598E+02  0.95798385633E+02  0.91239226259E+02 0.  0.
         11    1    3    3    0    0  0.82852312173E+01  0.43091779505E+02  0.10921974173E+02  0.45219863305E+02  0.51100000000E-03 0.  1.
         22    1    1    0    0    0 -0.25922231785E+02 -0.23109344877E+01  0.13245065598E+02  0.29201614367E+02  0.00000000000E+00 0. -1.
</event>
<event>
 5    1  0.8752570E-005  0.9118800E+02  0.7818608E-02  0.1130116E+00
         25   -1    0    0    0    0  0.00000000000E+00  0.00000000000E+00  0.99999998245E-14  0.12500000000E+03  0.12500000000E+03 0.  0.
        -11    1    3    3    0    0  0.29975040473E+02 -0.16967347736E+01 -0.16777626363E+02  0.34392887447E+02  0.51100000000E-03 0.  1.
         23    2    1    0    0    0 -0.18196546124E+02  0.19680410150E+02  0.13304747748E+02  0.95075943672E+02  0.90244035359E+02 0.  0.
         11    1    3    3    0    0 -0.48171586598E+02  0.21377144923E+02  0.30082374111E+02  0.60683056225E+02  0.51100000000E-03 0. -1.
         22    1    1    0    0    0  0.18196546124E+02 -0.19680410150E+02 -0.13304747748E+02  0.29924056328E+02  0.00000000000E+00 0. -1.
</event>
<event>
 5    1  0.8752570E-005  0.9118800E+02  0.7818608E-02  0.1130116E+00
         25   -1    0    0    0    0  0.00000000000E+00  0.00000000000E+00  0.99999998245E-14  0.12500000000E+03  0.12500000000E+03 0.  0.
        -11    1    3    3    0    0 -0.25671855228E+02  0.20212827941E+02  0.78717252653E+01  0.33609025918E+02  0.51100000000E-03 0.  1.
         23    2    1    0    0    0  0.31216871686E+02  0.26030452016E+01  0.31949155830E-01  0.93674771462E+02  0.88281894325E+02 0.  0.
         11    1    3    3    0    0  0.56888726914E+02 -0.17609782740E+02 -0.78397761095E+01  0.60065745544E+02  0.51100000000E-03 0. -1.
         22    1    1    0    0    0 -0.31216871686E+02 -0.26030452016E+01 -0.31949155830E-01  0.31325228538E+02  0.00000000000E+00 0. -1.
</event>
<event>
 5    1  0.8752570E-005  0.9118800E+02  0.7818608E-02  0.1130116E+00
         25   -1    0    0    0    0  0.00000000000E+00  0.00000000000E+00  0.99999998245E-14  0.12500000000E+03  0.12500000000E+03 0.  0.
        -11    1    3    3    0    0 -0.35879353690E+02  0.14948858390E+02  0.30859134181E+02  0.49629452456E+02  0.51100000000E-03 0.  1.
         23    2    1    0    0    0  0.81863839096E+01  0.47660962041E+00  0.27692559020E+02  0.96118832030E+02  0.91677194588E+02 0.  0.
         11    1    3    3    0    0  0.44065737600E+02 -0.14472248770E+02 -0.31665751613E+01  0.46489379574E+02  0.51100000000E-03 0. -1.
         22    1    1    0    0    0 -0.81863839096E+01 -0.47660962041E+00 -0.27692559020E+02  0.28881167970E+02  0.00000000000E+00 0.  1.
</event>
<event>
 5    1  0.8752570E-005  0.9118800E+02  0.7818608E-02  0.1130116E+00
         25   -1    0    0    0    0  0.00000000000E+00  0.00000000000E+00  0.99999998245E-14  0.12500000000E+03  0.12500000000E+03 0.  0.
        -11    1    3    3    0    0 -0.26882983720E+02 -0.16082046739E+01  0.45872619459E+02  0.53193781143E+02  0.51100000000E-03 0. -1.
         23    2    1    0    0    0 -0.81532550567E+01 -0.24242530257E+02  0.17715051910E+02  0.93887319218E+02  0.88582333478E+02 0.  0.
         11    1    3    3    0    0  0.18729728664E+02 -0.22634325583E+02 -0.28157567550E+02  0.40693538074E+02  0.51100000000E-03 0.  1.
         22    1    1    0    0    0  0.81532550567E+01  0.24242530257E+02 -0.17715051910E+02  0.31112680782E+02  0.00000000000E+00 0. -1.
</event>
<event>
 5    1  0.8752570E-005  0.9118800E+02  0.7818608E-02  0.1130116E+00
         25   -1    0    0    0    0  0.00000000000E+00  0.00000000000E+00  0.99999998245E-14  0.12500000000E+03  0.12500000000E+03 0.  0.
        -11    1    3    3    0    0  0.14630170499E+02  0.19554771667E+02 -0.25072022376E+02  0.35000532711E+02  0.51100000000E-03 0.  1.
         23    2    1    0    0    0  0.38913304497E+01 -0.13027950759E+02  0.25494493744E+02  0.96106416545E+02  0.91660264762E+02 0.  0.
         11    1    3    3    0    0 -0.10738840050E+02 -0.32582722426E+02  0.50566516120E+02  0.61105883833E+02  0.51100000000E-03 0. -1.
         22    1    1    0    0    0 -0.38913304497E+01  0.13027950759E+02 -0.25494493744E+02  0.28893583455E+02  0.00000000000E+00 0. -1.
</event>
<event>
 5    1  0.8752570E-005  0.9118800E+02  0.7818608E-02  0.1130116E+00
         25   -1    0    0    0    0  0.00000000000E+00  0.00000000000E+00  0.99999998245E-14  0.12500000000E+03  0.12500000000E+03 0.  0.
        -11    1    3    3    0    0  0.35929095680E+02  0.26385547567E+00 -0.19978831556E+02  0.41111108555E+02  0.51100000000E-03 0.  1.
         23    2    1    0    0    0 -0.12864320432E+02 -0.22778319317E+02 -0.13797242996E+02  0.95424562804E+02  0.90725634200E+02 0.  0.
         11    1    3    3    0    0 -0.48793416111E+02 -0.23042174793E+02  0.61815885603E+01  0.54313454248E+02  0.51100000000E-03 0. -1.
         22    1    1    0    0    0  0.12864320432E+02  0.22778319317E+02  0.13797242996E+02  0.29575437196E+02  0.00000000000E+00 0. -1.
</event>
<event>
 5    1  0.8752570E-005  0.9118800E+02  0.7818608E-02  0.1130116E+00
         25   -1    0    0    0    0  0.00000000000E+00  0.00000000000E+00  0.99999998245E-14  0.12500000000E+03  0.12500000000E+03 0.  0.
        -11    1    3    3    0    0 -0.29198286565E+02 -0.44153004898E+02 -0.32560213334E+02  0.62146562837E+02  0.51100000000E-03 0. -1.
         23    2    1    0    0    0 -0.93867905996E+01 -0.22626425617E+02 -0.15457101733E+02  0.96034693719E+02  0.91562401834E+02 0.  0.
         11    1    3    3    0    0  0.19811495966E+02  0.21526579281E+02  0.17103111601E+02  0.33888130881E+02  0.51100000000E-03 0.  1.
         22    1    1    0    0    0  0.93867905996E+01  0.22626425617E+02  0.15457101733E+02  0.28965306281E+02  0.00000000000E+00 0. -1.
</event>
<event>
 5    1  0.8752570E-005  0.9118800E+02  0.7818608E-02  0.1130116E+00
         25   -1    0    0    0    0  0.00000000000E+00  0.00000000000E+00  0.99999998245E-14  0.12500000000E+03  0.12500000000E+03 0.  0.
        -11    1    3    3    0    0 -0.59361457237E+02 -0.80597213201E+00 -0.19095368072E+02  0.62362370693E+02  0.51100000000E-03 0. -1.
         23    2    1    0    0    0 -0.23288989189E+02 -0.30047566817E+01 -0.85647943067E+01  0.10000477482E+03  0.96830747728E+02 0.  0.
         11    1    3    3    0    0  0.36072468048E+02 -0.21987845497E+01  0.10530573765E+02  0.37642404129E+02  0.51100000000E-03 0.  1.
         22    1    1    0    0    0  0.23288989189E+02  0.30047566817E+01  0.85647943067E+01  0.24995225178E+02  0.00000000000E+00 0. -1.
</event>
<event>
 5    1  0.8752570E-005  0.9118800E+02  0.7818608E-02  0.1130116E+00
         25   -1    0    0    0    0  0.00000000000E+00  0.00000000000E+00  0.99999998245E-14  0.12500000000E+03  0.12500000000E+03 0.  0.
        -11    1    3    3    0    0  0.89627607854E+00  0.11098132862E+02  0.35080238621E+02  0.36804823132E+02  0.51100000000E-03 0. -1.
         23    2    1    0    0    0  0.22255604570E+02 -0.78294200252E+01 -0.16814062486E+02  0.96028903197E+02  0.91554496335E+02 0.  0.
         11    1    3    3    0    0  0.21359328491E+02 -0.18927552887E+02 -0.51894301107E+02  0.59224080065E+02  0.51100000000E-03 0.  1.
         22    1    1    0    0    0 -0.22255604570E+02  0.78294200252E+01  0.16814062486E+02  0.28971096803E+02  0.00000000000E+00 0.  1.
</event>
<event>
 5    1  0.8752570E-005  0.9118800E+02  0.7818608E-02  0.1130116E+00
         25   -1    0    0    0    0  0.00000000000E+00  0.00000000000E+00  0.99999998245E-14  0.12500000000E+03  0.12500000000E+03 0.  0.
        -11    1    3    3    0    0 -0.89145049166E+00  0.35648499507E+02 -0.71844427367E+01  0.36376179277E+02  0.51100000000E-03 0.  1.
         23    2    1    0    0    0  0.72082843401E+01 -0.25305574492E+02 -0.66164290829E+01  0.97868678667E+02  0.94032811649E+02 0.  0.
         11    1    3    3    0    0  0.80997348317E+01 -0.60954073999E+02  0.56801365380E+00  0.61492499390E+02  0.51100000000E-03 0. -1.
         22    1    1    0    0    0 -0.72082843401E+01  0.25305574492E+02  0.66164290829E+01  0.27131321333E+02  0.00000000000E+00 0. -1.
</event>
<event>
 5    1  0.8752570E-005  0.9118800E+02  0.7818608E-02  0.1130116E+00
         25   -1    0    0    0    0  0.00000000000E+00  0.00000000000E+00  0.99999998245E-14  0.12500000000E+03  0.12500000000E+03 0.  0.
        -11    1    3    3    0    0  0.41836143974E+01 -0.78359088005E+01 -0.36716292501E+02  0.37775524238E+02  0.51100000000E-03 0.  1.
         23    2    1    0    0    0  0.36059514181E+02  0.62355607875E+01  0.16476992900E-01  0.88405313872E+02  0.80475638972E+02 0.  0.
         11    1    3    3    0    0  0.31875899784E+02  0.14071469588E+02  0.36732769494E+02  0.50629789634E+02  0.51100000000E-03 0. -1.
         22    1    1    0    0    0 -0.36059514181E+02 -0.62355607875E+01 -0.16476992900E-01  0.36594686128E+02  0.00000000000E+00 0.  1.
</event>
<event>
 5    1  0.8752570E-005  0.9118800E+02  0.7818608E-02  0.1130116E+00
         25   -1    0    0    0    0  0.00000000000E+00  0.00000000000E+00  0.99999998245E-14  0.12500000000E+03  0.12500000000E+03 0.  0.
        -11    1    3    3    0    0  0.13959327501E+02  0.21326770465E+02  0.12425299976E+02  0.28356340429E+02  0.51100000000E-03 0. -1.
         23    2    1    0    0    0  0.11885904109E+01 -0.25046549285E+02 -0.25219952199E+02  0.89436136779E+02  0.82061161305E+02 0.  0.
         11    1    3    3    0    0 -0.12770737090E+02 -0.46373319751E+02 -0.37645252176E+02  0.61079796350E+02  0.51100000000E-03 0.  1.
         22    1    1    0    0    0 -0.11885904109E+01  0.25046549285E+02  0.25219952199E+02  0.35563863221E+02  0.00000000000E+00 0.  1.
</event>
<event>
 5    1  0.8752570E-005  0.9118800E+02  0.7818608E-02  0.1130116E+00
         25   -1    0    0    0    0  0.00000000000E+00  0.00000000000E+00  0.99999998245E-14  0.12500000000E+03  0.12500000000E+03 0.  0.
        -11    1    3    3    0    0  0.36447686586E+02 -0.61816394474E+01  0.13269570290E+02  0.39277576550E+02  0.51100000000E-03 0.  1.
         23    2    1    0    0    0 -0.31000238241E+01  0.26230087187E+02 -0.11617812400E+02  0.96145170482E+02  0.91713099503E+02 0.  0.
         11    1    3    3    0    0 -0.39547710410E+02  0.32411726635E+02 -0.24887382690E+02  0.56867593931E+02  0.51100000000E-03 0. -1.
         22    1    1    0    0    0  0.31000238241E+01 -0.26230087187E+02  0.11617812400E+02  0.28854829518E+02  0.00000000000E+00 0. -1.
</event>
<event>
 5    1  0.8752570E-005  0.9118800E+02  0.7818608E-02  0.1130116E+00
         25   -1    0    0    0    0  0.00000000000E+00  0.00000000000E+00  0.99999998245E-14  0.12500000000E+03  0.12500000000E+03 0.  0.
        -11    1    3    3    0    0 -0.44612281392E+02  0.25404675353E+02  0.30439089094E+02  0.59684096089E+02  0.51100000000E-03 0. -1.
         23    2    1    0    0    0 -0.10893299252E+02  0.10701342253E+02  0.23278581944E+02  0.97159829887E+02  0.93085753323E+02 0.  0.
         11    1    3    3    0    0  0.33718982140E+02 -0.14703333100E+02 -0.71605071498E+01  0.37475733798E+02  0.51100000000E-03 0.  1.
         22    1    1    0    0    0  0.10893299252E+02 -0.10701342253E+02 -0.23278581944E+02  0.27840170113E+02  0.00000000000E+00 0. -1.
</event>
<event>
 5    1  0.8752570E-005  0.9118800E+02  0.7818608E-02  0.1130116E+00
         25   -1    0    0    0    0  0.00000000000E+00  0.00000000000E+00  0.99999998245E-14  0.12500000000E+03  0.12500000000E+03 0.  0.
        -11    1    3    3    0    0  0.27966045645E+02 -0.29778041199E+02 -0.25787508262E+01  0.40932644708E+02  0.51100000000E-03 0.  1.
         23    2    1    0    0    0 -0.15219695516E+02  0.20750702042E-01  0.21496341934E+02  0.98661202026E+02  0.95080494880E+02 0.  0.
         11    1    3    3    0    0 -0.43185741161E+02  0.29798791901E+02  0.24075092760E+02  0.57728557318E+02  0.51100000000E-03 0. -1.
         22    1    1    0    0    0  0.15219695516E+02 -0.20750702042E-01 -0.21496341934E+02  0.26338797974E+02  0.00000000000E+00 0. -1.
</event>
<event>
 5    1  0.8752570E-005  0.9118800E+02  0.7818608E-02  0.1130116E+00
         25   -1    0    0    0    0  0.00000000000E+00  0.00000000000E+00  0.99999998245E-14  0.12500000000E+03  0.12500000000E+03 0.  0.
        -11    1    3    3    0    0 -0.42713176430E+02  0.32155203582E+02  0.11717077508E+01  0.53476587937E+02  0.51100000000E-03 0.  1.
         23    2    1    0    0    0 -0.19675578310E+02  0.51516082806E+01 -0.21349035695E+02  0.95513583215E+02  0.90848201984E+02 0.  0.
         11    1    3    3    0    0  0.23037598120E+02 -0.27003595301E+02 -0.22520743446E+02  0.42036995278E+02  0.51100000000E-03 0. -1.
         22    1    1    0    0    0  0.19675578310E+02 -0.51516082806E+01  0.21349035695E+02  0.29486416785E+02  0.00000000000E+00 0.  1.
</event>
<event>
 5    1  0.8752570E-005  0.9118800E+02  0.7818608E-02  0.1130116E+00
         25   -1    0    0    0    0  0.00000000000E+00  0.00000000000E+00  0.99999998245E-14  0.12500000000E+03  0.12500000000E+03 0.  0.
        -11    1    3    3    0    0  0.13047998952E+02  0.14256456650E+02  0.36524216641E+02  0.41322091360E+02  0.51100000000E-03 0.  1.
         23    2    1    0    0    0  0.31184422344E+01  0.21933189572E+02 -0.17489347133E+02  0.96774714352E+02  0.92567157178E+02 0.  0.
         11    1    3    3    0    0 -0.99295567176E+01  0.76767329220E+01 -0.54013563773E+02  0.55452622992E+02  0.51100000000E-03 0. -1.
         22    1    1    0    0    0 -0.31184422344E+01 -0.21933189572E+02  0.17489347133E+02  0.28225285648E+02  0.00000000000E+00 0.  1.
</event>
<event>
 5    1  0.8752570E-005  0.9118800E+02  0.7818608E-02  0.1130116E+00
         25   -1    0    0    0    0  0.00000000000E+00  0.00000000000E+00  0.99999998245E-14  0.12500000000E+03  0.12500000000E+03 0.  0.
        -11    1    3    3    0    0  0.23758334538E+02  0.31182610281E+02  0.37371343676E+02  0.54161157414E+02  0.51100000000E-03 0. -1.
         23    2    1    0    0    0  0.29661407602E+02  0.10883245230E+02  0.47262800302E+01  0.93053453229E+02  0.87397730561E+02 0.  0.
         11    1    3    3    0    0  0.59030730637E+01 -0.20299365051E+02 -0.32645063646E+02  0.38892295815E+02  0.51100000000E-03 0.  1.
         22    1    1    0    0    0 -0.29661407602E+02 -0.10883245230E+02 -0.47262800302E+01  0.31946546771E+02  0.00000000000E+00 0. -1.
</event>
<event>
 5    1  0.8752570E-005  0.9118800E+02  0.7818608E-02  0.1130116E+00
         25   -1    0    0    0    0  0.00000000000E+00  0.00000000000E+00  0.99999998245E-14  0.12500000000E+03  0.12500000000E+03 0.  0.
        -11    1    3    3    0    0 -0.81637828038E+01  0.21246155277E+02  0.21988218993E+02  0.31646930949E+02  0.51100000000E-03 0.  1.
         23    2    1    0    0    0 -0.80994737308E+00 -0.34115493636E+02  0.25548245606E+01  0.90779391453E+02  0.84082387355E+02 0.  0.
         11    1    3    3    0    0  0.73538354307E+01 -0.55361648913E+02 -0.19433394433E+02  0.59132460505E+02  0.51100000000E-03 0. -1.
         22    1    1    0    0    0  0.80994737308E+00  0.34115493636E+02 -0.25548245606E+01  0.34220608547E+02  0.00000000000E+00 0. -1.
</event>
<event>
 5    1  0.8752570E-005  0.9118800E+02  0.7818608E-02  0.1130116E+00
         25   -1    0    0    0    0  0.00000000000E+00  0.00000000000E+00  0.99999998245E-14  0.12500000000E+03  0.12500000000E+03 0.  0.
        -11    1    3    3    0    0 -0.44272849133E+02 -0.19791234841E+02  0.39391380446E+01  0.48654855417E+02  0.51100000000E-03 0. -1.
         23    2    1    0    0    0 -0.63626314721E+01 -0.14595702201E+02 -0.24115667070E+02  0.96102197311E+02  0.91654510679E+02 0.  0.
         11    1    3    3    0    0  0.37910217661E+02  0.51955326399E+01 -0.28054805115E+02  0.47447341894E+02  0.51100000000E-03 0.  1.
         22    1    1    0    0    0  0.63626314721E+01  0.14595702201E+02  0.24115667070E+02  0.28897802689E+02  0.00000000000E+00 0. -1.
</event>
<event>
 5    1  0.8752570E-005  0.9118800E+02  0.7818608E-02  0.1130116E+00
         25   -1    0    0    0    0  0.00000000000E+00  0.00000000000E+00  0.99999998245E-14  0.12500000000E+03  0.12500000000E+03 0.  0.
        -11    1    3    3    0    0 -0.30481761642E+02  0.38866600653E+01 -0.41732432961E+02  0.51825089295E+02  0.51100000000E-03 0.  1.
         23    2    1    0    0    0  0.10580663298E+02 -0.30330047458E+01 -0.26740177257E+02  0.96083108166E+02  0.91628472875E+02 0.  0.
         11    1    3    3    0    0  0.41062424940E+02 -0.69196648111E+01  0.14992255704E+02  0.44258018871E+02  0.51100000000E-03 0. -1.
         22    1    1    0    0    0 -0.10580663298E+02  0.30330047458E+01  0.26740177257E+02  0.28916891834E+02  0.00000000000E+00 0.  1.
</event>
<event>
 5    1  0.8752570E-005  0.9118800E+02  0.7818608E-02  0.1130116E+00
         25   -1    0    0    0    0  0.00000000000E+00  0.00000000000E+00  0.99999998245E-14  0.12500000000E+03  0.12500000000E+03 0.  0.
        -11    1    3    3    0    0  0.51409561425E+02 -0.12670390558E+02 -0.92973800052E+01  0.53758004781E+02  0.51100000000E-03 0. -1.
         23    2    1    0    0    0  0.24956210287E+02  0.11681406668E+02  0.11326172450E+02  0.95208224692E+02  0.90427076547E+02 0.  0.
         11    1    3    3    0    0 -0.26453351137E+02  0.24351797226E+02  0.20623552455E+02  0.41450219911E+02  0.51100000000E-03 0.  1.
         22    1    1    0    0    0 -0.24956210287E+02 -0.11681406668E+02 -0.11326172450E+02  0.29791775308E+02  0.00000000000E+00 0.  1.
</event>
<event>
 5    1  0.8752570E-005  0.9118800E+02  0.7818608E-02  0.1130116E+00
         25   -1    0    0    0    0  0.00000000000E+00  0.00000000000E+00  0.99999998245E-14  0.12500000000E+03  0.12500000000E+03 0.  0.
        -11    1    3    3    0    0  0.65073580587E+01  0.33735904249E+02 -0.49581981111E+02  0.60322713762E+02  0.51100000000E-03 0. -1.
         23    2    1    0    0    0  0.91630844554E+01  0.57634644291E+01 -0.25383269229E+02  0.97404891816E+02  0.93414254554E+02 0.  0.
         11    1    3    3    0    0  0.26557263966E+01 -0.27972439820E+02  0.24198711883E+02  0.37082178054E+02  0.51100000000E-03 0.  1.
         22    1    1    0    0    0 -0.91630844554E+01 -0.57634644291E+01  0.25383269229E+02  0.27595108184E+02  0.00000000000E+00 0. -1.
</event>
<event>
 5    1  0.8752570E-005  0.9118800E+02  0.7818608E-02  0.1130116E+00
         25   -1    0    0    0    0  0.00000000000E+00  0.00000000000E+00  0.99999998245E-14  0.12500000000E+03  0.12500000000E+03 0.  0.
        -11    1    3    3    0    0 -0.49390592645E+02 -0.21058292969E+02 -0.26091392509E+02  0.59696257067E+02  0.51100000000E-03 0. -1.
         23    2    1    0    0    0 -0.24013883379E+02 -0.17930465101E+02 -0.17804953028E+01  0.94977702666E+02  0.90107855742E+02 0.  0.
         11    1    3    3    0    0  0.25376709265E+02  0.31278278676E+01  0.24310897206E+02  0.35281445599E+02  0.51100000000E-03 0.  1.
         22    1    1    0    0    0  0.24013883379E+02  0.17930465101E+02  0.17804953028E+01  0.30022297334E+02  0.00000000000E+00 0. -1.
</event>
<event>
 5    1  0.8752570E-005  0.9118800E+02  0.7818608E-02  0.1130116E+00
         25   -1    0    0    0    0  0.00000000000E+00  0.00000000000E+00  0.99999998245E-14  0.12500000000E+03  0.12500000000E+03 0.  0.
        -11    1    3    3    0    0  0.15079462413E+02 -0.38123693161E+01 -0.57821729457E+02  0.59877180496E+02  0.51100000000E-03 0.  1.
         23    2    1    0    0    0  0.17115056313E+02  0.61273239458E+01 -0.26016034467E+02  0.93261958146E+02  0.87695436236E+02 0.  0.
         11    1    3    3    0    0  0.20355939002E+01  0.99396932619E+01  0.31805694991E+02  0.33384777650E+02  0.51100000000E-03 0. -1.
         22    1    1    0    0    0 -0.17115056313E+02 -0.61273239458E+01  0.26016034467E+02  0.31738041854E+02  0.00000000000E+00 0.  1.
</event>
<event>
 5    1  0.8752570E-005  0.9118800E+02  0.7818608E-02  0.1130116E+00
         25   -1    0    0    0    0  0.00000000000E+00  0.00000000000E+00  0.99999998245E-14  0.12500000000E+03  0.12500000000E+03 0.  0.
        -11    1    3    3    0    0 -0.42128105846E+02 -0.26691645761E+02 -0.14729375046E+02  0.52001689829E+02  0.51100000000E-03 0. -1.
         23    2    1    0    0    0 -0.26922620301E+02  0.12327393564E+02 -0.66737531558E+01  0.94646563668E+02  0.89647314054E+02 0.  0.
         11    1    3    3    0    0  0.15205485544E+02  0.39019039325E+02  0.80556218899E+01  0.42644873839E+02  0.51100000000E-03 0.  1.
         22    1    1    0    0    0  0.26922620301E+02 -0.12327393564E+02  0.66737531558E+01  0.30353436332E+02  0.00000000000E+00 0. -1.
</event>
<event>
 5    1  0.8752570E-005  0.9118800E+02  0.7818608E-02  0.1130116E+00
         25   -1    0    0    0    0  0.00000000000E+00  0.00000000000E+00  0.99999998245E-14  0.12500000000E+03  0.12500000000E+03 0.  0.
        -11    1    3    3    0    0 -0.27726521649E+02  0.12053392486E+02  0.35551793232E+00  0.30235255355E+02  0.51100000000E-03 0.  1.
         23    2    1    0    0    0  0.18614019282E+02 -0.25660784324E+02  0.11993544967E+02  0.91106008101E+02  0.84566553821E+02 0.  0.
         11    1    3    3    0    0  0.46340540931E+02 -0.37714176810E+02  0.11638027035E+02  0.60870752745E+02  0.51100000000E-03 0. -1.
         22    1    1    0    0    0 -0.18614019282E+02  0.25660784324E+02 -0.11993544967E+02  0.33893991899E+02  0.00000000000E+00 0. -1.
</event>
<event>
 5    1  0.8752570E-005  0.9118800E+02  0.7818608E-02  0.1130116E+00
         25   -1    0    0    0    0  0.00000000000E+00  0.00000000000E+00  0.99999998245E-14  0.12500000000E+03  0.12500000000E+03 0.  0.
        -11    1    3    3    0    0  0.20876265699E+02  0.30399201440E+02 -0.22631681121E+02  0.43268035642E+02  0.51100000000E-03 0.  1.
         23    2    1    0    0    0 -0.17572176189E+02 -0.45912704078E+01 -0.23546580519E+02  0.95262774270E+02  0.90502450616E+02 0.  0.
         11    1    3    3    0    0 -0.38448441888E+02 -0.34990471848E+02 -0.91489939779E+00  0.51994738627E+02  0.51100000000E-03 0. -1.
         22    1    1    0    0    0  0.17572176189E+02  0.45912704078E+01  0.23546580519E+02  0.29737225730E+02  0.00000000000E+00 0.  1.
</event>
<event>
 5    1  0.8752570E-005  0.9118800E+02  0.7818608E-02  0.1130116E+00
         25   -1    0    0    0    0  0.00000000000E+00  0.00000000000E+00  0.99999998245E-14  0.12500000000E+03  0.12500000000E+03 0.  0.
        -11    1    3    3    0    0  0.83414135161E+01 -0.42065429425E+02 -0.39934638470E+02  0.58599103083E+02  0.51100000000E-03 0.  1.
         23    2    1    0    0    0 -0.95655178827E+01 -0.13941144877E+02 -0.24231285752E+02  0.95453259706E+02  0.90765163617E+02 0.  0.
         11    1    3    3    0    0 -0.17906931399E+02  0.28124284548E+02  0.15703352719E+02  0.36854156622E+02  0.51100000000E-03 0. -1.
         22    1    1    0    0    0  0.95655178827E+01  0.13941144877E+02  0.24231285752E+02  0.29546740294E+02  0.00000000000E+00 0.  1.
</event>
<event>
 5    1  0.8752570E-005  0.9118800E+02  0.7818608E-02  0.1130116E+00
         25   -1    0    0    0    0  0.00000000000E+00  0.00000000000E+00  0.99999998245E-14  0.12500000000E+03  0.12500000000E+03 0.  0.
        -11    1    3    3    0    0 -0.35137055031E+02 -0.15546515564E+02  0.33704196939E+02  0.51110465406E+02  0.51100000000E-03 0.  1.
         23    2    1    0    0    0 -0.25777049637E+02 -0.79874975808E+01 -0.98320198746E+01  0.96278492024E+02  0.91894629909E+02 0.  0.
         11    1    3    3    0    0  0.93600053944E+01  0.75590179833E+01 -0.43536216814E+02  0.45168026618E+02  0.51100000000E-03 0. -1.
         22    1    1    0    0    0  0.25777049637E+02  0.79874975808E+01  0.98320198746E+01  0.28721507976E+02  0.00000000000E+00 0.  1.
</event>
<event>
 5    1  0.8752570E-005  0.9118800E+02  0.7818608E-02  0.1130116E+00
         25   -1    0    0    0    0  0.00000000000E+00  0.00000000000E+00  0.99999998245E-14  0.12500000000E+03  0.12500000000E+03 0.  0.
        -11    1    3    3    0    0 -0.23966241738E+02 -0.25305897142E+02  0.19970096962E+02  0.40169315978E+02  0.51100000000E-03 0. -1.
         23    2    1    0    0    0 -0.14394479590E+02  0.25166841145E+02 -0.17723556244E+01  0.95953275910E+02  0.91451183576E+02 0.  0.
         11    1    3    3    0    0  0.95717621483E+01  0.50472738288E+02 -0.21742452586E+02  0.55783959931E+02  0.51100000000E-03 0.  1.
         22    1    1    0    0    0  0.14394479590E+02 -0.25166841145E+02  0.17723556244E+01  0.29046724090E+02  0.00000000000E+00 0.  1.
</event>
<event>
 5    1  0.8752570E-005  0.9118800E+02  0.7818608E-02  0.1130116E+00
         25   -1    0    0    0    0  0.00000000000E+00  0.00000000000E+00  0.99999998245E-14  0.12500000000E+03  0.12500000000E+03 0.  0.
        -11    1    3    3    0    0 -0.13799342931E+02 -0.29516053369E+02 -0.33210281358E+02  0.46524639278E+02  0.51100000000E-03 0. -1.
         23    2    1    0    0    0 -0.35410899053E+01  0.19207879493E+02 -0.17605770877E+02  0.98704655916E+02  0.95137605493E+02 0.  0.
         11    1    3    3    0    0  0.10258253026E+02  0.48723932862E+02  0.15604510481E+02  0.52180016638E+02  0.51100000000E-03 0.  1.
         22    1    1    0    0    0  0.35410899053E+01 -0.19207879493E+02  0.17605770877E+02  0.26295344084E+02  0.00000000000E+00 0. -1.
</event>
<event>
 5    1  0.8752570E-005  0.9118800E+02  0.7818608E-02  0.1130116E+00
         25   -1    0    0    0    0  0.00000000000E+00  0.00000000000E+00  0.99999998245E-14  0.12500000000E+03  0.12500000000E+03 0.  0.
        -11    1    3    3    0    0 -0.25673391663E+02  0.31987548365E+02  0.28196114337E+02  0.49772956049E+02  0.51100000000E-03 0.  1.
         23    2    1    0    0    0 -0.10211870627E+02  0.23449155165E+02 -0.14232013226E+02  0.95730640934E+02  0.91146367089E+02 0.  0.
         11    1    3    3    0    0  0.15461521036E+02 -0.85383932003E+01 -0.42428127564E+02  0.45957684885E+02  0.51100000000E-03 0. -1.
         22    1    1    0    0    0  0.10211870627E+02 -0.23449155165E+02  0.14232013226E+02  0.29269359066E+02  0.00000000000E+00 0. -1.
</event>
<event>
 5    1  0.8752570E-005  0.9118800E+02  0.7818608E-02  0.1130116E+00
         25   -1    0    0    0    0  0.00000000000E+00  0.00000000000E+00  0.99999998245E-14  0.12500000000E+03  0.12500000000E+03 0.  0.
        -11    1    3    3    0    0  0.19265418807E+02  0.32995627874E+02  0.20680168317E+02  0.43445795913E+02  0.51100000000E-03 0. -1.
         23    2    1    0    0    0 -0.17445149528E+02 -0.40121387634E+01  0.23275008024E+02  0.95637498437E+02  0.91018539921E+02 0.  0.
         11    1    3    3    0    0 -0.36710568335E+02 -0.37007766638E+02  0.25948397069E+01  0.52191702524E+02  0.51100000000E-03 0.  1.
         22    1    1    0    0    0  0.17445149528E+02  0.40121387634E+01 -0.23275008024E+02  0.29362501563E+02  0.00000000000E+00 0.  1.
</event>
<event>
 5    1  0.8752570E-005  0.9118800E+02  0.7818608E-02  0.1130116E+00
         25   -1    0    0    0    0  0.00000000000E+00  0.00000000000E+00  0.99999998245E-14  0.12500000000E+03  0.12500000000E+03 0.  0.
        -11    1    3    3    0    0 -0.11771295746E+02  0.43112163897E+02 -0.38140590099E+02  0.58753099432E+02  0.51100000000E-03 0.  1.
         23    2    1    0    0    0  0.90445441313E+01  0.16946433271E+02 -0.21723495838E+02  0.96001799184E+02  0.91517483554E+02 0.  0.
         11    1    3    3    0    0  0.20815839878E+02 -0.26165730626E+02  0.16417094261E+02  0.37248699752E+02  0.51100000000E-03 0. -1.
         22    1    1    0    0    0 -0.90445441313E+01 -0.16946433271E+02  0.21723495838E+02  0.28998200816E+02  0.00000000000E+00 0.  1.
</event>
<event>
 5    1  0.8752570E-005  0.9118800E+02  0.7818608E-02  0.1130116E+00
         25   -1    0    0    0    0  0.00000000000E+00  0.00000000000E+00  0.99999998245E-14  0.12500000000E+03  0.12500000000E+03 0.  0.
        -11    1    3    3    0    0  0.43531913397E+02  0.25483401571E+02  0.22383542767E+02  0.55185634242E+02  0.51100000000E-03 0. -1.
         23    2    1    0    0    0  0.21905833770E+02  0.28149539675E+02 -0.36617643282E+01  0.89143750125E+02  0.81614566906E+02 0.  0.
         11    1    3    3    0    0 -0.21626079626E+02  0.26661381041E+01 -0.26045307096E+02  0.33958115884E+02  0.51100000000E-03 0.  1.
         22    1    1    0    0    0 -0.21905833770E+02 -0.28149539675E+02  0.36617643282E+01  0.35856249875E+02  0.00000000000E+00 0. -1.
</event>
<event>
 5    1  0.8752570E-005  0.9118800E+02  0.7818608E-02  0.1130116E+00
         25   -1    0    0    0    0  0.00000000000E+00  0.00000000000E+00  0.99999998245E-14  0.12500000000E+03  0.12500000000E+03 0.  0.
        -11    1    3    3    0    0  0.24178869512E+02 -0.79767301016E+01 -0.24096763793E+02  0.35055669720E+02  0.51100000000E-03 0. -1.
         23    2    1    0    0    0 -0.19150261402E+02  0.47995247718E+01  0.19079724260E+02  0.97544511885E+02  0.93600897278E+02 0.  0.
         11    1    3    3    0    0 -0.43329130913E+02  0.12776254873E+02  0.43176488053E+02  0.62488842165E+02  0.51100000000E-03 0.  1.
         22    1    1    0    0    0  0.19150261402E+02 -0.47995247718E+01 -0.19079724260E+02  0.27455488115E+02  0.00000000000E+00 0.  1.
</event>
<event>
 5    1  0.8752570E-005  0.9118800E+02  0.7818608E-02  0.1130116E+00
         25   -1    0    0    0    0  0.00000000000E+00  0.00000000000E+00  0.99999998245E-14  0.12500000000E+03  0.12500000000E+03 0.  0.
        -11    1    3    3    0    0  0.56128977621E+02  0.48075009745E+01 -0.20935896952E+01  0.56373374145E+02  0.51100000000E-03 0.  1.
         23    2    1    0    0    0  0.21985004559E+02  0.13074895815E+02  0.14899259779E+02  0.95397951625E+02  0.90688962428E+02 0.  0.
         11    1    3    3    0    0 -0.34143973063E+02  0.82673948408E+01  0.16992849475E+02  0.39024577480E+02  0.51100000000E-03 0. -1.
         22    1    1    0    0    0 -0.21985004559E+02 -0.13074895815E+02 -0.14899259779E+02  0.29602048375E+02  0.00000000000E+00 0.  1.
</event>
<event>
 5    1  0.8752570E-005  0.9118800E+02  0.7818608E-02  0.1130116E+00
         25   -1    0    0    0    0  0.00000000000E+00  0.00000000000E+00  0.99999998245E-14  0.12500000000E+03  0.12500000000E+03 0.  0.
        -11    1    3    3    0    0 -0.32035259392E+02  0.13704878035E+02  0.15270456191E+02  0.38042980414E+02  0.51100000000E-03 0.  1.
         23    2    1    0    0    0  0.22160087415E+02  0.17122864192E+02 -0.59940121908E+01  0.96361038173E+02  0.92006845089E+02 0.  0.
         11    1    3    3    0    0  0.54195346807E+02  0.34179861574E+01 -0.21264468382E+02  0.58318057759E+02  0.51100000000E-03 0. -1.
         22    1    1    0    0    0 -0.22160087415E+02 -0.17122864192E+02  0.59940121908E+01  0.28638961827E+02  0.00000000000E+00 0. -1.
</event>
<event>
 5    1  0.8752570E-005  0.9118800E+02  0.7818608E-02  0.1130116E+00
         25   -1    0    0    0    0  0.00000000000E+00  0.00000000000E+00  0.99999998245E-14  0.12500000000E+03  0.12500000000E+03 0.  0.
        -11    1    3    3    0    0 -0.14322814212E+02  0.46355355066E+02 -0.27709581922E+01  0.48596709352E+02  0.51100000000E-03 0.  1.
         23    2    1    0    0    0 -0.10468320030E+02  0.42837143992E+01 -0.25883211696E+02  0.96753290793E+02  0.92538222905E+02 0.  0.
         11    1    3    3    0    0  0.38544941827E+01 -0.42071640667E+02 -0.23112253504E+02  0.48156581441E+02  0.51100000000E-03 0. -1.
         22    1    1    0    0    0  0.10468320030E+02 -0.42837143992E+01  0.25883211696E+02  0.28246709207E+02  0.00000000000E+00 0.  1.
</event>
<event>
 5    1  0.8752570E-005  0.9118800E+02  0.7818608E-02  0.1130116E+00
         25   -1    0    0    0    0  0.00000000000E+00  0.00000000000E+00  0.99999998245E-14  0.12500000000E+03  0.12500000000E+03 0.  0.
        -11    1    3    3    0    0 -0.21161839093E+02  0.34559248606E+02  0.47079224182E+02  0.62117778839E+02  0.51100000000E-03 0. -1.
         23    2    1    0    0    0 -0.94794629921E+01  0.12036804938E+02  0.24618346211E+02  0.96003312915E+02  0.91519551074E+02 0.  0.
         11    1    3    3    0    0  0.11682376100E+02 -0.22522443668E+02 -0.22460877971E+02  0.33885534076E+02  0.51100000000E-03 0.  1.
         22    1    1    0    0    0  0.94794629921E+01 -0.12036804938E+02 -0.24618346211E+02  0.28996687085E+02  0.00000000000E+00 0. -1.
</event>
<event>
 5    1  0.8752570E-005  0.9118800E+02  0.7818608E-02  0.1130116E+00
         25   -1    0    0    0    0  0.00000000000E+00  0.00000000000E+00  0.99999998245E-14  0.12500000000E+03  0.12500000000E+03 0.  0.
        -11    1    3    3    0    0  0.35272270406E+02 -0.45754464271E+02  0.20421750028E+01  0.57808083685E+02  0.51100000000E-03 0. -1.
         23    2    1    0    0    0  0.25624260342E+02 -0.81499179513E+01  0.76747854769E+01  0.97037056435E+02  0.92920741005E+02 0.  0.
         11    1    3    3    0    0 -0.96480100643E+01  0.37604546319E+02  0.56326104741E+01  0.39228972751E+02  0.51100000000E-03 0.  1.
         22    1    1    0    0    0 -0.25624260342E+02  0.81499179513E+01 -0.76747854769E+01  0.27962943565E+02  0.00000000000E+00 0. -1.
</event>
<event>
 5    1  0.8752570E-005  0.9118800E+02  0.7818608E-02  0.1130116E+00
         25   -1    0    0    0    0  0.00000000000E+00  0.00000000000E+00  0.99999998245E-14  0.12500000000E+03  0.12500000000E+03 0.  0.
        -11    1    3    3    0    0 -0.24858194269E+02  0.28221621046E+02 -0.38096159074E+02  0.53532299159E+02  0.51100000000E-03 0. -1.
         23    2    1    0    0    0 -0.21121932297E+02  0.12471883803E+02  0.53484397373E+01  0.99894428563E+02  0.96688195457E+02 0.  0.
         11    1    3    3    0    0  0.37362619713E+01 -0.15749737242E+02  0.43444598811E+02  0.46362129404E+02  0.51100000000E-03 0.  1.
         22    1    1    0    0    0  0.21121932297E+02 -0.12471883803E+02 -0.53484397373E+01  0.25105571437E+02  0.00000000000E+00 0. -1.
</event>
<event>
 5    1  0.8752570E-005  0.9118800E+02  0.7818608E-02  0.1130116E+00
         25   -1    0    0    0    0  0.00000000000E+00  0.00000000000E+00  0.99999998245E-14  0.12500000000E+03  0.12500000000E+03 0.  0.
        -11    1    3    3    0    0 -0.79251504215E+00  0.40180901547E+02  0.15110456933E+02  0.42935519540E+02  0.51100000000E-03 0. -1.
         23    2    1    0    0    0  0.25182316855E+02 -0.72507727869E+01  0.86786475127E+01  0.97394897014E+02  0.93400879298E+02 0.  0.
         11    1    3    3    0    0  0.25974831897E+02 -0.47431674334E+02 -0.64318094205E+01  0.54459377474E+02  0.51100000000E-03 0.  1.
         22    1    1    0    0    0 -0.25182316855E+02  0.72507727869E+01 -0.86786475127E+01  0.27605102986E+02  0.00000000000E+00 0. -1.
</event>
<event>
 5    1  0.8752570E-005  0.9118800E+02  0.7818608E-02  0.1130116E+00
         25   -1    0    0    0    0  0.00000000000E+00  0.00000000000E+00  0.99999998245E-14  0.12500000000E+03  0.12500000000E+03 0.  0.
        -11    1    3    3    0    0 -0.33482392406E+02  0.12805087666E+02  0.13811132810E+02  0.38415989655E+02  0.51100000000E-03 0.  1.
         23    2    1    0    0    0  0.16929033272E+02  0.19098338183E+02 -0.13535598581E+02  0.96111401595E+02  0.91667062780E+02 0.  0.
         11    1    3    3    0    0  0.50411425678E+02  0.62932505167E+01 -0.27346731391E+02  0.57695411941E+02  0.51100000000E-03 0. -1.
         22    1    1    0    0    0 -0.16929033272E+02 -0.19098338183E+02  0.13535598581E+02  0.28888598405E+02  0.00000000000E+00 0. -1.
</event>
<event>
 5    1  0.8752570E-005  0.9118800E+02  0.7818608E-02  0.1130116E+00
         25   -1    0    0    0    0  0.00000000000E+00  0.00000000000E+00  0.99999998245E-14  0.12500000000E+03  0.12500000000E+03 0.  0.
        -11    1    3    3    0    0  0.40817695942E+02 -0.62864902394E+01  0.23086409174E+02  0.47313703621E+02  0.51100000000E-03 0. -1.
         23    2    1    0    0    0  0.81345984257E+01 -0.28103041062E+02 -0.46008679662E+01  0.95383778186E+02  0.90669424541E+02 0.  0.
         11    1    3    3    0    0 -0.32683097516E+02 -0.21816550822E+02 -0.27687277140E+02  0.48070074565E+02  0.51100000000E-03 0.  1.
         22    1    1    0    0    0 -0.81345984257E+01  0.28103041062E+02  0.46008679662E+01  0.29616221814E+02  0.00000000000E+00 0. -1.
</event>
<event>
 5    1  0.8752570E-005  0.9118800E+02  0.7818608E-02  0.1130116E+00
         25   -1    0    0    0    0  0.00000000000E+00  0.00000000000E+00  0.99999998245E-14  0.12500000000E+03  0.12500000000E+03 0.  0.
        -11    1    3    3    0    0  0.43158343572E+02 -0.16671066745E+02  0.24515745675E+02  0.52360184039E+02  0.51100000000E-03 0.  1.
         23    2    1    0    0    0  0.24314621887E+02 -0.84200605762E+01 -0.13765209441E+02  0.95818169204E+02  0.91266326217E+02 0.  0.
         11    1    3    3    0    0 -0.18843721685E+02  0.82510061689E+01 -0.38280955117E+02  0.43457985165E+02  0.51100000000E-03 0. -1.
         22    1    1    0    0    0 -0.24314621887E+02  0.84200605762E+01  0.13765209441E+02  0.29181830796E+02  0.00000000000E+00 0.  1.
</event>
<event>
 5    1  0.8752570E-005  0.9118800E+02  0.7818608E-02  0.1130116E+00
         25   -1    0    0    0    0  0.00000000000E+00  0.00000000000E+00  0.99999998245E-14  0.12500000000E+03  0.12500000000E+03 0.  0.
        -11    1    3    3    0    0 -0.42430490205E+01  0.11678869834E+02 -0.57479036222E+02  0.58806794428E+02  0.51100000000E-03 0. -1.
         23    2    1    0    0    0  0.55081675363E+01 -0.80099362752E+01 -0.26394231115E+02  0.96872532555E+02  0.92699153926E+02 0.  0.
         11    1    3    3    0    0  0.97512165568E+01 -0.19688806109E+02  0.31084805107E+02  0.38065738127E+02  0.51100000000E-03 0.  1.
         22    1    1    0    0    0 -0.55081675363E+01  0.80099362752E+01  0.26394231115E+02  0.28127467445E+02  0.00000000000E+00 0. -1.
</event>
<event>
 5    1  0.8752570E-005  0.9118800E+02  0.7818608E-02  0.1130116E+00
         25   -1    0    0    0    0  0.00000000000E+00  0.00000000000E+00  0.99999998245E-14  0.12500000000E+03  0.12500000000E+03 0.  0.
        -11    1    3    3    0    0  0.20743778874E+02 -0.20427418548E+02 -0.21987095579E+02  0.36483094205E+02  0.51100000000E-03 0.  1.
         23    2    1    0    0    0 -0.28459918567E+02  0.64684432096E+01 -0.31151098598E+01  0.95648481610E+02  0.91033622374E+02 0.  0.
         11    1    3    3    0    0 -0.49203697441E+02  0.26895861758E+02  0.18871985719E+02  0.59165387405E+02  0.51100000000E-03 0. -1.
         22    1    1    0    0    0  0.28459918567E+02 -0.64684432096E+01  0.31151098598E+01  0.29351518390E+02  0.00000000000E+00 0. -1.
</event>
<event>
 5    1  0.8752570E-005  0.9118800E+02  0.7818608E-02  0.1130116E+00
         25   -1    0    0    0    0  0.00000000000E+00  0.00000000000E+00  0.99999998245E-14  0.12500000000E+03  0.12500000000E+03 0.  0.
        -11    1    3    3    0    0  0.37779325061E+01  0.38001835985E+02  0.27303069757E+02  0.46945393072E+02  0.51100000000E-03 0.  1.
         23    2    1    0    0    0 -0.19827897124E+02 -0.32649249015E+01  0.22660633265E+02  0.94712881633E+02  0.89739737064E+02 0.  0.
         11    1    3    3    0    0 -0.23605829630E+02 -0.41266760887E+02 -0.46424364919E+01  0.47767488561E+02  0.51100000000E-03 0. -1.
         22    1    1    0    0    0  0.19827897124E+02  0.32649249015E+01 -0.22660633265E+02  0.30287118367E+02  0.00000000000E+00 0. -1.
</event>
<event>
 5    1  0.8752570E-005  0.9118800E+02  0.7818608E-02  0.1130116E+00
         25   -1    0    0    0    0  0.00000000000E+00  0.00000000000E+00  0.99999998245E-14  0.12500000000E+03  0.12500000000E+03 0.  0.
        -11    1    3    3    0    0  0.47760598943E+02 -0.80343872454E+01 -0.36480639704E+01  0.48568864109E+02  0.51100000000E-03 0. -1.
         23    2    1    0    0    0  0.81564917831E+01 -0.22881400750E+02  0.16716985095E+02  0.95511960914E+02  0.90845969797E+02 0.  0.
         11    1    3    3    0    0 -0.39604107160E+02 -0.14847013504E+02  0.20365049066E+02  0.46943096805E+02  0.51100000000E-03 0.  1.
         22    1    1    0    0    0 -0.81564917831E+01  0.22881400750E+02 -0.16716985095E+02  0.29488039086E+02  0.00000000000E+00 0.  1.
</event>
<event>
 5    1  0.8752570E-005  0.9118800E+02  0.7818608E-02  0.1130116E+00
         25   -1    0    0    0    0  0.00000000000E+00  0.00000000000E+00  0.99999998245E-14  0.12500000000E+03  0.12500000000E+03 0.  0.
        -11    1    3    3    0    0  0.14030951570E+02 -0.57699948508E+01  0.39910369121E+02  0.42696580732E+02  0.51100000000E-03 0.  1.
         23    2    1    0    0    0  0.17011295590E+02 -0.33901767665E+02  0.64296184822E+01  0.86528529762E+02  0.77505692955E+02 0.  0.
         11    1    3    3    0    0  0.29803440200E+01 -0.28131772814E+02 -0.33480750639E+02  0.43831949030E+02  0.51100000000E-03 0. -1.
         22    1    1    0    0    0 -0.17011295590E+02  0.33901767665E+02 -0.64296184822E+01  0.38471470238E+02  0.00000000000E+00 0. -1.
</event>
<event>
 5    1  0.8752570E-005  0.9118800E+02  0.7818608E-02  0.1130116E+00
         25   -1    0    0    0    0  0.00000000000E+00  0.00000000000E+00  0.99999998245E-14  0.12500000000E+03  0.12500000000E+03 0.  0.
        -11    1    3    3    0    0 -0.16181771548E+02 -0.25115709643E+02  0.52795978868E+02  0.60663530941E+02  0.51100000000E-03 0. -1.
         23    2    1    0    0    0  0.14531665919E+01 -0.78101052541E+01  0.28868901721E+02  0.95058007351E+02  0.90219187748E+02 0.  0.
         11    1    3    3    0    0  0.17634938140E+02  0.17305604389E+02 -0.23927077147E+02  0.34394476411E+02  0.51100000000E-03 0.  1.
         22    1    1    0    0    0 -0.14531665919E+01  0.78101052541E+01 -0.28868901721E+02  0.29941992649E+02  0.00000000000E+00 0. -1.
</event>
<event>
 5    1  0.8752570E-005  0.9118800E+02  0.7818608E-02  0.1130116E+00
         25   -1    0    0    0    0  0.00000000000E+00  0.00000000000E+00  0.99999998245E-14  0.12500000000E+03  0.12500000000E+03 0.  0.
        -11    1    3    3    0    0  0.48768303371E+02  0.27561198529E+02  0.11184734729E+02  0.57123247187E+02  0.51100000000E-03 0.  1.
         23    2    1    0    0    0  0.16855710589E+02  0.23027305446E+02 -0.89065514223E+01  0.95105210592E+02  0.90284564838E+02 0.  0.
         11    1    3    3    0    0 -0.31912592782E+02 -0.45338930835E+01 -0.20091286151E+02  0.37981963404E+02  0.51100000000E-03 0. -1.
         22    1    1    0    0    0 -0.16855710589E+02 -0.23027305446E+02  0.89065514223E+01  0.29894789408E+02  0.00000000000E+00 0.  1.
</event>
<event>
 5    1  0.8752570E-005  0.9118800E+02  0.7818608E-02  0.1130116E+00
         25   -1    0    0    0    0  0.00000000000E+00  0.00000000000E+00  0.99999998245E-14  0.12500000000E+03  0.12500000000E+03 0.  0.
        -11    1    3    3    0    0  0.92012260776E+01 -0.47149817228E+02 -0.23642096299E+02  0.53541727126E+02  0.51100000000E-03 0. -1.
         23    2    1    0    0    0 -0.15602555315E+02 -0.28615294000E+02 -0.15252429241E+00  0.92407085943E+02  0.86468326489E+02 0.  0.
         11    1    3    3    0    0 -0.24803781393E+02  0.18534523228E+02  0.23489572007E+02  0.38865358817E+02  0.51100000000E-03 0.  1.
         22    1    1    0    0    0  0.15602555315E+02  0.28615294000E+02  0.15252429241E+00  0.32592914057E+02  0.00000000000E+00 0.  1.
</event>
<event>
 5    1  0.8752570E-005  0.9118800E+02  0.7818608E-02  0.1130116E+00
         25   -1    0    0    0    0  0.00000000000E+00  0.00000000000E+00  0.99999998245E-14  0.12500000000E+03  0.12500000000E+03 0.  0.
        -11    1    3    3    0    0  0.50157915398E+02 -0.23080832557E+02 -0.69617297196E+00  0.55217985889E+02  0.51100000000E-03 0.  1.
         23    2    1    0    0    0  0.17379371545E+02 -0.10100339527E+02  0.20446936455E+02  0.96327075066E+02  0.91960691421E+02 0.  0.
         11    1    3    3    0    0 -0.32778543853E+02  0.12980493030E+02  0.21143109427E+02  0.41109089177E+02  0.51100000000E-03 0. -1.
         22    1    1    0    0    0 -0.17379371545E+02  0.10100339527E+02 -0.20446936455E+02  0.28672924934E+02  0.00000000000E+00 0.  1.
</event>
<event>
 5    1  0.8752570E-005  0.9118800E+02  0.7818608E-02  0.1130116E+00
         25   -1    0    0    0    0  0.00000000000E+00  0.00000000000E+00  0.99999998245E-14  0.12500000000E+03  0.12500000000E+03 0.  0.
        -11    1    3    3    0    0 -0.11073538372E+02  0.40339106610E+02  0.13126927489E+01  0.41852000391E+02  0.51100000000E-03 0.  1.
         23    2    1    0    0    0  0.47843741215E+01 -0.26768155252E+00 -0.29421833548E+02  0.95190501875E+02  0.90402574458E+02 0.  0.
         11    1    3    3    0    0  0.15857912494E+02 -0.40606788163E+02 -0.30734526297E+02  0.53338501484E+02  0.51100000000E-03 0. -1.
         22    1    1    0    0    0 -0.47843741215E+01  0.26768155252E+00  0.29421833548E+02  0.29809498125E+02  0.00000000000E+00 0. -1.
</event>
<event>
 5    1  0.8752570E-005  0.9118800E+02  0.7818608E-02  0.1130116E+00
         25   -1    0    0    0    0  0.00000000000E+00  0.00000000000E+00  0.99999998245E-14  0.12500000000E+03  0.12500000000E+03 0.  0.
        -11    1    3    3    0    0 -0.30266981433E+02  0.94380324583E+01 -0.30128572495E+00  0.31705794346E+02  0.51100000000E-03 0. -1.
         23    2    1    0    0    0  0.52558359310E+01 -0.35367388048E+02 -0.40969089321E+01  0.89010270750E+02  0.81409874632E+02 0.  0.
         11    1    3    3    0    0  0.35522817364E+02 -0.44805420506E+02 -0.37956232072E+01  0.57304476405E+02  0.51100000000E-03 0.  1.
         22    1    1    0    0    0 -0.52558359310E+01  0.35367388048E+02  0.40969089321E+01  0.35989729250E+02  0.00000000000E+00 0.  1.
</event>
<event>
 5    1  0.8752570E-005  0.9118800E+02  0.7818608E-02  0.1130116E+00
         25   -1    0    0    0    0  0.00000000000E+00  0.00000000000E+00  0.99999998245E-14  0.12500000000E+03  0.12500000000E+03 0.  0.
        -11    1    3    3    0    0  0.15796837759E+02  0.20469926526E+02 -0.16680034289E+02  0.30769815068E+02  0.51100000000E-03 0. -1.
         23    2    1    0    0    0 -0.15645331588E+02 -0.29679173419E+02 -0.62450484947E+01  0.90873318854E+02  0.84221907563E+02 0.  0.
         11    1    3    3    0    0 -0.31442169346E+02 -0.50149099946E+02  0.10434985794E+02  0.60103503786E+02  0.51100000000E-03 0.  1.
         22    1    1    0    0    0  0.15645331588E+02  0.29679173419E+02  0.62450484947E+01  0.34126681146E+02  0.00000000000E+00 0.  1.
</event>
<event>
 5    1  0.8752570E-005  0.9118800E+02  0.7818608E-02  0.1130116E+00
         25   -1    0    0    0    0  0.00000000000E+00  0.00000000000E+00  0.99999998245E-14  0.12500000000E+03  0.12500000000E+03 0.  0.
        -11    1    3    3    0    0 -0.12729229616E+02  0.56796068951E+02 -0.13967986689E+02  0.59857592562E+02  0.51100000000E-03 0.  1.
         23    2    1    0    0    0  0.40239315557E+01  0.33839182540E+02 -0.13680579975E+02  0.88278881164E+02  0.80279015259E+02 0.  0.
         11    1    3    3    0    0  0.16753161171E+02 -0.22956886411E+02  0.28740671426E+00  0.28421288602E+02  0.51100000000E-03 0. -1.
         22    1    1    0    0    0 -0.40239315557E+01 -0.33839182540E+02  0.13680579975E+02  0.36721118836E+02  0.00000000000E+00 0.  1.
</event>
<event>
 5    1  0.8752570E-005  0.9118800E+02  0.7818608E-02  0.1130116E+00
         25   -1    0    0    0    0  0.00000000000E+00  0.00000000000E+00  0.99999998245E-14  0.12500000000E+03  0.12500000000E+03 0.  0.
        -11    1    3    3    0    0  0.44313989004E+02 -0.24414137153E+02  0.30726815945E+02  0.59193892698E+02  0.51100000000E-03 0.  1.
         23    2    1    0    0    0  0.28263522588E+02 -0.70003403257E+01  0.28935727187E+01  0.95739032196E+02  0.91157874311E+02 0.  0.
         11    1    3    3    0    0 -0.16050466416E+02  0.17413796828E+02 -0.27833243227E+02  0.36545139497E+02  0.51100000000E-03 0. -1.
         22    1    1    0    0    0 -0.28263522588E+02  0.70003403257E+01 -0.28935727187E+01  0.29260967804E+02  0.00000000000E+00 0.  1.
</event>
<event>
 5    1  0.8752570E-005  0.9118800E+02  0.7818608E-02  0.1130116E+00
         25   -1    0    0    0    0  0.00000000000E+00  0.00000000000E+00  0.99999998245E-14  0.12500000000E+03  0.12500000000E+03 0.  0.
        -11    1    3    3    0    0  0.56382695624E+01 -0.72050513807E+01 -0.38036483404E+02  0.39121310294E+02  0.51100000000E-03 0. -1.
         23    2    1    0    0    0  0.28778026289E+01 -0.23232626998E+02  0.16713521047E+02  0.96235812353E+02  0.91836556383E+02 0.  0.
         11    1    3    3    0    0 -0.27604669335E+01 -0.16027575617E+02  0.54750004451E+02  0.57114502060E+02  0.51100000000E-03 0.  1.
         22    1    1    0    0    0 -0.28778026289E+01  0.23232626998E+02 -0.16713521047E+02  0.28764187647E+02  0.00000000000E+00 0.  1.
</event>
<event>
 5    1  0.8752570E-005  0.9118800E+02  0.7818608E-02  0.1130116E+00
         25   -1    0    0    0    0  0.00000000000E+00  0.00000000000E+00  0.99999998245E-14  0.12500000000E+03  0.12500000000E+03 0.  0.
        -11    1    3    3    0    0  0.88816138785E+01  0.34764362532E+02  0.21038555150E+02  0.41594047295E+02  0.51100000000E-03 0.  1.
         23    2    1    0    0    0  0.18417387095E+02 -0.18196198786E+02  0.13085697443E+02  0.95990738113E+02  0.91502374440E+02 0.  0.
         11    1    3    3    0    0  0.95357732167E+01 -0.52960561318E+02 -0.79528577073E+01  0.54396690818E+02  0.51100000000E-03 0. -1.
         22    1    1    0    0    0 -0.18417387095E+02  0.18196198786E+02 -0.13085697443E+02  0.29009261887E+02  0.00000000000E+00 0. -1.
</event>
<event>
 5    1  0.8752570E-005  0.9118800E+02  0.7818608E-02  0.1130116E+00
         25   -1    0    0    0    0  0.00000000000E+00  0.00000000000E+00  0.99999998245E-14  0.12500000000E+03  0.12500000000E+03 0.  0.
        -11    1    3    3    0    0 -0.50334615167E+01 -0.39158348797E+02 -0.33131794983E+01  0.39619303048E+02  0.51100000000E-03 0.  1.
         23    2    1    0    0    0  0.63409812318E+00  0.71574645675E+01  0.28182811244E+02  0.95915601620E+02  0.91399673988E+02 0.  0.
         11    1    3    3    0    0  0.56675596399E+01  0.46315813364E+02  0.31495990743E+02  0.56296298573E+02  0.51100000000E-03 0. -1.
         22    1    1    0    0    0 -0.63409812318E+00 -0.71574645675E+01 -0.28182811244E+02  0.29084398380E+02  0.00000000000E+00 0. -1.
</event>
<event>
 5    1  0.8752570E-005  0.9118800E+02  0.7818608E-02  0.1130116E+00
         25   -1    0    0    0    0  0.00000000000E+00  0.00000000000E+00  0.99999998245E-14  0.12500000000E+03  0.12500000000E+03 0.  0.
        -11    1    3    3    0    0  0.36418132637E+02  0.11370095109E+02  0.16425277227E+02  0.41537322733E+02  0.51100000000E-03 0. -1.
         23    2    1    0    0    0 -0.18375542589E+02  0.15103195085E+02  0.15768755028E+02  0.96461942912E+02  0.92143831742E+02 0.  0.
         11    1    3    3    0    0 -0.54793675226E+02  0.37330999758E+01 -0.65652219829E+00  0.54924620179E+02  0.51100000000E-03 0.  1.
         22    1    1    0    0    0  0.18375542589E+02 -0.15103195085E+02 -0.15768755028E+02  0.28538057088E+02  0.00000000000E+00 0.  1.
</event>
<event>
 5    1  0.8752570E-005  0.9118800E+02  0.7818608E-02  0.1130116E+00
         25   -1    0    0    0    0  0.00000000000E+00  0.00000000000E+00  0.99999998245E-14  0.12500000000E+03  0.12500000000E+03 0.  0.
        -11    1    3    3    0    0 -0.79744146241E+01 -0.17300476846E+02 -0.38279202420E+02  0.42757398493E+02  0.51100000000E-03 0.  1.
         23    2    1    0    0    0 -0.17413879198E+02  0.22650441995E+02 -0.41765925783E+01  0.96125623178E+02  0.91686453713E+02 0.  0.
         11    1    3    3    0    0 -0.94394645740E+01  0.39950918841E+02  0.34102609842E+02  0.53368224685E+02  0.51100000000E-03 0. -1.
         22    1    1    0    0    0  0.17413879198E+02 -0.22650441995E+02  0.41765925783E+01  0.28874376822E+02  0.00000000000E+00 0.  1.
</event>
<event>
 5    1  0.8752570E-005  0.9118800E+02  0.7818608E-02  0.1130116E+00
         25   -1    0    0    0    0  0.00000000000E+00  0.00000000000E+00  0.99999998245E-14  0.12500000000E+03  0.12500000000E+03 0.  0.
        -11    1    3    3    0    0  0.60538483406E+01 -0.36601689227E+02 -0.12360929851E+01  0.37119545527E+02  0.51100000000E-03 0. -1.
         23    2    1    0    0    0  0.19507429063E+02  0.20869582225E+02 -0.36904388241E+01  0.96195510947E+02  0.91781685193E+02 0.  0.
         11    1    3    3    0    0  0.13453580722E+02  0.57471271452E+02 -0.24543458391E+01  0.59075965420E+02  0.51100000000E-03 0.  1.
         22    1    1    0    0    0 -0.19507429063E+02 -0.20869582225E+02  0.36904388241E+01  0.28804489053E+02  0.00000000000E+00 0.  1.
</event>
<event>
 5    1  0.8752570E-005  0.9118800E+02  0.7818608E-02  0.1130116E+00
         25   -1    0    0    0    0  0.00000000000E+00  0.00000000000E+00  0.99999998245E-14  0.12500000000E+03  0.12500000000E+03 0.  0.
        -11    1    3    3    0    0  0.32370017587E+02  0.12157725349E+02 -0.69504571234E+01  0.35269493599E+02  0.51100000000E-03 0.  1.
         23    2    1    0    0    0 -0.27682027266E+02  0.34875908170E+01  0.36439388953E+01  0.96862192446E+02  0.92685209777E+02 0.  0.
         11    1    3    3    0    0 -0.60052044854E+02 -0.86701345317E+01  0.10594396019E+02  0.61592698846E+02  0.51100000000E-03 0. -1.
         22    1    1    0    0    0  0.27682027266E+02 -0.34875908170E+01 -0.36439388953E+01  0.28137807554E+02  0.00000000000E+00 0. -1.
</event>
<event>
 5    1  0.8752570E-005  0.9118800E+02  0.7818608E-02  0.1130116E+00
         25   -1    0    0    0    0  0.00000000000E+00  0.00000000000E+00  0.99999998245E-14  0.12500000000E+03  0.12500000000E+03 0.  0.
        -11    1    3    3    0    0 -0.34109441978E+02  0.20616030305E+01 -0.48321875321E+02  0.59183679118E+02  0.51100000000E-03 0.  1.
         23    2    1    0    0    0 -0.10339999748E+02 -0.12642046742E+02 -0.22197614996E+02  0.97441497644E+02  0.93463224912E+02 0.  0.
         11    1    3    3    0    0  0.23769442230E+02 -0.14703649773E+02  0.26124260325E+02  0.38257818526E+02  0.51100000000E-03 0. -1.
         22    1    1    0    0    0  0.10339999748E+02  0.12642046742E+02  0.22197614996E+02  0.27558502356E+02  0.00000000000E+00 0.  1.
</event>
<event>
 5    1  0.8752570E-005  0.9118800E+02  0.7818608E-02  0.1130116E+00
         25   -1    0    0    0    0  0.00000000000E+00  0.00000000000E+00  0.99999998245E-14  0.12500000000E+03  0.12500000000E+03 0.  0.
        -11    1    3    3    0    0 -0.15615104345E+02  0.97708814690E+01 -0.28099269928E+02  0.33598669306E+02  0.51100000000E-03 0.  1.
         23    2    1    0    0    0  0.22417436270E+01 -0.14091180960E+02  0.25987359476E+02  0.95353252322E+02  0.90627330759E+02 0.  0.
         11    1    3    3    0    0  0.17856847972E+02 -0.23862062429E+02  0.54086629405E+02  0.61754583016E+02  0.51100000000E-03 0. -1.
         22    1    1    0    0    0 -0.22417436270E+01  0.14091180960E+02 -0.25987359476E+02  0.29646747678E+02  0.00000000000E+00 0. -1.
</event>
<event>
 5    1  0.8752570E-005  0.9118800E+02  0.7818608E-02  0.1130116E+00
         25   -1    0    0    0    0  0.00000000000E+00  0.00000000000E+00  0.99999998245E-14  0.12500000000E+03  0.12500000000E+03 0.  0.
        -11    1    3    3    0    0 -0.45152838333E+02 -0.29694902919E+02  0.10457533453E+02  0.55044764284E+02  0.51100000000E-03 0. -1.
         23    2    1    0    0    0 -0.15119353780E+02 -0.14046639468E+02  0.25579662238E+02  0.92133268199E+02  0.86071580965E+02 0.  0.
         11    1    3    3    0    0  0.30033484553E+02  0.15648263451E+02  0.15122128784E+02  0.37088503915E+02  0.51100000000E-03 0.  1.
         22    1    1    0    0    0  0.15119353780E+02  0.14046639468E+02 -0.25579662238E+02  0.32866731801E+02  0.00000000000E+00 0. -1.
</event>
<event>
 5    1  0.8752570E-005  0.9118800E+02  0.7818608E-02  0.1130116E+00
         25   -1    0    0    0    0  0.00000000000E+00  0.00000000000E+00  0.99999998245E-14  0.12500000000E+03  0.12500000000E+03 0.  0.
        -11    1    3    3    0    0  0.18737032469E+02 -0.27036623752E+02 -0.10635963801E+02  0.34571362945E+02  0.51100000000E-03 0.  1.
         23    2    1    0    0    0 -0.20868094666E+02  0.19115652738E+02 -0.86026160372E+01  0.95421451063E+02  0.90721346803E+02 0.  0.
         11    1    3    3    0    0 -0.39605127135E+02  0.46152276489E+02  0.20333477636E+01  0.60850088118E+02  0.51100000000E-03 0. -1.
         22    1    1    0    0    0  0.20868094666E+02 -0.19115652738E+02  0.86026160372E+01  0.29578548937E+02  0.00000000000E+00 0. -1.
</event>
<event>
 5    1  0.8752570E-005  0.9118800E+02  0.7818608E-02  0.1130116E+00
         25   -1    0    0    0    0  0.00000000000E+00  0.00000000000E+00  0.99999998245E-14  0.12500000000E+03  0.12500000000E+03 0.  0.
        -11    1    3    3    0    0  0.52629474636E+02 -0.10874271862E+02  0.91036574988E+01  0.54506769938E+02  0.51100000000E-03 0.  1.
         23    2    1    0    0    0  0.17629709046E+02 -0.23927457136E+02 -0.57888060607E+01  0.94720632080E+02  0.89750532143E+02 0.  0.
         11    1    3    3    0    0 -0.34999765590E+02 -0.13053185274E+02 -0.14892463559E+02  0.40213862141E+02  0.51100000000E-03 0. -1.
         22    1    1    0    0    0 -0.17629709046E+02  0.23927457136E+02  0.57888060607E+01  0.30279367920E+02  0.00000000000E+00 0.  1.
</event>
<event>
 5    1  0.8752570E-005  0.9118800E+02  0.7818608E-02  0.1130116E+00
         25   -1    0    0    0    0  0.00000000000E+00  0.00000000000E+00  0.99999998245E-14  0.12500000000E+03  0.12500000000E+03 0.  0.
        -11    1    3    3    0    0  0.30764485972E+02 -0.27841715406E+02 -0.27164202214E+01  0.41581169451E+02  0.51100000000E-03 0. -1.
         23    2    1    0    0    0 -0.21086704883E+02 -0.21337142007E+02  0.55608631086E+01  0.94490231886E+02  0.89429066704E+02 0.  0.
         11    1    3    3    0    0 -0.51851190855E+02  0.65045733986E+01  0.82772833301E+01  0.52909062435E+02  0.51100000000E-03 0.  1.
         22    1    1    0    0    0  0.21086704883E+02  0.21337142007E+02 -0.55608631086E+01  0.30509768114E+02  0.00000000000E+00 0.  1.
</event>
<event>
 5    1  0.8752570E-005  0.9118800E+02  0.7818608E-02  0.1130116E+00
         25   -1    0    0    0    0  0.00000000000E+00  0.00000000000E+00  0.99999998245E-14  0.12500000000E+03  0.12500000000E+03 0.  0.
        -11    1    3    3    0    0 -0.36345642288E+02 -0.28324719492E+02 -0.21523758313E+02  0.50858309251E+02  0.51100000000E-03 0. -1.
         23    2    1    0    0    0  0.40587450101E+01 -0.29220727286E+02 -0.29024028896E+01  0.95356311689E+02  0.90631550368E+02 0.  0.
         11    1    3    3    0    0  0.40404387298E+02 -0.89600779320E+00  0.18621355424E+02  0.44498002438E+02  0.51100000000E-03 0.  1.
         22    1    1    0    0    0 -0.40587450101E+01  0.29220727286E+02  0.29024028896E+01  0.29643688311E+02  0.00000000000E+00 0. -1.
</event>
<event>
 5    1  0.8752570E-005  0.9118800E+02  0.7818608E-02  0.1130116E+00
         25   -1    0    0    0    0  0.00000000000E+00  0.00000000000E+00  0.99999998245E-14  0.12500000000E+03  0.12500000000E+03 0.  0.
        -11    1    3    3    0    0 -0.32794577719E+02 -0.92726802173E+01 -0.50525496450E+02  0.60944997481E+02  0.51100000000E-03 0. -1.
         23    2    1    0    0    0 -0.19665942894E+02 -0.11261634454E+02 -0.18057401758E+02  0.96023397737E+02  0.91546979383E+02 0.  0.
         11    1    3    3    0    0  0.13128634824E+02 -0.19889542362E+01  0.32468094692E+02  0.35078400256E+02  0.51100000000E-03 0.  1.
         22    1    1    0    0    0  0.19665942894E+02  0.11261634454E+02  0.18057401758E+02  0.28976602263E+02  0.00000000000E+00 0. -1.
</event>
<event>
 5    1  0.8752570E-005  0.9118800E+02  0.7818608E-02  0.1130116E+00
         25   -1    0    0    0    0  0.00000000000E+00  0.00000000000E+00  0.99999998245E-14  0.12500000000E+03  0.12500000000E+03 0.  0.
        -11    1    3    3    0    0 -0.36304342346E+02  0.50341804710E+02  0.82607394650E+00  0.62072417167E+02  0.51100000000E-03 0.  1.
         23    2    1    0    0    0 -0.18022212776E+02  0.23440158506E+02  0.54778395338E+01  0.94929284843E+02  0.90040664206E+02 0.  0.
         11    1    3    3    0    0  0.18282129570E+02 -0.26901646204E+02  0.46517655873E+01  0.32856867675E+02  0.51100000000E-03 0. -1.
         22    1    1    0    0    0  0.18022212776E+02 -0.23440158506E+02 -0.54778395338E+01  0.30070715157E+02  0.00000000000E+00 0.  1.
</event>
<event>
 5    1  0.8752570E-005  0.9118800E+02  0.7818608E-02  0.1130116E+00
         25   -1    0    0    0    0  0.00000000000E+00  0.00000000000E+00  0.99999998245E-14  0.12500000000E+03  0.12500000000E+03 0.  0.
        -11    1    3    3    0    0  0.80986483328E+01 -0.41536356247E+02  0.29578188244E+02  0.51630671264E+02  0.51100000000E-03 0. -1.
         23    2    1    0    0    0 -0.78158374804E+01 -0.19359409358E+01  0.29615604447E+02  0.94309297669E+02  0.89175806232E+02 0.  0.
         11    1    3    3    0    0 -0.15914485813E+02  0.39600415311E+02  0.37416202748E-01  0.42678626404E+02  0.51100000000E-03 0.  1.
         22    1    1    0    0    0  0.78158374804E+01  0.19359409358E+01 -0.29615604447E+02  0.30690702331E+02  0.00000000000E+00 0. -1.
</event>
<event>
 5    1  0.8752570E-005  0.9118800E+02  0.7818608E-02  0.1130116E+00
         25   -1    0    0    0    0  0.00000000000E+00  0.00000000000E+00  0.99999998245E-14  0.12500000000E+03  0.12500000000E+03 0.  0.
        -11    1    3    3    0    0 -0.41138494943E+02 -0.35781876648E+01  0.18404867085E+02  0.45209714949E+02  0.51100000000E-03 0. -1.
         23    2    1    0    0    0  0.27281213786E+00 -0.29002766157E+02  0.56231745476E+01  0.95455881072E+02  0.90768773639E+02 0.  0.
         11    1    3    3    0    0  0.41411307080E+02 -0.25424578493E+02 -0.12781692538E+02  0.50246166123E+02  0.51100000000E-03 0.  1.
         22    1    1    0    0    0 -0.27281213786E+00  0.29002766157E+02 -0.56231745476E+01  0.29544118928E+02  0.00000000000E+00 0.  1.
</event>
<event>
 5    1  0.8752570E-005  0.9118800E+02  0.7818608E-02  0.1130116E+00
         25   -1    0    0    0    0  0.00000000000E+00  0.00000000000E+00  0.99999998245E-14  0.12500000000E+03  0.12500000000E+03 0.  0.
        -11    1    3    3    0    0  0.22307532458E+00 -0.52069276873E+02  0.29558490606E+00  0.52070593691E+02  0.51100000000E-03 0. -1.
         23    2    1    0    0    0 -0.22180326834E+01 -0.20730888534E+02  0.25285646936E+02  0.92227246845E+02  0.86207956195E+02 0.  0.
         11    1    3    3    0    0 -0.24411080080E+01  0.31338388339E+02  0.24990062030E+02  0.40156653154E+02  0.51100000000E-03 0.  1.
         22    1    1    0    0    0  0.22180326834E+01  0.20730888534E+02 -0.25285646936E+02  0.32772753155E+02  0.00000000000E+00 0. -1.
</event>
<event>
 5    1  0.8752570E-005  0.9118800E+02  0.7818608E-02  0.1130116E+00
         25   -1    0    0    0    0  0.00000000000E+00  0.00000000000E+00  0.99999998245E-14  0.12500000000E+03  0.12500000000E+03 0.  0.
        -11    1    3    3    0    0 -0.23333228481E+02 -0.39674834259E+02  0.84026331458E+01  0.46788206515E+02  0.51100000000E-03 0.  1.
         23    2    1    0    0    0 -0.33655295859E+01 -0.27465240196E+01 -0.24494503722E+02  0.10012328607E+03  0.96983614680E+02 0.  0.
         11    1    3    3    0    0  0.19967698895E+02  0.36928310240E+02 -0.32897136868E+02  0.53335079551E+02  0.51100000000E-03 0. -1.
         22    1    1    0    0    0  0.33655295859E+01  0.27465240196E+01  0.24494503722E+02  0.24876713934E+02  0.00000000000E+00 0. -1.
</event>
<event>
 5    1  0.8752570E-005  0.9118800E+02  0.7818608E-02  0.1130116E+00
         25   -1    0    0    0    0  0.00000000000E+00  0.00000000000E+00  0.99999998245E-14  0.12500000000E+03  0.12500000000E+03 0.  0.
        -11    1    3    3    0    0 -0.27090188332E+01 -0.35792378100E+01  0.58519158121E+02  0.58691069115E+02  0.51100000000E-03 0.  1.
         23    2    1    0    0    0  0.65743155891E+01  0.11602433626E+02  0.26983957564E+02  0.94900630284E+02  0.90000875390E+02 0.  0.
         11    1    3    3    0    0  0.92833344223E+01  0.15181671436E+02 -0.31535200557E+02  0.36209561169E+02  0.51100000000E-03 0. -1.
         22    1    1    0    0    0 -0.65743155891E+01 -0.11602433626E+02 -0.26983957564E+02  0.30099369716E+02  0.00000000000E+00 0.  1.
</event>
<event>
 5    1  0.8752570E-005  0.9118800E+02  0.7818608E-02  0.1130116E+00
         25   -1    0    0    0    0  0.00000000000E+00  0.00000000000E+00  0.99999998245E-14  0.12500000000E+03  0.12500000000E+03 0.  0.
        -11    1    3    3    0    0 -0.21181974659E+02  0.33440648525E+02  0.65571050679E+01  0.40124165429E+02  0.51100000000E-03 0.  1.
         23    2    1    0    0    0 -0.15537943245E+02 -0.15735095313E+02 -0.19012312281E+02  0.95836856770E+02  0.91291917454E+02 0.  0.
         11    1    3    3    0    0  0.56440314131E+01 -0.49175743838E+02 -0.25569417349E+02  0.55712691341E+02  0.51100000000E-03 0. -1.
         22    1    1    0    0    0  0.15537943245E+02  0.15735095313E+02  0.19012312281E+02  0.29163143230E+02  0.00000000000E+00 0. -1.
</event>
<event>
 5    1  0.8752570E-005  0.9118800E+02  0.7818608E-02  0.1130116E+00
         25   -1    0    0    0    0  0.00000000000E+00  0.00000000000E+00  0.99999998245E-14  0.12500000000E+03  0.12500000000E+03 0.  0.
        -11    1    3    3    0    0 -0.34363451946E+02  0.14105079518E+01 -0.19874928614E+02  0.39722149363E+02  0.51100000000E-03 0. -1.
         23    2    1    0    0    0  0.11654539089E+02  0.58765473039E+01  0.20228682502E+02  0.10092591257E+03  0.98012642774E+02 0.  0.
         11    1    3    3    0    0  0.46017991035E+02  0.44660393521E+01  0.40103611117E+02  0.61203763211E+02  0.51100000000E-03 0.  1.
         22    1    1    0    0    0 -0.11654539089E+02 -0.58765473039E+01 -0.20228682502E+02  0.24074087425E+02  0.00000000000E+00 0.  1.
</event>
<event>
 4    1  0.8752570E-005  0.9118800E+02  0.7818608E-02  0.1130116E+00
         25   -1    0    0    0    0  0.00000000000E+00  0.00000000000E+00  0.99999998245E-14  0.12500000000E+03  0.12500000000E+03 0.  0.
        -11    1    1    0    0    0 -0.14409485262E+02  0.34130166460E+02 -0.34470058056E+02  0.50603225497E+02  0.51100000000E-03 0.  1.
         11    1    1    0    0    0 -0.20099639194E+02 -0.52392146039E+01  0.85670599255E+01  0.22468631054E+02  0.51100000000E-03 0. -1.
         22    1    1    0    0    0  0.34509124456E+02 -0.28890951856E+02  0.25902998131E+02  0.51928143449E+02  0.00000000000E+00 0.  1.
</event>
<event>
 5    1  0.8752570E-005  0.9118800E+02  0.7818608E-02  0.1130116E+00
         25   -1    0    0    0    0  0.00000000000E+00  0.00000000000E+00  0.99999998245E-14  0.12500000000E+03  0.12500000000E+03 0.  0.
        -11    1    3    3    0    0 -0.26440139299E+02 -0.34415889758E+02 -0.49155062921E+01  0.43677186681E+02  0.51100000000E-03 0.  1.
         23    2    1    0    0    0  0.14893847879E+02 -0.14289338671E+02  0.20247613797E+02  0.96086719855E+02  0.91633399826E+02 0.  0.
         11    1    3    3    0    0  0.41333987178E+02  0.20126551087E+02  0.25163120089E+02  0.52409533174E+02  0.51100000000E-03 0. -1.
         22    1    1    0    0    0 -0.14893847879E+02  0.14289338671E+02 -0.20247613797E+02  0.28913280145E+02  0.00000000000E+00 0.  1.
</event>
<event>
 5    1  0.8752570E-005  0.9118800E+02  0.7818608E-02  0.1130116E+00
         25   -1    0    0    0    0  0.00000000000E+00  0.00000000000E+00  0.99999998245E-14  0.12500000000E+03  0.12500000000E+03 0.  0.
        -11    1    3    3    0    0  0.41173897561E+02 -0.19591711522E+01 -0.96438397594E+01  0.42333578133E+02  0.51100000000E-03 0. -1.
         23    2    1    0    0    0 -0.12517712695E+00  0.29349361187E+02  0.24411233026E+01  0.95549027956E+02  0.90896958084E+02 0.  0.
         11    1    3    3    0    0 -0.41299074688E+02  0.31308532339E+02  0.12084963062E+02  0.53215449822E+02  0.51100000000E-03 0.  1.
         22    1    1    0    0    0  0.12517712695E+00 -0.29349361187E+02 -0.24411233026E+01  0.29450972044E+02  0.00000000000E+00 0. -1.
</event>
<event>
 5    1  0.8752570E-005  0.9118800E+02  0.7818608E-02  0.1130116E+00
         25   -1    0    0    0    0  0.00000000000E+00  0.00000000000E+00  0.99999998245E-14  0.12500000000E+03  0.12500000000E+03 0.  0.
        -11    1    3    3    0    0 -0.17120758861E+02  0.33426186309E+02 -0.46250234873E+02  0.59577802420E+02  0.51100000000E-03 0.  1.
         23    2    1    0    0    0 -0.40060890693E+01  0.47680937543E+01 -0.28661002993E+02  0.95670210362E+02  0.91063453648E+02 0.  0.
         11    1    3    3    0    0  0.13114669792E+02 -0.28658092554E+02  0.17589231880E+02  0.36092407941E+02  0.51100000000E-03 0. -1.
         22    1    1    0    0    0  0.40060890693E+01 -0.47680937543E+01  0.28661002993E+02  0.29329789638E+02  0.00000000000E+00 0.  1.
</event>
<event>
 5    1  0.8752570E-005  0.9118800E+02  0.7818608E-02  0.1130116E+00
         25   -1    0    0    0    0  0.00000000000E+00  0.00000000000E+00  0.99999998245E-14  0.12500000000E+03  0.12500000000E+03 0.  0.
        -11    1    3    3    0    0 -0.38660292446E+02  0.36675745704E+01  0.48592830913E+02  0.62203959131E+02  0.51100000000E-03 0.  1.
         23    2    1    0    0    0 -0.13959104621E+02 -0.19018580734E+01  0.21574551519E+02  0.99233065001E+02  0.95829360064E+02 0.  0.
         11    1    3    3    0    0  0.24701187824E+02 -0.55694326437E+01 -0.27018279393E+02  0.37029105870E+02  0.51100000000E-03 0. -1.
         22    1    1    0    0    0  0.13959104621E+02  0.19018580734E+01 -0.21574551519E+02  0.25766934999E+02  0.00000000000E+00 0.  1.
</event>
<event>
 5    1  0.8752570E-005  0.9118800E+02  0.7818608E-02  0.1130116E+00
         25   -1    0    0    0    0  0.00000000000E+00  0.00000000000E+00  0.99999998245E-14  0.12500000000E+03  0.12500000000E+03 0.  0.
        -11    1    3    3    0    0 -0.89480079563E+01 -0.37866692572E+02 -0.44727195884E+02  0.59283010252E+02  0.51100000000E-03 0. -1.
         23    2    1    0    0    0  0.70117723442E+01 -0.25866014456E+02 -0.17714413340E+02  0.92874992681E+02  0.87142114791E+02 0.  0.
         11    1    3    3    0    0  0.15959780300E+02  0.12000678116E+02  0.27012782544E+02  0.33591982428E+02  0.51100000000E-03 0.  1.
         22    1    1    0    0    0 -0.70117723442E+01  0.25866014456E+02  0.17714413340E+02  0.32125007319E+02  0.00000000000E+00 0. -1.
</event>
<event>
 5    1  0.8752570E-005  0.9118800E+02  0.7818608E-02  0.1130116E+00
         25   -1    0    0    0    0  0.00000000000E+00  0.00000000000E+00  0.99999998245E-14  0.12500000000E+03  0.12500000000E+03 0.  0.
        -11    1    3    3    0    0  0.13863400381E+02 -0.10878813067E+02  0.41361541705E+02  0.44959087806E+02  0.51100000000E-03 0.  1.
         23    2    1    0    0    0  0.23995335083E+02 -0.16341575249E+02 -0.73831675467E+01  0.95044460439E+02  0.90200416351E+02 0.  0.
         11    1    3    3    0    0  0.10131934701E+02 -0.54627621820E+01 -0.48744709252E+02  0.50085372633E+02  0.51100000000E-03 0. -1.
         22    1    1    0    0    0 -0.23995335083E+02  0.16341575249E+02  0.73831675467E+01  0.29955539561E+02  0.00000000000E+00 0. -1.
</event>
<event>
 5    1  0.8752570E-005  0.9118800E+02  0.7818608E-02  0.1130116E+00
         25   -1    0    0    0    0  0.00000000000E+00  0.00000000000E+00  0.99999998245E-14  0.12500000000E+03  0.12500000000E+03 0.  0.
        -11    1    3    3    0    0  0.11913610490E+01 -0.32137195978E+02  0.73031396071E+01  0.32978092043E+02  0.51100000000E-03 0. -1.
         23    2    1    0    0    0  0.25400561538E+01  0.29218638929E+02 -0.40588160281E+01  0.95391644191E+02  0.90680268239E+02 0.  0.
         11    1    3    3    0    0  0.13486951049E+01  0.61355834907E+02 -0.11361955635E+02  0.62413552148E+02  0.51100000000E-03 0.  1.
         22    1    1    0    0    0 -0.25400561538E+01 -0.29218638929E+02  0.40588160281E+01  0.29608355809E+02  0.00000000000E+00 0.  1.
</event>
<event>
 5    1  0.8752570E-005  0.9118800E+02  0.7818608E-02  0.1130116E+00
         25   -1    0    0    0    0  0.00000000000E+00  0.00000000000E+00  0.99999998245E-14  0.12500000000E+03  0.12500000000E+03 0.  0.
        -11    1    3    3    0    0  0.30477705080E+02 -0.27600811644E+02 -0.44873360785E+02  0.60863074345E+02  0.51100000000E-03 0. -1.
         23    2    1    0    0    0  0.51616605808E+01 -0.16944201661E+02 -0.22964348080E+02  0.95998103637E+02  0.91512435818E+02 0.  0.
         11    1    3    3    0    0 -0.25316044499E+02  0.10656609983E+02  0.21909012705E+02  0.35135029292E+02  0.51100000000E-03 0.  1.
         22    1    1    0    0    0 -0.51616605808E+01  0.16944201661E+02  0.22964348080E+02  0.29001896363E+02  0.00000000000E+00 0. -1.
</event>
<event>
 5    1  0.8752570E-005  0.9118800E+02  0.7818608E-02  0.1130116E+00
         25   -1    0    0    0    0  0.00000000000E+00  0.00000000000E+00  0.99999998245E-14  0.12500000000E+03  0.12500000000E+03 0.  0.
        -11    1    3    3    0    0 -0.49233473612E+02 -0.30957752457E+02  0.19431893635E+02  0.61318152708E+02  0.51100000000E-03 0. -1.
         23    2    1    0    0    0 -0.23380094869E+02 -0.15889712407E+02  0.50197329376E+00  0.96726977989E+02  0.92502672919E+02 0.  0.
         11    1    3    3    0    0  0.25853378743E+02  0.15068040050E+02 -0.18929920341E+02  0.35408825281E+02  0.51100000000E-03 0.  1.
         22    1    1    0    0    0  0.23380094869E+02  0.15889712407E+02 -0.50197329376E+00  0.28273022011E+02  0.00000000000E+00 0. -1.
</event>
<event>
 5    1  0.8752570E-005  0.9118800E+02  0.7818608E-02  0.1130116E+00
         25   -1    0    0    0    0  0.00000000000E+00  0.00000000000E+00  0.99999998245E-14  0.12500000000E+03  0.12500000000E+03 0.  0.
        -11    1    3    3    0    0  0.56559222659E+02 -0.50671295201E+01  0.18850353894E+02  0.59832744476E+02  0.51100000000E-03 0.  1.
         23    2    1    0    0    0  0.19922625666E+02 -0.43890279578E+00  0.19984527213E+02  0.96777934572E+02  0.92571505567E+02 0.  0.
         11    1    3    3    0    0 -0.36636596993E+02  0.46282267243E+01  0.11341733195E+01  0.36945190096E+02  0.51100000000E-03 0. -1.
         22    1    1    0    0    0 -0.19922625666E+02  0.43890279578E+00 -0.19984527213E+02  0.28222065428E+02  0.00000000000E+00 0.  1.
</event>
<event>
 5    1  0.8752570E-005  0.9118800E+02  0.7818608E-02  0.1130116E+00
         25   -1    0    0    0    0  0.00000000000E+00  0.00000000000E+00  0.99999998245E-14  0.12500000000E+03  0.12500000000E+03 0.  0.
        -11    1    3    3    0    0 -0.53494334753E+02 -0.10983407654E+02  0.15927235579E+02  0.56885463238E+02  0.51100000000E-03 0.  1.
         23    2    1    0    0    0 -0.28895126601E+02  0.87605546955E+01 -0.45109985994E+01  0.94470919303E+02  0.89402068352E+02 0.  0.
         11    1    3    3    0    0  0.24599208152E+02  0.19743962350E+02 -0.20438234179E+02  0.37585456065E+02  0.51100000000E-03 0. -1.
         22    1    1    0    0    0  0.28895126601E+02 -0.87605546955E+01  0.45109985994E+01  0.30529080697E+02  0.00000000000E+00 0.  1.
</event>
<event>
 5    1  0.8752570E-005  0.9118800E+02  0.7818608E-02  0.1130116E+00
         25   -1    0    0    0    0  0.00000000000E+00  0.00000000000E+00  0.99999998245E-14  0.12500000000E+03  0.12500000000E+03 0.  0.
        -11    1    3    3    0    0 -0.26824832398E+02 -0.51588045379E+02  0.74989347557E+01  0.58627059298E+02  0.51100000000E-03 0. -1.
         23    2    1    0    0    0 -0.68586037094E+00 -0.29607654309E+02  0.11942243993E+02  0.93067245817E+02  0.87417455089E+02 0.  0.
         11    1    3    3    0    0  0.26138972027E+02  0.21980391070E+02  0.44433092376E+01  0.34440186519E+02  0.51100000000E-03 0.  1.
         22    1    1    0    0    0  0.68586037094E+00  0.29607654309E+02 -0.11942243993E+02  0.31932754183E+02  0.00000000000E+00 0. -1.
</event>
<event>
 5    1  0.8752570E-005  0.9118800E+02  0.7818608E-02  0.1130116E+00
         25   -1    0    0    0    0  0.00000000000E+00  0.00000000000E+00  0.99999998245E-14  0.12500000000E+03  0.12500000000E+03 0.  0.
        -11    1    3    3    0    0 -0.23645750672E+01 -0.41588434382E+02  0.18677671637E+02  0.45651336318E+02  0.51100000000E-03 0. -1.
         23    2    1    0    0    0 -0.29150605538E+02 -0.21422669008E+01  0.42780809221E+01  0.95459365493E+02  0.90773571998E+02 0.  0.
         11    1    3    3    0    0 -0.26786030470E+02  0.39446167481E+02 -0.14399590715E+02  0.49808029175E+02  0.51100000000E-03 0.  1.
         22    1    1    0    0    0  0.29150605538E+02  0.21422669008E+01 -0.42780809221E+01  0.29540634507E+02  0.00000000000E+00 0.  1.
</event>
<event>
 5    1  0.8752570E-005  0.9118800E+02  0.7818608E-02  0.1130116E+00
         25   -1    0    0    0    0  0.00000000000E+00  0.00000000000E+00  0.99999998245E-14  0.12500000000E+03  0.12500000000E+03 0.  0.
        -11    1    3    3    0    0 -0.44712675316E+02 -0.17342365193E+02 -0.11796999461E+02  0.49387753147E+02  0.51100000000E-03 0.  1.
         23    2    1    0    0    0 -0.28266224944E+01 -0.58419408849E+01 -0.28384213056E+02  0.95883310305E+02  0.91355501072E+02 0.  0.
         11    1    3    3    0    0  0.41886052822E+02  0.11500424308E+02 -0.16587213595E+02  0.46495557157E+02  0.51100000000E-03 0. -1.
         22    1    1    0    0    0  0.28266224944E+01  0.58419408849E+01  0.28384213056E+02  0.29116689695E+02  0.00000000000E+00 0.  1.
</event>
<event>
 5    1  0.8752570E-005  0.9118800E+02  0.7818608E-02  0.1130116E+00
         25   -1    0    0    0    0  0.00000000000E+00  0.00000000000E+00  0.99999998245E-14  0.12500000000E+03  0.12500000000E+03 0.  0.
        -11    1    3    3    0    0 -0.46476272595E+02 -0.19796854243E+01 -0.40067062833E+01  0.46690649644E+02  0.51100000000E-03 0. -1.
         23    2    1    0    0    0 -0.49746396491E+01  0.15918189676E+02 -0.23723851310E+02  0.96000742714E+02  0.91516040552E+02 0.  0.
         11    1    3    3    0    0  0.41501632946E+02  0.17897875100E+02 -0.19717145027E+02  0.49310093069E+02  0.51100000000E-03 0.  1.
         22    1    1    0    0    0  0.49746396491E+01 -0.15918189676E+02  0.23723851310E+02  0.28999257286E+02  0.00000000000E+00 0.  1.
</event>
<event>
 5    1  0.8752570E-005  0.9118800E+02  0.7818608E-02  0.1130116E+00
         25   -1    0    0    0    0  0.00000000000E+00  0.00000000000E+00  0.99999998245E-14  0.12500000000E+03  0.12500000000E+03 0.  0.
        -11    1    3    3    0    0 -0.47534266888E+02 -0.66701749642E+01 -0.24635889789E+02  0.53952987207E+02  0.51100000000E-03 0.  1.
         23    2    1    0    0    0 -0.51691774392E+01 -0.68034405942E+01 -0.27292268100E+02  0.96401484350E+02  0.92061778646E+02 0.  0.
         11    1    3    3    0    0  0.42365089448E+02 -0.13326562995E+00 -0.26563783116E+01  0.42448497143E+02  0.51100000000E-03 0. -1.
         22    1    1    0    0    0  0.51691774392E+01  0.68034405942E+01  0.27292268100E+02  0.28598515650E+02  0.00000000000E+00 0.  1.
</event>
<event>
 5    1  0.8752570E-005  0.9118800E+02  0.7818608E-02  0.1130116E+00
         25   -1    0    0    0    0  0.00000000000E+00  0.00000000000E+00  0.99999998245E-14  0.12500000000E+03  0.12500000000E+03 0.  0.
        -11    1    3    3    0    0 -0.31016750105E+02 -0.88850763801E+01 -0.13964040656E+02  0.35156475948E+02  0.51100000000E-03 0.  1.
         23    2    1    0    0    0  0.27314671173E+02  0.59753997194E+01 -0.93075902263E+01  0.95530899251E+02  0.90872024368E+02 0.  0.
         11    1    3    3    0    0  0.58331421279E+02  0.14860476100E+02  0.46564504300E+01  0.60374423303E+02  0.51100000000E-03 0. -1.
         22    1    1    0    0    0 -0.27314671173E+02 -0.59753997194E+01  0.93075902263E+01  0.29469100749E+02  0.00000000000E+00 0. -1.
</event>
<event>
 5    1  0.8752570E-005  0.9118800E+02  0.7818608E-02  0.1130116E+00
         25   -1    0    0    0    0  0.00000000000E+00  0.00000000000E+00  0.99999998245E-14  0.12500000000E+03  0.12500000000E+03 0.  0.
        -11    1    3    3    0    0  0.32611784399E+02  0.72513605756E+01 -0.44105567450E+02  0.55330026136E+02  0.51100000000E-03 0.  1.
         23    2    1    0    0    0  0.94387654888E+01  0.23391421492E+02 -0.16260044584E+02  0.94989369496E+02  0.90124038824E+02 0.  0.
         11    1    3    3    0    0 -0.23173018910E+02  0.16140060917E+02  0.27845522866E+02  0.39659343360E+02  0.51100000000E-03 0. -1.
         22    1    1    0    0    0 -0.94387654888E+01 -0.23391421492E+02  0.16260044584E+02  0.30010630504E+02  0.00000000000E+00 0.  1.
</event>
<event>
 5    1  0.8752570E-005  0.9118800E+02  0.7818608E-02  0.1130116E+00
         25   -1    0    0    0    0  0.00000000000E+00  0.00000000000E+00  0.99999998245E-14  0.12500000000E+03  0.12500000000E+03 0.  0.
        -11    1    3    3    0    0 -0.19783054772E+02 -0.42602892799E+02 -0.24876362694E+02  0.53152696565E+02  0.51100000000E-03 0. -1.
         23    2    1    0    0    0 -0.21487147429E+02 -0.25998245471E+00 -0.19705169092E+02  0.95844232398E+02  0.91302015857E+02 0.  0.
         11    1    3    3    0    0 -0.17040926567E+01  0.42342910345E+02  0.51711936019E+01  0.42691535833E+02  0.51100000000E-03 0.  1.
         22    1    1    0    0    0  0.21487147429E+02  0.25998245471E+00  0.19705169092E+02  0.29155767602E+02  0.00000000000E+00 0. -1.
</event>
<event>
 5    1  0.8752570E-005  0.9118800E+02  0.7818608E-02  0.1130116E+00
         25   -1    0    0    0    0  0.00000000000E+00  0.00000000000E+00  0.99999998245E-14  0.12500000000E+03  0.12500000000E+03 0.  0.
        -11    1    3    3    0    0 -0.65231761508E+01  0.26051007399E+02 -0.48883603167E+02  0.55774666941E+02  0.51100000000E-03 0.  1.
         23    2    1    0    0    0  0.74461592354E+01 -0.61131310001E+01 -0.25015278340E+02  0.98193661040E+02  0.94463830433E+02 0.  0.
         11    1    3    3    0    0  0.13969335386E+02 -0.32164138399E+02  0.23868324827E+02  0.42418994099E+02  0.51100000000E-03 0. -1.
         22    1    1    0    0    0 -0.74461592354E+01  0.61131310001E+01  0.25015278340E+02  0.26806338960E+02  0.00000000000E+00 0.  1.
</event>
<event>
 5    1  0.8752570E-005  0.9118800E+02  0.7818608E-02  0.1130116E+00
         25   -1    0    0    0    0  0.00000000000E+00  0.00000000000E+00  0.99999998245E-14  0.12500000000E+03  0.12500000000E+03 0.  0.
        -11    1    3    3    0    0  0.37516064786E+02  0.29832387481E+02 -0.37740454204E+02  0.61006297574E+02  0.51100000000E-03 0.  1.
         23    2    1    0    0    0  0.14524522075E+02  0.70954116971E+01 -0.23824680311E+02  0.96208994450E+02  0.91800046909E+02 0.  0.
         11    1    3    3    0    0 -0.22991542711E+02 -0.22736975784E+02  0.13915773894E+02  0.35202696876E+02  0.51100000000E-03 0. -1.
         22    1    1    0    0    0 -0.14524522075E+02 -0.70954116971E+01  0.23824680311E+02  0.28791005550E+02  0.00000000000E+00 0.  1.
</event>
<event>
 5    1  0.8752570E-005  0.9118800E+02  0.7818608E-02  0.1130116E+00
         25   -1    0    0    0    0  0.00000000000E+00  0.00000000000E+00  0.99999998245E-14  0.12500000000E+03  0.12500000000E+03 0.  0.
        -11    1    3    3    0    0  0.42903243329E+02 -0.97815048951E+01  0.91670242014E+01  0.44948864937E+02  0.51100000000E-03 0.  1.
         23    2    1    0    0    0 -0.16314527155E+01 -0.29689350954E+02 -0.26699376772E+01  0.95146226952E+02  0.90341334603E+02 0.  0.
         11    1    3    3    0    0 -0.44534696044E+02 -0.19907846059E+02 -0.11836961879E+02  0.50197362015E+02  0.51100000000E-03 0. -1.
         22    1    1    0    0    0  0.16314527155E+01  0.29689350954E+02  0.26699376772E+01  0.29853773048E+02  0.00000000000E+00 0. -1.
</event>
<event>
 5    1  0.8752570E-005  0.9118800E+02  0.7818608E-02  0.1130116E+00
         25   -1    0    0    0    0  0.00000000000E+00  0.00000000000E+00  0.99999998245E-14  0.12500000000E+03  0.12500000000E+03 0.  0.
        -11    1    3    3    0    0 -0.22362348850E+02 -0.23060771634E+02 -0.30909011584E+02  0.44578479470E+02  0.51100000000E-03 0.  1.
         23    2    1    0    0    0 -0.16213731249E+02 -0.16030357077E+02  0.18979588457E+02  0.95333820484E+02  0.90600524949E+02 0.  0.
         11    1    3    3    0    0  0.61486176012E+01  0.70304145572E+01  0.49888600041E+02  0.50755341015E+02  0.51100000000E-03 0. -1.
         22    1    1    0    0    0  0.16213731249E+02  0.16030357077E+02 -0.18979588457E+02  0.29666179516E+02  0.00000000000E+00 0. -1.
</event>
<event>
 5    1  0.8752570E-005  0.9118800E+02  0.7818608E-02  0.1130116E+00
         25   -1    0    0    0    0  0.00000000000E+00  0.00000000000E+00  0.99999998245E-14  0.12500000000E+03  0.12500000000E+03 0.  0.
        -11    1    3    3    0    0 -0.12159150474E+01  0.16444323146E+01 -0.37007553805E+02  0.37064020909E+02  0.51100000000E-03 0. -1.
         23    2    1    0    0    0 -0.24120623906E+02 -0.66342697193E+01  0.15934767150E+02  0.95339675719E+02  0.90608602957E+02 0.  0.
         11    1    3    3    0    0 -0.22904708859E+02 -0.82787020339E+01  0.52942320955E+02  0.58275654810E+02  0.51100000000E-03 0.  1.
         22    1    1    0    0    0  0.24120623906E+02  0.66342697193E+01 -0.15934767150E+02  0.29660324281E+02  0.00000000000E+00 0.  1.
</event>
<event>
 5    1  0.8752570E-005  0.9118800E+02  0.7818608E-02  0.1130116E+00
         25   -1    0    0    0    0  0.00000000000E+00  0.00000000000E+00  0.99999998245E-14  0.12500000000E+03  0.12500000000E+03 0.  0.
        -11    1    3    3    0    0  0.13150688831E+02  0.52091747927E+02 -0.17300111952E+02  0.56442755891E+02  0.51100000000E-03 0. -1.
         23    2    1    0    0    0  0.64494858671E+01  0.24681272904E+02  0.11725760455E+02  0.96924128538E+02  0.92768702344E+02 0.  0.
         11    1    3    3    0    0 -0.67012029637E+01 -0.27410475023E+02  0.29025872406E+02  0.40481372647E+02  0.51100000000E-03 0.  1.
         22    1    1    0    0    0 -0.64494858671E+01 -0.24681272904E+02 -0.11725760455E+02  0.28075871462E+02  0.00000000000E+00 0. -1.
</event>
<event>
 5    1  0.8752570E-005  0.9118800E+02  0.7818608E-02  0.1130116E+00
         25   -1    0    0    0    0  0.00000000000E+00  0.00000000000E+00  0.99999998245E-14  0.12500000000E+03  0.12500000000E+03 0.  0.
        -11    1    3    3    0    0  0.22001824300E+01 -0.56305385594E+02  0.85191875743E+01  0.56988716487E+02  0.51100000000E-03 0.  1.
         23    2    1    0    0    0  0.72954273512E+01 -0.25917793839E+02 -0.13519847854E+02  0.94871249881E+02  0.89960060418E+02 0.  0.
         11    1    3    3    0    0  0.50952449212E+01  0.30387591755E+02 -0.22039035428E+02  0.37882533394E+02  0.51100000000E-03 0. -1.
         22    1    1    0    0    0 -0.72954273512E+01  0.25917793839E+02  0.13519847854E+02  0.30128750119E+02  0.00000000000E+00 0.  1.
</event>
<event>
 5    1  0.8752570E-005  0.9118800E+02  0.7818608E-02  0.1130116E+00
         25   -1    0    0    0    0  0.00000000000E+00  0.00000000000E+00  0.99999998245E-14  0.12500000000E+03  0.12500000000E+03 0.  0.
        -11    1    3    3    0    0  0.23537276305E+02 -0.25541475383E+02 -0.13960309250E+02  0.37433415222E+02  0.51100000000E-03 0.  1.
         23    2    1    0    0    0 -0.22511171231E+02 -0.56758645219E+01  0.16869395408E+02  0.96302530256E+02  0.91927322185E+02 0.  0.
         11    1    3    3    0    0 -0.46048447536E+02  0.19865610861E+02  0.30829704657E+02  0.58869115034E+02  0.51100000000E-03 0. -1.
         22    1    1    0    0    0  0.22511171231E+02  0.56758645219E+01 -0.16869395408E+02  0.28697469744E+02  0.00000000000E+00 0. -1.
</event>
<event>
 5    1  0.8752570E-005  0.9118800E+02  0.7818608E-02  0.1130116E+00
         25   -1    0    0    0    0  0.00000000000E+00  0.00000000000E+00  0.99999998245E-14  0.12500000000E+03  0.12500000000E+03 0.  0.
        -11    1    3    3    0    0 -0.33225628210E+02 -0.38347334946E+02 -0.40744309382E+01  0.50902470030E+02  0.51100000000E-03 0. -1.
         23    2    1    0    0    0 -0.29603644908E+02 -0.24306096376E+02 -0.27075671281E+02  0.78093133891E+02  0.62436235254E+02 0.  0.
         11    1    3    3    0    0  0.36219833021E+01  0.14041238570E+02 -0.23001240342E+02  0.27190663861E+02  0.51100000000E-03 0.  1.
         22    1    1    0    0    0  0.29603644908E+02  0.24306096376E+02  0.27075671281E+02  0.46906866109E+02  0.00000000000E+00 0. -1.
</event>
<event>
 5    1  0.8752570E-005  0.9118800E+02  0.7818608E-02  0.1130116E+00
         25   -1    0    0    0    0  0.00000000000E+00  0.00000000000E+00  0.99999998245E-14  0.12500000000E+03  0.12500000000E+03 0.  0.
        -11    1    3    3    0    0 -0.20443051279E+02  0.20304536953E+02  0.20409135350E+02  0.35308998463E+02  0.51100000000E-03 0. -1.
         23    2    1    0    0    0  0.28842657326E+02 -0.81987408337E+01  0.29001753097E+01  0.94874773865E+02  0.89964956879E+02 0.  0.
         11    1    3    3    0    0  0.49285708605E+02 -0.28503277786E+02 -0.17508960040E+02  0.59565775402E+02  0.51100000000E-03 0.  1.
         22    1    1    0    0    0 -0.28842657326E+02  0.81987408337E+01 -0.29001753097E+01  0.30125226135E+02  0.00000000000E+00 0.  1.
</event>
<event>
 5    1  0.8752570E-005  0.9118800E+02  0.7818608E-02  0.1130116E+00
         25   -1    0    0    0    0  0.00000000000E+00  0.00000000000E+00  0.99999998245E-14  0.12500000000E+03  0.12500000000E+03 0.  0.
        -11    1    3    3    0    0  0.46182954024E+02  0.11964599182E+02  0.10387637405E+02  0.48825402068E+02  0.51100000000E-03 0.  1.
         23    2    1    0    0    0  0.15961710832E+02  0.13465956664E+02 -0.23033355587E+02  0.93909106299E+02  0.88613072256E+02 0.  0.
         11    1    3    3    0    0 -0.30221243192E+02  0.15013574818E+01 -0.33420992992E+02  0.45083704231E+02  0.51100000000E-03 0. -1.
         22    1    1    0    0    0 -0.15961710832E+02 -0.13465956664E+02  0.23033355587E+02  0.31090893701E+02  0.00000000000E+00 0. -1.
</event>
<event>
 5    1  0.8752570E-005  0.9118800E+02  0.7818608E-02  0.1130116E+00
         25   -1    0    0    0    0  0.00000000000E+00  0.00000000000E+00  0.99999998245E-14  0.12500000000E+03  0.12500000000E+03 0.  0.
        -11    1    3    3    0    0  0.42033769205E+01 -0.34356564272E+01  0.35431617724E+02  0.35845106325E+02  0.51100000000E-03 0.  1.
         23    2    1    0    0    0  0.15184824976E+02  0.17533325334E+02 -0.18881236398E+02  0.95091849025E+02  0.90266063702E+02 0.  0.
         11    1    3    3    0    0  0.10981448055E+02  0.20968981761E+02 -0.54312854122E+02  0.59246742701E+02  0.51100000000E-03 0. -1.
         22    1    1    0    0    0 -0.15184824976E+02 -0.17533325334E+02  0.18881236398E+02  0.29908150975E+02  0.00000000000E+00 0. -1.
</event>
<event>
 5    1  0.8752570E-005  0.9118800E+02  0.7818608E-02  0.1130116E+00
         25   -1    0    0    0    0  0.00000000000E+00  0.00000000000E+00  0.99999998245E-14  0.12500000000E+03  0.12500000000E+03 0.  0.
        -11    1    3    3    0    0  0.53486735560E+01  0.34170484246E+02 -0.16354769266E+02  0.38258447177E+02  0.51100000000E-03 0. -1.
         23    2    1    0    0    0 -0.77893540141E+01 -0.22029778024E+02 -0.17209307099E+02  0.95980258331E+02  0.91488057049E+02 0.  0.
         11    1    3    3    0    0 -0.13138027570E+02 -0.56200262270E+02 -0.85453783327E+00  0.57721811153E+02  0.51100000000E-03 0.  1.
         22    1    1    0    0    0  0.77893540141E+01  0.22029778024E+02  0.17209307099E+02  0.29019741669E+02  0.00000000000E+00 0.  1.
</event>
<event>
 5    1  0.8752570E-005  0.9118800E+02  0.7818608E-02  0.1130116E+00
         25   -1    0    0    0    0  0.00000000000E+00  0.00000000000E+00  0.99999998245E-14  0.12500000000E+03  0.12500000000E+03 0.  0.
        -11    1    3    3    0    0  0.22769545186E+02  0.24697758560E+02  0.48221688466E+02  0.58768722163E+02  0.51100000000E-03 0. -1.
         23    2    1    0    0    0  0.43397655342E+01 -0.25430231549E+00  0.29878959760E+02  0.94806449847E+02  0.89869975307E+02 0.  0.
         11    1    3    3    0    0 -0.18429779652E+02 -0.24952060876E+02 -0.18342728706E+02  0.36037727684E+02  0.51100000000E-03 0.  1.
         22    1    1    0    0    0 -0.43397655342E+01  0.25430231549E+00 -0.29878959760E+02  0.30193550153E+02  0.00000000000E+00 0. -1.
</event>
<event>
 5    1  0.8752570E-005  0.9118800E+02  0.7818608E-02  0.1130116E+00
         25   -1    0    0    0    0  0.00000000000E+00  0.00000000000E+00  0.99999998245E-14  0.12500000000E+03  0.12500000000E+03 0.  0.
        -11    1    3    3    0    0  0.35578540991E+02  0.80664156518E+01  0.20461733694E+02  0.41828007203E+02  0.51100000000E-03 0. -1.
         23    2    1    0    0    0  0.66236870162E+01 -0.18766196873E+02 -0.18885381319E+02  0.97564603113E+02  0.93627724411E+02 0.  0.
         11    1    3    3    0    0 -0.28954853975E+02 -0.26832612525E+02 -0.39347115013E+02  0.55736595911E+02  0.51100000000E-03 0.  1.
         22    1    1    0    0    0 -0.66236870162E+01  0.18766196873E+02  0.18885381319E+02  0.27435396887E+02  0.00000000000E+00 0.  1.
</event>
<event>
 5    1  0.8752570E-005  0.9118800E+02  0.7818608E-02  0.1130116E+00
         25   -1    0    0    0    0  0.00000000000E+00  0.00000000000E+00  0.99999998245E-14  0.12500000000E+03  0.12500000000E+03 0.  0.
        -11    1    3    3    0    0  0.39692497185E+02 -0.11144160680E+02  0.33494327898E+01  0.41363091644E+02  0.51100000000E-03 0.  1.
         23    2    1    0    0    0 -0.91460125527E+01 -0.26380747897E+02 -0.11753402401E+02  0.94705844240E+02  0.89729934024E+02 0.  0.
         11    1    3    3    0    0 -0.48838509738E+02 -0.15236587217E+02 -0.15102835191E+02  0.53342752596E+02  0.51100000000E-03 0. -1.
         22    1    1    0    0    0  0.91460125527E+01  0.26380747897E+02  0.11753402401E+02  0.30294155760E+02  0.00000000000E+00 0.  1.
</event>
<event>
 5    1  0.8752570E-005  0.9118800E+02  0.7818608E-02  0.1130116E+00
         25   -1    0    0    0    0  0.00000000000E+00  0.00000000000E+00  0.99999998245E-14  0.12500000000E+03  0.12500000000E+03 0.  0.
        -11    1    3    3    0    0 -0.40769117076E+02 -0.18392468170E+02 -0.20866888340E+02  0.49354136826E+02  0.51100000000E-03 0. -1.
         23    2    1    0    0    0 -0.21895619498E+02 -0.51606711237E+01  0.19098884155E+02  0.95490373509E+02  0.90816261635E+02 0.  0.
         11    1    3    3    0    0  0.18873497579E+02  0.13231797046E+02  0.39965772495E+02  0.46136236684E+02  0.51100000000E-03 0.  1.
         22    1    1    0    0    0  0.21895619498E+02  0.51606711237E+01 -0.19098884155E+02  0.29509626491E+02  0.00000000000E+00 0.  1.
</event>
<event>
 5    1  0.8752570E-005  0.9118800E+02  0.7818608E-02  0.1130116E+00
         25   -1    0    0    0    0  0.00000000000E+00  0.00000000000E+00  0.99999998245E-14  0.12500000000E+03  0.12500000000E+03 0.  0.
        -11    1    3    3    0    0 -0.40924284790E+02  0.59433748532E+01 -0.59025202834E+00  0.41357818945E+02  0.51100000000E-03 0. -1.
         23    2    1    0    0    0 -0.21109639232E+02 -0.16128074027E+02 -0.31227988647E+02  0.84000988851E+02  0.73316077450E+02 0.  0.
         11    1    3    3    0    0  0.19814645558E+02 -0.22071448880E+02 -0.30637736618E+02  0.42643169905E+02  0.51100000000E-03 0.  1.
         22    1    1    0    0    0  0.21109639232E+02  0.16128074027E+02  0.31227988647E+02  0.40999011149E+02  0.00000000000E+00 0. -1.
</event>
<event>
 5    1  0.8752570E-005  0.9118800E+02  0.7818608E-02  0.1130116E+00
         25   -1    0    0    0    0  0.00000000000E+00  0.00000000000E+00  0.99999998245E-14  0.12500000000E+03  0.12500000000E+03 0.  0.
        -11    1    3    3    0    0 -0.93961816686E+01 -0.35201537631E+02  0.45840648880E+02  0.58555969564E+02  0.51100000000E-03 0.  1.
         23    2    1    0    0    0 -0.16406786541E+01 -0.27392899349E+02  0.10421162283E+02  0.95645896632E+02  0.91030072822E+02 0.  0.
         11    1    3    3    0    0  0.77555030144E+01  0.78086382820E+01 -0.35419486597E+02  0.37089927068E+02  0.51100000000E-03 0. -1.
         22    1    1    0    0    0  0.16406786541E+01  0.27392899349E+02 -0.10421162283E+02  0.29354103368E+02  0.00000000000E+00 0.  1.
</event>
<event>
 5    1  0.8752570E-005  0.9118800E+02  0.7818608E-02  0.1130116E+00
         25   -1    0    0    0    0  0.00000000000E+00  0.00000000000E+00  0.99999998245E-14  0.12500000000E+03  0.12500000000E+03 0.  0.
        -11    1    3    3    0    0 -0.38200158659E+02  0.15950246057E+02  0.57727425124E+01  0.41796973900E+02  0.51100000000E-03 0. -1.
         23    2    1    0    0    0  0.81391724367E+01  0.18525888290E+02 -0.21376270670E+02  0.95565333149E+02  0.90919377952E+02 0.  0.
         11    1    3    3    0    0  0.46339331095E+02  0.25756422328E+01 -0.27149013182E+02  0.53768359249E+02  0.51100000000E-03 0.  1.
         22    1    1    0    0    0 -0.81391724367E+01 -0.18525888290E+02  0.21376270670E+02  0.29434666851E+02  0.00000000000E+00 0.  1.
</event>
<event>
 5    1  0.8752570E-005  0.9118800E+02  0.7818608E-02  0.1130116E+00
         25   -1    0    0    0    0  0.00000000000E+00  0.00000000000E+00  0.99999998245E-14  0.12500000000E+03  0.12500000000E+03 0.  0.
        -11    1    3    3    0    0  0.26865029571E+01 -0.28041989438E+02 -0.15406631381E+02  0.32108172800E+02  0.51100000000E-03 0.  1.
         23    2    1    0    0    0 -0.10651346179E+02  0.29284306148E+02  0.27894467827E+01  0.93714176128E+02  0.88337670515E+02 0.  0.
         11    1    3    3    0    0 -0.13337849136E+02  0.57326295586E+02  0.18196078164E+02  0.61606003328E+02  0.51100000000E-03 0. -1.
         22    1    1    0    0    0  0.10651346179E+02 -0.29284306148E+02 -0.27894467827E+01  0.31285823872E+02  0.00000000000E+00 0. -1.
</event>
<event>
 5    1  0.8752570E-005  0.9118800E+02  0.7818608E-02  0.1130116E+00
         25   -1    0    0    0    0  0.00000000000E+00  0.00000000000E+00  0.99999998245E-14  0.12500000000E+03  0.12500000000E+03 0.  0.
        -11    1    3    3    0    0  0.25889568540E+02 -0.43937882351E+02  0.27650585255E+02  0.58011741311E+02  0.51100000000E-03 0.  1.
         23    2    1    0    0    0 -0.83522334898E+00 -0.14786208305E+02  0.22739024566E+02  0.97863441775E+02  0.94025849870E+02 0.  0.
         11    1    3    3    0    0 -0.26724791889E+02  0.29151674046E+02 -0.49115606890E+01  0.39851700464E+02  0.51100000000E-03 0. -1.
         22    1    1    0    0    0  0.83522334898E+00  0.14786208305E+02 -0.22739024566E+02  0.27136558225E+02  0.00000000000E+00 0.  1.
</event>
<event>
 5    1  0.8752570E-005  0.9118800E+02  0.7818608E-02  0.1130116E+00
         25   -1    0    0    0    0  0.00000000000E+00  0.00000000000E+00  0.99999998245E-14  0.12500000000E+03  0.12500000000E+03 0.  0.
        -11    1    3    3    0    0  0.27936448664E+02 -0.27168234067E+02 -0.45893317603E+02  0.60205935814E+02  0.51100000000E-03 0.  1.
         23    2    1    0    0    0  0.94067658948E+01 -0.36846079169E+01 -0.28394181105E+02  0.94862098601E+02  0.89947343765E+02 0.  0.
         11    1    3    3    0    0 -0.18529682770E+02  0.23483626150E+02  0.17499136498E+02  0.34656162788E+02  0.51100000000E-03 0. -1.
         22    1    1    0    0    0 -0.94067658948E+01  0.36846079169E+01  0.28394181105E+02  0.30137901399E+02  0.00000000000E+00 0.  1.
</event>
<event>
 5    1  0.8752570E-005  0.9118800E+02  0.7818608E-02  0.1130116E+00
         25   -1    0    0    0    0  0.00000000000E+00  0.00000000000E+00  0.99999998245E-14  0.12500000000E+03  0.12500000000E+03 0.  0.
        -11    1    3    3    0    0  0.21961745630E+02  0.18709472639E+02 -0.26998980462E+02  0.39513384869E+02  0.51100000000E-03 0.  1.
         23    2    1    0    0    0 -0.25481853619E+02 -0.74214956222E+01 -0.12944520788E+02  0.95470962095E+02  0.90789539727E+02 0.  0.
         11    1    3    3    0    0 -0.47443599250E+02 -0.26130968261E+02  0.14054459674E+02  0.55957577226E+02  0.51100000000E-03 0. -1.
         22    1    1    0    0    0  0.25481853619E+02  0.74214956222E+01  0.12944520788E+02  0.29529037905E+02  0.00000000000E+00 0. -1.
</event>
<event>
 5    1  0.8752570E-005  0.9118800E+02  0.7818608E-02  0.1130116E+00
         25   -1    0    0    0    0  0.00000000000E+00  0.00000000000E+00  0.99999998245E-14  0.12500000000E+03  0.12500000000E+03 0.  0.
        -11    1    3    3    0    0 -0.34883018842E+02 -0.11709979101E+01 -0.15546133566E+01  0.34937273256E+02  0.51100000000E-03 0.  1.
         23    2    1    0    0    0  0.20289992605E+02  0.21943908241E+02 -0.42240700675E+01  0.94816201752E+02  0.89883538192E+02 0.  0.
         11    1    3    3    0    0  0.55173011446E+02  0.23114906151E+02 -0.26694567109E+01  0.59878928496E+02  0.51100000000E-03 0. -1.
         22    1    1    0    0    0 -0.20289992605E+02 -0.21943908241E+02  0.42240700675E+01  0.30183798248E+02  0.00000000000E+00 0. -1.
</event>
<event>
 5    1  0.8752570E-005  0.9118800E+02  0.7818608E-02  0.1130116E+00
         25   -1    0    0    0    0  0.00000000000E+00  0.00000000000E+00  0.99999998245E-14  0.12500000000E+03  0.12500000000E+03 0.  0.
        -11    1    3    3    0    0  0.42204545731E+02 -0.54019029687E+01 -0.58806852792E+01  0.42953308321E+02  0.51100000000E-03 0.  1.
         23    2    1    0    0    0 -0.84662007093E+01 -0.10965975862E+02  0.20428033004E+02  0.10031733982E+03  0.97233404524E+02 0.  0.
         11    1    3    3    0    0 -0.50670746441E+02 -0.55640728933E+01  0.26308718284E+02  0.57364031501E+02  0.51100000000E-03 0. -1.
         22    1    1    0    0    0  0.84662007093E+01  0.10965975862E+02 -0.20428033004E+02  0.24682660179E+02  0.00000000000E+00 0. -1.
</event>
<event>
 5    1  0.8752570E-005  0.9118800E+02  0.7818608E-02  0.1130116E+00
         25   -1    0    0    0    0  0.00000000000E+00  0.00000000000E+00  0.99999998245E-14  0.12500000000E+03  0.12500000000E+03 0.  0.
        -11    1    3    3    0    0  0.51413154300E+02  0.12179043074E+02 -0.28708179362E+02  0.60131531561E+02  0.51100000000E-03 0.  1.
         23    2    1    0    0    0  0.20177382763E+02  0.16924800384E+02 -0.15993220054E+02  0.94188334500E+02  0.89006087572E+02 0.  0.
         11    1    3    3    0    0 -0.31235771537E+02  0.47457573100E+01  0.12714959308E+02  0.34056802939E+02  0.51100000000E-03 0. -1.
         22    1    1    0    0    0 -0.20177382763E+02 -0.16924800384E+02  0.15993220054E+02  0.30811665500E+02  0.00000000000E+00 0.  1.
</event>
<event>
 5    1  0.8752570E-005  0.9118800E+02  0.7818608E-02  0.1130116E+00
         25   -1    0    0    0    0  0.00000000000E+00  0.00000000000E+00  0.99999998245E-14  0.12500000000E+03  0.12500000000E+03 0.  0.
        -11    1    3    3    0    0 -0.22783448549E+02  0.13932825654E+02  0.38513060724E+02  0.46866459277E+02  0.51100000000E-03 0.  1.
         23    2    1    0    0    0 -0.27816832879E+02  0.13318042849E+01 -0.85673590202E+01  0.95863261427E+02  0.91328064453E+02 0.  0.
         11    1    3    3    0    0 -0.50333843297E+01 -0.12601021370E+02 -0.47080419745E+02  0.48996802150E+02  0.51100000000E-03 0. -1.
         22    1    1    0    0    0  0.27816832879E+02 -0.13318042849E+01  0.85673590202E+01  0.29136738573E+02  0.00000000000E+00 0. -1.
</event>
<event>
 5    1  0.8752570E-005  0.9118800E+02  0.7818608E-02  0.1130116E+00
         25   -1    0    0    0    0  0.00000000000E+00  0.00000000000E+00  0.99999998245E-14  0.12500000000E+03  0.12500000000E+03 0.  0.
        -11    1    3    3    0    0 -0.76247983408E+01  0.46088138851E+02 -0.11686766273E+02  0.48154279131E+02  0.51100000000E-03 0.  1.
         23    2    1    0    0    0  0.43408420369E+01  0.36265236543E+01 -0.28931784425E+02  0.95520469247E+02  0.90857676130E+02 0.  0.
         11    1    3    3    0    0  0.11965640378E+02 -0.42461615197E+02 -0.17245018152E+02  0.47366190116E+02  0.51100000000E-03 0. -1.
         22    1    1    0    0    0 -0.43408420369E+01 -0.36265236543E+01  0.28931784425E+02  0.29479530753E+02  0.00000000000E+00 0. -1.
</event>
<event>
 5    1  0.8752570E-005  0.9118800E+02  0.7818608E-02  0.1130116E+00
         25   -1    0    0    0    0  0.00000000000E+00  0.00000000000E+00  0.99999998245E-14  0.12500000000E+03  0.12500000000E+03 0.  0.
        -11    1    3    3    0    0  0.97604305988E+01  0.46303470889E+02 -0.14216205683E+02  0.49410301822E+02  0.51100000000E-03 0. -1.
         23    2    1    0    0    0  0.82899284394E+01  0.17383387769E+02  0.21987777556E+02  0.95770435417E+02  0.91200925731E+02 0.  0.
         11    1    3    3    0    0 -0.14705021593E+01 -0.28920083120E+02  0.36203983239E+02  0.46360133595E+02  0.51100000000E-03 0.  1.
         22    1    1    0    0    0 -0.82899284394E+01 -0.17383387769E+02 -0.21987777556E+02  0.29229564583E+02  0.00000000000E+00 0. -1.
</event>
<event>
 5    1  0.8752570E-005  0.9118800E+02  0.7818608E-02  0.1130116E+00
         25   -1    0    0    0    0  0.00000000000E+00  0.00000000000E+00  0.99999998245E-14  0.12500000000E+03  0.12500000000E+03 0.  0.
        -11    1    3    3    0    0 -0.73370804871E+01  0.30987025521E+02  0.14916880482E+02  0.35164496645E+02  0.51100000000E-03 0.  1.
         23    2    1    0    0    0  0.23864472380E+02 -0.18406402683E+02  0.61331795603E+01  0.94244112869E+02  0.89084388180E+02 0.  0.
         11    1    3    3    0    0  0.31201552867E+02 -0.49393428204E+02 -0.87837009221E+01  0.59079616224E+02  0.51100000000E-03 0. -1.
         22    1    1    0    0    0 -0.23864472380E+02  0.18406402683E+02 -0.61331795603E+01  0.30755887131E+02  0.00000000000E+00 0. -1.
</event>
<event>
 5    1  0.8752570E-005  0.9118800E+02  0.7818608E-02  0.1130116E+00
         25   -1    0    0    0    0  0.00000000000E+00  0.00000000000E+00  0.99999998245E-14  0.12500000000E+03  0.12500000000E+03 0.  0.
        -11    1    3    3    0    0  0.35755391087E+02  0.39996457933E+01  0.32623862175E+01  0.36126006178E+02  0.51100000000E-03 0.  1.
         23    2    1    0    0    0 -0.16146985604E+02 -0.29370871956E+01 -0.24589778345E+02  0.95436359758E+02  0.90741886357E+02 0.  0.
         11    1    3    3    0    0 -0.51902376691E+02 -0.69367329889E+01 -0.27852164563E+02  0.59310353580E+02  0.51100000000E-03 0. -1.
         22    1    1    0    0    0  0.16146985604E+02  0.29370871956E+01  0.24589778345E+02  0.29563640242E+02  0.00000000000E+00 0. -1.
</event>
<event>
 5    1  0.8752570E-005  0.9118800E+02  0.7818608E-02  0.1130116E+00
         25   -1    0    0    0    0  0.00000000000E+00  0.00000000000E+00  0.99999998245E-14  0.12500000000E+03  0.12500000000E+03 0.  0.
        -11    1    3    3    0    0  0.97215164091E+01  0.28641806056E+01  0.48130322888E+02  0.49185764134E+02  0.51100000000E-03 0.  1.
         23    2    1    0    0    0  0.26008149686E+02 -0.15057954820E+02  0.12089883529E+02  0.92606618929E+02  0.86756295059E+02 0.  0.
         11    1    3    3    0    0  0.16286633277E+02 -0.17922135426E+02 -0.36040439359E+02  0.43420854795E+02  0.51100000000E-03 0. -1.
         22    1    1    0    0    0 -0.26008149686E+02  0.15057954820E+02 -0.12089883529E+02  0.32393381071E+02  0.00000000000E+00 0.  1.
</event>
<event>
 5    1  0.8752570E-005  0.9118800E+02  0.7818608E-02  0.1130116E+00
         25   -1    0    0    0    0  0.00000000000E+00  0.00000000000E+00  0.99999998245E-14  0.12500000000E+03  0.12500000000E+03 0.  0.
        -11    1    3    3    0    0  0.17730996623E+02 -0.15625985650E+02  0.30045422740E+02  0.38226785068E+02  0.51100000000E-03 0. -1.
         23    2    1    0    0    0  0.61280843932E+01 -0.16901860175E+02 -0.24838166240E+02  0.94337958355E+02  0.89215971601E+02 0.  0.
         11    1    3    3    0    0 -0.11602912230E+02 -0.12758745248E+01 -0.54883588980E+02  0.56111173286E+02  0.51100000000E-03 0.  1.
         22    1    1    0    0    0 -0.61280843932E+01  0.16901860175E+02  0.24838166240E+02  0.30662041645E+02  0.00000000000E+00 0.  1.
</event>
<event>
 5    1  0.8752570E-005  0.9118800E+02  0.7818608E-02  0.1130116E+00
         25   -1    0    0    0    0  0.00000000000E+00  0.00000000000E+00  0.99999998245E-14  0.12500000000E+03  0.12500000000E+03 0.  0.
        -11    1    3    3    0    0 -0.41631092757E+02  0.60526325283E+00  0.18173262604E+02  0.45428864191E+02  0.51100000000E-03 0. -1.
         23    2    1    0    0    0 -0.52105012649E+01 -0.28337827148E+02 -0.19628731509E+01  0.96120342075E+02  0.91679253480E+02 0.  0.
         11    1    3    3    0    0  0.36420591492E+02 -0.28943090400E+02 -0.20136135755E+02  0.50691477883E+02  0.51100000000E-03 0.  1.
         22    1    1    0    0    0  0.52105012649E+01  0.28337827148E+02  0.19628731509E+01  0.28879657925E+02  0.00000000000E+00 0.  1.
</event>
<event>
 5    1  0.8752570E-005  0.9118800E+02  0.7818608E-02  0.1130116E+00
         25   -1    0    0    0    0  0.00000000000E+00  0.00000000000E+00  0.99999998245E-14  0.12500000000E+03  0.12500000000E+03 0.  0.
        -11    1    3    3    0    0  0.18757826054E+02 -0.63042112873E+01  0.13746289342E+02  0.24094804195E+02  0.51100000000E-03 0. -1.
         23    2    1    0    0    0 -0.33343072357E+02  0.67080052534E+01 -0.18042465012E+02  0.86499501920E+02  0.77458863147E+02 0.  0.
         11    1    3    3    0    0 -0.52100898411E+02  0.13012216541E+02 -0.31788754355E+02  0.62404697726E+02  0.51100000000E-03 0.  1.
         22    1    1    0    0    0  0.33343072357E+02 -0.67080052534E+01  0.18042465012E+02  0.38500498080E+02  0.00000000000E+00 0.  1.
</event>
<event>
 5    1  0.8752570E-005  0.9118800E+02  0.7818608E-02  0.1130116E+00
         25   -1    0    0    0    0  0.00000000000E+00  0.00000000000E+00  0.99999998245E-14  0.12500000000E+03  0.12500000000E+03 0.  0.
        -11    1    3    3    0    0 -0.38109782091E+02  0.41360172859E+02  0.16105286786E+02  0.58501279069E+02  0.51100000000E-03 0.  1.
         23    2    1    0    0    0 -0.70969478046E+01  0.30675116892E+02  0.50743292324E+01  0.93108335232E+02  0.87476189949E+02 0.  0.
         11    1    3    3    0    0  0.31012834286E+02 -0.10685055967E+02 -0.11030957553E+02  0.34607056163E+02  0.51100000000E-03 0. -1.
         22    1    1    0    0    0  0.70969478046E+01 -0.30675116892E+02 -0.50743292324E+01  0.31891664768E+02  0.00000000000E+00 0.  1.
</event>
<event>
 5    1  0.8752570E-005  0.9118800E+02  0.7818608E-02  0.1130116E+00
         25   -1    0    0    0    0  0.00000000000E+00  0.00000000000E+00  0.99999998245E-14  0.12500000000E+03  0.12500000000E+03 0.  0.
        -11    1    3    3    0    0  0.51382889761E+02  0.19959286196E+02 -0.26607453144E+02  0.61208912984E+02  0.51100000000E-03 0.  1.
         23    2    1    0    0    0  0.17766150626E+02  0.11492784140E+02 -0.18690249603E+02  0.96768003514E+02  0.92558094614E+02 0.  0.
         11    1    3    3    0    0 -0.33616739135E+02 -0.84665020559E+01  0.79172035414E+01  0.35559090530E+02  0.51100000000E-03 0. -1.
         22    1    1    0    0    0 -0.17766150626E+02 -0.11492784140E+02  0.18690249603E+02  0.28231996486E+02  0.00000000000E+00 0.  1.
</event>
<event>
 5    1  0.8752570E-005  0.9118800E+02  0.7818608E-02  0.1130116E+00
         25   -1    0    0    0    0  0.00000000000E+00  0.00000000000E+00  0.99999998245E-14  0.12500000000E+03  0.12500000000E+03 0.  0.
        -11    1    3    3    0    0 -0.24171862255E+02  0.42791121912E+02 -0.70132157988E+01  0.49644176249E+02  0.51100000000E-03 0. -1.
         23    2    1    0    0    0 -0.33970222991E+02  0.57693312991E+01 -0.12529666316E+02  0.88335933508E+02  0.80367800624E+02 0.  0.
         11    1    3    3    0    0 -0.97983607365E+01 -0.37021790612E+02 -0.55164505175E+01  0.38691757260E+02  0.51100000000E-03 0.  1.
         22    1    1    0    0    0  0.33970222991E+02 -0.57693312991E+01  0.12529666316E+02  0.36664066492E+02  0.00000000000E+00 0. -1.
</event>
<event>
 5    1  0.8752570E-005  0.9118800E+02  0.7818608E-02  0.1130116E+00
         25   -1    0    0    0    0  0.00000000000E+00  0.00000000000E+00  0.99999998245E-14  0.12500000000E+03  0.12500000000E+03 0.  0.
        -11    1    3    3    0    0 -0.18506463095E+00  0.35720417071E+02 -0.28634376518E+02  0.45781109243E+02  0.51100000000E-03 0. -1.
         23    2    1    0    0    0 -0.14341239613E+02  0.20477027842E+02  0.16202621410E+02  0.95208981833E+02  0.90428123160E+02 0.  0.
         11    1    3    3    0    0 -0.14156174982E+02 -0.15243389229E+02  0.44836997928E+02  0.49427872590E+02  0.51100000000E-03 0.  1.
         22    1    1    0    0    0  0.14341239613E+02 -0.20477027842E+02 -0.16202621410E+02  0.29791018167E+02  0.00000000000E+00 0.  1.
</event>
<event>
 5    1  0.8752570E-005  0.9118800E+02  0.7818608E-02  0.1130116E+00
         25   -1    0    0    0    0  0.00000000000E+00  0.00000000000E+00  0.99999998245E-14  0.12500000000E+03  0.12500000000E+03 0.  0.
        -11    1    3    3    0    0 -0.26159345005E+02  0.13582515339E+02  0.15287533369E+02  0.33203986670E+02  0.51100000000E-03 0. -1.
         23    2    1    0    0    0  0.26918469940E+02 -0.12675981164E+02 -0.27796334152E+01  0.95116712291E+02  0.90300487666E+02 0.  0.
         11    1    3    3    0    0  0.53077814945E+02 -0.26258496503E+02 -0.18067166784E+02  0.61912725621E+02  0.51100000000E-03 0.  1.
         22    1    1    0    0    0 -0.26918469940E+02  0.12675981164E+02  0.27796334152E+01  0.29883287709E+02  0.00000000000E+00 0.  1.
</event>
<event>
 5    1  0.8752570E-005  0.9118800E+02  0.7818608E-02  0.1130116E+00
         25   -1    0    0    0    0  0.00000000000E+00  0.00000000000E+00  0.99999998245E-14  0.12500000000E+03  0.12500000000E+03 0.  0.
        -11    1    3    3    0    0  0.28931421335E+02 -0.95040914489E+01  0.24619193656E+02  0.39159412550E+02  0.51100000000E-03 0. -1.
         23    2    1    0    0    0 -0.66754827781E+01 -0.27061980872E+02 -0.13350801696E+02  0.94094389102E+02  0.88874052882E+02 0.  0.
         11    1    3    3    0    0 -0.35606904113E+02 -0.17557889423E+02 -0.37969995353E+02  0.54934976552E+02  0.51100000000E-03 0.  1.
         22    1    1    0    0    0  0.66754827781E+01  0.27061980872E+02  0.13350801696E+02  0.30905610898E+02  0.00000000000E+00 0.  1.
</event>
<event>
 5    1  0.8752570E-005  0.9118800E+02  0.7818608E-02  0.1130116E+00
         25   -1    0    0    0    0  0.00000000000E+00  0.00000000000E+00  0.99999998245E-14  0.12500000000E+03  0.12500000000E+03 0.  0.
        -11    1    3    3    0    0 -0.99291249231E+00  0.44509269025E+02 -0.30078522314E+02  0.53728748443E+02  0.51100000000E-03 0. -1.
         23    2    1    0    0    0 -0.11918838330E+02  0.43480126049E+01 -0.26642048317E+02  0.95491312139E+02  0.90817553561E+02 0.  0.
         11    1    3    3    0    0 -0.10925925838E+02 -0.40161256420E+02  0.34364739967E+01  0.41762563696E+02  0.51100000000E-03 0.  1.
         22    1    1    0    0    0  0.11918838330E+02 -0.43480126049E+01  0.26642048317E+02  0.29508687861E+02  0.00000000000E+00 0. -1.
</event>
<event>
 5    1  0.8752570E-005  0.9118800E+02  0.7818608E-02  0.1130116E+00
         25   -1    0    0    0    0  0.00000000000E+00  0.00000000000E+00  0.99999998245E-14  0.12500000000E+03  0.12500000000E+03 0.  0.
        -11    1    3    3    0    0  0.54228554649E+02 -0.98374474897E+01  0.24515775760E+02  0.60320268350E+02  0.51100000000E-03 0.  1.
         23    2    1    0    0    0  0.22235097241E+02 -0.15817293354E+02  0.11990716187E+02  0.95194571081E+02  0.90408200791E+02 0.  0.
         11    1    3    3    0    0 -0.31993457408E+02 -0.59798458642E+01 -0.12525059572E+02  0.34874302731E+02  0.51100000000E-03 0. -1.
         22    1    1    0    0    0 -0.22235097241E+02  0.15817293354E+02 -0.11990716187E+02  0.29805428919E+02  0.00000000000E+00 0.  1.
</event>
<event>
 5    1  0.8752570E-005  0.9118800E+02  0.7818608E-02  0.1130116E+00
         25   -1    0    0    0    0  0.00000000000E+00  0.00000000000E+00  0.99999998245E-14  0.12500000000E+03  0.12500000000E+03 0.  0.
        -11    1    3    3    0    0 -0.54789685736E+01  0.27935347019E+02  0.17799311210E+02  0.33574070196E+02  0.51100000000E-03 0.  1.
         23    2    1    0    0    0  0.14501527135E+01 -0.18505620201E+02 -0.22766448522E+02  0.95625315317E+02  0.91001806736E+02 0.  0.
         11    1    3    3    0    0  0.69291212871E+01 -0.46440967220E+02 -0.40565759732E+02  0.62051245121E+02  0.51100000000E-03 0. -1.
         22    1    1    0    0    0 -0.14501527135E+01  0.18505620201E+02  0.22766448522E+02  0.29374684683E+02  0.00000000000E+00 0. -1.
</event>
<event>
 5    1  0.8752570E-005  0.9118800E+02  0.7818608E-02  0.1130116E+00
         25   -1    0    0    0    0  0.00000000000E+00  0.00000000000E+00  0.99999998245E-14  0.12500000000E+03  0.12500000000E+03 0.  0.
        -11    1    3    3    0    0  0.19586715669E+02 -0.16393940809E+02 -0.43171256888E+02  0.50161321230E+02  0.51100000000E-03 0. -1.
         23    2    1    0    0    0  0.12116436393E+02  0.18911025004E+02 -0.27473473905E+02  0.89514416082E+02  0.82180314069E+02 0.  0.
         11    1    3    3    0    0 -0.74702792766E+01  0.35304965814E+02  0.15697782983E+02  0.39353094852E+02  0.51100000000E-03 0.  1.
         22    1    1    0    0    0 -0.12116436393E+02 -0.18911025004E+02  0.27473473905E+02  0.35485583918E+02  0.00000000000E+00 0. -1.
</event>
<event>
 5    1  0.8752570E-005  0.9118800E+02  0.7818608E-02  0.1130116E+00
         25   -1    0    0    0    0  0.00000000000E+00  0.00000000000E+00  0.99999998245E-14  0.12500000000E+03  0.12500000000E+03 0.  0.
        -11    1    3    3    0    0  0.27656028850E+02 -0.80532937542E+01 -0.18044984217E+02  0.33990188698E+02  0.51100000000E-03 0. -1.
         23    2    1    0    0    0  0.10138510691E+02  0.37626196865E+02 -0.30443960761E+00  0.86030617492E+02  0.76698463955E+02 0.  0.
         11    1    3    3    0    0 -0.17517518160E+02  0.45679490620E+02  0.17740544610E+02  0.52040428794E+02  0.51100000000E-03 0.  1.
         22    1    1    0    0    0 -0.10138510691E+02 -0.37626196865E+02  0.30443960761E+00  0.38969382508E+02  0.00000000000E+00 0.  1.
</event>
<event>
 5    1  0.8752570E-005  0.9118800E+02  0.7818608E-02  0.1130116E+00
         25   -1    0    0    0    0  0.00000000000E+00  0.00000000000E+00  0.99999998245E-14  0.12500000000E+03  0.12500000000E+03 0.  0.
        -11    1    3    3    0    0 -0.25316811328E+02  0.72419076264E+01 -0.20781000217E+02  0.33544539528E+02  0.51100000000E-03 0.  1.
         23    2    1    0    0    0  0.14437909443E+02  0.20553900295E+01  0.26021265674E+02  0.95170750520E+02  0.90375260055E+02 0.  0.
         11    1    3    3    0    0  0.39754720771E+02 -0.51865175968E+01  0.46802265891E+02  0.61626210992E+02  0.51100000000E-03 0. -1.
         22    1    1    0    0    0 -0.14437909443E+02 -0.20553900295E+01 -0.26021265674E+02  0.29829249480E+02  0.00000000000E+00 0. -1.
</event>
<event>
 5    1  0.8752570E-005  0.9118800E+02  0.7818608E-02  0.1130116E+00
         25   -1    0    0    0    0  0.00000000000E+00  0.00000000000E+00  0.99999998245E-14  0.12500000000E+03  0.12500000000E+03 0.  0.
        -11    1    3    3    0    0  0.35743240003E+02  0.13741803249E+02  0.22256645717E+02  0.44291925238E+02  0.51100000000E-03 0.  1.
         23    2    1    0    0    0  0.27562736860E+00  0.27562563051E+02 -0.11465919578E+02  0.95146387754E+02  0.90341557096E+02 0.  0.
         11    1    3    3    0    0 -0.35467612634E+02  0.13820759801E+02 -0.33722565295E+02  0.50854462516E+02  0.51100000000E-03 0. -1.
         22    1    1    0    0    0 -0.27562736860E+00 -0.27562563051E+02  0.11465919578E+02  0.29853612246E+02  0.00000000000E+00 0. -1.
</event>
<event>
 5    1  0.8752570E-005  0.9118800E+02  0.7818608E-02  0.1130116E+00
         25   -1    0    0    0    0  0.00000000000E+00  0.00000000000E+00  0.99999998245E-14  0.12500000000E+03  0.12500000000E+03 0.  0.
        -11    1    3    3    0    0 -0.39883504936E+02 -0.29628614664E+02 -0.94248640211E+01  0.50570513493E+02  0.51100000000E-03 0.  1.
         23    2    1    0    0    0 -0.24820447234E+02  0.13424402203E+02 -0.36517924265E+01  0.96546445507E+02  0.92258394613E+02 0.  0.
         11    1    3    3    0    0  0.15063057702E+02  0.43053016866E+02  0.57730715946E+01  0.45975932014E+02  0.51100000000E-03 0. -1.
         22    1    1    0    0    0  0.24820447234E+02 -0.13424402203E+02  0.36517924265E+01  0.28453554493E+02  0.00000000000E+00 0. -1.
</event>
<event>
 5    1  0.8752570E-005  0.9118800E+02  0.7818608E-02  0.1130116E+00
         25   -1    0    0    0    0  0.00000000000E+00  0.00000000000E+00  0.99999998245E-14  0.12500000000E+03  0.12500000000E+03 0.  0.
        -11    1    3    3    0    0  0.12107230845E+02  0.59112339799E+02  0.23827954579E+00  0.60339958010E+02  0.51100000000E-03 0.  1.
         23    2    1    0    0    0 -0.35687667945E+01  0.26774471390E+02  0.74210901535E+01  0.96987842038E+02  0.92854512596E+02 0.  0.
         11    1    3    3    0    0 -0.15675997639E+02 -0.32337868409E+02  0.71828106077E+01  0.36647884028E+02  0.51100000000E-03 0. -1.
         22    1    1    0    0    0  0.35687667945E+01 -0.26774471390E+02 -0.74210901535E+01  0.28012157962E+02  0.00000000000E+00 0.  1.
</event>
<event>
 5    1  0.8752570E-005  0.9118800E+02  0.7818608E-02  0.1130116E+00
         25   -1    0    0    0    0  0.00000000000E+00  0.00000000000E+00  0.99999998245E-14  0.12500000000E+03  0.12500000000E+03 0.  0.
        -11    1    3    3    0    0  0.47142008531E+02  0.86979549884E+01  0.54593888524E+01  0.48247573164E+02  0.51100000000E-03 0.  1.
         23    2    1    0    0    0  0.15558594156E+02 -0.96649279869E+01  0.28268125236E+02  0.91316657092E+02  0.84877348409E+02 0.  0.
         11    1    3    3    0    0 -0.31583414375E+02 -0.18362882975E+02  0.22808736384E+02  0.43069083928E+02  0.51100000000E-03 0. -1.
         22    1    1    0    0    0 -0.15558594156E+02  0.96649279869E+01 -0.28268125236E+02  0.33683342908E+02  0.00000000000E+00 0. -1.
</event>
<event>
 5    1  0.8752570E-005  0.9118800E+02  0.7818608E-02  0.1130116E+00
         25   -1    0    0    0    0  0.00000000000E+00  0.00000000000E+00  0.99999998245E-14  0.12500000000E+03  0.12500000000E+03 0.  0.
        -11    1    3    3    0    0 -0.20829652130E+02 -0.27041390146E+02  0.29303870527E+02  0.44986976082E+02  0.51100000000E-03 0.  1.
         23    2    1    0    0    0 -0.26319280853E+02 -0.18399256962E+01 -0.13805275899E+02  0.95222902865E+02  0.90447364341E+02 0.  0.
         11    1    3    3    0    0 -0.54896287230E+01  0.25201464450E+02 -0.43109146426E+02  0.50235926783E+02  0.51100000000E-03 0. -1.
         22    1    1    0    0    0  0.26319280853E+02  0.18399256962E+01  0.13805275899E+02  0.29777097135E+02  0.00000000000E+00 0. -1.
</event>
<event>
 5    1  0.8752570E-005  0.9118800E+02  0.7818608E-02  0.1130116E+00
         25   -1    0    0    0    0  0.00000000000E+00  0.00000000000E+00  0.99999998245E-14  0.12500000000E+03  0.12500000000E+03 0.  0.
        -11    1    3    3    0    0  0.19242104013E+02  0.10237688134E+02  0.16119383582E+02  0.27109100917E+02  0.51100000000E-03 0. -1.
         23    2    1    0    0    0  0.43586127118E+02 -0.16631216822E+02 -0.16135639849E+02  0.75636990333E+02  0.57308355265E+02 0.  0.
         11    1    3    3    0    0  0.24344023104E+02 -0.26868904955E+02 -0.32255023431E+02  0.48527889416E+02  0.51100000000E-03 0.  1.
         22    1    1    0    0    0 -0.43586127118E+02  0.16631216822E+02  0.16135639849E+02  0.49363009667E+02  0.00000000000E+00 0.  1.
</event>
<event>
 5    1  0.8752570E-005  0.9118800E+02  0.7818608E-02  0.1130116E+00
         25   -1    0    0    0    0  0.00000000000E+00  0.00000000000E+00  0.99999998245E-14  0.12500000000E+03  0.12500000000E+03 0.  0.
        -11    1    3    3    0    0 -0.19910289947E+02  0.50444308366E+02  0.30981639582E+02  0.62457264459E+02  0.51100000000E-03 0.  1.
         23    2    1    0    0    0 -0.78283932979E+01  0.22780789226E+02  0.12359594935E+02  0.97925885308E+02  0.94108827041E+02 0.  0.
         11    1    3    3    0    0  0.12081896649E+02 -0.27663519140E+02 -0.18622044647E+02  0.35468620849E+02  0.51100000000E-03 0. -1.
         22    1    1    0    0    0  0.78283932979E+01 -0.22780789226E+02 -0.12359594935E+02  0.27074114692E+02  0.00000000000E+00 0.  1.
</event>
<event>
 5    1  0.8752570E-005  0.9118800E+02  0.7818608E-02  0.1130116E+00
         25   -1    0    0    0    0  0.00000000000E+00  0.00000000000E+00  0.99999998245E-14  0.12500000000E+03  0.12500000000E+03 0.  0.
        -11    1    3    3    0    0  0.26386851954E+02  0.13563065430E+02  0.20558487431E+02  0.36095347424E+02  0.51100000000E-03 0. -1.
         23    2    1    0    0    0 -0.22302583044E+02 -0.17824712846E+02  0.75635612005E+01  0.95464715060E+02  0.90780938335E+02 0.  0.
         11    1    3    3    0    0 -0.48689434998E+02 -0.31387778276E+02 -0.12994926231E+02  0.59369367636E+02  0.51100000000E-03 0.  1.
         22    1    1    0    0    0  0.22302583044E+02  0.17824712846E+02 -0.75635612005E+01  0.29535284940E+02  0.00000000000E+00 0.  1.
</event>
<event>
 5    1  0.8752570E-005  0.9118800E+02  0.7818608E-02  0.1130116E+00
         25   -1    0    0    0    0  0.00000000000E+00  0.00000000000E+00  0.99999998245E-14  0.12500000000E+03  0.12500000000E+03 0.  0.
        -11    1    3    3    0    0 -0.17958659566E+02 -0.24287952219E+02  0.32689631445E+02  0.44508764089E+02  0.51100000000E-03 0.  1.
         23    2    1    0    0    0  0.22818599340E+02  0.46548623041E+01  0.13585139785E+02  0.98038689908E+02  0.94258540605E+02 0.  0.
         11    1    3    3    0    0  0.40777258906E+02  0.28942814524E+02 -0.19104491659E+02  0.53529925819E+02  0.51100000000E-03 0. -1.
         22    1    1    0    0    0 -0.22818599340E+02 -0.46548623041E+01 -0.13585139785E+02  0.26961310092E+02  0.00000000000E+00 0. -1.
</event>
<event>
 5    1  0.8752570E-005  0.9118800E+02  0.7818608E-02  0.1130116E+00
         25   -1    0    0    0    0  0.00000000000E+00  0.00000000000E+00  0.99999998245E-14  0.12500000000E+03  0.12500000000E+03 0.  0.
        -11    1    3    3    0    0 -0.49322540611E+02  0.31277403121E+02  0.21296540966E+02  0.62165357039E+02  0.51100000000E-03 0.  1.
         23    2    1    0    0    0 -0.25239599270E+02  0.10947861427E+02  0.11633347852E+02  0.95129817152E+02  0.90318626473E+02 0.  0.
         11    1    3    3    0    0  0.24082941341E+02 -0.20329541694E+02 -0.96631931141E+01  0.32964460113E+02  0.51100000000E-03 0. -1.
         22    1    1    0    0    0  0.25239599270E+02 -0.10947861427E+02 -0.11633347852E+02  0.29870182848E+02  0.00000000000E+00 0.  1.
</event>
<event>
 5    1  0.8752570E-005  0.9118800E+02  0.7818608E-02  0.1130116E+00
         25   -1    0    0    0    0  0.00000000000E+00  0.00000000000E+00  0.99999998245E-14  0.12500000000E+03  0.12500000000E+03 0.  0.
        -11    1    3    3    0    0  0.21402174552E+02  0.26128849653E+01  0.28236785295E+01  0.21745192666E+02  0.51100000000E-03 0.  1.
         23    2    1    0    0    0 -0.30450256444E+02  0.28834189859E+01  0.31578124064E+02  0.81037400646E+02  0.68076061589E+02 0.  0.
         11    1    3    3    0    0 -0.51852430996E+02  0.27053402054E+00  0.28754445534E+02  0.59292207980E+02  0.51100000000E-03 0. -1.
         22    1    1    0    0    0  0.30450256444E+02 -0.28834189859E+01 -0.31578124064E+02  0.43962599354E+02  0.00000000000E+00 0.  1.
</event>
<event>
 5    1  0.8752570E-005  0.9118800E+02  0.7818608E-02  0.1130116E+00
         25   -1    0    0    0    0  0.00000000000E+00  0.00000000000E+00  0.99999998245E-14  0.12500000000E+03  0.12500000000E+03 0.  0.
        -11    1    3    3    0    0  0.21916721621E+02  0.41764020903E+02 -0.18575963703E+02  0.50691641879E+02  0.51100000000E-03 0.  1.
         23    2    1    0    0    0 -0.12483480060E+02  0.98100526113E+01 -0.22114754932E+02  0.97776172342E+02  0.93909760331E+02 0.  0.
         11    1    3    3    0    0 -0.34400201681E+02 -0.31953968292E+02 -0.35387912297E+01  0.47084530463E+02  0.51100000000E-03 0. -1.
         22    1    1    0    0    0  0.12483480060E+02 -0.98100526113E+01  0.22114754932E+02  0.27223827658E+02  0.00000000000E+00 0.  1.
</event>
<event>
 5    1  0.8752570E-005  0.9118800E+02  0.7818608E-02  0.1130116E+00
         25   -1    0    0    0    0  0.00000000000E+00  0.00000000000E+00  0.99999998245E-14  0.12500000000E+03  0.12500000000E+03 0.  0.
        -11    1    3    3    0    0  0.26032015826E+02  0.32831748704E+02 -0.10711190125E+02  0.43247186788E+02  0.51100000000E-03 0.  1.
         23    2    1    0    0    0 -0.17212172599E+02  0.23582863594E+02  0.12557961290E+02  0.93217729271E+02  0.87632370263E+02 0.  0.
         11    1    3    3    0    0 -0.43244188425E+02 -0.92488851093E+01  0.23269151415E+02  0.49970542484E+02  0.51100000000E-03 0. -1.
         22    1    1    0    0    0  0.17212172599E+02 -0.23582863594E+02 -0.12557961290E+02  0.31782270729E+02  0.00000000000E+00 0.  1.
</event>
<event>
 5    1  0.8752570E-005  0.9118800E+02  0.7818608E-02  0.1130116E+00
         25   -1    0    0    0    0  0.00000000000E+00  0.00000000000E+00  0.99999998245E-14  0.12500000000E+03  0.12500000000E+03 0.  0.
        -11    1    3    3    0    0 -0.29906133807E+02  0.26103271407E+02  0.30069676123E+02  0.49799026495E+02  0.51100000000E-03 0.  1.
         23    2    1    0    0    0  0.10382920049E+02  0.80301979285E+01  0.28083199499E+02  0.94000722563E+02  0.88742214536E+02 0.  0.
         11    1    3    3    0    0  0.40289053857E+02 -0.18073073478E+02 -0.19864766241E+01  0.44201696068E+02  0.51100000000E-03 0. -1.
         22    1    1    0    0    0 -0.10382920049E+02 -0.80301979285E+01 -0.28083199499E+02  0.30999277437E+02  0.00000000000E+00 0.  1.
</event>
<event>
 5    1  0.8752570E-005  0.9118800E+02  0.7818608E-02  0.1130116E+00
         25   -1    0    0    0    0  0.00000000000E+00  0.00000000000E+00  0.99999998245E-14  0.12500000000E+03  0.12500000000E+03 0.  0.
        -11    1    3    3    0    0  0.33527663593E+02  0.16833245969E+02  0.18709814370E+02  0.41922780798E+02  0.51100000000E-03 0.  1.
         23    2    1    0    0    0  0.13254541011E+02 -0.89963904844E+01 -0.24214658049E+02  0.95966096308E+02  0.91468705452E+02 0.  0.
         11    1    3    3    0    0 -0.20273122582E+02 -0.25829636454E+02 -0.42924472419E+02  0.54043315510E+02  0.51100000000E-03 0. -1.
         22    1    1    0    0    0 -0.13254541011E+02  0.89963904844E+01  0.24214658049E+02  0.29033903692E+02  0.00000000000E+00 0.  1.
</event>
<event>
 5    1  0.8752570E-005  0.9118800E+02  0.7818608E-02  0.1130116E+00
         25   -1    0    0    0    0  0.00000000000E+00  0.00000000000E+00  0.99999998245E-14  0.12500000000E+03  0.12500000000E+03 0.  0.
        -11    1    3    3    0    0 -0.41892033778E+01 -0.32262294269E+02 -0.13227200685E+02  0.35119280953E+02  0.51100000000E-03 0. -1.
         23    2    1    0    0    0 -0.33215683434E+01  0.28190360735E+02 -0.27172466201E+01  0.96484869212E+02  0.92174927736E+02 0.  0.
         11    1    3    3    0    0  0.86763503436E+00  0.60452655005E+02  0.10509954065E+02  0.61365588259E+02  0.51100000000E-03 0.  1.
         22    1    1    0    0    0  0.33215683434E+01 -0.28190360735E+02  0.27172466201E+01  0.28515130788E+02  0.00000000000E+00 0.  1.
</event>
<event>
 5    1  0.8752570E-005  0.9118800E+02  0.7818608E-02  0.1130116E+00
         25   -1    0    0    0    0  0.00000000000E+00  0.00000000000E+00  0.99999998245E-14  0.12500000000E+03  0.12500000000E+03 0.  0.
        -11    1    3    3    0    0 -0.39240627984E+02  0.35995571732E+02 -0.19251618348E+02  0.56622724044E+02  0.51100000000E-03 0. -1.
         23    2    1    0    0    0 -0.22740419368E+02  0.15734794752E+02  0.97675417377E+01  0.95672277441E+02  0.91066291021E+02 0.  0.
         11    1    3    3    0    0  0.16500208616E+02 -0.20260776980E+02  0.29019160086E+02  0.39049553398E+02  0.51100000000E-03 0.  1.
         22    1    1    0    0    0  0.22740419368E+02 -0.15734794752E+02 -0.97675417377E+01  0.29327722559E+02  0.00000000000E+00 0. -1.
</event>
<event>
 5    1  0.8752570E-005  0.9118800E+02  0.7818608E-02  0.1130116E+00
         25   -1    0    0    0    0  0.00000000000E+00  0.00000000000E+00  0.99999998245E-14  0.12500000000E+03  0.12500000000E+03 0.  0.
        -11    1    3    3    0    0  0.85002837808E+01  0.26719423353E+02  0.43298760960E+02  0.51584543321E+02  0.51100000000E-03 0. -1.
         23    2    1    0    0    0 -0.76543915795E+01 -0.12783532641E+02  0.19529195520E+02  0.10043584125E+03  0.97385626832E+02 0.  0.
         11    1    3    3    0    0 -0.16154675360E+02 -0.39502955994E+02 -0.23769565440E+02  0.48851297933E+02  0.51100000000E-03 0.  1.
         22    1    1    0    0    0  0.76543915795E+01  0.12783532641E+02 -0.19529195520E+02  0.24564158746E+02  0.00000000000E+00 0. -1.
</event>
<event>
 5    1  0.8752570E-005  0.9118800E+02  0.7818608E-02  0.1130116E+00
         25   -1    0    0    0    0  0.00000000000E+00  0.00000000000E+00  0.99999998245E-14  0.12500000000E+03  0.12500000000E+03 0.  0.
        -11    1    3    3    0    0 -0.12792917042E+02 -0.11070244953E+02  0.36944847666E+02  0.40634109060E+02  0.51100000000E-03 0.  1.
         23    2    1    0    0    0  0.27091148450E+02 -0.63832656092E+01 -0.26643741360E+01  0.97039755121E+02  0.92924371293E+02 0.  0.
         11    1    3    3    0    0  0.39884065492E+02  0.46869793441E+01 -0.39609221802E+02  0.56405646061E+02  0.51100000000E-03 0. -1.
         22    1    1    0    0    0 -0.27091148450E+02  0.63832656092E+01  0.26643741360E+01  0.27960244879E+02  0.00000000000E+00 0. -1.
</event>
<event>
 5    1  0.8752570E-005  0.9118800E+02  0.7818608E-02  0.1130116E+00
         25   -1    0    0    0    0  0.00000000000E+00  0.00000000000E+00  0.99999998245E-14  0.12500000000E+03  0.12500000000E+03 0.  0.
        -11    1    3    3    0    0 -0.33588116197E+02 -0.17439255788E+02 -0.13128159865E+02  0.40057930223E+02  0.51100000000E-03 0. -1.
         23    2    1    0    0    0  0.70819144744E+01 -0.15007067586E+02  0.24427583491E+02  0.95469127589E+02  0.90787013924E+02 0.  0.
         11    1    3    3    0    0  0.40670030671E+02  0.24321882014E+01  0.37555743356E+02  0.55411197366E+02  0.51100000000E-03 0.  1.
         22    1    1    0    0    0 -0.70819144744E+01  0.15007067586E+02 -0.24427583491E+02  0.29530872411E+02  0.00000000000E+00 0.  1.
</event>
<event>
 5    1  0.8752570E-005  0.9118800E+02  0.7818608E-02  0.1130116E+00
         25   -1    0    0    0    0  0.00000000000E+00  0.00000000000E+00  0.99999998245E-14  0.12500000000E+03  0.12500000000E+03 0.  0.
        -11    1    3    3    0    0 -0.24259247817E+02  0.36703137400E+02 -0.40659076604E+02  0.59906526441E+02  0.51100000000E-03 0.  1.
         23    2    1    0    0    0 -0.12186285053E+02  0.57657406322E+01 -0.24942262070E+02  0.96647473735E+02  0.92395175382E+02 0.  0.
         11    1    3    3    0    0  0.12072962764E+02 -0.30937396768E+02  0.15716814534E+02  0.36740947294E+02  0.51100000000E-03 0. -1.
         22    1    1    0    0    0  0.12186285053E+02 -0.57657406322E+01  0.24942262070E+02  0.28352526265E+02  0.00000000000E+00 0.  1.
</event>
<event>
 5    1  0.8752570E-005  0.9118800E+02  0.7818608E-02  0.1130116E+00
         25   -1    0    0    0    0  0.00000000000E+00  0.00000000000E+00  0.99999998245E-14  0.12500000000E+03  0.12500000000E+03 0.  0.
        -11    1    3    3    0    0 -0.34334896283E+02  0.41886745941E+00  0.32651108666E+02  0.47383071345E+02  0.51100000000E-03 0.  1.
         23    2    1    0    0    0  0.86918192960E+01 -0.18235003131E+02  0.21321960396E+02  0.95628431145E+02  0.91006086534E+02 0.  0.
         11    1    3    3    0    0  0.43026715579E+02 -0.18653870591E+02 -0.11329148270E+02  0.48245359801E+02  0.51100000000E-03 0. -1.
         22    1    1    0    0    0 -0.86918192960E+01  0.18235003131E+02 -0.21321960396E+02  0.29371568855E+02  0.00000000000E+00 0. -1.
</event>
<event>
 5    1  0.8752570E-005  0.9118800E+02  0.7818608E-02  0.1130116E+00
         25   -1    0    0    0    0  0.00000000000E+00  0.00000000000E+00  0.99999998245E-14  0.12500000000E+03  0.12500000000E+03 0.  0.
        -11    1    3    3    0    0  0.15713043248E+02 -0.31573928276E+02  0.70288631155E+01  0.35961334679E+02  0.51100000000E-03 0.  1.
         23    2    1    0    0    0 -0.90299586596E+01  0.19856313366E+02 -0.16454742429E+02  0.97676532389E+02  0.93777039286E+02 0.  0.
         11    1    3    3    0    0 -0.24743001908E+02  0.51430241642E+02 -0.23483605545E+02  0.61715197710E+02  0.51100000000E-03 0. -1.
         22    1    1    0    0    0  0.90299586596E+01 -0.19856313366E+02  0.16454742429E+02  0.27323467611E+02  0.00000000000E+00 0. -1.
</event>
<event>
 5    1  0.8752570E-005  0.9118800E+02  0.7818608E-02  0.1130116E+00
         25   -1    0    0    0    0  0.00000000000E+00  0.00000000000E+00  0.99999998245E-14  0.12500000000E+03  0.12500000000E+03 0.  0.
        -11    1    3    3    0    0  0.32639516694E+02  0.13307863922E+02  0.44301558120E+02  0.56613296533E+02  0.51100000000E-03 0. -1.
         23    2    1    0    0    0  0.97215464759E+01 -0.12231517752E+02  0.23624703026E+02  0.96676068679E+02  0.92433852943E+02 0.  0.
         11    1    3    3    0    0 -0.22917970218E+02 -0.25539381674E+02 -0.20676855094E+02  0.40062772147E+02  0.51100000000E-03 0.  1.
         22    1    1    0    0    0 -0.97215464759E+01  0.12231517752E+02 -0.23624703026E+02  0.28323931321E+02  0.00000000000E+00 0. -1.
</event>
<event>
 5    1  0.8752570E-005  0.9118800E+02  0.7818608E-02  0.1130116E+00
         25   -1    0    0    0    0  0.00000000000E+00  0.00000000000E+00  0.99999998245E-14  0.12500000000E+03  0.12500000000E+03 0.  0.
        -11    1    3    3    0    0  0.45696456137E+02 -0.57548395199E+01  0.13402222579E+02  0.47967737613E+02  0.51100000000E-03 0. -1.
         23    2    1    0    0    0  0.87496610444E+01 -0.30090254026E+02  0.23088148354E+01  0.93578501282E+02  0.88145478162E+02 0.  0.
         11    1    3    3    0    0 -0.36946795092E+02 -0.24335414507E+02 -0.11093407744E+02  0.45610763669E+02  0.51100000000E-03 0.  1.
         22    1    1    0    0    0 -0.87496610444E+01  0.30090254026E+02 -0.23088148354E+01  0.31421498718E+02  0.00000000000E+00 0. -1.
</event>
<event>
 5    1  0.8752570E-005  0.9118800E+02  0.7818608E-02  0.1130116E+00
         25   -1    0    0    0    0  0.00000000000E+00  0.00000000000E+00  0.99999998245E-14  0.12500000000E+03  0.12500000000E+03 0.  0.
        -11    1    3    3    0    0  0.19418188454E+02  0.30317056072E+02  0.31490674258E+02  0.47831501097E+02  0.51100000000E-03 0. -1.
         23    2    1    0    0    0 -0.18781724749E+01 -0.12068937693E+02  0.26861222871E+02  0.95492169124E+02  0.90818733095E+02 0.  0.
         11    1    3    3    0    0 -0.21296360929E+02 -0.42385993765E+02 -0.46294513864E+01  0.47660668026E+02  0.51100000000E-03 0.  1.
         22    1    1    0    0    0  0.18781724749E+01  0.12068937693E+02 -0.26861222871E+02  0.29507830876E+02  0.00000000000E+00 0. -1.
</event>
<event>
 5    1  0.8752570E-005  0.9118800E+02  0.7818608E-02  0.1130116E+00
         25   -1    0    0    0    0  0.00000000000E+00  0.00000000000E+00  0.99999998245E-14  0.12500000000E+03  0.12500000000E+03 0.  0.
        -11    1    3    3    0    0 -0.24914681431E+02 -0.35650587420E+01  0.23090783320E+02  0.34156042939E+02  0.51100000000E-03 0.  1.
         23    2    1    0    0    0  0.54360962495E+01  0.38826055548E+01 -0.29184662918E+02  0.95060555817E+02  0.90222718615E+02 0.  0.
         11    1    3    3    0    0  0.30350777681E+02  0.74476642968E+01 -0.52275446238E+02  0.60904512878E+02  0.51100000000E-03 0. -1.
         22    1    1    0    0    0 -0.54360962495E+01 -0.38826055548E+01  0.29184662918E+02  0.29939444183E+02  0.00000000000E+00 0. -1.
</event>
<event>
 5    1  0.8752570E-005  0.9118800E+02  0.7818608E-02  0.1130116E+00
         25   -1    0    0    0    0  0.00000000000E+00  0.00000000000E+00  0.99999998245E-14  0.12500000000E+03  0.12500000000E+03 0.  0.
        -11    1    3    3    0    0  0.18366258178E+02 -0.68552518146E+01 -0.40268667913E+02  0.44787046483E+02  0.51100000000E-03 0.  1.
         23    2    1    0    0    0 -0.22432007956E+02  0.10446861213E+02 -0.18123581239E+02  0.94327600566E+02  0.89201458180E+02 0.  0.
         11    1    3    3    0    0 -0.40798266134E+02  0.17302113027E+02  0.22145086674E+02  0.49540554083E+02  0.51100000000E-03 0. -1.
         22    1    1    0    0    0  0.22432007956E+02 -0.10446861213E+02  0.18123581239E+02  0.30672399434E+02  0.00000000000E+00 0. -1.
</event>
<event>
 5    1  0.8752570E-005  0.9118800E+02  0.7818608E-02  0.1130116E+00
         25   -1    0    0    0    0  0.00000000000E+00  0.00000000000E+00  0.99999998245E-14  0.12500000000E+03  0.12500000000E+03 0.  0.
        -11    1    3    3    0    0  0.41830969915E+02  0.38879488323E+01 -0.13257937297E+02  0.44053593404E+02  0.51100000000E-03 0. -1.
         23    2    1    0    0    0 -0.60589176673E+01  0.25080977997E+02 -0.12260475836E+02  0.96432794881E+02  0.92104281770E+02 0.  0.
         11    1    3    3    0    0 -0.47889887582E+02  0.21193029165E+02  0.99746146057E+00  0.52379201478E+02  0.51100000000E-03 0.  1.
         22    1    1    0    0    0  0.60589176673E+01 -0.25080977997E+02  0.12260475836E+02  0.28567205119E+02  0.00000000000E+00 0.  1.
</event>
<event>
 5    1  0.8752570E-005  0.9118800E+02  0.7818608E-02  0.1130116E+00
         25   -1    0    0    0    0  0.00000000000E+00  0.00000000000E+00  0.99999998245E-14  0.12500000000E+03  0.12500000000E+03 0.  0.
        -11    1    3    3    0    0 -0.16020282835E+02  0.56210880555E+02  0.11990652688E+02  0.59666475571E+02  0.51100000000E-03 0.  1.
         23    2    1    0    0    0  0.39512613437E+01  0.26966073711E+02  0.12341703842E+02  0.95081790640E+02  0.90252133825E+02 0.  0.
         11    1    3    3    0    0  0.19971544179E+02 -0.29244806844E+02  0.35105115453E+00  0.35415315069E+02  0.51100000000E-03 0. -1.
         22    1    1    0    0    0 -0.39512613437E+01 -0.26966073711E+02 -0.12341703842E+02  0.29918209360E+02  0.00000000000E+00 0.  1.
</event>
<event>
 5    1  0.8752570E-005  0.9118800E+02  0.7818608E-02  0.1130116E+00
         25   -1    0    0    0    0  0.00000000000E+00  0.00000000000E+00  0.99999998245E-14  0.12500000000E+03  0.12500000000E+03 0.  0.
        -11    1    3    3    0    0 -0.36852818740E+02  0.33236351098E+02 -0.24302020217E+02  0.55257338610E+02  0.51100000000E-03 0.  1.
         23    2    1    0    0    0  0.43112989600E+01  0.22377499222E+02 -0.78836800214E+01  0.10088585102E+03  0.97961537125E+02 0.  0.
         11    1    3    3    0    0  0.41164117700E+02 -0.10858851875E+02  0.16418340195E+02  0.45628512414E+02  0.51100000000E-03 0. -1.
         22    1    1    0    0    0 -0.43112989600E+01 -0.22377499222E+02  0.78836800214E+01  0.24114148976E+02  0.00000000000E+00 0.  1.
</event>
<event>
 5    1  0.8752570E-005  0.9118800E+02  0.7818608E-02  0.1130116E+00
         25   -1    0    0    0    0  0.00000000000E+00  0.00000000000E+00  0.99999998245E-14  0.12500000000E+03  0.12500000000E+03 0.  0.
        -11    1    3    3    0    0  0.89102565272E+01  0.25633627392E+02  0.37124230052E+02  0.45985693231E+02  0.51100000000E-03 0. -1.
         23    2    1    0    0    0  0.29202841646E+02 -0.21917069696E+01  0.12892144472E+01  0.95686664920E+02  0.91086037513E+02 0.  0.
         11    1    3    3    0    0  0.20292585119E+02 -0.27825334362E+02 -0.35835015605E+02  0.49700971689E+02  0.51100000000E-03 0.  1.
         22    1    1    0    0    0 -0.29202841646E+02  0.21917069696E+01 -0.12892144472E+01  0.29313335080E+02  0.00000000000E+00 0.  1.
</event>
<event>
 5    1  0.8752570E-005  0.9118800E+02  0.7818608E-02  0.1130116E+00
         25   -1    0    0    0    0  0.00000000000E+00  0.00000000000E+00  0.99999998245E-14  0.12500000000E+03  0.12500000000E+03 0.  0.
        -11    1    3    3    0    0 -0.44208326818E+02 -0.26930281105E+02 -0.98626877312E+01  0.52696193505E+02  0.51100000000E-03 0. -1.
         23    2    1    0    0    0 -0.18691726344E+02 -0.13107986176E+02  0.20226174375E+02  0.94499212057E+02  0.89441617909E+02 0.  0.
         11    1    3    3    0    0  0.25516600474E+02  0.13822294929E+02  0.30088862107E+02  0.41803018551E+02  0.51100000000E-03 0.  1.
         22    1    1    0    0    0  0.18691726344E+02  0.13107986176E+02 -0.20226174375E+02  0.30500787943E+02  0.00000000000E+00 0. -1.
</event>
<event>
 5    1  0.8752570E-005  0.9118800E+02  0.7818608E-02  0.1130116E+00
         25   -1    0    0    0    0  0.00000000000E+00  0.00000000000E+00  0.99999998245E-14  0.12500000000E+03  0.12500000000E+03 0.  0.
        -11    1    3    3    0    0  0.46277336435E+02  0.23325901492E+02 -0.34464311375E+02  0.62237274256E+02  0.51100000000E-03 0.  1.
         23    2    1    0    0    0  0.19787625292E+02  0.76483518207E+01 -0.18184508278E+02  0.97058565864E+02  0.92949671683E+02 0.  0.
         11    1    3    3    0    0 -0.26489711143E+02 -0.15677549671E+02  0.16279803098E+02  0.34821291608E+02  0.51100000000E-03 0. -1.
         22    1    1    0    0    0 -0.19787625292E+02 -0.76483518207E+01  0.18184508278E+02  0.27941434136E+02  0.00000000000E+00 0.  1.
</event>
<event>
 5    1  0.8752570E-005  0.9118800E+02  0.7818608E-02  0.1130116E+00
         25   -1    0    0    0    0  0.00000000000E+00  0.00000000000E+00  0.99999998245E-14  0.12500000000E+03  0.12500000000E+03 0.  0.
        -11    1    3    3    0    0  0.99259197376E+01 -0.31175542394E+02  0.34309400003E+01  0.32896955417E+02  0.51100000000E-03 0. -1.
         23    2    1    0    0    0 -0.18369204152E+02  0.23508134042E+02 -0.39402167773E+01  0.94907055054E+02  0.90009798152E+02 0.  0.
         11    1    3    3    0    0 -0.28295123890E+02  0.54683676435E+02 -0.73711567775E+01  0.62010099636E+02  0.51100000000E-03 0.  1.
         22    1    1    0    0    0  0.18369204152E+02 -0.23508134042E+02  0.39402167773E+01  0.30092944946E+02  0.00000000000E+00 0.  1.
</event>
<event>
 5    1  0.8752570E-005  0.9118800E+02  0.7818608E-02  0.1130116E+00
         25   -1    0    0    0    0  0.00000000000E+00  0.00000000000E+00  0.99999998245E-14  0.12500000000E+03  0.12500000000E+03 0.  0.
        -11    1    3    3    0    0  0.53754704379E+02 -0.27206064846E+02  0.94082083200E+01  0.60977476099E+02  0.51100000000E-03 0.  1.
         23    2    1    0    0    0  0.21748840691E+02 -0.12389570848E+02  0.13631696626E+02  0.96498479161E+02  0.92193382573E+02 0.  0.
         11    1    3    3    0    0 -0.32005863688E+02  0.14816493998E+02  0.42234883060E+01  0.35521003062E+02  0.51100000000E-03 0. -1.
         22    1    1    0    0    0 -0.21748840691E+02  0.12389570848E+02 -0.13631696626E+02  0.28501520839E+02  0.00000000000E+00 0.  1.
</event>
<event>
 5    1  0.8752570E-005  0.9118800E+02  0.7818608E-02  0.1130116E+00
         25   -1    0    0    0    0  0.00000000000E+00  0.00000000000E+00  0.99999998245E-14  0.12500000000E+03  0.12500000000E+03 0.  0.
        -11    1    3    3    0    0 -0.24534586567E+01 -0.10367132963E+02  0.36317259894E+02  0.37847592680E+02  0.51100000000E-03 0. -1.
         23    2    1    0    0    0  0.30601043924E+02 -0.20849293296E+02  0.12472503948E+00  0.87971193963E+02  0.79798486770E+02 0.  0.
         11    1    3    3    0    0  0.33054502581E+02 -0.10482160333E+02 -0.36192534854E+02  0.50123601283E+02  0.51100000000E-03 0.  1.
         22    1    1    0    0    0 -0.30601043924E+02  0.20849293296E+02 -0.12472503948E+00  0.37028806037E+02  0.00000000000E+00 0.  1.
</event>
<event>
 5    1  0.8752570E-005  0.9118800E+02  0.7818608E-02  0.1130116E+00
         25   -1    0    0    0    0  0.00000000000E+00  0.00000000000E+00  0.99999998245E-14  0.12500000000E+03  0.12500000000E+03 0.  0.
        -11    1    3    3    0    0  0.46857711620E+02 -0.35106747389E+02 -0.12854669563E+02  0.59944736052E+02  0.51100000000E-03 0.  1.
         23    2    1    0    0    0  0.12424252329E+02 -0.24191658312E+02 -0.93745452337E+01  0.96234039627E+02  0.91834143470E+02 0.  0.
         11    1    3    3    0    0 -0.34433459292E+02  0.10915089077E+02  0.34801243295E+01  0.36289303575E+02  0.51100000000E-03 0. -1.
         22    1    1    0    0    0 -0.12424252329E+02  0.24191658312E+02  0.93745452337E+01  0.28765960373E+02  0.00000000000E+00 0.  1.
</event>
<event>
 5    1  0.8752570E-005  0.9118800E+02  0.7818608E-02  0.1130116E+00
         25   -1    0    0    0    0  0.00000000000E+00  0.00000000000E+00  0.99999998245E-14  0.12500000000E+03  0.12500000000E+03 0.  0.
        -11    1    3    3    0    0  0.38557551876E+02  0.33272703150E+02 -0.28039029835E+02  0.58137292471E+02  0.51100000000E-03 0.  1.
         23    2    1    0    0    0  0.44824400090E+01  0.25047005278E+02 -0.91252858289E+01  0.97968248608E+02  0.94165079260E+02 0.  0.
         11    1    3    3    0    0 -0.34075111867E+02 -0.82256978715E+01  0.18913744006E+02  0.39830956137E+02  0.51100000000E-03 0. -1.
         22    1    1    0    0    0 -0.44824400090E+01 -0.25047005278E+02  0.91252858289E+01  0.27031751392E+02  0.00000000000E+00 0.  1.
</event>
<event>
 5    1  0.8752570E-005  0.9118800E+02  0.7818608E-02  0.1130116E+00
         25   -1    0    0    0    0  0.00000000000E+00  0.00000000000E+00  0.99999998245E-14  0.12500000000E+03  0.12500000000E+03 0.  0.
        -11    1    3    3    0    0 -0.39074135570E+02  0.42263119951E+02 -0.18369971791E+02  0.60418666341E+02  0.51100000000E-03 0. -1.
         23    2    1    0    0    0 -0.16098682299E+02  0.24366263851E+02  0.16337181053E+01  0.95750189391E+02  0.91173172303E+02 0.  0.
         11    1    3    3    0    0  0.22975453272E+02 -0.17896856100E+02  0.20003689897E+02  0.35331523050E+02  0.51100000000E-03 0.  1.
         22    1    1    0    0    0  0.16098682299E+02 -0.24366263851E+02 -0.16337181053E+01  0.29249810609E+02  0.00000000000E+00 0. -1.
</event>
<event>
 5    1  0.8752570E-005  0.9118800E+02  0.7818608E-02  0.1130116E+00
         25   -1    0    0    0    0  0.00000000000E+00  0.00000000000E+00  0.99999998245E-14  0.12500000000E+03  0.12500000000E+03 0.  0.
        -11    1    3    3    0    0 -0.11074639255E+02 -0.31111670126E+02  0.19693156437E+02  0.38450020330E+02  0.51100000000E-03 0. -1.
         23    2    1    0    0    0  0.16711889341E+02  0.19855526452E+02  0.93551847735E+01  0.97412889637E+02  0.93424956030E+02 0.  0.
         11    1    3    3    0    0  0.27786528596E+02  0.50967196578E+02 -0.10337971664E+02  0.58962869307E+02  0.51100000000E-03 0.  1.
         22    1    1    0    0    0 -0.16711889341E+02 -0.19855526452E+02 -0.93551847735E+01  0.27587110363E+02  0.00000000000E+00 0.  1.
</event>
<event>
 5    1  0.8752570E-005  0.9118800E+02  0.7818608E-02  0.1130116E+00
         25   -1    0    0    0    0  0.00000000000E+00  0.00000000000E+00  0.99999998245E-14  0.12500000000E+03  0.12500000000E+03 0.  0.
        -11    1    3    3    0    0  0.59711022687E+02 -0.14718753669E+02 -0.67664610492E+01  0.61869483069E+02  0.51100000000E-03 0.  1.
         23    2    1    0    0    0  0.27618812709E+02 -0.11238945326E+02 -0.78431342533E+01  0.94167752881E+02  0.88977178086E+02 0.  0.
         11    1    3    3    0    0 -0.32092209978E+02  0.34798083424E+01 -0.10766732041E+01  0.32298269811E+02  0.51100000000E-03 0. -1.
         22    1    1    0    0    0 -0.27618812709E+02  0.11238945326E+02  0.78431342533E+01  0.30832247119E+02  0.00000000000E+00 0.  1.
</event>
<event>
 5    1  0.8752570E-005  0.9118800E+02  0.7818608E-02  0.1130116E+00
         25   -1    0    0    0    0  0.00000000000E+00  0.00000000000E+00  0.99999998245E-14  0.12500000000E+03  0.12500000000E+03 0.  0.
        -11    1    3    3    0    0 -0.21467548944E+01  0.30559498068E+02  0.17240219421E+02  0.35152761552E+02  0.51100000000E-03 0. -1.
         23    2    1    0    0    0  0.84312376266E+01 -0.11866168726E+02 -0.25078778690E+02  0.96002812744E+02  0.91518867924E+02 0.  0.
         11    1    3    3    0    0  0.10577992521E+02 -0.42425666795E+02 -0.42318998111E+02  0.60850051192E+02  0.51100000000E-03 0.  1.
         22    1    1    0    0    0 -0.84312376266E+01  0.11866168726E+02  0.25078778690E+02  0.28997187256E+02  0.00000000000E+00 0.  1.
</event>
<event>
 5    1  0.8752570E-005  0.9118800E+02  0.7818608E-02  0.1130116E+00
         25   -1    0    0    0    0  0.00000000000E+00  0.00000000000E+00  0.99999998245E-14  0.12500000000E+03  0.12500000000E+03 0.  0.
        -11    1    3    3    0    0  0.19111132026E+02 -0.31483559884E+02 -0.96235829838E+01  0.38066563543E+02  0.51100000000E-03 0.  1.
         23    2    1    0    0    0 -0.17049397080E+02 -0.18640987496E+01  0.23896261611E+02  0.95585919632E+02  0.90947676760E+02 0.  0.
         11    1    3    3    0    0 -0.36160529105E+02  0.29619461134E+02  0.33519844594E+02  0.57519356089E+02  0.51100000000E-03 0. -1.
         22    1    1    0    0    0  0.17049397080E+02  0.18640987496E+01 -0.23896261611E+02  0.29414080368E+02  0.00000000000E+00 0. -1.
</event>
<event>
 5    1  0.8752570E-005  0.9118800E+02  0.7818608E-02  0.1130116E+00
         25   -1    0    0    0    0  0.00000000000E+00  0.00000000000E+00  0.99999998245E-14  0.12500000000E+03  0.12500000000E+03 0.  0.
        -11    1    3    3    0    0  0.26317562638E+01 -0.17293316480E+02 -0.34314789218E+02  0.38516096573E+02  0.51100000000E-03 0.  1.
         23    2    1    0    0    0 -0.21970637166E+02 -0.15642430629E+02  0.15351698685E+02  0.93966643978E+02  0.88694199328E+02 0.  0.
         11    1    3    3    0    0 -0.24602393430E+02  0.16508858516E+01  0.49666487903E+02  0.55450547405E+02  0.51100000000E-03 0. -1.
         22    1    1    0    0    0  0.21970637166E+02  0.15642430629E+02 -0.15351698685E+02  0.31033356022E+02  0.00000000000E+00 0. -1.
</event>
<event>
 5    1  0.8752570E-005  0.9118800E+02  0.7818608E-02  0.1130116E+00
         25   -1    0    0    0    0  0.00000000000E+00  0.00000000000E+00  0.99999998245E-14  0.12500000000E+03  0.12500000000E+03 0.  0.
        -11    1    3    3    0    0 -0.73904091566E+01 -0.56099647016E+01 -0.57875503476E+02  0.58614535350E+02  0.51100000000E-03 0.  1.
         23    2    1    0    0    0  0.61371227211E+01 -0.14895650798E+02 -0.28813577606E+02  0.91988381705E+02  0.85860907440E+02 0.  0.
         11    1    3    3    0    0  0.13527531878E+02 -0.92856860967E+01  0.29061925870E+02  0.33373846355E+02  0.51100000000E-03 0. -1.
         22    1    1    0    0    0 -0.61371227211E+01  0.14895650798E+02  0.28813577606E+02  0.33011618295E+02  0.00000000000E+00 0.  1.
</event>
<event>
 5    1  0.8752570E-005  0.9118800E+02  0.7818608E-02  0.1130116E+00
         25   -1    0    0    0    0  0.00000000000E+00  0.00000000000E+00  0.99999998245E-14  0.12500000000E+03  0.12500000000E+03 0.  0.
        -11    1    3    3    0    0  0.36635913214E+02  0.13522276836E+02  0.23319168343E+02  0.45484345882E+02  0.51100000000E-03 0. -1.
         23    2    1    0    0    0  0.19088135125E+02 -0.19914229345E+02 -0.98141038375E+01  0.95721166911E+02  0.91133373292E+02 0.  0.
         11    1    3    3    0    0 -0.17547778089E+02 -0.33436506181E+02 -0.33133272180E+02  0.50236821029E+02  0.51100000000E-03 0.  1.
         22    1    1    0    0    0 -0.19088135125E+02  0.19914229345E+02  0.98141038375E+01  0.29278833089E+02  0.00000000000E+00 0.  1.
</event>
<event>
 5    1  0.8752570E-005  0.9118800E+02  0.7818608E-02  0.1130116E+00
         25   -1    0    0    0    0  0.00000000000E+00  0.00000000000E+00  0.99999998245E-14  0.12500000000E+03  0.12500000000E+03 0.  0.
        -11    1    3    3    0    0 -0.21390855304E+02 -0.38586169393E+02  0.34903076875E+02  0.56255541368E+02  0.51100000000E-03 0. -1.
         23    2    1    0    0    0  0.85967672347E+01 -0.16876737099E+02  0.23132713828E+02  0.95102657124E+02  0.90281029464E+02 0.  0.
         11    1    3    3    0    0  0.29987622539E+02  0.21709432293E+02 -0.11770363047E+02  0.38847115756E+02  0.51100000000E-03 0.  1.
         22    1    1    0    0    0 -0.85967672347E+01  0.16876737099E+02 -0.23132713828E+02  0.29897342876E+02  0.00000000000E+00 0. -1.
</event>
<event>
 5    1  0.8752570E-005  0.9118800E+02  0.7818608E-02  0.1130116E+00
         25   -1    0    0    0    0  0.00000000000E+00  0.00000000000E+00  0.99999998245E-14  0.12500000000E+03  0.12500000000E+03 0.  0.
        -11    1    3    3    0    0  0.37749856389E+01 -0.22746997309E+02 -0.44108538296E+02  0.49771875130E+02  0.51100000000E-03 0. -1.
         23    2    1    0    0    0  0.22608534548E+01  0.17070533428E+02 -0.26640418734E+02  0.93278926875E+02  0.87719619919E+02 0.  0.
         11    1    3    3    0    0 -0.15141321841E+01  0.39817530737E+02  0.17468119562E+02  0.43507051745E+02  0.51100000000E-03 0.  1.
         22    1    1    0    0    0 -0.22608534548E+01 -0.17070533428E+02  0.26640418734E+02  0.31721073125E+02  0.00000000000E+00 0. -1.
</event>
<event>
 5    1  0.8752570E-005  0.9118800E+02  0.7818608E-02  0.1130116E+00
         25   -1    0    0    0    0  0.00000000000E+00  0.00000000000E+00  0.99999998245E-14  0.12500000000E+03  0.12500000000E+03 0.  0.
        -11    1    3    3    0    0 -0.61603635494E+02  0.32014488741E+00 -0.50033859929E+01  0.61807315671E+02  0.51100000000E-03 0. -1.
         23    2    1    0    0    0 -0.29378422673E+02  0.42383234936E+01  0.27726982979E+01  0.95188207691E+02  0.90399402226E+02 0.  0.
         11    1    3    3    0    0  0.32225212821E+02  0.39181786062E+01  0.77760842907E+01  0.33380892020E+02  0.51100000000E-03 0.  1.
         22    1    1    0    0    0  0.29378422673E+02 -0.42383234936E+01 -0.27726982979E+01  0.29811792309E+02  0.00000000000E+00 0. -1.
</event>
<event>
 5    1  0.8752570E-005  0.9118800E+02  0.7818608E-02  0.1130116E+00
         25   -1    0    0    0    0  0.00000000000E+00  0.00000000000E+00  0.99999998245E-14  0.12500000000E+03  0.12500000000E+03 0.  0.
        -11    1    3    3    0    0  0.44997916614E+01 -0.12575300645E+02  0.28177073124E+02  0.31182266778E+02  0.51100000000E-03 0. -1.
         23    2    1    0    0    0  0.17995443953E+02 -0.42685272540E+01 -0.29049576227E+02  0.90562604527E+02  0.83759483831E+02 0.  0.
         11    1    3    3    0    0  0.13495652292E+02  0.83067733905E+01 -0.57226649351E+02  0.59380337749E+02  0.51100000000E-03 0.  1.
         22    1    1    0    0    0 -0.17995443953E+02  0.42685272540E+01  0.29049576227E+02  0.34437395473E+02  0.00000000000E+00 0.  1.
</event>
<event>
 5    1  0.8752570E-005  0.9118800E+02  0.7818608E-02  0.1130116E+00
         25   -1    0    0    0    0  0.00000000000E+00  0.00000000000E+00  0.99999998245E-14  0.12500000000E+03  0.12500000000E+03 0.  0.
        -11    1    3    3    0    0 -0.16683425452E+02 -0.27302015306E+02  0.47784124319E+01  0.32350733380E+02  0.51100000000E-03 0. -1.
         23    2    1    0    0    0  0.15000087683E+02  0.25776558542E+02  0.75749956329E+01  0.94229654542E+02  0.89064098466E+02 0.  0.
         11    1    3    3    0    0  0.31683513135E+02  0.53078573848E+02  0.27965832010E+01  0.61878921162E+02  0.51100000000E-03 0.  1.
         22    1    1    0    0    0 -0.15000087683E+02 -0.25776558542E+02 -0.75749956329E+01  0.30770345458E+02  0.00000000000E+00 0.  1.
</event>
<event>
 5    1  0.8752570E-005  0.9118800E+02  0.7818608E-02  0.1130116E+00
         25   -1    0    0    0    0  0.00000000000E+00  0.00000000000E+00  0.99999998245E-14  0.12500000000E+03  0.12500000000E+03 0.  0.
        -11    1    3    3    0    0 -0.12343425831E+02 -0.18065828793E+02 -0.16290727431E+01  0.21940560829E+02  0.51100000000E-03 0.  1.
         23    2    1    0    0    0  0.20835237633E+02  0.33491393438E+02  0.99177278410E+01  0.84328856825E+02  0.73872959913E+02 0.  0.
         11    1    3    3    0    0  0.33178663464E+02  0.51557222231E+02  0.11546800584E+02  0.62388295997E+02  0.51100000000E-03 0. -1.
         22    1    1    0    0    0 -0.20835237633E+02 -0.33491393438E+02 -0.99177278410E+01  0.40671143175E+02  0.00000000000E+00 0. -1.
</event>
<event>
 5    1  0.8752570E-005  0.9118800E+02  0.7818608E-02  0.1130116E+00
         25   -1    0    0    0    0  0.00000000000E+00  0.00000000000E+00  0.99999998245E-14  0.12500000000E+03  0.12500000000E+03 0.  0.
        -11    1    3    3    0    0  0.45130514940E+02 -0.12063292271E+01  0.15419484290E+02  0.47707222776E+02  0.51100000000E-03 0. -1.
         23    2    1    0    0    0 -0.10265018986E+02 -0.15433395691E+02  0.32238694421E+01  0.10618634402E+03  0.10450639217E+03 0.  0.
         11    1    3    3    0    0 -0.55395533926E+02 -0.14227066464E+02 -0.12195614848E+02  0.58479121239E+02  0.51100000000E-03 0.  1.
         22    1    1    0    0    0  0.10265018986E+02  0.15433395691E+02 -0.32238694421E+01  0.18813655985E+02  0.00000000000E+00 0.  1.
</event>
<event>
 5    1  0.8752570E-005  0.9118800E+02  0.7818608E-02  0.1130116E+00
         25   -1    0    0    0    0  0.00000000000E+00  0.00000000000E+00  0.99999998245E-14  0.12500000000E+03  0.12500000000E+03 0.  0.
        -11    1    3    3    0    0 -0.10692257766E+02 -0.38296071076E+02  0.10598005434E+02  0.41148890087E+02  0.51100000000E-03 0.  1.
         23    2    1    0    0    0  0.13971728926E+02  0.39784082672E+00 -0.23045389927E+02  0.98047124766E+02  0.94269725742E+02 0.  0.
         11    1    3    3    0    0  0.24663986691E+02  0.38693911903E+02 -0.33643395361E+02  0.56898234679E+02  0.51100000000E-03 0. -1.
         22    1    1    0    0    0 -0.13971728926E+02 -0.39784082672E+00  0.23045389927E+02  0.26952875234E+02  0.00000000000E+00 0. -1.
</event>
<event>
 5    1  0.8752570E-005  0.9118800E+02  0.7818608E-02  0.1130116E+00
         25   -1    0    0    0    0  0.00000000000E+00  0.00000000000E+00  0.99999998245E-14  0.12500000000E+03  0.12500000000E+03 0.  0.
        -11    1    3    3    0    0 -0.86963908341E+01  0.31505292995E+02 -0.24789082772E+02  0.41020840132E+02  0.51100000000E-03 0.  1.
         23    2    1    0    0    0 -0.19367233991E+02  0.40696577855E+01  0.21437195306E+02  0.95824578674E+02  0.91275104320E+02 0.  0.
         11    1    3    3    0    0 -0.10670843157E+02 -0.27435635210E+02  0.46226278077E+02  0.54803738542E+02  0.51100000000E-03 0. -1.
         22    1    1    0    0    0  0.19367233991E+02 -0.40696577855E+01 -0.21437195306E+02  0.29175421326E+02  0.00000000000E+00 0. -1.
</event>
<event>
 5    1  0.8752570E-005  0.9118800E+02  0.7818608E-02  0.1130116E+00
         25   -1    0    0    0    0  0.00000000000E+00  0.00000000000E+00  0.99999998245E-14  0.12500000000E+03  0.12500000000E+03 0.  0.
        -11    1    3    3    0    0 -0.66985444682E+01 -0.18129024692E+02 -0.28500286394E+02  0.34435423027E+02  0.51100000000E-03 0.  1.
         23    2    1    0    0    0  0.19677417187E+02  0.80369947096E+01  0.20191581945E+02  0.95682871686E+02  0.91080831801E+02 0.  0.
         11    1    3    3    0    0  0.26375961656E+02  0.26166019401E+02  0.48691868339E+02  0.61247448659E+02  0.51100000000E-03 0. -1.
         22    1    1    0    0    0 -0.19677417187E+02 -0.80369947096E+01 -0.20191581945E+02  0.29317128314E+02  0.00000000000E+00 0. -1.
</event>
<event>
 5    1  0.8752570E-005  0.9118800E+02  0.7818608E-02  0.1130116E+00
         25   -1    0    0    0    0  0.00000000000E+00  0.00000000000E+00  0.99999998245E-14  0.12500000000E+03  0.12500000000E+03 0.  0.
        -11    1    3    3    0    0  0.21186295010E+02 -0.23747838172E+01  0.53563855045E+02  0.57650544333E+02  0.51100000000E-03 0.  1.
         23    2    1    0    0    0  0.30190765879E+01 -0.17139462884E+02  0.23701303809E+02  0.95595445699E+02  0.90960768603E+02 0.  0.
         11    1    3    3    0    0 -0.18167218422E+02 -0.14764679066E+02 -0.29862551236E+02  0.37944901366E+02  0.51100000000E-03 0. -1.
         22    1    1    0    0    0 -0.30190765879E+01  0.17139462884E+02 -0.23701303809E+02  0.29404554301E+02  0.00000000000E+00 0.  1.
</event>
<event>
 5    1  0.8752570E-005  0.9118800E+02  0.7818608E-02  0.1130116E+00
         25   -1    0    0    0    0  0.00000000000E+00  0.00000000000E+00  0.99999998245E-14  0.12500000000E+03  0.12500000000E+03 0.  0.
        -11    1    3    3    0    0  0.12795440156E+02 -0.42311179894E+02  0.29451107145E+02  0.53116164631E+02  0.51100000000E-03 0. -1.
         23    2    1    0    0    0 -0.83709717224E+01 -0.25085209681E+01  0.25118759842E+02  0.98404550370E+02  0.94742480401E+02 0.  0.
         11    1    3    3    0    0 -0.21166411879E+02  0.39802658926E+02 -0.43323473030E+01  0.45288385739E+02  0.51100000000E-03 0.  1.
         22    1    1    0    0    0  0.83709717224E+01  0.25085209681E+01 -0.25118759842E+02  0.26595449630E+02  0.00000000000E+00 0. -1.
</event>
<event>
 5    1  0.8752570E-005  0.9118800E+02  0.7818608E-02  0.1130116E+00
         25   -1    0    0    0    0  0.00000000000E+00  0.00000000000E+00  0.99999998245E-14  0.12500000000E+03  0.12500000000E+03 0.  0.
        -11    1    3    3    0    0  0.21427819472E+02 -0.12778544991E+02 -0.34771668004E+02  0.42796162859E+02  0.51100000000E-03 0. -1.
         23    2    1    0    0    0  0.12420024575E+02 -0.31557885571E+02  0.78096905279E+01  0.90198442301E+02  0.83214245026E+02 0.  0.
         11    1    3    3    0    0 -0.90077948971E+01 -0.18779340580E+02  0.42581358532E+02  0.47402279442E+02  0.51100000000E-03 0.  1.
         22    1    1    0    0    0 -0.12420024575E+02  0.31557885571E+02 -0.78096905279E+01  0.34801557699E+02  0.00000000000E+00 0.  1.
</event>
<event>
 5    1  0.8752570E-005  0.9118800E+02  0.7818608E-02  0.1130116E+00
         25   -1    0    0    0    0  0.00000000000E+00  0.00000000000E+00  0.99999998245E-14  0.12500000000E+03  0.12500000000E+03 0.  0.
        -11    1    3    3    0    0 -0.51728270418E+02  0.15796665181E+02  0.98886715815E+01  0.54983037541E+02  0.51100000000E-03 0.  1.
         23    2    1    0    0    0 -0.13168276141E+02  0.25990407478E+02  0.99605722507E+00  0.95847008603E+02  0.91305816632E+02 0.  0.
         11    1    3    3    0    0  0.38559994277E+02  0.10193742297E+02 -0.88926143564E+01  0.40863971063E+02  0.51100000000E-03 0. -1.
         22    1    1    0    0    0  0.13168276141E+02 -0.25990407478E+02 -0.99605722507E+00  0.29152991397E+02  0.00000000000E+00 0.  1.
</event>
<event>
 5    1  0.8752570E-005  0.9118800E+02  0.7818608E-02  0.1130116E+00
         25   -1    0    0    0    0  0.00000000000E+00  0.00000000000E+00  0.99999998245E-14  0.12500000000E+03  0.12500000000E+03 0.  0.
        -11    1    3    3    0    0 -0.29978078680E+02 -0.40213071198E+02  0.22153414084E+02  0.54832016672E+02  0.51100000000E-03 0. -1.
         23    2    1    0    0    0  0.15804459222E+01 -0.14171358348E+02  0.25394433574E+02  0.95876084341E+02  0.91345613389E+02 0.  0.
         11    1    3    3    0    0  0.31558524602E+02  0.26041712850E+02  0.32410194901E+01  0.41044067669E+02  0.51100000000E-03 0.  1.
         22    1    1    0    0    0 -0.15804459222E+01  0.14171358348E+02 -0.25394433574E+02  0.29123915659E+02  0.00000000000E+00 0. -1.
</event>
<event>
 5    1  0.8752570E-005  0.9118800E+02  0.7818608E-02  0.1130116E+00
         25   -1    0    0    0    0  0.00000000000E+00  0.00000000000E+00  0.99999998245E-14  0.12500000000E+03  0.12500000000E+03 0.  0.
        -11    1    3    3    0    0  0.42338289024E+02 -0.87187987800E+01  0.13199984126E+02  0.45197209547E+02  0.51100000000E-03 0. -1.
         23    2    1    0    0    0  0.11549661359E+02 -0.41773953146E+01 -0.26588763260E+02  0.95711646669E+02  0.91120314240E+02 0.  0.
         11    1    3    3    0    0 -0.30788627665E+02  0.45414034654E+01 -0.39788747386E+02  0.50514437122E+02  0.51100000000E-03 0.  1.
         22    1    1    0    0    0 -0.11549661359E+02  0.41773953146E+01  0.26588763260E+02  0.29288353331E+02  0.00000000000E+00 0.  1.
</event>
<event>
 5    1  0.8752570E-005  0.9118800E+02  0.7818608E-02  0.1130116E+00
         25   -1    0    0    0    0  0.00000000000E+00  0.00000000000E+00  0.99999998245E-14  0.12500000000E+03  0.12500000000E+03 0.  0.
        -11    1    3    3    0    0 -0.43197907219E+02  0.70169965127E+01 -0.38223942287E+02  0.58106515920E+02  0.51100000000E-03 0. -1.
         23    2    1    0    0    0 -0.26692495047E+02 -0.86060555200E+01 -0.81649756630E+01  0.95790064857E+02  0.91227825878E+02 0.  0.
         11    1    3    3    0    0  0.16505412171E+02 -0.15623052033E+02  0.30058966624E+02  0.37683548938E+02  0.51100000000E-03 0.  1.
         22    1    1    0    0    0  0.26692495047E+02  0.86060555200E+01  0.81649756630E+01  0.29209935143E+02  0.00000000000E+00 0. -1.
</event>
<event>
 5    1  0.8752570E-005  0.9118800E+02  0.7818608E-02  0.1130116E+00
         25   -1    0    0    0    0  0.00000000000E+00  0.00000000000E+00  0.99999998245E-14  0.12500000000E+03  0.12500000000E+03 0.  0.
        -11    1    3    3    0    0  0.97582272615E+00 -0.58511215396E+02 -0.40735462606E-01  0.58519366168E+02  0.51100000000E-03 0.  1.
         23    2    1    0    0    0  0.16098547023E+02 -0.25676761621E+02  0.88694478295E+00  0.94680930512E+02  0.89695220764E+02 0.  0.
         11    1    3    3    0    0  0.15122724297E+02  0.32834453775E+02  0.92768024555E+00  0.36161564343E+02  0.51100000000E-03 0. -1.
         22    1    1    0    0    0 -0.16098547023E+02  0.25676761621E+02 -0.88694478295E+00  0.30319069488E+02  0.00000000000E+00 0.  1.
</event>
<event>
 5    1  0.8752570E-005  0.9118800E+02  0.7818608E-02  0.1130116E+00
         25   -1    0    0    0    0  0.00000000000E+00  0.00000000000E+00  0.99999998245E-14  0.12500000000E+03  0.12500000000E+03 0.  0.
        -11    1    3    3    0    0 -0.13672182895E+02  0.50212193671E+01 -0.31864584093E+02  0.35035595453E+02  0.51100000000E-03 0. -1.
         23    2    1    0    0    0  0.18624351074E+02  0.82825393678E+01  0.20143744371E+02  0.96342760975E+02  0.91982010435E+02 0.  0.
         11    1    3    3    0    0  0.32296533968E+02  0.32613200006E+01  0.52008328464E+02  0.61307165522E+02  0.51100000000E-03 0.  1.
         22    1    1    0    0    0 -0.18624351074E+02 -0.82825393678E+01 -0.20143744371E+02  0.28657239025E+02  0.00000000000E+00 0.  1.
</event>
<event>
 5    1  0.8752570E-005  0.9118800E+02  0.7818608E-02  0.1130116E+00
         25   -1    0    0    0    0  0.00000000000E+00  0.00000000000E+00  0.99999998245E-14  0.12500000000E+03  0.12500000000E+03 0.  0.
        -11    1    3    3    0    0  0.21211737605E+02  0.16234683268E+01  0.37887880533E+02  0.43451869386E+02  0.51100000000E-03 0. -1.
         23    2    1    0    0    0  0.67771585161E+01 -0.26959895162E+02 -0.47742111877E+01  0.96794346007E+02  0.92593663399E+02 0.  0.
         11    1    3    3    0    0 -0.14434579089E+02 -0.28583363489E+02 -0.42662091720E+02  0.53342476621E+02  0.51100000000E-03 0.  1.
         22    1    1    0    0    0 -0.67771585161E+01  0.26959895162E+02  0.47742111877E+01  0.28205653993E+02  0.00000000000E+00 0.  1.
</event>
<event>
 5    1  0.8752570E-005  0.9118800E+02  0.7818608E-02  0.1130116E+00
         25   -1    0    0    0    0  0.00000000000E+00  0.00000000000E+00  0.99999998245E-14  0.12500000000E+03  0.12500000000E+03 0.  0.
        -11    1    3    3    0    0  0.51739429993E+02  0.22191493971E+02 -0.19762372005E+02  0.59665587806E+02  0.51100000000E-03 0.  1.
         23    2    1    0    0    0  0.18005857020E+02  0.21758642814E+02 -0.58510077510E+01  0.96157605581E+02  0.91730046305E+02 0.  0.
         11    1    3    3    0    0 -0.33733572973E+02 -0.43285115727E+00  0.13911364254E+02  0.36492017775E+02  0.51100000000E-03 0. -1.
         22    1    1    0    0    0 -0.18005857020E+02 -0.21758642814E+02  0.58510077510E+01  0.28842394419E+02  0.00000000000E+00 0.  1.
</event>
<event>
 5    1  0.8752570E-005  0.9118800E+02  0.7818608E-02  0.1130116E+00
         25   -1    0    0    0    0  0.00000000000E+00  0.00000000000E+00  0.99999998245E-14  0.12500000000E+03  0.12500000000E+03 0.  0.
        -11    1    3    3    0    0 -0.38095372818E+02  0.10958940603E+02  0.17019592436E+02  0.43139568104E+02  0.51100000000E-03 0. -1.
         23    2    1    0    0    0  0.77816444800E+01 -0.15013318087E+02  0.23277711282E+02  0.96228389803E+02  0.91826452892E+02 0.  0.
         11    1    3    3    0    0  0.45877017298E+02 -0.25972258690E+02  0.62581188461E+01  0.53088821699E+02  0.51100000000E-03 0.  1.
         22    1    1    0    0    0 -0.77816444800E+01  0.15013318087E+02 -0.23277711282E+02  0.28771610197E+02  0.00000000000E+00 0.  1.
</event>
<event>
 5    1  0.8752570E-005  0.9118800E+02  0.7818608E-02  0.1130116E+00
         25   -1    0    0    0    0  0.00000000000E+00  0.00000000000E+00  0.99999998245E-14  0.12500000000E+03  0.12500000000E+03 0.  0.
        -11    1    3    3    0    0 -0.24037328910E+02 -0.38202827874E+02 -0.25520514055E+02  0.51851189731E+02  0.51100000000E-03 0. -1.
         23    2    1    0    0    0  0.10259380478E+02 -0.11339638795E+02 -0.25324751381E+02  0.95416468631E+02  0.90714481521E+02 0.  0.
         11    1    3    3    0    0  0.34296709388E+02  0.26863189079E+02  0.19576267385E+00  0.43565278899E+02  0.51100000000E-03 0.  1.
         22    1    1    0    0    0 -0.10259380478E+02  0.11339638795E+02  0.25324751381E+02  0.29583531369E+02  0.00000000000E+00 0. -1.
</event>
<event>
 5    1  0.8752570E-005  0.9118800E+02  0.7818608E-02  0.1130116E+00
         25   -1    0    0    0    0  0.00000000000E+00  0.00000000000E+00  0.99999998245E-14  0.12500000000E+03  0.12500000000E+03 0.  0.
        -11    1    3    3    0    0  0.41994534752E+02 -0.28076068538E+02  0.28548974416E+02  0.58024568194E+02  0.51100000000E-03 0.  1.
         23    2    1    0    0    0  0.19561811044E+02  0.18884957668E+01  0.21054118837E+02  0.96198840517E+02  0.91786219713E+02 0.  0.
         11    1    3    3    0    0 -0.22432723708E+02  0.29964564305E+02 -0.74948555799E+01  0.38174272323E+02  0.51100000000E-03 0. -1.
         22    1    1    0    0    0 -0.19561811044E+02 -0.18884957668E+01 -0.21054118837E+02  0.28801159483E+02  0.00000000000E+00 0.  1.
</event>
<event>
 5    1  0.8752570E-005  0.9118800E+02  0.7818608E-02  0.1130116E+00
         25   -1    0    0    0    0  0.00000000000E+00  0.00000000000E+00  0.99999998245E-14  0.12500000000E+03  0.12500000000E+03 0.  0.
        -11    1    3    3    0    0  0.32906071512E+02 -0.88608393264E+01  0.69874881351E+01  0.34787196016E+02  0.51100000000E-03 0.  1.
         23    2    1    0    0    0 -0.12528566126E+02 -0.58281373379E+01 -0.29032458484E+02  0.92846993926E+02  0.87101943041E+02 0.  0.
         11    1    3    3    0    0 -0.45434637638E+02  0.30327019885E+01 -0.36019946619E+02  0.58059797910E+02  0.51100000000E-03 0. -1.
         22    1    1    0    0    0  0.12528566126E+02  0.58281373379E+01  0.29032458484E+02  0.32153006074E+02  0.00000000000E+00 0. -1.
</event>
<event>
 5    1  0.8752570E-005  0.9118800E+02  0.7818608E-02  0.1130116E+00
         25   -1    0    0    0    0  0.00000000000E+00  0.00000000000E+00  0.99999998245E-14  0.12500000000E+03  0.12500000000E+03 0.  0.
        -11    1    3    3    0    0 -0.26439326314E+02  0.22441089257E+02  0.22976597543E+02  0.41600054061E+02  0.51100000000E-03 0.  1.
         23    2    1    0    0    0 -0.39076319048E+01  0.76925087554E+01 -0.26062336849E+02  0.97546590738E+02  0.93603673457E+02 0.  0.
         11    1    3    3    0    0  0.22531694409E+02 -0.14748580501E+02 -0.49038934391E+02  0.55946536678E+02  0.51100000000E-03 0. -1.
         22    1    1    0    0    0  0.39076319048E+01 -0.76925087554E+01  0.26062336849E+02  0.27453409262E+02  0.00000000000E+00 0. -1.
</event>
<event>
 5    1  0.8752570E-005  0.9118800E+02  0.7818608E-02  0.1130116E+00
         25   -1    0    0    0    0  0.00000000000E+00  0.00000000000E+00  0.99999998245E-14  0.12500000000E+03  0.12500000000E+03 0.  0.
        -11    1    3    3    0    0  0.18310515587E+02  0.46454338192E+02  0.19947065913E+02  0.53769563479E+02  0.51100000000E-03 0. -1.
         23    2    1    0    0    0  0.27415889985E+02  0.11316613008E+02 -0.31185144804E+00  0.95338678300E+02  0.90607226947E+02 0.  0.
         11    1    3    3    0    0  0.91053743985E+01 -0.35137725184E+02 -0.20258917361E+02  0.41569114821E+02  0.51100000000E-03 0.  1.
         22    1    1    0    0    0 -0.27415889985E+02 -0.11316613008E+02  0.31185144804E+00  0.29661321700E+02  0.00000000000E+00 0. -1.
</event>
<event>
 5    1  0.8752570E-005  0.9118800E+02  0.7818608E-02  0.1130116E+00
         25   -1    0    0    0    0  0.00000000000E+00  0.00000000000E+00  0.99999998245E-14  0.12500000000E+03  0.12500000000E+03 0.  0.
        -11    1    3    3    0    0 -0.61504396245E+01  0.18420897011E+02 -0.30923346956E+02  0.36515897106E+02  0.51100000000E-03 0.  1.
         23    2    1    0    0    0 -0.15359802949E+02 -0.19695631632E+02  0.14177298830E+02  0.96280019949E+02  0.91896708251E+02 0.  0.
         11    1    3    3    0    0 -0.92093633241E+01 -0.38116528643E+02  0.45100645786E+02  0.59764122843E+02  0.51100000000E-03 0. -1.
         22    1    1    0    0    0  0.15359802949E+02  0.19695631632E+02 -0.14177298830E+02  0.28719980051E+02  0.00000000000E+00 0. -1.
</event>
<event>
 5    1  0.8752570E-005  0.9118800E+02  0.7818608E-02  0.1130116E+00
         25   -1    0    0    0    0  0.00000000000E+00  0.00000000000E+00  0.99999998245E-14  0.12500000000E+03  0.12500000000E+03 0.  0.
        -11    1    3    3    0    0  0.31580376848E+02  0.18402052978E+02 -0.35902520912E+02  0.51234234295E+02  0.51100000000E-03 0.  1.
         23    2    1    0    0    0  0.13923866210E+00 -0.11638738668E+02 -0.26966878238E+02  0.95628378541E+02  0.91006014281E+02 0.  0.
         11    1    3    3    0    0 -0.31441138186E+02 -0.30040791646E+02  0.89356426732E+01  0.44394144247E+02  0.51100000000E-03 0. -1.
         22    1    1    0    0    0 -0.13923866210E+00  0.11638738668E+02  0.26966878238E+02  0.29371621459E+02  0.00000000000E+00 0.  1.
</event>
<event>
 5    1  0.8752570E-005  0.9118800E+02  0.7818608E-02  0.1130116E+00
         25   -1    0    0    0    0  0.00000000000E+00  0.00000000000E+00  0.99999998245E-14  0.12500000000E+03  0.12500000000E+03 0.  0.
        -11    1    3    3    0    0 -0.15868189695E+02  0.59571619164E+02  0.10425289722E+01  0.61657636355E+02  0.51100000000E-03 0.  1.
         23    2    1    0    0    0 -0.43755812172E+01  0.30320483340E+02 -0.57986658215E+01  0.93821450543E+02  0.88489336283E+02 0.  0.
         11    1    3    3    0    0  0.11492608478E+02 -0.29251135824E+02 -0.68411947937E+01  0.32163814188E+02  0.51100000000E-03 0. -1.
         22    1    1    0    0    0  0.43755812172E+01 -0.30320483340E+02  0.57986658215E+01  0.31178549457E+02  0.00000000000E+00 0.  1.
</event>
<event>
 5    1  0.8752570E-005  0.9118800E+02  0.7818608E-02  0.1130116E+00
         25   -1    0    0    0    0  0.00000000000E+00  0.00000000000E+00  0.99999998245E-14  0.12500000000E+03  0.12500000000E+03 0.  0.
        -11    1    3    3    0    0  0.15041130018E+02  0.31431408201E+02  0.39487133468E+02  0.52663105904E+02  0.51100000000E-03 0. -1.
         23    2    1    0    0    0 -0.17501009329E+02  0.14458993778E+02  0.82910908783E+01  0.10083204567E+03  0.97892856824E+02 0.  0.
         11    1    3    3    0    0 -0.32542139346E+02 -0.16972414422E+02 -0.31196042590E+02  0.48168939765E+02  0.51100000000E-03 0.  1.
         22    1    1    0    0    0  0.17501009329E+02 -0.14458993778E+02 -0.82910908783E+01  0.24167954331E+02  0.00000000000E+00 0. -1.
</event>
<event>
 5    1  0.8752570E-005  0.9118800E+02  0.7818608E-02  0.1130116E+00
         25   -1    0    0    0    0  0.00000000000E+00  0.00000000000E+00  0.99999998245E-14  0.12500000000E+03  0.12500000000E+03 0.  0.
        -11    1    3    3    0    0 -0.29390293206E+02 -0.21220234753E+02  0.96898397399E+01  0.37523068799E+02  0.51100000000E-03 0. -1.
         23    2    1    0    0    0  0.14761574572E+02 -0.26619600519E+01 -0.24433622878E+02  0.96329596408E+02  0.91964118558E+02 0.  0.
         11    1    3    3    0    0  0.44151867777E+02  0.18558274701E+02 -0.34123462618E+02  0.58806527609E+02  0.51100000000E-03 0.  1.
         22    1    1    0    0    0 -0.14761574572E+02  0.26619600519E+01  0.24433622878E+02  0.28670403592E+02  0.00000000000E+00 0.  1.
</event>
<event>
 5    1  0.8752570E-005  0.9118800E+02  0.7818608E-02  0.1130116E+00
         25   -1    0    0    0    0  0.00000000000E+00  0.00000000000E+00  0.99999998245E-14  0.12500000000E+03  0.12500000000E+03 0.  0.
        -11    1    3    3    0    0 -0.15231458837E+02 -0.12772003235E+02 -0.25261736922E+02  0.32144622529E+02  0.51100000000E-03 0. -1.
         23    2    1    0    0    0  0.98448538992E+01  0.72340276507E+01  0.28073319983E+02  0.94383605712E+02  0.89279904950E+02 0.  0.
         11    1    3    3    0    0  0.25076312736E+02  0.20006030886E+02  0.53335056905E+02  0.62238983183E+02  0.51100000000E-03 0.  1.
         22    1    1    0    0    0 -0.98448538992E+01 -0.72340276507E+01 -0.28073319983E+02  0.30616394288E+02  0.00000000000E+00 0.  1.
</event>
<event>
 5    1  0.8752570E-005  0.9118800E+02  0.7818608E-02  0.1130116E+00
         25   -1    0    0    0    0  0.00000000000E+00  0.00000000000E+00  0.99999998245E-14  0.12500000000E+03  0.12500000000E+03 0.  0.
        -11    1    3    3    0    0 -0.19871786252E+02  0.26426844195E+02 -0.95760790415E+01  0.34423353599E+02  0.51100000000E-03 0. -1.
         23    2    1    0    0    0  0.17546974410E+02 -0.18105980217E+02  0.12773072473E+02  0.96735637085E+02  0.92514373323E+02 0.  0.
         11    1    3    3    0    0  0.37418760662E+02 -0.44532824412E+02  0.22349151514E+02  0.62312283486E+02  0.51100000000E-03 0.  1.
         22    1    1    0    0    0 -0.17546974410E+02  0.18105980217E+02 -0.12773072473E+02  0.28264362915E+02  0.00000000000E+00 0.  1.
</event>
<event>
 5    1  0.8752570E-005  0.9118800E+02  0.7818608E-02  0.1130116E+00
         25   -1    0    0    0    0  0.00000000000E+00  0.00000000000E+00  0.99999998245E-14  0.12500000000E+03  0.12500000000E+03 0.  0.
        -11    1    3    3    0    0  0.59324353042E+02 -0.42474410149E+01  0.18067269135E+01  0.59503645951E+02  0.51100000000E-03 0. -1.
         23    2    1    0    0    0  0.26354236944E+02  0.19925713465E+01  0.13858264528E+02  0.95157620048E+02  0.90357097186E+02 0.  0.
         11    1    3    3    0    0 -0.32970116098E+02  0.62400123613E+01  0.12051537614E+02  0.35653974097E+02  0.51100000000E-03 0.  1.
         22    1    1    0    0    0 -0.26354236944E+02 -0.19925713465E+01 -0.13858264528E+02  0.29842379952E+02  0.00000000000E+00 0. -1.
</event>
<event>
 5    1  0.8752570E-005  0.9118800E+02  0.7818608E-02  0.1130116E+00
         25   -1    0    0    0    0  0.00000000000E+00  0.00000000000E+00  0.99999998245E-14  0.12500000000E+03  0.12500000000E+03 0.  0.
        -11    1    3    3    0    0  0.27483808936E+02  0.19404481666E+02  0.19507613336E+02  0.38890109806E+02  0.51100000000E-03 0. -1.
         23    2    1    0    0    0  0.90304198424E+01 -0.22994688280E+02 -0.14558914533E+02  0.96324816234E+02  0.91957620992E+02 0.  0.
         11    1    3    3    0    0 -0.18453389094E+02 -0.42399169946E+02 -0.34066527869E+02  0.57434706428E+02  0.51100000000E-03 0.  1.
         22    1    1    0    0    0 -0.90304198424E+01  0.22994688280E+02  0.14558914533E+02  0.28675183766E+02  0.00000000000E+00 0.  1.
</event>
<event>
 5    1  0.8752570E-005  0.9118800E+02  0.7818608E-02  0.1130116E+00
         25   -1    0    0    0    0  0.00000000000E+00  0.00000000000E+00  0.99999998245E-14  0.12500000000E+03  0.12500000000E+03 0.  0.
        -11    1    3    3    0    0  0.25627966154E+02 -0.94941897092E+01  0.19259731814E+02  0.33434556334E+02  0.51100000000E-03 0. -1.
         23    2    1    0    0    0 -0.11717102132E+02 -0.78528645942E+01 -0.27974309707E+02  0.93670780918E+02  0.88276243857E+02 0.  0.
         11    1    3    3    0    0 -0.37345068286E+02  0.16413251150E+01 -0.47234041521E+02  0.60236224584E+02  0.51100000000E-03 0.  1.
         22    1    1    0    0    0  0.11717102132E+02  0.78528645942E+01  0.27974309707E+02  0.31329219082E+02  0.00000000000E+00 0.  1.
</event>
<event>
 5    1  0.8752570E-005  0.9118800E+02  0.7818608E-02  0.1130116E+00
         25   -1    0    0    0    0  0.00000000000E+00  0.00000000000E+00  0.99999998245E-14  0.12500000000E+03  0.12500000000E+03 0.  0.
        -11    1    3    3    0    0  0.10449693947E+02 -0.15207633844E+02 -0.32734301090E+02  0.37576624367E+02  0.51100000000E-03 0.  1.
         23    2    1    0    0    0 -0.13376252937E+02  0.25922792601E+02  0.91596566890E+00  0.95815169831E+02  0.91262218129E+02 0.  0.
         11    1    3    3    0    0 -0.23825946884E+02  0.41130426445E+02  0.33650266759E+02  0.58238545464E+02  0.51100000000E-03 0. -1.
         22    1    1    0    0    0  0.13376252937E+02 -0.25922792601E+02 -0.91596566890E+00  0.29184830169E+02  0.00000000000E+00 0. -1.
</event>
<event>
 5    1  0.8752570E-005  0.9118800E+02  0.7818608E-02  0.1130116E+00
         25   -1    0    0    0    0  0.00000000000E+00  0.00000000000E+00  0.99999998245E-14  0.12500000000E+03  0.12500000000E+03 0.  0.
        -11    1    3    3    0    0  0.36419134609E+02 -0.41933558315E+01  0.43195833595E+02  0.56655252528E+02  0.51100000000E-03 0. -1.
         23    2    1    0    0    0  0.53452361407E+01  0.12512447724E+02  0.25436746876E+02  0.96152799285E+02  0.91723496560E+02 0.  0.
         11    1    3    3    0    0 -0.31073898468E+02  0.16705803556E+02 -0.17759086719E+02  0.39497546757E+02  0.51100000000E-03 0.  1.
         22    1    1    0    0    0 -0.53452361407E+01 -0.12512447724E+02 -0.25436746876E+02  0.28847200715E+02  0.00000000000E+00 0. -1.
</event>
<event>
 5    1  0.8752570E-005  0.9118800E+02  0.7818608E-02  0.1130116E+00
         25   -1    0    0    0    0  0.00000000000E+00  0.00000000000E+00  0.99999998245E-14  0.12500000000E+03  0.12500000000E+03 0.  0.
        -11    1    3    3    0    0 -0.28809449401E+02  0.41574842895E+02  0.13807756815E+01  0.50599984963E+02  0.51100000000E-03 0.  1.
         23    2    1    0    0    0 -0.24523549228E+02 -0.14265404607E+01  0.15370637269E+02  0.96022491921E+02  0.91545742556E+02 0.  0.
         11    1    3    3    0    0  0.42859001730E+01 -0.43001383356E+02  0.13989861588E+02  0.45422506958E+02  0.51100000000E-03 0. -1.
         22    1    1    0    0    0  0.24523549228E+02  0.14265404607E+01 -0.15370637269E+02  0.28977508079E+02  0.00000000000E+00 0.  1.
</event>
<event>
 5    1  0.8752570E-005  0.9118800E+02  0.7818608E-02  0.1130116E+00
         25   -1    0    0    0    0  0.00000000000E+00  0.00000000000E+00  0.99999998245E-14  0.12500000000E+03  0.12500000000E+03 0.  0.
        -11    1    3    3    0    0 -0.22154131096E+02 -0.79902288459E+00 -0.50281224769E+02  0.54951301411E+02  0.51100000000E-03 0.  1.
         23    2    1    0    0    0 -0.26114243461E+02 -0.14141021204E+02 -0.17583496108E+02  0.90487661227E+02  0.83647566053E+02 0.  0.
         11    1    3    3    0    0 -0.39601123650E+01 -0.13341998319E+02  0.32697728661E+02  0.35536359816E+02  0.51100000000E-03 0. -1.
         22    1    1    0    0    0  0.26114243461E+02  0.14141021204E+02  0.17583496108E+02  0.34512338773E+02  0.00000000000E+00 0.  1.
</event>
<event>
 5    1  0.8752570E-005  0.9118800E+02  0.7818608E-02  0.1130116E+00
         25   -1    0    0    0    0  0.00000000000E+00  0.00000000000E+00  0.99999998245E-14  0.12500000000E+03  0.12500000000E+03 0.  0.
        -11    1    3    3    0    0 -0.18410159033E+02  0.26925149450E+02  0.11351019846E+02  0.34536115594E+02  0.51100000000E-03 0. -1.
         23    2    1    0    0    0  0.10739471705E+02 -0.23386409904E+02 -0.11242027958E+02  0.96917200757E+02  0.92759367124E+02 0.  0.
         11    1    3    3    0    0  0.29149630738E+02 -0.50311559354E+02 -0.22593047805E+02  0.62381085163E+02  0.51100000000E-03 0.  1.
         22    1    1    0    0    0 -0.10739471705E+02  0.23386409904E+02  0.11242027958E+02  0.28082799243E+02  0.00000000000E+00 0.  1.
</event>
<event>
 5    1  0.8752570E-005  0.9118800E+02  0.7818608E-02  0.1130116E+00
         25   -1    0    0    0    0  0.00000000000E+00  0.00000000000E+00  0.99999998245E-14  0.12500000000E+03  0.12500000000E+03 0.  0.
        -11    1    3    3    0    0 -0.15275968467E+02 -0.12889937705E+02  0.43880579596E+02  0.48218367586E+02  0.51100000000E-03 0. -1.
         23    2    1    0    0    0  0.21132416324E+02  0.51759273752E+01  0.20494457627E+02  0.95110335610E+02  0.90291660205E+02 0.  0.
         11    1    3    3    0    0  0.36408384791E+02  0.18065865080E+02 -0.23386121969E+02  0.46891968025E+02  0.51100000000E-03 0.  1.
         22    1    1    0    0    0 -0.21132416324E+02 -0.51759273752E+01 -0.20494457627E+02  0.29889664390E+02  0.00000000000E+00 0.  1.
</event>
<event>
 5    1  0.8752570E-005  0.9118800E+02  0.7818608E-02  0.1130116E+00
         25   -1    0    0    0    0  0.00000000000E+00  0.00000000000E+00  0.99999998245E-14  0.12500000000E+03  0.12500000000E+03 0.  0.
        -11    1    3    3    0    0  0.31206536084E+02 -0.12338386766E+02  0.73662294287E+01  0.34356149648E+02  0.51100000000E-03 0.  1.
         23    2    1    0    0    0 -0.18315416471E+02  0.23057215949E+02  0.34355268270E+01  0.95353878291E+02  0.90628194138E+02 0.  0.
         11    1    3    3    0    0 -0.49521952555E+02  0.35395602715E+02 -0.39307026016E+01  0.60997728643E+02  0.51100000000E-03 0. -1.
         22    1    1    0    0    0  0.18315416471E+02 -0.23057215949E+02 -0.34355268270E+01  0.29646121709E+02  0.00000000000E+00 0. -1.
</event>
<event>
 5    1  0.8752570E-005  0.9118800E+02  0.7818608E-02  0.1130116E+00
         25   -1    0    0    0    0  0.00000000000E+00  0.00000000000E+00  0.99999998245E-14  0.12500000000E+03  0.12500000000E+03 0.  0.
        -11    1    3    3    0    0  0.30838506279E+02  0.36781307160E+02 -0.36092911723E+01  0.48134239466E+02  0.51100000000E-03 0. -1.
         23    2    1    0    0    0 -0.54228637458E+01  0.21967532610E+02  0.20781382682E+02  0.94277926399E+02  0.89131821477E+02 0.  0.
         11    1    3    3    0    0 -0.36261370025E+02 -0.14813774550E+02  0.24390673854E+02  0.46143686934E+02  0.51100000000E-03 0.  1.
         22    1    1    0    0    0  0.54228637458E+01 -0.21967532610E+02 -0.20781382682E+02  0.30722073601E+02  0.00000000000E+00 0.  1.
</event>
<event>
 5    1  0.8752570E-005  0.9118800E+02  0.7818608E-02  0.1130116E+00
         25   -1    0    0    0    0  0.00000000000E+00  0.00000000000E+00  0.99999998245E-14  0.12500000000E+03  0.12500000000E+03 0.  0.
        -11    1    3    3    0    0  0.28362541835E+02 -0.38400071956E+02  0.87446695261E+01  0.48533169595E+02  0.51100000000E-03 0. -1.
         23    2    1    0    0    0  0.28231626308E+02  0.76158126470E+01 -0.16644254491E+01  0.95711851572E+02  0.91120595328E+02 0.  0.
         11    1    3    3    0    0 -0.13091552701E+00  0.46015884603E+02 -0.10409094975E+02  0.47178681977E+02  0.51100000000E-03 0.  1.
         22    1    1    0    0    0 -0.28231626308E+02 -0.76158126470E+01  0.16644254491E+01  0.29288148428E+02  0.00000000000E+00 0. -1.
</event>
<event>
 5    1  0.8752570E-005  0.9118800E+02  0.7818608E-02  0.1130116E+00
         25   -1    0    0    0    0  0.00000000000E+00  0.00000000000E+00  0.99999998245E-14  0.12500000000E+03  0.12500000000E+03 0.  0.
        -11    1    3    3    0    0 -0.34753339239E+02  0.13047872101E+02 -0.26934916133E+02  0.45864269993E+02  0.51100000000E-03 0.  1.
         23    2    1    0    0    0  0.14666923238E+02  0.87521142986E+00 -0.24016879295E+02  0.96845158083E+02  0.92662233519E+02 0.  0.
         11    1    3    3    0    0  0.49420262478E+02 -0.12172660671E+02  0.29180368379E+01  0.50980888090E+02  0.51100000000E-03 0. -1.
         22    1    1    0    0    0 -0.14666923238E+02 -0.87521142986E+00  0.24016879295E+02  0.28154841917E+02  0.00000000000E+00 0.  1.
</event>
<event>
 4    1  0.8752570E-005  0.9118800E+02  0.7818608E-02  0.1130116E+00
         25   -1    0    0    0    0  0.00000000000E+00  0.00000000000E+00  0.99999998245E-14  0.12500000000E+03  0.12500000000E+03 0.  0.
        -11    1    1    0    0    0  0.20967644646E+02 -0.29059996234E+02 -0.31947609528E+02  0.48008074924E+02  0.51100000000E-03 0.  1.
         11    1    1    0    0    0  0.11494248972E+02  0.18402699309E+02 -0.91492471681E+01  0.23547522700E+02  0.51100000000E-03 0. -1.
         22    1    1    0    0    0 -0.32461893619E+02  0.10657296924E+02  0.41096856696E+02  0.53444402376E+02  0.00000000000E+00 0.  1.
</event>
<event>
 5    1  0.8752570E-005  0.9118800E+02  0.7818608E-02  0.1130116E+00
         25   -1    0    0    0    0  0.00000000000E+00  0.00000000000E+00  0.99999998245E-14  0.12500000000E+03  0.12500000000E+03 0.  0.
        -11    1    3    3    0    0  0.10926131080E+02 -0.56047355089E+01  0.33980443923E+02  0.36131204934E+02  0.51100000000E-03 0.  1.
         23    2    1    0    0    0 -0.29833465928E+02  0.18013599268E+01 -0.68929160373E+01  0.94327652872E+02  0.89201531478E+02 0.  0.
         11    1    3    3    0    0 -0.40759597008E+02  0.74060954356E+01 -0.40873359960E+02  0.58196447938E+02  0.51100000000E-03 0. -1.
         22    1    1    0    0    0  0.29833465928E+02 -0.18013599268E+01  0.68929160373E+01  0.30672347128E+02  0.00000000000E+00 0. -1.
</event>
<event>
 5    1  0.8752570E-005  0.9118800E+02  0.7818608E-02  0.1130116E+00
         25   -1    0    0    0    0  0.00000000000E+00  0.00000000000E+00  0.99999998245E-14  0.12500000000E+03  0.12500000000E+03 0.  0.
        -11    1    3    3    0    0  0.19334464340E+02 -0.14783871194E+02 -0.24102474999E+02  0.34253666375E+02  0.51100000000E-03 0.  1.
         23    2    1    0    0    0 -0.31026833964E+02  0.17937705582E+01  0.29602081423E+01  0.93780697143E+02  0.88431749308E+02 0.  0.
         11    1    3    3    0    0 -0.50361298304E+02  0.16577641752E+02  0.27062683141E+02  0.59527030768E+02  0.51100000000E-03 0. -1.
         22    1    1    0    0    0  0.31026833964E+02 -0.17937705582E+01 -0.29602081423E+01  0.31219302857E+02  0.00000000000E+00 0. -1.
</event>
<event>
 5    1  0.8752570E-005  0.9118800E+02  0.7818608E-02  0.1130116E+00
         25   -1    0    0    0    0  0.00000000000E+00  0.00000000000E+00  0.99999998245E-14  0.12500000000E+03  0.12500000000E+03 0.  0.
        -11    1    3    3    0    0 -0.25733060588E+02 -0.19292606874E+02 -0.22560196208E+02  0.39285589475E+02  0.51100000000E-03 0.  1.
         23    2    1    0    0    0  0.26174829287E+02 -0.32346484409E+01  0.12230262563E+01  0.98597719190E+02  0.94996998887E+02 0.  0.
         11    1    3    3    0    0  0.51907889875E+02  0.16057958433E+02  0.23783222464E+02  0.59312129715E+02  0.51100000000E-03 0. -1.
         22    1    1    0    0    0 -0.26174829287E+02  0.32346484409E+01 -0.12230262563E+01  0.26402280810E+02  0.00000000000E+00 0. -1.
</event>
<event>
 5    1  0.8752570E-005  0.9118800E+02  0.7818608E-02  0.1130116E+00
         25   -1    0    0    0    0  0.00000000000E+00  0.00000000000E+00  0.99999998245E-14  0.12500000000E+03  0.12500000000E+03 0.  0.
        -11    1    3    3    0    0 -0.26009089903E+02 -0.44156009496E+02 -0.27580694459E+01  0.51320881516E+02  0.51100000000E-03 0.  1.
         23    2    1    0    0    0 -0.29806497886E+02 -0.52400594477E+00 -0.28619522432E+00  0.95187522643E+02  0.90398454968E+02 0.  0.
         11    1    3    3    0    0 -0.37974079829E+01  0.43632003552E+02  0.24718742216E+01  0.43866641127E+02  0.51100000000E-03 0. -1.
         22    1    1    0    0    0  0.29806497886E+02  0.52400594477E+00  0.28619522432E+00  0.29812477357E+02  0.00000000000E+00 0.  1.
</event>
<event>
 5    1  0.8752570E-005  0.9118800E+02  0.7818608E-02  0.1130116E+00
         25   -1    0    0    0    0  0.00000000000E+00  0.00000000000E+00  0.99999998245E-14  0.12500000000E+03  0.12500000000E+03 0.  0.
        -11    1    3    3    0    0  0.20050910116E+02 -0.94314750521E+01  0.28387533966E+02  0.36011717580E+02  0.51100000000E-03 0.  1.
         23    2    1    0    0    0 -0.26100736727E+02  0.16272023362E+01 -0.99494599626E+01  0.97019864213E+02  0.92897610589E+02 0.  0.
         11    1    3    3    0    0 -0.46151646842E+02  0.11058677388E+02 -0.38336993929E+02  0.61008146633E+02  0.51100000000E-03 0. -1.
         22    1    1    0    0    0  0.26100736727E+02 -0.16272023362E+01  0.99494599626E+01  0.27980135787E+02  0.00000000000E+00 0. -1.
</event>
<event>
 5    1  0.8752570E-005  0.9118800E+02  0.7818608E-02  0.1130116E+00
         25   -1    0    0    0    0  0.00000000000E+00  0.00000000000E+00  0.99999998245E-14  0.12500000000E+03  0.12500000000E+03 0.  0.
        -11    1    3    3    0    0  0.47914036445E+02  0.90249294026E+01  0.14129372633E+02  0.50762618238E+02  0.51100000000E-03 0.  1.
         23    2    1    0    0    0  0.43241643936E+01  0.15479957547E+02  0.24185709531E+02  0.95960784638E+02  0.91461446301E+02 0.  0.
         11    1    3    3    0    0 -0.43589872051E+02  0.64550281444E+01  0.10056336898E+02  0.45198166399E+02  0.51100000000E-03 0. -1.
         22    1    1    0    0    0 -0.43241643936E+01 -0.15479957547E+02 -0.24185709531E+02  0.29039215362E+02  0.00000000000E+00 0.  1.
</event>
<event>
 5    1  0.8752570E-005  0.9118800E+02  0.7818608E-02  0.1130116E+00
         25   -1    0    0    0    0  0.00000000000E+00  0.00000000000E+00  0.99999998245E-14  0.12500000000E+03  0.12500000000E+03 0.  0.
        -11    1    3    3    0    0 -0.43161493893E+02 -0.21031835617E+02 -0.16226394692E+01  0.48040458196E+02  0.51100000000E-03 0.  1.
         23    2    1    0    0    0 -0.62389906651E+01 -0.16117844369E+02 -0.26879078999E+02  0.93043861318E+02  0.87384010720E+02 0.  0.
         11    1    3    3    0    0  0.36922503228E+02  0.49139912484E+01 -0.25256439530E+02  0.45003403122E+02  0.51100000000E-03 0. -1.
         22    1    1    0    0    0  0.62389906651E+01  0.16117844369E+02  0.26879078999E+02  0.31956138682E+02  0.00000000000E+00 0. -1.
</event>
<event>
 5    1  0.8752570E-005  0.9118800E+02  0.7818608E-02  0.1130116E+00
         25   -1    0    0    0    0  0.00000000000E+00  0.00000000000E+00  0.99999998245E-14  0.12500000000E+03  0.12500000000E+03 0.  0.
        -11    1    3    3    0    0 -0.80014746927E+01  0.49912553416E+02 -0.80895677001E+01  0.51193043391E+02  0.51100000000E-03 0. -1.
         23    2    1    0    0    0  0.20142958453E+02  0.17344822553E+02 -0.14514729547E+02  0.94713715671E+02  0.89740898802E+02 0.  0.
         11    1    3    3    0    0  0.28144433146E+02 -0.32567730864E+02 -0.64251618467E+01  0.43520672280E+02  0.51100000000E-03 0.  1.
         22    1    1    0    0    0 -0.20142958453E+02 -0.17344822553E+02  0.14514729547E+02  0.30286284329E+02  0.00000000000E+00 0. -1.
</event>
<event>
 5    1  0.8752570E-005  0.9118800E+02  0.7818608E-02  0.1130116E+00
         25   -1    0    0    0    0  0.00000000000E+00  0.00000000000E+00  0.99999998245E-14  0.12500000000E+03  0.12500000000E+03 0.  0.
        -11    1    3    3    0    0  0.18272574381E+02  0.14382354813E+02  0.39211246544E+02  0.45587947533E+02  0.51100000000E-03 0. -1.
         23    2    1    0    0    0  0.28613555816E+02 -0.14083586506E+02  0.27457030698E+01  0.92990284746E+02  0.87307337530E+02 0.  0.
         11    1    3    3    0    0  0.10340981435E+02 -0.28465941319E+02 -0.36465543474E+02  0.47402337214E+02  0.51100000000E-03 0.  1.
         22    1    1    0    0    0 -0.28613555816E+02  0.14083586506E+02 -0.27457030698E+01  0.32009715254E+02  0.00000000000E+00 0.  1.
</event>
<event>
 5    1  0.8752570E-005  0.9118800E+02  0.7818608E-02  0.1130116E+00
         25   -1    0    0    0    0  0.00000000000E+00  0.00000000000E+00  0.99999998245E-14  0.12500000000E+03  0.12500000000E+03 0.  0.
        -11    1    3    3    0    0  0.91685256033E+01 -0.35135455437E+01 -0.58886749035E+02  0.59699715881E+02  0.51100000000E-03 0.  1.
         23    2    1    0    0    0 -0.27052918489E+01 -0.12840743316E+02 -0.27268148904E+02  0.94738551959E+02  0.89775486574E+02 0.  0.
         11    1    3    3    0    0 -0.11873817452E+02 -0.93271977723E+01  0.31618600131E+02  0.35038836078E+02  0.51100000000E-03 0. -1.
         22    1    1    0    0    0  0.27052918489E+01  0.12840743316E+02  0.27268148904E+02  0.30261448041E+02  0.00000000000E+00 0.  1.
</event>
<event>
 5    1  0.8752570E-005  0.9118800E+02  0.7818608E-02  0.1130116E+00
         25   -1    0    0    0    0  0.00000000000E+00  0.00000000000E+00  0.99999998245E-14  0.12500000000E+03  0.12500000000E+03 0.  0.
        -11    1    3    3    0    0  0.29393419532E+02 -0.43418208043E+02 -0.25379658917E+01  0.52493382179E+02  0.51100000000E-03 0.  1.
         23    2    1    0    0    0  0.17235001084E+02 -0.11411484283E+02 -0.24327193426E+02  0.93076974205E+02  0.87431364803E+02 0.  0.
         11    1    3    3    0    0 -0.12158418448E+02  0.32006723760E+02 -0.21789227534E+02  0.40583592026E+02  0.51100000000E-03 0. -1.
         22    1    1    0    0    0 -0.17235001084E+02  0.11411484283E+02  0.24327193426E+02  0.31923025795E+02  0.00000000000E+00 0.  1.
</event>
<event>
 5    1  0.8752570E-005  0.9118800E+02  0.7818608E-02  0.1130116E+00
         25   -1    0    0    0    0  0.00000000000E+00  0.00000000000E+00  0.99999998245E-14  0.12500000000E+03  0.12500000000E+03 0.  0.
        -11    1    3    3    0    0  0.51401053751E+01 -0.21587665215E+02  0.44564618529E+02  0.49784065700E+02  0.51100000000E-03 0. -1.
         23    2    1    0    0    0  0.31065584101E+00  0.13870126437E+02  0.35769505060E+02  0.86634202645E+02  0.77675933604E+02 0.  0.
         11    1    3    3    0    0 -0.48294495341E+01  0.35457791653E+02 -0.87951134688E+01  0.36850136945E+02  0.51100000000E-03 0.  1.
         22    1    1    0    0    0 -0.31065584101E+00 -0.13870126437E+02 -0.35769505060E+02  0.38365797355E+02  0.00000000000E+00 0. -1.
</event>
<event>
 5    1  0.8752570E-005  0.9118800E+02  0.7818608E-02  0.1130116E+00
         25   -1    0    0    0    0  0.00000000000E+00  0.00000000000E+00  0.99999998245E-14  0.12500000000E+03  0.12500000000E+03 0.  0.
        -11    1    3    3    0    0 -0.15660176501E+02  0.22870176352E+02  0.53172695607E+02  0.59963502672E+02  0.51100000000E-03 0. -1.
         23    2    1    0    0    0 -0.23525369347E+01  0.21204523108E+02  0.19950534201E+02  0.95790582937E+02  0.91228535745E+02 0.  0.
         11    1    3    3    0    0  0.13307639567E+02 -0.16656532437E+01 -0.33222161406E+02  0.35827080265E+02  0.51100000000E-03 0.  1.
         22    1    1    0    0    0  0.23525369347E+01 -0.21204523108E+02 -0.19950534201E+02  0.29209417063E+02  0.00000000000E+00 0. -1.
</event>
<event>
 5    1  0.8752570E-005  0.9118800E+02  0.7818608E-02  0.1130116E+00
         25   -1    0    0    0    0  0.00000000000E+00  0.00000000000E+00  0.99999998245E-14  0.12500000000E+03  0.12500000000E+03 0.  0.
        -11    1    3    3    0    0 -0.45506717045E+02 -0.35720619582E+02  0.13043450898E+02  0.59303925428E+02  0.51100000000E-03 0.  1.
         23    2    1    0    0    0 -0.10813027202E+02 -0.26302593470E+02  0.58808821573E+01  0.95959807930E+02  0.91460111428E+02 0.  0.
         11    1    3    3    0    0  0.34693689843E+02  0.94180261123E+01 -0.71625687404E+01  0.36655882502E+02  0.51100000000E-03 0. -1.
         22    1    1    0    0    0  0.10813027202E+02  0.26302593470E+02 -0.58808821573E+01  0.29040192070E+02  0.00000000000E+00 0.  1.
</event>
<event>
 5    1  0.8752570E-005  0.9118800E+02  0.7818608E-02  0.1130116E+00
         25   -1    0    0    0    0  0.00000000000E+00  0.00000000000E+00  0.99999998245E-14  0.12500000000E+03  0.12500000000E+03 0.  0.
        -11    1    3    3    0    0 -0.25004585052E+02 -0.29611544803E+02 -0.20373915183E+02  0.43785491655E+02  0.51100000000E-03 0.  1.
         23    2    1    0    0    0  0.49397104797E+01  0.11347830188E+02 -0.27330297287E+02  0.94998014409E+02  0.90136028325E+02 0.  0.
         11    1    3    3    0    0  0.29944295532E+02  0.40959374991E+02 -0.69563821041E+01  0.51212522754E+02  0.51100000000E-03 0. -1.
         22    1    1    0    0    0 -0.49397104797E+01 -0.11347830188E+02  0.27330297287E+02  0.30001985591E+02  0.00000000000E+00 0. -1.
</event>
<event>
 5    1  0.8752570E-005  0.9118800E+02  0.7818608E-02  0.1130116E+00
         25   -1    0    0    0    0  0.00000000000E+00  0.00000000000E+00  0.99999998245E-14  0.12500000000E+03  0.12500000000E+03 0.  0.
        -11    1    3    3    0    0  0.26050088268E+02  0.23345528490E+02 -0.14363453855E+02  0.37814410033E+02  0.51100000000E-03 0.  1.
         23    2    1    0    0    0 -0.22327355915E+02  0.15260258715E+02  0.14076566241E+02  0.94511706585E+02  0.89459078054E+02 0.  0.
         11    1    3    3    0    0 -0.48377444183E+02 -0.80852697744E+01  0.28440020096E+02  0.56697296552E+02  0.51100000000E-03 0. -1.
         22    1    1    0    0    0  0.22327355915E+02 -0.15260258715E+02 -0.14076566241E+02  0.30488293415E+02  0.00000000000E+00 0. -1.
</event>
<event>
 5    1  0.8752570E-005  0.9118800E+02  0.7818608E-02  0.1130116E+00
         25   -1    0    0    0    0  0.00000000000E+00  0.00000000000E+00  0.99999998245E-14  0.12500000000E+03  0.12500000000E+03 0.  0.
        -11    1    3    3    0    0 -0.41922772539E+02  0.27596981775E+02 -0.28347220081E+02  0.57642667764E+02  0.51100000000E-03 0.  1.
         23    2    1    0    0    0 -0.65145536573E+01  0.12849317865E+02 -0.25001317410E+02  0.96145013408E+02  0.91712885420E+02 0.  0.
         11    1    3    3    0    0  0.35408218881E+02 -0.14747663909E+02  0.33459026713E+01  0.38502345644E+02  0.51100000000E-03 0. -1.
         22    1    1    0    0    0  0.65145536573E+01 -0.12849317865E+02  0.25001317410E+02  0.28854986592E+02  0.00000000000E+00 0.  1.
</event>
<event>
 5    1  0.8752570E-005  0.9118800E+02  0.7818608E-02  0.1130116E+00
         25   -1    0    0    0    0  0.00000000000E+00  0.00000000000E+00  0.99999998245E-14  0.12500000000E+03  0.12500000000E+03 0.  0.
        -11    1    3    3    0    0 -0.20191329644E+02  0.31372215594E+02  0.10814623052E+02  0.38844070025E+02  0.51100000000E-03 0. -1.
         23    2    1    0    0    0  0.24973998131E+02 -0.46093292536E+01  0.12668796168E+02  0.96619638918E+02  0.92357510412E+02 0.  0.
         11    1    3    3    0    0  0.45165327775E+02 -0.35981544848E+02  0.18541731158E+01  0.57775568893E+02  0.51100000000E-03 0.  1.
         22    1    1    0    0    0 -0.24973998131E+02  0.46093292536E+01 -0.12668796168E+02  0.28380361082E+02  0.00000000000E+00 0.  1.
</event>
<event>
 5    1  0.8752570E-005  0.9118800E+02  0.7818608E-02  0.1130116E+00
         25   -1    0    0    0    0  0.00000000000E+00  0.00000000000E+00  0.99999998245E-14  0.12500000000E+03  0.12500000000E+03 0.  0.
        -11    1    3    3    0    0  0.11927882342E+02 -0.44646644331E+02  0.24695445461E+02  0.52397158835E+02  0.51100000000E-03 0.  1.
         23    2    1    0    0    0 -0.57798430534E+01 -0.75640617804E+01  0.29716145030E+02  0.93796300031E+02  0.88453801545E+02 0.  0.
         11    1    3    3    0    0 -0.17707725396E+02  0.37082582551E+02  0.50206995689E+01  0.41399141196E+02  0.51100000000E-03 0. -1.
         22    1    1    0    0    0  0.57798430534E+01  0.75640617804E+01 -0.29716145030E+02  0.31203699969E+02  0.00000000000E+00 0. -1.
</event>
<event>
 5    1  0.8752570E-005  0.9118800E+02  0.7818608E-02  0.1130116E+00
         25   -1    0    0    0    0  0.00000000000E+00  0.00000000000E+00  0.99999998245E-14  0.12500000000E+03  0.12500000000E+03 0.  0.
        -11    1    3    3    0    0 -0.78329250873E+01 -0.13536772973E+02 -0.31705496847E+02  0.35353040443E+02  0.51100000000E-03 0.  1.
         23    2    1    0    0    0 -0.14192458853E+02 -0.37140869707E+01  0.26493039993E+02  0.94716316301E+02  0.89744521144E+02 0.  0.
         11    1    3    3    0    0 -0.63595337659E+01  0.98226860028E+01  0.58198536840E+02  0.59363275858E+02  0.51100000000E-03 0. -1.
         22    1    1    0    0    0  0.14192458853E+02  0.37140869707E+01 -0.26493039993E+02  0.30283683699E+02  0.00000000000E+00 0. -1.
</event>
<event>
 5    1  0.8752570E-005  0.9118800E+02  0.7818608E-02  0.1130116E+00
         25   -1    0    0    0    0  0.00000000000E+00  0.00000000000E+00  0.99999998245E-14  0.12500000000E+03  0.12500000000E+03 0.  0.
        -11    1    3    3    0    0 -0.41808511704E+02  0.12399525204E+02  0.11194015894E+02  0.45022281909E+02  0.51100000000E-03 0.  1.
         23    2    1    0    0    0  0.24587389068E+01 -0.84015672068E+01  0.27152865373E+02  0.96470895098E+02  0.92155975251E+02 0.  0.
         11    1    3    3    0    0  0.44267250611E+02 -0.20801092411E+02  0.15958849480E+02  0.51448613189E+02  0.51100000000E-03 0. -1.
         22    1    1    0    0    0 -0.24587389068E+01  0.84015672068E+01 -0.27152865373E+02  0.28529104902E+02  0.00000000000E+00 0. -1.
</event>
<event>
 5    1  0.8752570E-005  0.9118800E+02  0.7818608E-02  0.1130116E+00
         25   -1    0    0    0    0  0.00000000000E+00  0.00000000000E+00  0.99999998245E-14  0.12500000000E+03  0.12500000000E+03 0.  0.
        -11    1    3    3    0    0  0.30431417832E+02  0.18536459449E+02 -0.34277112425E+02  0.49442815015E+02  0.51100000000E-03 0. -1.
         23    2    1    0    0    0 -0.11822059310E+02 -0.94986837521E+01 -0.14936467656E+02  0.10371422669E+03  0.10150643661E+03 0.  0.
         11    1    3    3    0    0 -0.42253477142E+02 -0.28035143202E+02  0.19340644768E+02  0.54271411675E+02  0.51100000000E-03 0.  1.
         22    1    1    0    0    0  0.11822059310E+02  0.94986837521E+01  0.14936467656E+02  0.21285773310E+02  0.00000000000E+00 0.  1.
</event>
<event>
 5    1  0.8752570E-005  0.9118800E+02  0.7818608E-02  0.1130116E+00
         25   -1    0    0    0    0  0.00000000000E+00  0.00000000000E+00  0.99999998245E-14  0.12500000000E+03  0.12500000000E+03 0.  0.
        -11    1    3    3    0    0 -0.18810605554E+02  0.15962812565E+02  0.31744057537E+02  0.40203674651E+02  0.51100000000E-03 0.  1.
         23    2    1    0    0    0 -0.11476585368E+02 -0.26191992664E+02 -0.42146777356E+01  0.96095052329E+02  0.91644765711E+02 0.  0.
         11    1    3    3    0    0  0.73340201859E+01 -0.42154805230E+02 -0.35958735273E+02  0.55891377678E+02  0.51100000000E-03 0. -1.
         22    1    1    0    0    0  0.11476585368E+02  0.26191992664E+02  0.42146777356E+01  0.28904947671E+02  0.00000000000E+00 0. -1.
</event>
<event>
 5    1  0.8752570E-005  0.9118800E+02  0.7818608E-02  0.1130116E+00
         25   -1    0    0    0    0  0.00000000000E+00  0.00000000000E+00  0.99999998245E-14  0.12500000000E+03  0.12500000000E+03 0.  0.
        -11    1    3    3    0    0 -0.48603581479E+02 -0.38044940734E+02  0.58584992684E+01  0.62000384370E+02  0.51100000000E-03 0.  1.
         23    2    1    0    0    0 -0.18786901480E+02 -0.21774988317E+02  0.28094583506E+01  0.96103791950E+02  0.91656685450E+02 0.  0.
         11    1    3    3    0    0  0.29816680000E+02  0.16269952417E+02 -0.30490409178E+01  0.34103407581E+02  0.51100000000E-03 0. -1.
         22    1    1    0    0    0  0.18786901480E+02  0.21774988317E+02 -0.28094583506E+01  0.28896208050E+02  0.00000000000E+00 0.  1.
</event>
<event>
 5    1  0.8752570E-005  0.9118800E+02  0.7818608E-02  0.1130116E+00
         25   -1    0    0    0    0  0.00000000000E+00  0.00000000000E+00  0.99999998245E-14  0.12500000000E+03  0.12500000000E+03 0.  0.
        -11    1    3    3    0    0  0.52274405345E+02 -0.65892190400E+01  0.31663228808E+02  0.61470247442E+02  0.51100000000E-03 0.  1.
         23    2    1    0    0    0  0.20995693922E+02 -0.86579107379E+01  0.19402246886E+02  0.95129851594E+02  0.90318674140E+02 0.  0.
         11    1    3    3    0    0 -0.31278711424E+02 -0.20686916979E+01 -0.12260981922E+02  0.33659604151E+02  0.51100000000E-03 0. -1.
         22    1    1    0    0    0 -0.20995693922E+02  0.86579107379E+01 -0.19402246886E+02  0.29870148406E+02  0.00000000000E+00 0.  1.
</event>
<event>
 5    1  0.8752570E-005  0.9118800E+02  0.7818608E-02  0.1130116E+00
         25   -1    0    0    0    0  0.00000000000E+00  0.00000000000E+00  0.99999998245E-14  0.12500000000E+03  0.12500000000E+03 0.  0.
        -11    1    3    3    0    0 -0.21417013097E+02 -0.31354036860E+02 -0.34080845371E+01  0.38123209701E+02  0.51100000000E-03 0.  1.
         23    2    1    0    0    0  0.14476975086E+02 -0.14881364561E+01  0.27337101767E+02  0.94030426371E+02  0.88784044697E+02 0.  0.
         11    1    3    3    0    0  0.35893988184E+02  0.29865900404E+02  0.30745186304E+02  0.55907216670E+02  0.51100000000E-03 0. -1.
         22    1    1    0    0    0 -0.14476975086E+02  0.14881364561E+01 -0.27337101767E+02  0.30969573629E+02  0.00000000000E+00 0. -1.
</event>
<event>
 5    1  0.8752570E-005  0.9118800E+02  0.7818608E-02  0.1130116E+00
         25   -1    0    0    0    0  0.00000000000E+00  0.00000000000E+00  0.99999998245E-14  0.12500000000E+03  0.12500000000E+03 0.  0.
        -11    1    3    3    0    0  0.42262683147E+02  0.75724189016E+01 -0.57673028579E+01  0.43321330743E+02  0.51100000000E-03 0. -1.
         23    2    1    0    0    0 -0.16994598916E+01 -0.69446990168E+01 -0.29007727542E+02  0.95124169208E+02  0.90310809442E+02 0.  0.
         11    1    3    3    0    0 -0.43962143039E+02 -0.14517117918E+02 -0.23240424684E+02  0.51802838465E+02  0.51100000000E-03 0.  1.
         22    1    1    0    0    0  0.16994598916E+01  0.69446990168E+01  0.29007727542E+02  0.29875830792E+02  0.00000000000E+00 0.  1.
</event>
<event>
 5    1  0.8752570E-005  0.9118800E+02  0.7818608E-02  0.1130116E+00
         25   -1    0    0    0    0  0.00000000000E+00  0.00000000000E+00  0.99999998245E-14  0.12500000000E+03  0.12500000000E+03 0.  0.
        -11    1    3    3    0    0  0.42529213199E+02  0.39949312422E+02  0.10610454124E+02  0.59306519670E+02  0.51100000000E-03 0. -1.
         23    2    1    0    0    0  0.27755506300E+02  0.96386379139E+01 -0.25608953144E+01  0.95507125342E+02  0.90839316022E+02 0.  0.
         11    1    3    3    0    0 -0.14773706899E+02 -0.30310674508E+02 -0.13171349438E+02  0.36200605672E+02  0.51100000000E-03 0.  1.
         22    1    1    0    0    0 -0.27755506300E+02 -0.96386379139E+01  0.25608953144E+01  0.29492874658E+02  0.00000000000E+00 0. -1.
</event>
<event>
 5    1  0.8752570E-005  0.9118800E+02  0.7818608E-02  0.1130116E+00
         25   -1    0    0    0    0  0.00000000000E+00  0.00000000000E+00  0.99999998245E-14  0.12500000000E+03  0.12500000000E+03 0.  0.
        -11    1    3    3    0    0 -0.35322207563E+02 -0.37651052129E+02 -0.24440906466E+02  0.57119331077E+02  0.51100000000E-03 0. -1.
         23    2    1    0    0    0 -0.30720936923E+02 -0.69271182310E+01 -0.70280804032E+01  0.92733068839E+02  0.86938295416E+02 0.  0.
         11    1    3    3    0    0  0.46012706403E+01  0.30723933898E+02  0.17412826062E+02  0.35613737762E+02  0.51100000000E-03 0.  1.
         22    1    1    0    0    0  0.30720936923E+02  0.69271182310E+01  0.70280804032E+01  0.32266931161E+02  0.00000000000E+00 0. -1.
</event>
<event>
 5    1  0.8752570E-005  0.9118800E+02  0.7818608E-02  0.1130116E+00
         25   -1    0    0    0    0  0.00000000000E+00  0.00000000000E+00  0.99999998245E-14  0.12500000000E+03  0.12500000000E+03 0.  0.
        -11    1    3    3    0    0 -0.16562545985E+02 -0.31803843601E+02 -0.18704260046E+02  0.40443191533E+02  0.51100000000E-03 0.  1.
         23    2    1    0    0    0 -0.21427223295E+02  0.14884386810E+02  0.11738148230E+02  0.96391347590E+02  0.92048014088E+02 0.  0.
         11    1    3    3    0    0 -0.48646773100E+01  0.46688230410E+02  0.30442408277E+02  0.55948156057E+02  0.51100000000E-03 0. -1.
         22    1    1    0    0    0  0.21427223295E+02 -0.14884386810E+02 -0.11738148230E+02  0.28608652410E+02  0.00000000000E+00 0. -1.
</event>
<event>
 5    1  0.8752570E-005  0.9118800E+02  0.7818608E-02  0.1130116E+00
         25   -1    0    0    0    0  0.00000000000E+00  0.00000000000E+00  0.99999998245E-14  0.12500000000E+03  0.12500000000E+03 0.  0.
        -11    1    3    3    0    0 -0.19182325302E+02 -0.49593919743E+02 -0.16718345969E+02  0.55740663538E+02  0.51100000000E-03 0.  1.
         23    2    1    0    0    0  0.61311969492E+01 -0.28922854001E+02  0.50474863908E+01  0.95006664433E+02  0.90148023318E+02 0.  0.
         11    1    3    3    0    0  0.25313522251E+02  0.20671065742E+02  0.21765832360E+02  0.39266000894E+02  0.51100000000E-03 0. -1.
         22    1    1    0    0    0 -0.61311969492E+01  0.28922854001E+02 -0.50474863908E+01  0.29993335567E+02  0.00000000000E+00 0.  1.
</event>
<event>
 5    1  0.8752570E-005  0.9118800E+02  0.7818608E-02  0.1130116E+00
         25   -1    0    0    0    0  0.00000000000E+00  0.00000000000E+00  0.99999998245E-14  0.12500000000E+03  0.12500000000E+03 0.  0.
        -11    1    3    3    0    0 -0.22426555577E+02 -0.27657547095E+02  0.27849125612E+02  0.45204691172E+02  0.51100000000E-03 0.  1.
         23    2    1    0    0    0 -0.10899957685E+02  0.19614508491E+02  0.20861860831E+02  0.94360886791E+02  0.89248090724E+02 0.  0.
         11    1    3    3    0    0  0.11526597892E+02  0.47272055586E+02 -0.69872647811E+01  0.49156195619E+02  0.51100000000E-03 0. -1.
         22    1    1    0    0    0  0.10899957685E+02 -0.19614508491E+02 -0.20861860831E+02  0.30639113209E+02  0.00000000000E+00 0. -1.
</event>
<event>
 5    1  0.8752570E-005  0.9118800E+02  0.7818608E-02  0.1130116E+00
         25   -1    0    0    0    0  0.00000000000E+00  0.00000000000E+00  0.99999998245E-14  0.12500000000E+03  0.12500000000E+03 0.  0.
        -11    1    3    3    0    0 -0.40957325291E+02 -0.42143686216E+01  0.84761941303E+00  0.41182300285E+02  0.51100000000E-03 0. -1.
         23    2    1    0    0    0  0.16380058598E+01  0.23168508829E+02 -0.18414123963E+02  0.95359776892E+02  0.90636329487E+02 0.  0.
         11    1    3    3    0    0  0.42595331150E+02  0.27382877451E+02 -0.19261743376E+02  0.54177476607E+02  0.51100000000E-03 0.  1.
         22    1    1    0    0    0 -0.16380058598E+01 -0.23168508829E+02  0.18414123963E+02  0.29640223108E+02  0.00000000000E+00 0.  1.
</event>
<event>
 5    1  0.8752570E-005  0.9118800E+02  0.7818608E-02  0.1130116E+00
         25   -1    0    0    0    0  0.00000000000E+00  0.00000000000E+00  0.99999998245E-14  0.12500000000E+03  0.12500000000E+03 0.  0.
        -11    1    3    3    0    0  0.15201569591E+02 -0.20809487893E+02  0.24018723954E+02  0.35228136554E+02  0.51100000000E-03 0.  1.
         23    2    1    0    0    0 -0.82074160113E+01  0.20611148654E+02 -0.16201824421E+02  0.97528555900E+02  0.93579586315E+02 0.  0.
         11    1    3    3    0    0 -0.23408985602E+02  0.41420636546E+02 -0.40220548375E+02  0.62300419346E+02  0.51100000000E-03 0. -1.
         22    1    1    0    0    0  0.82074160113E+01 -0.20611148654E+02  0.16201824421E+02  0.27471444100E+02  0.00000000000E+00 0. -1.
</event>
<event>
 5    1  0.8752570E-005  0.9118800E+02  0.7818608E-02  0.1130116E+00
         25   -1    0    0    0    0  0.00000000000E+00  0.00000000000E+00  0.99999998245E-14  0.12500000000E+03  0.12500000000E+03 0.  0.
        -11    1    3    3    0    0  0.25227665730E+02  0.16228558271E+02 -0.50465891361E+02  0.58707813900E+02  0.51100000000E-03 0.  1.
         23    2    1    0    0    0  0.23528850398E+02  0.59834095404E+01 -0.13257459588E+02  0.97338325692E+02  0.93325138216E+02 0.  0.
         11    1    3    3    0    0 -0.16988153319E+01 -0.10245148731E+02  0.37208431773E+02  0.38630511792E+02  0.51100000000E-03 0. -1.
         22    1    1    0    0    0 -0.23528850398E+02 -0.59834095404E+01  0.13257459588E+02  0.27661674308E+02  0.00000000000E+00 0.  1.
</event>
<event>
 5    1  0.8752570E-005  0.9118800E+02  0.7818608E-02  0.1130116E+00
         25   -1    0    0    0    0  0.00000000000E+00  0.00000000000E+00  0.99999998245E-14  0.12500000000E+03  0.12500000000E+03 0.  0.
        -11    1    3    3    0    0  0.69304019033E+01 -0.28898630866E+02  0.16780701122E+02  0.34128481755E+02  0.51100000000E-03 0.  1.
         23    2    1    0    0    0  0.63857447330E+00  0.19615427412E+02 -0.21236024799E+02  0.96083888242E+02  0.91629537053E+02 0.  0.
         11    1    3    3    0    0 -0.62918274300E+01  0.48514058278E+02 -0.38016725922E+02  0.61955406488E+02  0.51100000000E-03 0. -1.
         22    1    1    0    0    0 -0.63857447330E+00 -0.19615427412E+02  0.21236024799E+02  0.28916111758E+02  0.00000000000E+00 0. -1.
</event>
<event>
 5    1  0.8752570E-005  0.9118800E+02  0.7818608E-02  0.1130116E+00
         25   -1    0    0    0    0  0.00000000000E+00  0.00000000000E+00  0.99999998245E-14  0.12500000000E+03  0.12500000000E+03 0.  0.
        -11    1    3    3    0    0 -0.14660709122E+01  0.33620860197E+02  0.46501147079E+02  0.57400943234E+02  0.51100000000E-03 0.  1.
         23    2    1    0    0    0 -0.17717548757E+02  0.16048497245E+02  0.15736152946E+02  0.96380211263E+02  0.92032889859E+02 0.  0.
         11    1    3    3    0    0 -0.16251477845E+02 -0.17572362952E+02 -0.30764994133E+02  0.38979268029E+02  0.51100000000E-03 0. -1.
         22    1    1    0    0    0  0.17717548757E+02 -0.16048497245E+02 -0.15736152946E+02  0.28619788737E+02  0.00000000000E+00 0.  1.
</event>
<event>
 5    1  0.8752570E-005  0.9118800E+02  0.7818608E-02  0.1130116E+00
         25   -1    0    0    0    0  0.00000000000E+00  0.00000000000E+00  0.99999998245E-14  0.12500000000E+03  0.12500000000E+03 0.  0.
        -11    1    3    3    0    0 -0.24373283564E+02 -0.25623116785E+02  0.25982388295E+02  0.43882634006E+02  0.51100000000E-03 0.  1.
         23    2    1    0    0    0 -0.87036727588E+01 -0.27259114706E+02 -0.18400962734E+02  0.90979290372E+02  0.84379041195E+02 0.  0.
         11    1    3    3    0    0  0.15669610806E+02 -0.16359979214E+01 -0.44383351030E+02  0.47096656366E+02  0.51100000000E-03 0. -1.
         22    1    1    0    0    0  0.87036727588E+01  0.27259114706E+02  0.18400962734E+02  0.34020709628E+02  0.00000000000E+00 0. -1.
</event>
<event>
 5    1  0.8752570E-005  0.9118800E+02  0.7818608E-02  0.1130116E+00
         25   -1    0    0    0    0  0.00000000000E+00  0.00000000000E+00  0.99999998245E-14  0.12500000000E+03  0.12500000000E+03 0.  0.
        -11    1    3    3    0    0  0.15966212809E+02 -0.24765513402E+02  0.24435011672E+02  0.38279503670E+02  0.51100000000E-03 0.  1.
         23    2    1    0    0    0 -0.28304640766E+02 -0.11820251592E+02 -0.62732409700E+01  0.93691461406E+02  0.88305522769E+02 0.  0.
         11    1    3    3    0    0 -0.44270853575E+02  0.12945261811E+02 -0.30708252642E+02  0.55411957737E+02  0.51100000000E-03 0. -1.
         22    1    1    0    0    0  0.28304640766E+02  0.11820251592E+02  0.62732409700E+01  0.31308538594E+02  0.00000000000E+00 0. -1.
</event>
<event>
 5    1  0.8752570E-005  0.9118800E+02  0.7818608E-02  0.1130116E+00
         25   -1    0    0    0    0  0.00000000000E+00  0.00000000000E+00  0.99999998245E-14  0.12500000000E+03  0.12500000000E+03 0.  0.
        -11    1    3    3    0    0  0.21247273022E+02  0.33674917232E+02 -0.39722826462E+02  0.56243662788E+02  0.51100000000E-03 0.  1.
         23    2    1    0    0    0 -0.58215751636E+01  0.25447086726E+02 -0.27561486644E+02  0.87038433828E+02  0.78323741336E+02 0.  0.
         11    1    3    3    0    0 -0.27068848186E+02 -0.82278305056E+01  0.12161339818E+02  0.30794771039E+02  0.51100000000E-03 0. -1.
         22    1    1    0    0    0  0.58215751636E+01 -0.25447086726E+02  0.27561486644E+02  0.37961566172E+02  0.00000000000E+00 0.  1.
</event>
<event>
 5    1  0.8752570E-005  0.9118800E+02  0.7818608E-02  0.1130116E+00
         25   -1    0    0    0    0  0.00000000000E+00  0.00000000000E+00  0.99999998245E-14  0.12500000000E+03  0.12500000000E+03 0.  0.
        -11    1    3    3    0    0  0.61389261793E+02 -0.24042274007E+01  0.64894687885E+01  0.61778110835E+02  0.51100000000E-03 0. -1.
         23    2    1    0    0    0  0.39447110645E+02 -0.15884740514E+01 -0.23572126177E+01  0.85450610126E+02  0.75747293889E+02 0.  0.
         11    1    3    3    0    0 -0.21942151148E+02  0.81575334936E+00 -0.88466814063E+01  0.23672499291E+02  0.51100000000E-03 0.  1.
         22    1    1    0    0    0 -0.39447110645E+02  0.15884740514E+01  0.23572126177E+01  0.39549389874E+02  0.00000000000E+00 0. -1.
</event>
<event>
 5    1  0.8752570E-005  0.9118800E+02  0.7818608E-02  0.1130116E+00
         25   -1    0    0    0    0  0.00000000000E+00  0.00000000000E+00  0.99999998245E-14  0.12500000000E+03  0.12500000000E+03 0.  0.
        -11    1    3    3    0    0 -0.23426912547E+02 -0.32590397716E+02  0.12074919304E+02  0.41913696225E+02  0.51100000000E-03 0.  1.
         23    2    1    0    0    0 -0.12941122467E+02  0.42626155308E+01 -0.25821241283E+02  0.95804468779E+02  0.91247559938E+02 0.  0.
         11    1    3    3    0    0  0.10485790080E+02  0.36853013247E+02 -0.37896160587E+02  0.53890772554E+02  0.51100000000E-03 0. -1.
         22    1    1    0    0    0  0.12941122467E+02 -0.42626155308E+01  0.25821241283E+02  0.29195531221E+02  0.00000000000E+00 0. -1.
</event>
<event>
 5    1  0.8752570E-005  0.9118800E+02  0.7818608E-02  0.1130116E+00
         25   -1    0    0    0    0  0.00000000000E+00  0.00000000000E+00  0.99999998245E-14  0.12500000000E+03  0.12500000000E+03 0.  0.
        -11    1    3    3    0    0 -0.21718083527E+02  0.12336419683E+02 -0.55981200603E+02  0.61300548316E+02  0.51100000000E-03 0. -1.
         23    2    1    0    0    0 -0.30396892577E+01  0.83168365233E+00 -0.27840811427E+02  0.96981395656E+02  0.92845834122E+02 0.  0.
         11    1    3    3    0    0  0.18678394269E+02 -0.11504736031E+02  0.28140389176E+02  0.35680847339E+02  0.51100000000E-03 0.  1.
         22    1    1    0    0    0  0.30396892577E+01 -0.83168365233E+00  0.27840811427E+02  0.28018604344E+02  0.00000000000E+00 0. -1.
</event>
<event>
 5    1  0.8752570E-005  0.9118800E+02  0.7818608E-02  0.1130116E+00
         25   -1    0    0    0    0  0.00000000000E+00  0.00000000000E+00  0.99999998245E-14  0.12500000000E+03  0.12500000000E+03 0.  0.
        -11    1    3    3    0    0  0.50695587670E+02  0.27500500129E+02 -0.31238116360E+01  0.57758794273E+02  0.51100000000E-03 0. -1.
         23    2    1    0    0    0  0.29584090118E+02 -0.33394910103E+01 -0.51420936443E+00  0.95223583164E+02  0.90448304523E+02 0.  0.
         11    1    3    3    0    0 -0.21111497552E+02 -0.30839991139E+02  0.26096022716E+01  0.37464788891E+02  0.51100000000E-03 0.  1.
         22    1    1    0    0    0 -0.29584090118E+02  0.33394910103E+01  0.51420936443E+00  0.29776416836E+02  0.00000000000E+00 0. -1.
</event>
<event>
 5    1  0.8752570E-005  0.9118800E+02  0.7818608E-02  0.1130116E+00
         25   -1    0    0    0    0  0.00000000000E+00  0.00000000000E+00  0.99999998245E-14  0.12500000000E+03  0.12500000000E+03 0.  0.
        -11    1    3    3    0    0  0.33819823825E+02  0.18564375041E+02  0.30885770584E+02  0.49420110574E+02  0.51100000000E-03 0.  1.
         23    2    1    0    0    0  0.25232836310E+02  0.96058755557E+01 -0.13005207599E+02  0.95031611686E+02  0.90182608753E+02 0.  0.
         11    1    3    3    0    0 -0.85869875153E+01 -0.89584994855E+01 -0.43890978183E+02  0.45611501113E+02  0.51100000000E-03 0. -1.
         22    1    1    0    0    0 -0.25232836310E+02 -0.96058755557E+01  0.13005207599E+02  0.29968388314E+02  0.00000000000E+00 0.  1.
</event>
<event>
 5    1  0.8752570E-005  0.9118800E+02  0.7818608E-02  0.1130116E+00
         25   -1    0    0    0    0  0.00000000000E+00  0.00000000000E+00  0.99999998245E-14  0.12500000000E+03  0.12500000000E+03 0.  0.
        -11    1    3    3    0    0 -0.39150204434E+01  0.10943045901E+02  0.34833592492E+02  0.36721339910E+02  0.51100000000E-03 0.  1.
         23    2    1    0    0    0  0.10067885008E+02  0.24196066246E+02 -0.18165042186E+02  0.93113001271E+02  0.87482857280E+02 0.  0.
         11    1    3    3    0    0  0.13982905451E+02  0.13253020344E+02 -0.52998634678E+02  0.56391661361E+02  0.51100000000E-03 0. -1.
         22    1    1    0    0    0 -0.10067885008E+02 -0.24196066246E+02  0.18165042186E+02  0.31886998729E+02  0.00000000000E+00 0. -1.
</event>
<event>
 5    1  0.8752570E-005  0.9118800E+02  0.7818608E-02  0.1130116E+00
         25   -1    0    0    0    0  0.00000000000E+00  0.00000000000E+00  0.99999998245E-14  0.12500000000E+03  0.12500000000E+03 0.  0.
        -11    1    3    3    0    0  0.12478520281E+02  0.42969998350E+02 -0.37522551397E+02  0.58395856790E+02  0.51100000000E-03 0. -1.
         23    2    1    0    0    0 -0.45841821970E+01  0.30361840069E+02 -0.10947317433E+02  0.92400923054E+02  0.86459416858E+02 0.  0.
         11    1    3    3    0    0 -0.17062702478E+02 -0.12608158282E+02  0.26575233964E+02  0.34005066264E+02  0.51100000000E-03 0.  1.
         22    1    1    0    0    0  0.45841821970E+01 -0.30361840069E+02  0.10947317433E+02  0.32599076946E+02  0.00000000000E+00 0. -1.
</event>
<event>
 5    1  0.8752570E-005  0.9118800E+02  0.7818608E-02  0.1130116E+00
         25   -1    0    0    0    0  0.00000000000E+00  0.00000000000E+00  0.99999998245E-14  0.12500000000E+03  0.12500000000E+03 0.  0.
        -11    1    3    3    0    0  0.28489677289E+02  0.19352433380E+02  0.62013704685E+01  0.34994790837E+02  0.51100000000E-03 0.  1.
         23    2    1    0    0    0 -0.13525498807E+02 -0.73983221592E+01 -0.26332085806E+02  0.94486838387E+02  0.89424323294E+02 0.  0.
         11    1    3    3    0    0 -0.42015176095E+02 -0.26750755540E+02 -0.32533456275E+02  0.59492047550E+02  0.51100000000E-03 0. -1.
         22    1    1    0    0    0  0.13525498807E+02  0.73983221592E+01  0.26332085806E+02  0.30513161613E+02  0.00000000000E+00 0. -1.
</event>
<event>
 5    1  0.8752570E-005  0.9118800E+02  0.7818608E-02  0.1130116E+00
         25   -1    0    0    0    0  0.00000000000E+00  0.00000000000E+00  0.99999998245E-14  0.12500000000E+03  0.12500000000E+03 0.  0.
        -11    1    3    3    0    0  0.48289953418E+02 -0.27146642215E+02  0.16989486362E+02  0.57943959407E+02  0.51100000000E-03 0.  1.
         23    2    1    0    0    0  0.23609401689E+02  0.93096190700E+00  0.17931010136E+02  0.95338717784E+02  0.90607281419E+02 0.  0.
         11    1    3    3    0    0 -0.24680551728E+02  0.28077604122E+02  0.94152377364E+00  0.37394758378E+02  0.51100000000E-03 0. -1.
         22    1    1    0    0    0 -0.23609401689E+02 -0.93096190700E+00 -0.17931010136E+02  0.29661282216E+02  0.00000000000E+00 0. -1.
</event>
<event>
 5    1  0.8752570E-005  0.9118800E+02  0.7818608E-02  0.1130116E+00
         25   -1    0    0    0    0  0.00000000000E+00  0.00000000000E+00  0.99999998245E-14  0.12500000000E+03  0.12500000000E+03 0.  0.
        -11    1    3    3    0    0  0.29174490343E+02  0.19620486106E+02 -0.20515134016E+02  0.40706081681E+02  0.51100000000E-03 0.  1.
         23    2    1    0    0    0 -0.93689829613E+01 -0.20129389770E+02 -0.18481362381E+02  0.96111751010E+02  0.91667539252E+02 0.  0.
         11    1    3    3    0    0 -0.38543473304E+02 -0.39749875876E+02  0.20337716357E+01  0.55405669330E+02  0.51100000000E-03 0. -1.
         22    1    1    0    0    0  0.93689829613E+01  0.20129389770E+02  0.18481362381E+02  0.28888248990E+02  0.00000000000E+00 0.  1.
</event>
<event>
 5    1  0.8752570E-005  0.9118800E+02  0.7818608E-02  0.1130116E+00
         25   -1    0    0    0    0  0.00000000000E+00  0.00000000000E+00  0.99999998245E-14  0.12500000000E+03  0.12500000000E+03 0.  0.
        -11    1    3    3    0    0 -0.46030584472E+01 -0.35120405704E+02  0.22764455583E+02  0.42105242930E+02  0.51100000000E-03 0. -1.
         23    2    1    0    0    0  0.27855326805E+02 -0.29220382651E+01 -0.63144436975E+01  0.96288856897E+02  0.91908727683E+02 0.  0.
         11    1    3    3    0    0  0.32458385252E+02  0.32198367439E+02 -0.29078899281E+02  0.54183613968E+02  0.51100000000E-03 0.  1.
         22    1    1    0    0    0 -0.27855326805E+02  0.29220382651E+01  0.63144436975E+01  0.28711143103E+02  0.00000000000E+00 0.  1.
</event>
<event>
 5    1  0.8752570E-005  0.9118800E+02  0.7818608E-02  0.1130116E+00
         25   -1    0    0    0    0  0.00000000000E+00  0.00000000000E+00  0.99999998245E-14  0.12500000000E+03  0.12500000000E+03 0.  0.
        -11    1    3    3    0    0 -0.19321835288E+02 -0.15926950809E+02 -0.47383950980E+02  0.53593282151E+02  0.51100000000E-03 0.  1.
         23    2    1    0    0    0 -0.27438101785E+02 -0.57863887534E+01 -0.68829842251E+01  0.96126011772E+02  0.91686983498E+02 0.  0.
         11    1    3    3    0    0 -0.81162664966E+01  0.10140562056E+02  0.40500966755E+02  0.42532729621E+02  0.51100000000E-03 0. -1.
         22    1    1    0    0    0  0.27438101785E+02  0.57863887534E+01  0.68829842251E+01  0.28873988228E+02  0.00000000000E+00 0.  1.
</event>
<event>
 5    1  0.8752570E-005  0.9118800E+02  0.7818608E-02  0.1130116E+00
         25   -1    0    0    0    0  0.00000000000E+00  0.00000000000E+00  0.99999998245E-14  0.12500000000E+03  0.12500000000E+03 0.  0.
        -11    1    3    3    0    0 -0.42361909155E+01 -0.37630779070E+02  0.83165607625E+01  0.38770943115E+02  0.51100000000E-03 0.  1.
         23    2    1    0    0    0 -0.25076926337E+02  0.14481319790E+02  0.82276188985E+01  0.94895937648E+02  0.89994357668E+02 0.  0.
         11    1    3    3    0    0 -0.20840735421E+02  0.52112098859E+02 -0.88941864023E-01  0.56124994533E+02  0.51100000000E-03 0. -1.
         22    1    1    0    0    0  0.25076926337E+02 -0.14481319790E+02 -0.82276188985E+01  0.30104062352E+02  0.00000000000E+00 0. -1.
</event>
<event>
 5    1  0.8752570E-005  0.9118800E+02  0.7818608E-02  0.1130116E+00
         25   -1    0    0    0    0  0.00000000000E+00  0.00000000000E+00  0.99999998245E-14  0.12500000000E+03  0.12500000000E+03 0.  0.
        -11    1    3    3    0    0 -0.41852253971E+02  0.24796807852E-01  0.47935303245E+01  0.42125879345E+02  0.51100000000E-03 0.  1.
         23    2    1    0    0    0 -0.28676266017E+01 -0.31421387780E+02  0.84209317934E+01  0.92343622604E+02  0.86376534145E+02 0.  0.
         11    1    3    3    0    0  0.38984627370E+02 -0.31446184588E+02  0.36274014689E+01  0.50217743259E+02  0.51100000000E-03 0. -1.
         22    1    1    0    0    0  0.28676266017E+01  0.31421387780E+02 -0.84209317934E+01  0.32656377396E+02  0.00000000000E+00 0.  1.
</event>
<event>
 5    1  0.8752570E-005  0.9118800E+02  0.7818608E-02  0.1130116E+00
         25   -1    0    0    0    0  0.00000000000E+00  0.00000000000E+00  0.99999998245E-14  0.12500000000E+03  0.12500000000E+03 0.  0.
        -11    1    3    3    0    0 -0.13280832091E+02 -0.32428920060E+02  0.44761296986E+02  0.56847067342E+02  0.51100000000E-03 0.  1.
         23    2    1    0    0    0 -0.21341651881E+02 -0.18362904433E+02  0.10141355918E+02  0.95074935855E+02  0.90242639388E+02 0.  0.
         11    1    3    3    0    0 -0.80608197898E+01  0.14066015626E+02 -0.34619941067E+02  0.38227868513E+02  0.51100000000E-03 0. -1.
         22    1    1    0    0    0  0.21341651881E+02  0.18362904433E+02 -0.10141355918E+02  0.29925064145E+02  0.00000000000E+00 0.  1.
</event>
<event>
 5    1  0.8752570E-005  0.9118800E+02  0.7818608E-02  0.1130116E+00
         25   -1    0    0    0    0  0.00000000000E+00  0.00000000000E+00  0.99999998245E-14  0.12500000000E+03  0.12500000000E+03 0.  0.
        -11    1    3    3    0    0 -0.13762070194E+02 -0.11173651919E+02 -0.29811376147E+02  0.34683760195E+02  0.51100000000E-03 0. -1.
         23    2    1    0    0    0  0.16569641418E+01  0.90697705233E+01  0.26749939248E+02  0.96705733491E+02  0.92473960512E+02 0.  0.
         11    1    3    3    0    0  0.15419034336E+02  0.20243422443E+02  0.56561315395E+02  0.62021973296E+02  0.51100000000E-03 0.  1.
         22    1    1    0    0    0 -0.16569641418E+01 -0.90697705233E+01 -0.26749939248E+02  0.28294266509E+02  0.00000000000E+00 0.  1.
</event>
<event>
 5    1  0.8752570E-005  0.9118800E+02  0.7818608E-02  0.1130116E+00
         25   -1    0    0    0    0  0.00000000000E+00  0.00000000000E+00  0.99999998245E-14  0.12500000000E+03  0.12500000000E+03 0.  0.
        -11    1    3    3    0    0  0.53405638052E+02  0.96500257187E+01  0.22447275374E+02  0.58729595129E+02  0.51100000000E-03 0.  1.
         23    2    1    0    0    0  0.23794561525E+02 -0.85199391092E+01  0.18466987266E+02  0.93698240636E+02  0.88315118519E+02 0.  0.
         11    1    3    3    0    0 -0.29611076526E+02 -0.18169964828E+02 -0.39802881078E+01  0.34968645507E+02  0.51100000000E-03 0. -1.
         22    1    1    0    0    0 -0.23794561525E+02  0.85199391092E+01 -0.18466987266E+02  0.31301759364E+02  0.00000000000E+00 0. -1.
</event>
<event>
 5    1  0.8752570E-005  0.9118800E+02  0.7818608E-02  0.1130116E+00
         25   -1    0    0    0    0  0.00000000000E+00  0.00000000000E+00  0.99999998245E-14  0.12500000000E+03  0.12500000000E+03 0.  0.
        -11    1    3    3    0    0 -0.33873103386E+01 -0.18887934633E+02 -0.20686159833E+02  0.28216044282E+02  0.51100000000E-03 0.  1.
         23    2    1    0    0    0  0.26088500070E+02  0.27722260819E+02 -0.54071286974E+00  0.86928672847E+02  0.78148373058E+02 0.  0.
         11    1    3    3    0    0  0.29475810409E+02  0.46610195452E+02  0.20145446964E+02  0.58712628564E+02  0.51100000000E-03 0. -1.
         22    1    1    0    0    0 -0.26088500070E+02 -0.27722260819E+02  0.54071286974E+00  0.38071327153E+02  0.00000000000E+00 0. -1.
</event>
<event>
 5    1  0.8752570E-005  0.9118800E+02  0.7818608E-02  0.1130116E+00
         25   -1    0    0    0    0  0.00000000000E+00  0.00000000000E+00  0.99999998245E-14  0.12500000000E+03  0.12500000000E+03 0.  0.
        -11    1    3    3    0    0 -0.25315066679E+01  0.86233091555E+01 -0.33210089935E+02  0.34404651729E+02  0.51100000000E-03 0. -1.
         23    2    1    0    0    0 -0.19670597277E+02 -0.13182689606E+02  0.19735283370E+02  0.94174732569E+02  0.88986982993E+02 0.  0.
         11    1    3    3    0    0 -0.17139090609E+02 -0.21805998762E+02  0.52945373306E+02  0.59770080840E+02  0.51100000000E-03 0.  1.
         22    1    1    0    0    0  0.19670597277E+02  0.13182689606E+02 -0.19735283370E+02  0.30825267431E+02  0.00000000000E+00 0.  1.
</event>
<event>
 5    1  0.8752570E-005  0.9118800E+02  0.7818608E-02  0.1130116E+00
         25   -1    0    0    0    0  0.00000000000E+00  0.00000000000E+00  0.99999998245E-14  0.12500000000E+03  0.12500000000E+03 0.  0.
        -11    1    3    3    0    0  0.41141708830E+02 -0.34348883609E+02  0.30369087018E+02  0.61601683883E+02  0.51100000000E-03 0.  1.
         23    2    1    0    0    0  0.19907126396E+02 -0.18497649789E+02  0.69864101470E+01  0.96941727498E+02  0.92792412807E+02 0.  0.
         11    1    3    3    0    0 -0.21234582434E+02  0.15851233820E+02 -0.23382676871E+02  0.35340043615E+02  0.51100000000E-03 0. -1.
         22    1    1    0    0    0 -0.19907126396E+02  0.18497649789E+02 -0.69864101470E+01  0.28058272502E+02  0.00000000000E+00 0.  1.
</event>
<event>
 5    1  0.8752570E-005  0.9118800E+02  0.7818608E-02  0.1130116E+00
         25   -1    0    0    0    0  0.00000000000E+00  0.00000000000E+00  0.99999998245E-14  0.12500000000E+03  0.12500000000E+03 0.  0.
        -11    1    3    3    0    0 -0.12384721866E+02 -0.28740729998E+02  0.31111568894E+02  0.44128682462E+02  0.51100000000E-03 0.  1.
         23    2    1    0    0    0  0.25567356257E+02  0.87295861581E+00  0.48593981355E+01  0.98960308893E+02  0.95472913558E+02 0.  0.
         11    1    3    3    0    0  0.37952078123E+02  0.29613688614E+02 -0.26252170759E+02  0.54831626430E+02  0.51100000000E-03 0. -1.
         22    1    1    0    0    0 -0.25567356257E+02 -0.87295861581E+00 -0.48593981355E+01  0.26039691107E+02  0.00000000000E+00 0. -1.
</event>
<event>
 5    1  0.8752570E-005  0.9118800E+02  0.7818608E-02  0.1130116E+00
         25   -1    0    0    0    0  0.00000000000E+00  0.00000000000E+00  0.99999998245E-14  0.12500000000E+03  0.12500000000E+03 0.  0.
        -11    1    3    3    0    0  0.53875688899E+01  0.20713826139E+02  0.50331001572E+02  0.54692761965E+02  0.51100000000E-03 0. -1.
         23    2    1    0    0    0 -0.10832900186E+02  0.24318824773E+02  0.13387684864E+02  0.95200888087E+02  0.90416934375E+02 0.  0.
         11    1    3    3    0    0 -0.16220469076E+02  0.36049986342E+01 -0.36943316709E+02  0.40508126122E+02  0.51100000000E-03 0.  1.
         22    1    1    0    0    0  0.10832900186E+02 -0.24318824773E+02 -0.13387684864E+02  0.29799111913E+02  0.00000000000E+00 0. -1.
</event>
<event>
 5    1  0.8752570E-005  0.9118800E+02  0.7818608E-02  0.1130116E+00
         25   -1    0    0    0    0  0.00000000000E+00  0.00000000000E+00  0.99999998245E-14  0.12500000000E+03  0.12500000000E+03 0.  0.
        -11    1    3    3    0    0  0.17541837008E+01  0.28651635916E+02 -0.19578144316E+02  0.34746181607E+02  0.51100000000E-03 0.  1.
         23    2    1    0    0    0 -0.32547650478E+01 -0.15509727212E+02  0.23509297491E+02  0.96648065282E+02  0.92395975673E+02 0.  0.
         11    1    3    3    0    0 -0.50089487486E+01 -0.44161363128E+02  0.43087441807E+02  0.61901883676E+02  0.51100000000E-03 0. -1.
         22    1    1    0    0    0  0.32547650478E+01  0.15509727212E+02 -0.23509297491E+02  0.28351934718E+02  0.00000000000E+00 0. -1.
</event>
<event>
 5    1  0.8752570E-005  0.9118800E+02  0.7818608E-02  0.1130116E+00
         25   -1    0    0    0    0  0.00000000000E+00  0.00000000000E+00  0.99999998245E-14  0.12500000000E+03  0.12500000000E+03 0.  0.
        -11    1    3    3    0    0  0.18819714504E+02 -0.18977016554E+02 -0.25510508289E+02  0.36947189944E+02  0.51100000000E-03 0.  1.
         23    2    1    0    0    0 -0.24166329032E+02  0.13025903227E+02  0.25293112415E+01  0.97430396645E+02  0.93448376986E+02 0.  0.
         11    1    3    3    0    0 -0.42986043536E+02  0.32002919780E+02  0.28039819531E+02  0.60483206702E+02  0.51100000000E-03 0. -1.
         22    1    1    0    0    0  0.24166329032E+02 -0.13025903227E+02 -0.25293112415E+01  0.27569603355E+02  0.00000000000E+00 0. -1.
</event>
<event>
 5    1  0.8752570E-005  0.9118800E+02  0.7818608E-02  0.1130116E+00
         25   -1    0    0    0    0  0.00000000000E+00  0.00000000000E+00  0.99999998245E-14  0.12500000000E+03  0.12500000000E+03 0.  0.
        -11    1    3    3    0    0 -0.50493847392E+02 -0.31172946671E+02  0.17585013694E+02  0.61891953721E+02  0.51100000000E-03 0.  1.
         23    2    1    0    0    0 -0.19373350066E+02 -0.84990220378E+01  0.11642835357E+02  0.10085221162E+03  0.97918603470E+02 0.  0.
         11    1    3    3    0    0  0.31120497325E+02  0.22673924634E+02 -0.59421783374E+01  0.38960257901E+02  0.51100000000E-03 0. -1.
         22    1    1    0    0    0  0.19373350066E+02  0.84990220378E+01 -0.11642835357E+02  0.24147788378E+02  0.00000000000E+00 0.  1.
</event>
<event>
 5    1  0.8752570E-005  0.9118800E+02  0.7818608E-02  0.1130116E+00
         25   -1    0    0    0    0  0.00000000000E+00  0.00000000000E+00  0.99999998245E-14  0.12500000000E+03  0.12500000000E+03 0.  0.
        -11    1    3    3    0    0  0.94447695915E+01 -0.34638372733E+02  0.63065128288E+01  0.36452608172E+02  0.51100000000E-03 0.  1.
         23    2    1    0    0    0 -0.39961895833E+01  0.16013653188E+02  0.27456482995E+02  0.92964627705E+02  0.87270596000E+02 0.  0.
         11    1    3    3    0    0 -0.13440959175E+02  0.50652025921E+02  0.21149970166E+02  0.56512019533E+02  0.51100000000E-03 0. -1.
         22    1    1    0    0    0  0.39961895833E+01 -0.16013653188E+02 -0.27456482995E+02  0.32035372295E+02  0.00000000000E+00 0. -1.
</event>
<event>
 5    1  0.8752570E-005  0.9118800E+02  0.7818608E-02  0.1130116E+00
         25   -1    0    0    0    0  0.00000000000E+00  0.00000000000E+00  0.99999998245E-14  0.12500000000E+03  0.12500000000E+03 0.  0.
        -11    1    3    3    0    0  0.81318507802E+01 -0.33101365740E+02 -0.48964508043E+02  0.59660292147E+02  0.51100000000E-03 0.  1.
         23    2    1    0    0    0 -0.31785403967E+01 -0.23245801971E+02 -0.14071275000E+02  0.97641798150E+02  0.93730728886E+02 0.  0.
         11    1    3    3    0    0 -0.11310391177E+02  0.98555637690E+01  0.34893233043E+02  0.37981506002E+02  0.51100000000E-03 0. -1.
         22    1    1    0    0    0  0.31785403967E+01  0.23245801971E+02  0.14071275000E+02  0.27358201850E+02  0.00000000000E+00 0.  1.
</event>
<event>
 5    1  0.8752570E-005  0.9118800E+02  0.7818608E-02  0.1130116E+00
         25   -1    0    0    0    0  0.00000000000E+00  0.00000000000E+00  0.99999998245E-14  0.12500000000E+03  0.12500000000E+03 0.  0.
        -11    1    3    3    0    0  0.39296976088E+02  0.44653635829E+02  0.74148926690E+01  0.59943141025E+02  0.51100000000E-03 0. -1.
         23    2    1    0    0    0  0.21340735042E+02  0.16486419138E+02 -0.81960629876E+01  0.96814818847E+02  0.92621297290E+02 0.  0.
         11    1    3    3    0    0 -0.17956241046E+02 -0.28167216691E+02 -0.15610955657E+02  0.36871677822E+02  0.51100000000E-03 0.  1.
         22    1    1    0    0    0 -0.21340735042E+02 -0.16486419138E+02  0.81960629876E+01  0.28185181153E+02  0.00000000000E+00 0. -1.
</event>
<event>
 5    1  0.8752570E-005  0.9118800E+02  0.7818608E-02  0.1130116E+00
         25   -1    0    0    0    0  0.00000000000E+00  0.00000000000E+00  0.99999998245E-14  0.12500000000E+03  0.12500000000E+03 0.  0.
        -11    1    3    3    0    0 -0.33969319303E+02 -0.85761350137E+01  0.18694354790E+01  0.35085032919E+02  0.51100000000E-03 0.  1.
         23    2    1    0    0    0  0.67440410854E+01  0.25567680515E+02  0.20658488997E+02  0.91444649537E+02  0.85065635742E+02 0.  0.
         11    1    3    3    0    0  0.40713360388E+02  0.34143815529E+02  0.18789053518E+02  0.56359616618E+02  0.51100000000E-03 0. -1.
         22    1    1    0    0    0 -0.67440410854E+01 -0.25567680515E+02 -0.20658488997E+02  0.33555350463E+02  0.00000000000E+00 0. -1.
</event>
<event>
 5    1  0.8752570E-005  0.9118800E+02  0.7818608E-02  0.1130116E+00
         25   -1    0    0    0    0  0.00000000000E+00  0.00000000000E+00  0.99999998245E-14  0.12500000000E+03  0.12500000000E+03 0.  0.
        -11    1    3    3    0    0 -0.24489643699E+02 -0.38991054827E+01 -0.31955509469E+02  0.40448736170E+02  0.51100000000E-03 0. -1.
         23    2    1    0    0    0  0.16660551375E+02  0.23145386512E+02 -0.70837997872E+01  0.95615257219E+02  0.90987989892E+02 0.  0.
         11    1    3    3    0    0  0.41150195073E+02  0.27044491995E+02  0.24871709682E+02  0.55166521049E+02  0.51100000000E-03 0.  1.
         22    1    1    0    0    0 -0.16660551375E+02 -0.23145386512E+02  0.70837997872E+01  0.29384742781E+02  0.00000000000E+00 0.  1.
</event>
<event>
 5    1  0.8752570E-005  0.9118800E+02  0.7818608E-02  0.1130116E+00
         25   -1    0    0    0    0  0.00000000000E+00  0.00000000000E+00  0.99999998245E-14  0.12500000000E+03  0.12500000000E+03 0.  0.
        -11    1    3    3    0    0 -0.14210688160E+02  0.44643526754E+02  0.31118901576E+02  0.56243881219E+02  0.51100000000E-03 0.  1.
         23    2    1    0    0    0 -0.18044892320E+02  0.85932445384E+01  0.24971576357E+02  0.93014978251E+02  0.87342684655E+02 0.  0.
         11    1    3    3    0    0 -0.38342041595E+01 -0.36050282215E+02 -0.61473252183E+01  0.36771097032E+02  0.51100000000E-03 0. -1.
         22    1    1    0    0    0  0.18044892320E+02 -0.85932445384E+01 -0.24971576357E+02  0.31985021749E+02  0.00000000000E+00 0.  1.
</event>
<event>
 5    1  0.8752570E-005  0.9118800E+02  0.7818608E-02  0.1130116E+00
         25   -1    0    0    0    0  0.00000000000E+00  0.00000000000E+00  0.99999998245E-14  0.12500000000E+03  0.12500000000E+03 0.  0.
        -11    1    3    3    0    0  0.44482927055E+01  0.30281850919E+02  0.44119840872E+02  0.53696723940E+02  0.51100000000E-03 0. -1.
         23    2    1    0    0    0  0.13789415498E+02 -0.64684615309E+01  0.23871667459E+02  0.96683123731E+02  0.92443393126E+02 0.  0.
         11    1    3    3    0    0  0.93411227928E+01 -0.36750312450E+02 -0.20248173412E+02  0.42986399791E+02  0.51100000000E-03 0.  1.
         22    1    1    0    0    0 -0.13789415498E+02  0.64684615309E+01 -0.23871667459E+02  0.28316876269E+02  0.00000000000E+00 0. -1.
</event>
<event>
 5    1  0.8752570E-005  0.9118800E+02  0.7818608E-02  0.1130116E+00
         25   -1    0    0    0    0  0.00000000000E+00  0.00000000000E+00  0.99999998245E-14  0.12500000000E+03  0.12500000000E+03 0.  0.
        -11    1    3    3    0    0 -0.13897273073E+02 -0.12098639564E+02 -0.27564469261E+02  0.33155862891E+02  0.51100000000E-03 0.  1.
         23    2    1    0    0    0  0.16587778879E+02  0.11905138588E+02  0.21261875364E+02  0.95521972981E+02  0.90859744911E+02 0.  0.
         11    1    3    3    0    0  0.30485051952E+02  0.24003778152E+02  0.48826344625E+02  0.62366110090E+02  0.51100000000E-03 0. -1.
         22    1    1    0    0    0 -0.16587778879E+02 -0.11905138588E+02 -0.21261875364E+02  0.29478027019E+02  0.00000000000E+00 0. -1.
</event>
<event>
 5    1  0.8752570E-005  0.9118800E+02  0.7818608E-02  0.1130116E+00
         25   -1    0    0    0    0  0.00000000000E+00  0.00000000000E+00  0.99999998245E-14  0.12500000000E+03  0.12500000000E+03 0.  0.
        -11    1    3    3    0    0 -0.36865802886E+02  0.25220227943E+02 -0.24609624900E+02  0.50997852483E+02  0.51100000000E-03 0. -1.
         23    2    1    0    0    0 -0.20157446495E+02 -0.23801015239E+01  0.13265591742E+02  0.10075204222E+03  0.97790646556E+02 0.  0.
         11    1    3    3    0    0  0.16708356392E+02 -0.27600329467E+02  0.37875216642E+02  0.49754189732E+02  0.51100000000E-03 0.  1.
         22    1    1    0    0    0  0.20157446495E+02  0.23801015239E+01 -0.13265591742E+02  0.24247957785E+02  0.00000000000E+00 0. -1.
</event>
<event>
 5    1  0.8752570E-005  0.9118800E+02  0.7818608E-02  0.1130116E+00
         25   -1    0    0    0    0  0.00000000000E+00  0.00000000000E+00  0.99999998245E-14  0.12500000000E+03  0.12500000000E+03 0.  0.
        -11    1    3    3    0    0  0.38461222887E+02  0.12024085360E+02 -0.14579282756E+02  0.42853235358E+02  0.51100000000E-03 0. -1.
         23    2    1    0    0    0 -0.64269104713E+01 -0.14583243172E+02 -0.24307850256E+02  0.95933735299E+02  0.91424470601E+02 0.  0.
         11    1    3    3    0    0 -0.44888133359E+02 -0.26607328532E+02 -0.97285675000E+01  0.53080499940E+02  0.51100000000E-03 0.  1.
         22    1    1    0    0    0  0.64269104713E+01  0.14583243172E+02  0.24307850256E+02  0.29066264701E+02  0.00000000000E+00 0.  1.
</event>
<event>
 5    1  0.8752570E-005  0.9118800E+02  0.7818608E-02  0.1130116E+00
         25   -1    0    0    0    0  0.00000000000E+00  0.00000000000E+00  0.99999998245E-14  0.12500000000E+03  0.12500000000E+03 0.  0.
        -11    1    3    3    0    0  0.29475219215E+02 -0.44866340621E+02 -0.13468202298E+02  0.55345908087E+02  0.51100000000E-03 0.  1.
         23    2    1    0    0    0  0.14232174309E+02 -0.25568456134E+02 -0.28486948232E+02  0.84161207728E+02  0.73588735089E+02 0.  0.
         11    1    3    3    0    0 -0.15243044907E+02  0.19297884487E+02 -0.15018745934E+02  0.28815299641E+02  0.51100000000E-03 0. -1.
         22    1    1    0    0    0 -0.14232174309E+02  0.25568456134E+02  0.28486948232E+02  0.40838792272E+02  0.00000000000E+00 0.  1.
</event>
<event>
 5    1  0.8752570E-005  0.9118800E+02  0.7818608E-02  0.1130116E+00
         25   -1    0    0    0    0  0.00000000000E+00  0.00000000000E+00  0.99999998245E-14  0.12500000000E+03  0.12500000000E+03 0.  0.
        -11    1    3    3    0    0 -0.22795517749E+02 -0.41705677019E+02  0.25451277370E+02  0.53914438188E+02  0.51100000000E-03 0.  1.
         23    2    1    0    0    0  0.50079052550E+01 -0.91974337628E+01  0.26292048283E+02  0.96699051150E+02  0.92464927338E+02 0.  0.
         11    1    3    3    0    0  0.27803423004E+02  0.32508243257E+02  0.84077091375E+00  0.42784612963E+02  0.51100000000E-03 0. -1.
         22    1    1    0    0    0 -0.50079052550E+01  0.91974337628E+01 -0.26292048283E+02  0.28300948850E+02  0.00000000000E+00 0.  1.
</event>
<event>
 5    1  0.8752570E-005  0.9118800E+02  0.7818608E-02  0.1130116E+00
         25   -1    0    0    0    0  0.00000000000E+00  0.00000000000E+00  0.99999998245E-14  0.12500000000E+03  0.12500000000E+03 0.  0.
        -11    1    3    3    0    0 -0.14404166844E+01 -0.54521983960E+01 -0.44401688628E+02  0.44758364814E+02  0.51100000000E-03 0.  1.
         23    2    1    0    0    0 -0.28492605313E+02 -0.30035440367E+01 -0.54631941244E+00  0.96344314714E+02  0.91984121883E+02 0.  0.
         11    1    3    3    0    0 -0.27052188629E+02  0.24486543593E+01  0.43855369216E+02  0.51585949900E+02  0.51100000000E-03 0. -1.
         22    1    1    0    0    0  0.28492605313E+02  0.30035440367E+01  0.54631941244E+00  0.28655685286E+02  0.00000000000E+00 0.  1.
</event>
<event>
 5    1  0.8752570E-005  0.9118800E+02  0.7818608E-02  0.1130116E+00
         25   -1    0    0    0    0  0.00000000000E+00  0.00000000000E+00  0.99999998245E-14  0.12500000000E+03  0.12500000000E+03 0.  0.
        -11    1    3    3    0    0  0.28268283730E+02  0.20956277095E+01  0.35583773004E+02  0.45493872357E+02  0.51100000000E-03 0.  1.
         23    2    1    0    0    0  0.20077047512E+02  0.15782009588E+02 -0.12796653940E+02  0.96435791355E+02  0.92108348367E+02 0.  0.
         11    1    3    3    0    0 -0.81912362180E+01  0.13686381878E+02 -0.48380426944E+02  0.50941918998E+02  0.51100000000E-03 0. -1.
         22    1    1    0    0    0 -0.20077047512E+02 -0.15782009588E+02  0.12796653940E+02  0.28564208645E+02  0.00000000000E+00 0. -1.
</event>
<event>
 5    1  0.8752570E-005  0.9118800E+02  0.7818608E-02  0.1130116E+00
         25   -1    0    0    0    0  0.00000000000E+00  0.00000000000E+00  0.99999998245E-14  0.12500000000E+03  0.12500000000E+03 0.  0.
        -11    1    3    3    0    0  0.10969469312E+02  0.18368075268E+01 -0.41013683055E+02  0.42495003434E+02  0.51100000000E-03 0. -1.
         23    2    1    0    0    0 -0.24093996369E+02  0.16795435019E+02 -0.44904018355E+01  0.95288537445E+02  0.90538027156E+02 0.  0.
         11    1    3    3    0    0 -0.35063465681E+02  0.14958627492E+02  0.36523281220E+02  0.52793534011E+02  0.51100000000E-03 0.  1.
         22    1    1    0    0    0  0.24093996369E+02 -0.16795435019E+02  0.44904018355E+01  0.29711462555E+02  0.00000000000E+00 0.  1.
</event>
<event>
 5    1  0.8752570E-005  0.9118800E+02  0.7818608E-02  0.1130116E+00
         25   -1    0    0    0    0  0.00000000000E+00  0.00000000000E+00  0.99999998245E-14  0.12500000000E+03  0.12500000000E+03 0.  0.
        -11    1    3    3    0    0 -0.37702106907E+02 -0.30207862411E+02  0.22834895667E+02  0.53435908124E+02  0.51100000000E-03 0.  1.
         23    2    1    0    0    0  0.20508537243E+01 -0.24813299829E+02 -0.96800766187E+00  0.10008328095E+03  0.96932039272E+02 0.  0.
         11    1    3    3    0    0  0.39752960631E+02  0.53945625820E+01 -0.23802903329E+02  0.46647372826E+02  0.51100000000E-03 0. -1.
         22    1    1    0    0    0 -0.20508537243E+01  0.24813299829E+02  0.96800766187E+00  0.24916719050E+02  0.00000000000E+00 0. -1.
</event>
<event>
 5    1  0.8752570E-005  0.9118800E+02  0.7818608E-02  0.1130116E+00
         25   -1    0    0    0    0  0.00000000000E+00  0.00000000000E+00  0.99999998245E-14  0.12500000000E+03  0.12500000000E+03 0.  0.
        -11    1    3    3    0    0 -0.19888757257E+02  0.31940867489E+02  0.52919111287E+01  0.37997184170E+02  0.51100000000E-03 0.  1.
         23    2    1    0    0    0  0.23960148205E+02 -0.29869981213E+01  0.17259522542E+02  0.95320007107E+02  0.90581464863E+02 0.  0.
         11    1    3    3    0    0  0.43848905462E+02 -0.34927865610E+02  0.11967611413E+02  0.57322822937E+02  0.51100000000E-03 0. -1.
         22    1    1    0    0    0 -0.23960148205E+02  0.29869981213E+01 -0.17259522542E+02  0.29679992893E+02  0.00000000000E+00 0. -1.
</event>
<event>
 5    1  0.8752570E-005  0.9118800E+02  0.7818608E-02  0.1130116E+00
         25   -1    0    0    0    0  0.00000000000E+00  0.00000000000E+00  0.99999998245E-14  0.12500000000E+03  0.12500000000E+03 0.  0.
        -11    1    3    3    0    0  0.39181678097E+02 -0.18889770556E+02 -0.11001312850E+02  0.44867095012E+02  0.51100000000E-03 0. -1.
         23    2    1    0    0    0 -0.13757311529E+02 -0.81897799685E+01 -0.19744709549E+02  0.99579738955E+02  0.96280500304E+02 0.  0.
         11    1    3    3    0    0 -0.52938989626E+02  0.10699990587E+02 -0.87433966989E+01  0.54712643943E+02  0.51100000000E-03 0.  1.
         22    1    1    0    0    0  0.13757311529E+02  0.81897799685E+01  0.19744709549E+02  0.25420261045E+02  0.00000000000E+00 0.  1.
</event>
<event>
 5    1  0.8752570E-005  0.9118800E+02  0.7818608E-02  0.1130116E+00
         25   -1    0    0    0    0  0.00000000000E+00  0.00000000000E+00  0.99999998245E-14  0.12500000000E+03  0.12500000000E+03 0.  0.
        -11    1    3    3    0    0 -0.10559322619E+01  0.30221348172E+01  0.47696209197E+02  0.47803521459E+02  0.51100000000E-03 0. -1.
         23    2    1    0    0    0  0.26828942324E+01 -0.27988818899E+02  0.14576311515E+02  0.93329181220E+02  0.87791202891E+02 0.  0.
         11    1    3    3    0    0  0.37388264943E+01 -0.31010953716E+02 -0.33119897682E+02  0.45525659761E+02  0.51100000000E-03 0.  1.
         22    1    1    0    0    0 -0.26828942324E+01  0.27988818899E+02 -0.14576311515E+02  0.31670818780E+02  0.00000000000E+00 0. -1.
</event>
<event>
 5    1  0.8752570E-005  0.9118800E+02  0.7818608E-02  0.1130116E+00
         25   -1    0    0    0    0  0.00000000000E+00  0.00000000000E+00  0.99999998245E-14  0.12500000000E+03  0.12500000000E+03 0.  0.
        -11    1    3    3    0    0  0.26892663167E+01  0.33013232291E+02  0.16593490563E+02  0.37046586738E+02  0.51100000000E-03 0.  1.
         23    2    1    0    0    0  0.22370831519E+02 -0.19561794376E+02  0.10354604553E+02  0.93530399788E+02  0.88077238530E+02 0.  0.
         11    1    3    3    0    0  0.19681565202E+02 -0.52575026667E+02 -0.62388860106E+01  0.56483813050E+02  0.51100000000E-03 0. -1.
         22    1    1    0    0    0 -0.22370831519E+02  0.19561794376E+02 -0.10354604553E+02  0.31469600212E+02  0.00000000000E+00 0. -1.
</event>
<event>
 5    1  0.8752570E-005  0.9118800E+02  0.7818608E-02  0.1130116E+00
         25   -1    0    0    0    0  0.00000000000E+00  0.00000000000E+00  0.99999998245E-14  0.12500000000E+03  0.12500000000E+03 0.  0.
        -11    1    3    3    0    0  0.22760154250E+02 -0.18195912578E+02 -0.21025429331E+02  0.35933056297E+02  0.51100000000E-03 0. -1.
         23    2    1    0    0    0 -0.30781456803E+02 -0.49825532908E+01 -0.45624101887E+01  0.93485884006E+02  0.88014038661E+02 0.  0.
         11    1    3    3    0    0 -0.53541611052E+02  0.13213359287E+02  0.16463019143E+02  0.57552827709E+02  0.51100000000E-03 0.  1.
         22    1    1    0    0    0  0.30781456803E+02  0.49825532908E+01  0.45624101887E+01  0.31514115994E+02  0.00000000000E+00 0.  1.
</event>
<event>
 5    1  0.8752570E-005  0.9118800E+02  0.7818608E-02  0.1130116E+00
         25   -1    0    0    0    0  0.00000000000E+00  0.00000000000E+00  0.99999998245E-14  0.12500000000E+03  0.12500000000E+03 0.  0.
        -11    1    3    3    0    0  0.33838158826E+02 -0.32593620851E+02  0.39948595442E+02  0.61670539084E+02  0.51100000000E-03 0. -1.
         23    2    1    0    0    0  0.13006706809E+02 -0.20453192179E+02  0.14368994907E+02  0.96822429009E+02  0.92631567256E+02 0.  0.
         11    1    3    3    0    0 -0.20831452017E+02  0.12140428672E+02 -0.25579600535E+02  0.35151889925E+02  0.51100000000E-03 0.  1.
         22    1    1    0    0    0 -0.13006706809E+02  0.20453192179E+02 -0.14368994907E+02  0.28177570991E+02  0.00000000000E+00 0. -1.
</event>
<event>
 5    1  0.8752570E-005  0.9118800E+02  0.7818608E-02  0.1130116E+00
         25   -1    0    0    0    0  0.00000000000E+00  0.00000000000E+00  0.99999998245E-14  0.12500000000E+03  0.12500000000E+03 0.  0.
        -11    1    3    3    0    0 -0.23931791876E+02 -0.24853281536E+02  0.35387892043E+01  0.34683415271E+02  0.51100000000E-03 0. -1.
         23    2    1    0    0    0  0.19260411746E+02  0.18043011207E+02 -0.95226178657E+01  0.96943022881E+02  0.92794157792E+02 0.  0.
         11    1    3    3    0    0  0.43192203623E+02  0.42896292743E+02 -0.13061407070E+02  0.62259607610E+02  0.51100000000E-03 0.  1.
         22    1    1    0    0    0 -0.19260411746E+02 -0.18043011207E+02  0.95226178657E+01  0.28056977119E+02  0.00000000000E+00 0.  1.
</event>
<event>
 5    1  0.8752570E-005  0.9118800E+02  0.7818608E-02  0.1130116E+00
         25   -1    0    0    0    0  0.00000000000E+00  0.00000000000E+00  0.99999998245E-14  0.12500000000E+03  0.12500000000E+03 0.  0.
        -11    1    3    3    0    0 -0.15537390367E+02  0.29193859061E+02 -0.24822296541E+02  0.41350191198E+02  0.51100000000E-03 0. -1.
         23    2    1    0    0    0  0.23908644106E+02  0.62715000360E+01  0.95810951756E+01  0.98490523196E+02  0.94855842197E+02 0.  0.
         11    1    3    3    0    0  0.39446034473E+02 -0.22922359025E+02  0.34403391717E+02  0.57140331997E+02  0.51100000000E-03 0.  1.
         22    1    1    0    0    0 -0.23908644106E+02 -0.62715000360E+01 -0.95810951756E+01  0.26509476804E+02  0.00000000000E+00 0.  1.
</event>
<event>
 5    1  0.8752570E-005  0.9118800E+02  0.7818608E-02  0.1130116E+00
         25   -1    0    0    0    0  0.00000000000E+00  0.00000000000E+00  0.99999998245E-14  0.12500000000E+03  0.12500000000E+03 0.  0.
        -11    1    3    3    0    0 -0.35729178179E+01  0.56564173730E+02  0.22076471642E+02  0.60824683245E+02  0.51100000000E-03 0.  1.
         23    2    1    0    0    0  0.78695697530E+01  0.28216619316E+02  0.14474581878E+02  0.92325525953E+02  0.86350341564E+02 0.  0.
         11    1    3    3    0    0  0.11442487571E+02 -0.28347554414E+02 -0.76018897632E+01  0.31500842707E+02  0.51100000000E-03 0. -1.
         22    1    1    0    0    0 -0.78695697530E+01 -0.28216619316E+02 -0.14474581878E+02  0.32674474047E+02  0.00000000000E+00 0.  1.
</event>
<event>
 5    1  0.8752570E-005  0.9118800E+02  0.7818608E-02  0.1130116E+00
         25   -1    0    0    0    0  0.00000000000E+00  0.00000000000E+00  0.99999998245E-14  0.12500000000E+03  0.12500000000E+03 0.  0.
        -11    1    3    3    0    0  0.20977726388E+02  0.21577174720E+02  0.15847883326E+02  0.34011687396E+02  0.51100000000E-03 0. -1.
         23    2    1    0    0    0 -0.29283407630E+02 -0.46241724596E+01 -0.59918083396E+01  0.94754294511E+02  0.89797403235E+02 0.  0.
         11    1    3    3    0    0 -0.50261134018E+02 -0.26201347180E+02 -0.21839691665E+02  0.60742607115E+02  0.51100000000E-03 0.  1.
         22    1    1    0    0    0  0.29283407630E+02  0.46241724596E+01  0.59918083396E+01  0.30245705489E+02  0.00000000000E+00 0.  1.
</event>
<event>
 5    1  0.8752570E-005  0.9118800E+02  0.7818608E-02  0.1130116E+00
         25   -1    0    0    0    0  0.00000000000E+00  0.00000000000E+00  0.99999998245E-14  0.12500000000E+03  0.12500000000E+03 0.  0.
        -11    1    3    3    0    0  0.14849827474E+02 -0.31587121874E+02 -0.13330520174E+02  0.37362633910E+02  0.51100000000E-03 0. -1.
         23    2    1    0    0    0 -0.14116767548E+02  0.19629297696E+02  0.73463336466E+01  0.99730234032E+02  0.96475688688E+02 0.  0.
         11    1    3    3    0    0 -0.28966595022E+02  0.51216419570E+02  0.20676853821E+02  0.62367600122E+02  0.51100000000E-03 0.  1.
         22    1    1    0    0    0  0.14116767548E+02 -0.19629297696E+02 -0.73463336466E+01  0.25269765968E+02  0.00000000000E+00 0.  1.
</event>
<event>
 5    1  0.8752570E-005  0.9118800E+02  0.7818608E-02  0.1130116E+00
         25   -1    0    0    0    0  0.00000000000E+00  0.00000000000E+00  0.99999998245E-14  0.12500000000E+03  0.12500000000E+03 0.  0.
        -11    1    3    3    0    0 -0.26517604812E+02  0.36502941812E+02 -0.82109491759E+01  0.45859217313E+02  0.51100000000E-03 0.  1.
         23    2    1    0    0    0 -0.10151949494E+02  0.61400490823E+01  0.27219775627E+02  0.95306928982E+02  0.90563415602E+02 0.  0.
         11    1    3    3    0    0  0.16365655318E+02 -0.30362892730E+02  0.35430724803E+02  0.49447711669E+02  0.51100000000E-03 0. -1.
         22    1    1    0    0    0  0.10151949494E+02 -0.61400490823E+01 -0.27219775627E+02  0.29693071018E+02  0.00000000000E+00 0. -1.
</event>
<event>
 5    1  0.8752570E-005  0.9118800E+02  0.7818608E-02  0.1130116E+00
         25   -1    0    0    0    0  0.00000000000E+00  0.00000000000E+00  0.99999998245E-14  0.12500000000E+03  0.12500000000E+03 0.  0.
        -11    1    3    3    0    0  0.33739576338E+01 -0.38081421242E+02  0.81837950292E+01  0.39096710031E+02  0.51100000000E-03 0. -1.
         23    2    1    0    0    0 -0.19970091804E+02  0.15643902814E+02  0.10073863298E+02  0.97704964120E+02  0.93814929676E+02 0.  0.
         11    1    3    3    0    0 -0.23344049438E+02  0.53725324056E+02  0.18900682692E+01  0.58608254089E+02  0.51100000000E-03 0.  1.
         22    1    1    0    0    0  0.19970091804E+02 -0.15643902814E+02 -0.10073863298E+02  0.27295035880E+02  0.00000000000E+00 0.  1.
</event>
<event>
 5    1  0.8752570E-005  0.9118800E+02  0.7818608E-02  0.1130116E+00
         25   -1    0    0    0    0  0.00000000000E+00  0.00000000000E+00  0.99999998245E-14  0.12500000000E+03  0.12500000000E+03 0.  0.
        -11    1    3    3    0    0 -0.35969697991E+02 -0.15499812845E+02  0.11123136535E+02  0.40715937155E+02  0.51100000000E-03 0. -1.
         23    2    1    0    0    0  0.55029840088E+01  0.18745414871E+02  0.21988290599E+02  0.95586426005E+02  0.90948372725E+02 0.  0.
         11    1    3    3    0    0  0.41472681999E+02  0.34245227716E+02  0.10865154064E+02  0.54870488850E+02  0.51100000000E-03 0.  1.
         22    1    1    0    0    0 -0.55029840088E+01 -0.18745414871E+02 -0.21988290599E+02  0.29413573995E+02  0.00000000000E+00 0.  1.
</event>
<event>
 5    1  0.8752570E-005  0.9118800E+02  0.7818608E-02  0.1130116E+00
         25   -1    0    0    0    0  0.00000000000E+00  0.00000000000E+00  0.99999998245E-14  0.12500000000E+03  0.12500000000E+03 0.  0.
        -11    1    3    3    0    0  0.53236332117E+02 -0.23503837018E+02 -0.91201996723E+01  0.58904290626E+02  0.51100000000E-03 0. -1.
         23    2    1    0    0    0  0.21321781572E+02 -0.62985066894E+01 -0.18185335141E+02  0.96277256918E+02  0.91892949836E+02 0.  0.
         11    1    3    3    0    0 -0.31914550544E+02  0.17205330329E+02 -0.90651354691E+01  0.37372966293E+02  0.51100000000E-03 0.  1.
         22    1    1    0    0    0 -0.21321781572E+02  0.62985066894E+01  0.18185335141E+02  0.28722743082E+02  0.00000000000E+00 0. -1.
</event>
<event>
 5    1  0.8752570E-005  0.9118800E+02  0.7818608E-02  0.1130116E+00
         25   -1    0    0    0    0  0.00000000000E+00  0.00000000000E+00  0.99999998245E-14  0.12500000000E+03  0.12500000000E+03 0.  0.
        -11    1    3    3    0    0 -0.52699962576E+02 -0.10931419274E+02  0.26833699045E+01  0.53888611572E+02  0.51100000000E-03 0.  1.
         23    2    1    0    0    0 -0.20228272018E+02 -0.12489488467E+00 -0.21258830501E+02  0.95654873286E+02  0.91042398483E+02 0.  0.
         11    1    3    3    0    0  0.32471690558E+02  0.10806524389E+02 -0.23942200405E+02  0.41766261714E+02  0.51100000000E-03 0. -1.
         22    1    1    0    0    0  0.20228272018E+02  0.12489488467E+00  0.21258830501E+02  0.29345126714E+02  0.00000000000E+00 0.  1.
</event>
<event>
 5    1  0.8752570E-005  0.9118800E+02  0.7818608E-02  0.1130116E+00
         25   -1    0    0    0    0  0.00000000000E+00  0.00000000000E+00  0.99999998245E-14  0.12500000000E+03  0.12500000000E+03 0.  0.
        -11    1    3    3    0    0  0.32485711392E+02  0.35750373669E+02  0.36787897143E+02  0.60718695956E+02  0.51100000000E-03 0.  1.
         23    2    1    0    0    0  0.53413122016E+01  0.20045296087E+02  0.19503042795E+02  0.96526991914E+02  0.92232033364E+02 0.  0.
         11    1    3    3    0    0 -0.27144399191E+02 -0.15705077582E+02 -0.17284854349E+02  0.35808295958E+02  0.51100000000E-03 0. -1.
         22    1    1    0    0    0 -0.53413122016E+01 -0.20045296087E+02 -0.19503042795E+02  0.28473008086E+02  0.00000000000E+00 0.  1.
</event>
<event>
 5    1  0.8752570E-005  0.9118800E+02  0.7818608E-02  0.1130116E+00
         25   -1    0    0    0    0  0.00000000000E+00  0.00000000000E+00  0.99999998245E-14  0.12500000000E+03  0.12500000000E+03 0.  0.
        -11    1    3    3    0    0  0.54829385636E+02 -0.25123128963E+02  0.12915144038E+02  0.61678473424E+02  0.51100000000E-03 0. -1.
         23    2    1    0    0    0  0.23392538813E+02 -0.18526144400E+02  0.71845352521E+01  0.94307224869E+02  0.89172900689E+02 0.  0.
         11    1    3    3    0    0 -0.31436846823E+02  0.65969845629E+01 -0.57306087861E+01  0.32628751445E+02  0.51100000000E-03 0.  1.
         22    1    1    0    0    0 -0.23392538813E+02  0.18526144400E+02 -0.71845352521E+01  0.30692775131E+02  0.00000000000E+00 0. -1.
</event>
<event>
 5    1  0.8752570E-005  0.9118800E+02  0.7818608E-02  0.1130116E+00
         25   -1    0    0    0    0  0.00000000000E+00  0.00000000000E+00  0.99999998245E-14  0.12500000000E+03  0.12500000000E+03 0.  0.
        -11    1    3    3    0    0 -0.25713526672E+02  0.35523912725E+02  0.60027154794E+01  0.44262471944E+02  0.51100000000E-03 0. -1.
         23    2    1    0    0    0  0.13044635154E+02  0.25225051418E+02 -0.18357790710E+02  0.91184704568E+02  0.84682797203E+02 0.  0.
         11    1    3    3    0    0  0.38758161826E+02 -0.10298861307E+02 -0.24360506190E+02  0.46922232624E+02  0.51100000000E-03 0.  1.
         22    1    1    0    0    0 -0.13044635154E+02 -0.25225051418E+02  0.18357790710E+02  0.33815295432E+02  0.00000000000E+00 0.  1.
</event>
<event>
 5    1  0.8752570E-005  0.9118800E+02  0.7818608E-02  0.1130116E+00
         25   -1    0    0    0    0  0.00000000000E+00  0.00000000000E+00  0.99999998245E-14  0.12500000000E+03  0.12500000000E+03 0.  0.
        -11    1    3    3    0    0 -0.30319645381E+02  0.57554076561E+01  0.34455996400E+02  0.46256040702E+02  0.51100000000E-03 0. -1.
         23    2    1    0    0    0 -0.17328638222E+01  0.29247347590E+02  0.17345327378E+01  0.95650063682E+02  0.91035794721E+02 0.  0.
         11    1    3    3    0    0  0.28586781558E+02  0.23491939933E+02 -0.32721463662E+02  0.49394022980E+02  0.51100000000E-03 0.  1.
         22    1    1    0    0    0  0.17328638222E+01 -0.29247347590E+02 -0.17345327378E+01  0.29349936318E+02  0.00000000000E+00 0.  1.
</event>
<event>
 5    1  0.8752570E-005  0.9118800E+02  0.7818608E-02  0.1130116E+00
         25   -1    0    0    0    0  0.00000000000E+00  0.00000000000E+00  0.99999998245E-14  0.12500000000E+03  0.12500000000E+03 0.  0.
        -11    1    3    3    0    0 -0.30415264982E+02  0.15401102726E+00  0.14494350051E+02  0.33692703171E+02  0.51100000000E-03 0.  1.
         23    2    1    0    0    0  0.54454642015E+01  0.40526798334E+01 -0.31857852072E+02  0.92427004546E+02  0.86497116347E+02 0.  0.
         11    1    3    3    0    0  0.35860729183E+02  0.38986688061E+01 -0.46352202124E+02  0.58734301375E+02  0.51100000000E-03 0. -1.
         22    1    1    0    0    0 -0.54454642015E+01 -0.40526798334E+01  0.31857852072E+02  0.32572995454E+02  0.00000000000E+00 0. -1.
</event>
<event>
 5    1  0.8752570E-005  0.9118800E+02  0.7818608E-02  0.1130116E+00
         25   -1    0    0    0    0  0.00000000000E+00  0.00000000000E+00  0.99999998245E-14  0.12500000000E+03  0.12500000000E+03 0.  0.
        -11    1    3    3    0    0 -0.43276600250E+01  0.16949475603E+02 -0.22838139535E+02  0.28767933228E+02  0.51100000000E-03 0. -1.
         23    2    1    0    0    0 -0.37943475892E+02 -0.78850567596E+01  0.13307791792E+02  0.84024656130E+02  0.73356417800E+02 0.  0.
         11    1    3    3    0    0 -0.33615815867E+02 -0.24834532362E+02  0.36145931327E+02  0.55256722902E+02  0.51100000000E-03 0.  1.
         22    1    1    0    0    0  0.37943475892E+02  0.78850567596E+01 -0.13307791792E+02  0.40975343870E+02  0.00000000000E+00 0.  1.
</event>
<event>
 5    1  0.8752570E-005  0.9118800E+02  0.7818608E-02  0.1130116E+00
         25   -1    0    0    0    0  0.00000000000E+00  0.00000000000E+00  0.99999998245E-14  0.12500000000E+03  0.12500000000E+03 0.  0.
        -11    1    3    3    0    0  0.42715894029E+02  0.35105353966E+02  0.14457721450E+02  0.57149446100E+02  0.51100000000E-03 0. -1.
         23    2    1    0    0    0  0.26395124240E+02 -0.10083193161E+01  0.86636370277E+01  0.97201116964E+02  0.93141179083E+02 0.  0.
         11    1    3    3    0    0 -0.16320769788E+02 -0.36113673282E+02 -0.57940844222E+01  0.40051670864E+02  0.51100000000E-03 0.  1.
         22    1    1    0    0    0 -0.26395124240E+02  0.10083193161E+01 -0.86636370277E+01  0.27798883036E+02  0.00000000000E+00 0. -1.
</event>
<event>
 5    1  0.8752570E-005  0.9118800E+02  0.7818608E-02  0.1130116E+00
         25   -1    0    0    0    0  0.00000000000E+00  0.00000000000E+00  0.99999998245E-14  0.12500000000E+03  0.12500000000E+03 0.  0.
        -11    1    3    3    0    0  0.82249625828E+01  0.36773901498E+02 -0.43142789137E+02  0.57282371596E+02  0.51100000000E-03 0.  1.
         23    2    1    0    0    0  0.20829259431E+02  0.12249368964E+02 -0.15710885573E+02  0.96177491192E+02  0.91757140311E+02 0.  0.
         11    1    3    3    0    0  0.12604296849E+02 -0.24524532533E+02  0.27431903564E+02  0.38895119596E+02  0.51100000000E-03 0. -1.
         22    1    1    0    0    0 -0.20829259431E+02 -0.12249368964E+02  0.15710885573E+02  0.28822508808E+02  0.00000000000E+00 0.  1.
</event>
<event>
 5    1  0.8752570E-005  0.9118800E+02  0.7818608E-02  0.1130116E+00
         25   -1    0    0    0    0  0.00000000000E+00  0.00000000000E+00  0.99999998245E-14  0.12500000000E+03  0.12500000000E+03 0.  0.
        -11    1    3    3    0    0  0.90147166774E+01  0.38241072094E+02 -0.18103807709E+02  0.43259595068E+02  0.51100000000E-03 0. -1.
         23    2    1    0    0    0 -0.82617445890E+01  0.12070445060E+02  0.24683547679E+02  0.96308022138E+02  0.91934789577E+02 0.  0.
         11    1    3    3    0    0 -0.17276461266E+02 -0.26170627034E+02  0.42787355388E+02  0.53048427070E+02  0.51100000000E-03 0.  1.
         22    1    1    0    0    0  0.82617445890E+01 -0.12070445060E+02 -0.24683547679E+02  0.28691977862E+02  0.00000000000E+00 0.  1.
</event>
<event>
 5    1  0.8752570E-005  0.9118800E+02  0.7818608E-02  0.1130116E+00
         25   -1    0    0    0    0  0.00000000000E+00  0.00000000000E+00  0.99999998245E-14  0.12500000000E+03  0.12500000000E+03 0.  0.
        -11    1    3    3    0    0 -0.10645793024E+02  0.62506273440E+01  0.55927438728E+02  0.57273743148E+02  0.51100000000E-03 0.  1.
         23    2    1    0    0    0 -0.20595359866E+02  0.92600604905E+01  0.19470585260E+02  0.95183540474E+02  0.90392948390E+02 0.  0.
         11    1    3    3    0    0 -0.99495668423E+01  0.30094331464E+01 -0.36456853468E+02  0.37909797326E+02  0.51100000000E-03 0. -1.
         22    1    1    0    0    0  0.20595359866E+02 -0.92600604905E+01 -0.19470585260E+02  0.29816459526E+02  0.00000000000E+00 0.  1.
</event>
<event>
 5    1  0.8752570E-005  0.9118800E+02  0.7818608E-02  0.1130116E+00
         25   -1    0    0    0    0  0.00000000000E+00  0.00000000000E+00  0.99999998245E-14  0.12500000000E+03  0.12500000000E+03 0.  0.
        -11    1    3    3    0    0 -0.22971247815E+02 -0.20504536056E+02 -0.42408227868E+02  0.52407747674E+02  0.51100000000E-03 0. -1.
         23    2    1    0    0    0  0.40557114612E+01 -0.27450569422E+02 -0.92396033741E+01  0.95753584364E+02  0.91177826751E+02 0.  0.
         11    1    3    3    0    0  0.27026959277E+02 -0.69460333661E+01  0.33168624494E+02  0.43345836690E+02  0.51100000000E-03 0.  1.
         22    1    1    0    0    0 -0.40557114612E+01  0.27450569422E+02  0.92396033741E+01  0.29246415636E+02  0.00000000000E+00 0. -1.
</event>
<event>
 5    1  0.8752570E-005  0.9118800E+02  0.7818608E-02  0.1130116E+00
         25   -1    0    0    0    0  0.00000000000E+00  0.00000000000E+00  0.99999998245E-14  0.12500000000E+03  0.12500000000E+03 0.  0.
        -11    1    3    3    0    0  0.33634272288E+02  0.34461606844E+02  0.39404910663E+02  0.62222291851E+02  0.51100000000E-03 0.  1.
         23    2    1    0    0    0  0.14491773253E+02  0.13999143029E+02  0.21801137791E+02  0.95313688229E+02  0.90572744561E+02 0.  0.
         11    1    3    3    0    0 -0.19142499034E+02 -0.20462463815E+02 -0.17603772872E+02  0.33091396378E+02  0.51100000000E-03 0. -1.
         22    1    1    0    0    0 -0.14491773253E+02 -0.13999143029E+02 -0.21801137791E+02  0.29686311771E+02  0.00000000000E+00 0.  1.
</event>
<event>
 5    1  0.8752570E-005  0.9118800E+02  0.7818608E-02  0.1130116E+00
         25   -1    0    0    0    0  0.00000000000E+00  0.00000000000E+00  0.99999998245E-14  0.12500000000E+03  0.12500000000E+03 0.  0.
        -11    1    3    3    0    0 -0.14616664663E+02  0.29845291906E+02  0.62892447653E+00  0.33238289383E+02  0.51100000000E-03 0.  1.
         23    2    1    0    0    0 -0.13901095471E+01 -0.30106696186E+02 -0.28255439395E+01  0.94729069087E+02  0.89762282011E+02 0.  0.
         11    1    3    3    0    0  0.13226555116E+02 -0.59951988092E+02 -0.34544684161E+01  0.61490779705E+02  0.51100000000E-03 0. -1.
         22    1    1    0    0    0  0.13901095471E+01  0.30106696186E+02  0.28255439395E+01  0.30270930913E+02  0.00000000000E+00 0. -1.
</event>
<event>
 5    1  0.8752570E-005  0.9118800E+02  0.7818608E-02  0.1130116E+00
         25   -1    0    0    0    0  0.00000000000E+00  0.00000000000E+00  0.99999998245E-14  0.12500000000E+03  0.12500000000E+03 0.  0.
        -11    1    3    3    0    0 -0.10984526849E+02  0.27726129868E+02 -0.40834379588E+02  0.50565251548E+02  0.51100000000E-03 0. -1.
         23    2    1    0    0    0 -0.94407287169E+01 -0.13578403718E+02 -0.25408760151E+02  0.94683247228E+02  0.89698449301E+02 0.  0.
         11    1    3    3    0    0  0.15437981321E+01 -0.41304533587E+02  0.15425619437E+02  0.44117995679E+02  0.51100000000E-03 0.  1.
         22    1    1    0    0    0  0.94407287169E+01  0.13578403718E+02  0.25408760151E+02  0.30316752772E+02  0.00000000000E+00 0.  1.
</event>
<event>
 5    1  0.8752570E-005  0.9118800E+02  0.7818608E-02  0.1130116E+00
         25   -1    0    0    0    0  0.00000000000E+00  0.00000000000E+00  0.99999998245E-14  0.12500000000E+03  0.12500000000E+03 0.  0.
        -11    1    3    3    0    0  0.14136346578E+02 -0.21088017124E+02  0.25843097200E+02  0.36227150508E+02  0.51100000000E-03 0. -1.
         23    2    1    0    0    0 -0.57163601835E+01  0.63617528591E+01 -0.25704477266E+02  0.97909986624E+02  0.94087707253E+02 0.  0.
         11    1    3    3    0    0 -0.19852706761E+02  0.27449769983E+02 -0.51547574465E+02  0.61682836117E+02  0.51100000000E-03 0.  1.
         22    1    1    0    0    0  0.57163601835E+01 -0.63617528591E+01  0.25704477266E+02  0.27090013376E+02  0.00000000000E+00 0.  1.
</event>
<event>
 5    1  0.8752570E-005  0.9118800E+02  0.7818608E-02  0.1130116E+00
         25   -1    0    0    0    0  0.00000000000E+00  0.00000000000E+00  0.99999998245E-14  0.12500000000E+03  0.12500000000E+03 0.  0.
        -11    1    3    3    0    0 -0.19443948357E+02 -0.46033762533E+01  0.54304602345E+02  0.57864047878E+02  0.51100000000E-03 0. -1.
         23    2    1    0    0    0 -0.23835066510E+02  0.11501713238E+01  0.17411762412E+02  0.95460149630E+02  0.90774651789E+02 0.  0.
         11    1    3    3    0    0 -0.43911181527E+01  0.57535475771E+01 -0.36892839933E+02  0.37596101752E+02  0.51100000000E-03 0.  1.
         22    1    1    0    0    0  0.23835066510E+02 -0.11501713238E+01 -0.17411762412E+02  0.29539850370E+02  0.00000000000E+00 0. -1.
</event>
<event>
 5    1  0.8752570E-005  0.9118800E+02  0.7818608E-02  0.1130116E+00
         25   -1    0    0    0    0  0.00000000000E+00  0.00000000000E+00  0.99999998245E-14  0.12500000000E+03  0.12500000000E+03 0.  0.
        -11    1    3    3    0    0  0.25919859217E+02 -0.41159662883E+02  0.61826297838E+01  0.49032457227E+02  0.51100000000E-03 0.  1.
         23    2    1    0    0    0  0.18327032117E+02 -0.29997136491E+01 -0.21354997720E+02  0.96699570395E+02  0.92465629283E+02 0.  0.
         11    1    3    3    0    0 -0.75928270991E+01  0.38159949234E+02 -0.27537627504E+02  0.47667113167E+02  0.51100000000E-03 0. -1.
         22    1    1    0    0    0 -0.18327032117E+02  0.29997136491E+01  0.21354997720E+02  0.28300429605E+02  0.00000000000E+00 0.  1.
</event>
<event>
 5    1  0.8752570E-005  0.9118800E+02  0.7818608E-02  0.1130116E+00
         25   -1    0    0    0    0  0.00000000000E+00  0.00000000000E+00  0.99999998245E-14  0.12500000000E+03  0.12500000000E+03 0.  0.
        -11    1    3    3    0    0 -0.45203358894E+02 -0.21589835548E+02  0.11219489645E+02  0.51335578330E+02  0.51100000000E-03 0. -1.
         23    2    1    0    0    0 -0.95380122044E+01 -0.22595852889E+02 -0.15566404309E+02  0.95950745488E+02  0.91447724805E+02 0.  0.
         11    1    3    3    0    0  0.35665346690E+02 -0.10060173417E+01 -0.26785893954E+02  0.44615167158E+02  0.51100000000E-03 0.  1.
         22    1    1    0    0    0  0.95380122044E+01  0.22595852889E+02  0.15566404309E+02  0.29049254512E+02  0.00000000000E+00 0. -1.
</event>
<event>
 5    1  0.8752570E-005  0.9118800E+02  0.7818608E-02  0.1130116E+00
         25   -1    0    0    0    0  0.00000000000E+00  0.00000000000E+00  0.99999998245E-14  0.12500000000E+03  0.12500000000E+03 0.  0.
        -11    1    3    3    0    0  0.29122233974E+02  0.26955867407E+02  0.34074670387E+02  0.52304937259E+02  0.51100000000E-03 0.  1.
         23    2    1    0    0    0 -0.70203085898E+01  0.35287013193E+01  0.28140851763E+02  0.95782813215E+02  0.91217889165E+02 0.  0.
         11    1    3    3    0    0 -0.36142542564E+02 -0.23427166088E+02 -0.59338186245E+01  0.43477875956E+02  0.51100000000E-03 0. -1.
         22    1    1    0    0    0  0.70203085898E+01 -0.35287013193E+01 -0.28140851763E+02  0.29217186785E+02  0.00000000000E+00 0.  1.
</event>
<event>
 5    1  0.8752570E-005  0.9118800E+02  0.7818608E-02  0.1130116E+00
         25   -1    0    0    0    0  0.00000000000E+00  0.00000000000E+00  0.99999998245E-14  0.12500000000E+03  0.12500000000E+03 0.  0.
        -11    1    3    3    0    0  0.29181099617E+02  0.33507410382E+02  0.28363951406E+02  0.52714294693E+02  0.51100000000E-03 0. -1.
         23    2    1    0    0    0  0.12846344570E+02  0.22797884721E+02 -0.10965692020E+02  0.96627151746E+02  0.92367677986E+02 0.  0.
         11    1    3    3    0    0 -0.16334755047E+02 -0.10709525661E+02 -0.39329643426E+02  0.43912857053E+02  0.51100000000E-03 0.  1.
         22    1    1    0    0    0 -0.12846344570E+02 -0.22797884721E+02  0.10965692020E+02  0.28372848254E+02  0.00000000000E+00 0. -1.
</event>
<event>
 5    1  0.8752570E-005  0.9118800E+02  0.7818608E-02  0.1130116E+00
         25   -1    0    0    0    0  0.00000000000E+00  0.00000000000E+00  0.99999998245E-14  0.12500000000E+03  0.12500000000E+03 0.  0.
        -11    1    3    3    0    0  0.17915997315E+02 -0.62004903944E+01  0.35315081773E+02  0.40082216029E+02  0.51100000000E-03 0. -1.
         23    2    1    0    0    0  0.22233704316E+02 -0.12862465257E+02 -0.17775465121E+02  0.93763038234E+02  0.88406784573E+02 0.  0.
         11    1    3    3    0    0  0.43177070012E+01 -0.66619748626E+01 -0.53090546894E+02  0.53680822205E+02  0.51100000000E-03 0.  1.
         22    1    1    0    0    0 -0.22233704316E+02  0.12862465257E+02  0.17775465121E+02  0.31236961766E+02  0.00000000000E+00 0.  1.
</event>
<event>
 5    1  0.8752570E-005  0.9118800E+02  0.7818608E-02  0.1130116E+00
         25   -1    0    0    0    0  0.00000000000E+00  0.00000000000E+00  0.99999998245E-14  0.12500000000E+03  0.12500000000E+03 0.  0.
        -11    1    3    3    0    0  0.35623196108E+01 -0.17856249250E+02  0.57532035715E+02  0.60344601184E+02  0.51100000000E-03 0.  1.
         23    2    1    0    0    0 -0.34038024358E+01  0.17016402207E+01  0.29647273184E+02  0.95109495526E+02  0.90290497182E+02 0.  0.
         11    1    3    3    0    0 -0.69661220466E+01  0.19557889471E+02 -0.27884762531E+02  0.34764894341E+02  0.51100000000E-03 0. -1.
         22    1    1    0    0    0  0.34038024358E+01 -0.17016402207E+01 -0.29647273184E+02  0.29890504474E+02  0.00000000000E+00 0.  1.
</event>
<event>
 5    1  0.8752570E-005  0.9118800E+02  0.7818608E-02  0.1130116E+00
         25   -1    0    0    0    0  0.00000000000E+00  0.00000000000E+00  0.99999998245E-14  0.12500000000E+03  0.12500000000E+03 0.  0.
        -11    1    3    3    0    0 -0.47261672894E+02 -0.16141174396E+02  0.35573405592E+02  0.61316151390E+02  0.51100000000E-03 0.  1.
         23    2    1    0    0    0 -0.25942465393E+02 -0.51942195294E+00  0.13504561217E+02  0.95748427675E+02  0.91170756927E+02 0.  0.
         11    1    3    3    0    0  0.21319207500E+02  0.15621752443E+02 -0.22068844375E+02  0.34432276285E+02  0.51100000000E-03 0. -1.
         22    1    1    0    0    0  0.25942465393E+02  0.51942195294E+00 -0.13504561217E+02  0.29251572325E+02  0.00000000000E+00 0.  1.
</event>
<event>
 5    1  0.8752570E-005  0.9118800E+02  0.7818608E-02  0.1130116E+00
         25   -1    0    0    0    0  0.00000000000E+00  0.00000000000E+00  0.99999998245E-14  0.12500000000E+03  0.12500000000E+03 0.  0.
        -11    1    3    3    0    0  0.11430072802E+02  0.90330568632E+01  0.43252313689E+02  0.45639953114E+02  0.51100000000E-03 0.  1.
         23    2    1    0    0    0 -0.10005246861E+02 -0.24300644857E+02  0.12003887291E+02  0.96108485410E+02  0.91663086095E+02 0.  0.
         11    1    3    3    0    0 -0.21435319663E+02 -0.33333701720E+02 -0.31248426399E+02  0.50468532296E+02  0.51100000000E-03 0. -1.
         22    1    1    0    0    0  0.10005246861E+02  0.24300644857E+02 -0.12003887291E+02  0.28891514590E+02  0.00000000000E+00 0. -1.
</event>
<event>
 5    1  0.8752570E-005  0.9118800E+02  0.7818608E-02  0.1130116E+00
         25   -1    0    0    0    0  0.00000000000E+00  0.00000000000E+00  0.99999998245E-14  0.12500000000E+03  0.12500000000E+03 0.  0.
        -11    1    3    3    0    0 -0.16010618527E+02  0.12397027064E+02 -0.28083784982E+02  0.34622610601E+02  0.51100000000E-03 0. -1.
         23    2    1    0    0    0  0.13436829846E+02 -0.29998279107E+02 -0.30586037353E+01  0.91987877946E+02  0.85860174043E+02 0.  0.
         11    1    3    3    0    0  0.29447448373E+02 -0.42395306171E+02  0.25025181246E+02  0.57365267346E+02  0.51100000000E-03 0.  1.
         22    1    1    0    0    0 -0.13436829846E+02  0.29998279107E+02  0.30586037353E+01  0.33012122054E+02  0.00000000000E+00 0.  1.
</event>
<event>
 5    1  0.8752570E-005  0.9118800E+02  0.7818608E-02  0.1130116E+00
         25   -1    0    0    0    0  0.00000000000E+00  0.00000000000E+00  0.99999998245E-14  0.12500000000E+03  0.12500000000E+03 0.  0.
        -11    1    3    3    0    0 -0.11405456445E+02 -0.50153018226E+02  0.18586435415E+02  0.54688803750E+02  0.51100000000E-03 0. -1.
         23    2    1    0    0    0 -0.20237953614E+01 -0.11145373812E+02  0.27034198032E+02  0.95688518149E+02  0.91088580718E+02 0.  0.
         11    1    3    3    0    0  0.93816610837E+01  0.39007644413E+02  0.84477626162E+01  0.40999714399E+02  0.51100000000E-03 0.  1.
         22    1    1    0    0    0  0.20237953614E+01  0.11145373812E+02 -0.27034198032E+02  0.29311481851E+02  0.00000000000E+00 0. -1.
</event>
<event>
 5    1  0.8752570E-005  0.9118800E+02  0.7818608E-02  0.1130116E+00
         25   -1    0    0    0    0  0.00000000000E+00  0.00000000000E+00  0.99999998245E-14  0.12500000000E+03  0.12500000000E+03 0.  0.
        -11    1    3    3    0    0 -0.35570830479E+01  0.46671375384E+02  0.16216998848E+02  0.49536463055E+02  0.51100000000E-03 0.  1.
         23    2    1    0    0    0  0.14019976730E+02  0.18751505527E+02 -0.16777624125E+02  0.96196052730E+02  0.91782423059E+02 0.  0.
         11    1    3    3    0    0  0.17577059778E+02 -0.27919869857E+02 -0.32994622973E+02  0.46659589675E+02  0.51100000000E-03 0. -1.
         22    1    1    0    0    0 -0.14019976730E+02 -0.18751505527E+02  0.16777624125E+02  0.28803947270E+02  0.00000000000E+00 0. -1.
</event>
<event>
 5    1  0.8752570E-005  0.9118800E+02  0.7818608E-02  0.1130116E+00
         25   -1    0    0    0    0  0.00000000000E+00  0.00000000000E+00  0.99999998245E-14  0.12500000000E+03  0.12500000000E+03 0.  0.
        -11    1    3    3    0    0  0.26510954212E+01 -0.14665657044E+02 -0.33609700644E+02  0.36765769149E+02  0.51100000000E-03 0. -1.
         23    2    1    0    0    0 -0.16975871980E+02  0.18663494603E+02  0.12412261286E+02  0.96882914615E+02  0.92713152540E+02 0.  0.
         11    1    3    3    0    0 -0.19626967402E+02  0.33329151647E+02  0.46021961930E+02  0.60117145466E+02  0.51100000000E-03 0.  1.
         22    1    1    0    0    0  0.16975871980E+02 -0.18663494603E+02 -0.12412261286E+02  0.28117085385E+02  0.00000000000E+00 0.  1.
</event>
<event>
 5    1  0.8752570E-005  0.9118800E+02  0.7818608E-02  0.1130116E+00
         25   -1    0    0    0    0  0.00000000000E+00  0.00000000000E+00  0.99999998245E-14  0.12500000000E+03  0.12500000000E+03 0.  0.
        -11    1    3    3    0    0  0.38447791611E+01 -0.42248863714E+02  0.17052638354E+02  0.45722437457E+02  0.51100000000E-03 0.  1.
         23    2    1    0    0    0 -0.29105057433E+02 -0.87075912174E+01  0.57317154322E+01  0.94084323155E+02  0.88859894152E+02 0.  0.
         11    1    3    3    0    0 -0.32949836594E+02  0.33541272496E+02 -0.11320922922E+02  0.48361885698E+02  0.51100000000E-03 0. -1.
         22    1    1    0    0    0  0.29105057433E+02  0.87075912174E+01 -0.57317154322E+01  0.30915676845E+02  0.00000000000E+00 0.  1.
</event>
<event>
 5    1  0.8752570E-005  0.9118800E+02  0.7818608E-02  0.1130116E+00
         25   -1    0    0    0    0  0.00000000000E+00  0.00000000000E+00  0.99999998245E-14  0.12500000000E+03  0.12500000000E+03 0.  0.
        -11    1    3    3    0    0  0.21073327191E+02 -0.16778536918E+01 -0.43273399983E+02  0.48161057487E+02  0.51100000000E-03 0. -1.
         23    2    1    0    0    0 -0.15892911642E+02  0.14374825140E+02 -0.23972445233E+02  0.92845709948E+02  0.87100100385E+02 0.  0.
         11    1    3    3    0    0 -0.36966238832E+02  0.16052678832E+02  0.19300954750E+02  0.44684652461E+02  0.51100000000E-03 0.  1.
         22    1    1    0    0    0  0.15892911642E+02 -0.14374825140E+02  0.23972445233E+02  0.32154290052E+02  0.00000000000E+00 0.  1.
</event>
<event>
 5    1  0.8752570E-005  0.9118800E+02  0.7818608E-02  0.1130116E+00
         25   -1    0    0    0    0  0.00000000000E+00  0.00000000000E+00  0.99999998245E-14  0.12500000000E+03  0.12500000000E+03 0.  0.
        -11    1    3    3    0    0  0.95419822982E+01 -0.40413424999E+02  0.73325997853E+01  0.42167064946E+02  0.51100000000E-03 0. -1.
         23    2    1    0    0    0  0.11678862041E+01 -0.10327072771E+01 -0.28735987770E+02  0.96221754125E+02  0.91817419541E+02 0.  0.
         11    1    3    3    0    0 -0.83740960941E+01  0.39380717722E+02 -0.36068587556E+02  0.54054689179E+02  0.51100000000E-03 0.  1.
         22    1    1    0    0    0 -0.11678862041E+01  0.10327072771E+01  0.28735987770E+02  0.28778245875E+02  0.00000000000E+00 0.  1.
</event>
<event>
 5    1  0.8752570E-005  0.9118800E+02  0.7818608E-02  0.1130116E+00
         25   -1    0    0    0    0  0.00000000000E+00  0.00000000000E+00  0.99999998245E-14  0.12500000000E+03  0.12500000000E+03 0.  0.
        -11    1    3    3    0    0 -0.21352865035E+02 -0.34711067968E+02 -0.42234000083E+02  0.58689980815E+02  0.51100000000E-03 0.  1.
         23    2    1    0    0    0 -0.41010214175E+01 -0.26043066738E+02 -0.89685690652E+01  0.97152290348E+02  0.93075628319E+02 0.  0.
         11    1    3    3    0    0  0.17251843617E+02  0.86680012300E+01  0.33265431018E+02  0.38462309533E+02  0.51100000000E-03 0. -1.
         22    1    1    0    0    0  0.41010214175E+01  0.26043066738E+02  0.89685690652E+01  0.27847709652E+02  0.00000000000E+00 0.  1.
</event>
<event>
 5    1  0.8752570E-005  0.9118800E+02  0.7818608E-02  0.1130116E+00
         25   -1    0    0    0    0  0.00000000000E+00  0.00000000000E+00  0.99999998245E-14  0.12500000000E+03  0.12500000000E+03 0.  0.
        -11    1    3    3    0    0 -0.34338736612E+02  0.15435517592E+02  0.23235281093E+02  0.44241183565E+02  0.51100000000E-03 0. -1.
         23    2    1    0    0    0  0.10933886720E+02  0.26006809588E+02 -0.12012394757E+01  0.96762666556E+02  0.92550886755E+02 0.  0.
         11    1    3    3    0    0  0.45272623332E+02  0.10571291996E+02 -0.24436520569E+02  0.52521482992E+02  0.51100000000E-03 0.  1.
         22    1    1    0    0    0 -0.10933886720E+02 -0.26006809588E+02  0.12012394757E+01  0.28237333444E+02  0.00000000000E+00 0.  1.
</event>
<event>
 5    1  0.8752570E-005  0.9118800E+02  0.7818608E-02  0.1130116E+00
         25   -1    0    0    0    0  0.00000000000E+00  0.00000000000E+00  0.99999998245E-14  0.12500000000E+03  0.12500000000E+03 0.  0.
        -11    1    3    3    0    0  0.13822341977E+02 -0.28939239276E+02  0.10988917696E+02  0.33901224461E+02  0.51100000000E-03 0. -1.
         23    2    1    0    0    0 -0.96855495811E+00  0.27350371585E+02 -0.10134329451E+02  0.95816347762E+02  0.91263831502E+02 0.  0.
         11    1    3    3    0    0 -0.14790896935E+02  0.56289610861E+02 -0.21123247147E+02  0.61915123300E+02  0.51100000000E-03 0.  1.
         22    1    1    0    0    0  0.96855495811E+00 -0.27350371585E+02  0.10134329451E+02  0.29183652238E+02  0.00000000000E+00 0.  1.
</event>
<event>
 5    1  0.8752570E-005  0.9118800E+02  0.7818608E-02  0.1130116E+00
         25   -1    0    0    0    0  0.00000000000E+00  0.00000000000E+00  0.99999998245E-14  0.12500000000E+03  0.12500000000E+03 0.  0.
        -11    1    3    3    0    0  0.57063507685E+01 -0.98024337033E+01 -0.35851510212E+02  0.37602937788E+02  0.51100000000E-03 0.  1.
         23    2    1    0    0    0 -0.22108657693E+02  0.95811745100E+01  0.13425942592E+02  0.97416534220E+02  0.93429832254E+02 0.  0.
         11    1    3    3    0    0 -0.27815008461E+02  0.19383608213E+02  0.49277452803E+02  0.59813596432E+02  0.51100000000E-03 0. -1.
         22    1    1    0    0    0  0.22108657693E+02 -0.95811745100E+01 -0.13425942592E+02  0.27583465780E+02  0.00000000000E+00 0. -1.
</event>
<event>
 5    1  0.8752570E-005  0.9118800E+02  0.7818608E-02  0.1130116E+00
         25   -1    0    0    0    0  0.00000000000E+00  0.00000000000E+00  0.99999998245E-14  0.12500000000E+03  0.12500000000E+03 0.  0.
        -11    1    3    3    0    0  0.30860087729E+02 -0.62704249829E+01 -0.84210118654E+01  0.32597188303E+02  0.51100000000E-03 0.  1.
         23    2    1    0    0    0 -0.30329770541E+02  0.87661558589E+00 -0.10862196225E+01  0.94638127379E+02  0.89635550118E+02 0.  0.
         11    1    3    3    0    0 -0.61189858270E+02  0.71470405688E+01  0.73347922428E+01  0.62040939077E+02  0.51100000000E-03 0. -1.
         22    1    1    0    0    0  0.30329770541E+02 -0.87661558589E+00  0.10862196225E+01  0.30361872621E+02  0.00000000000E+00 0. -1.
</event>
<event>
 5    1  0.8752570E-005  0.9118800E+02  0.7818608E-02  0.1130116E+00
         25   -1    0    0    0    0  0.00000000000E+00  0.00000000000E+00  0.99999998245E-14  0.12500000000E+03  0.12500000000E+03 0.  0.
        -11    1    3    3    0    0  0.80347312040E-02  0.32903743996E+01 -0.38719895539E+02  0.38859451090E+02  0.51100000000E-03 0.  1.
         23    2    1    0    0    0 -0.11459985350E+02  0.23094853368E+02  0.13517106819E+02  0.95889594763E+02  0.91364099573E+02 0.  0.
         11    1    3    3    0    0 -0.11468020082E+02  0.19804478968E+02  0.52237002357E+02  0.57030143673E+02  0.51100000000E-03 0. -1.
         22    1    1    0    0    0  0.11459985350E+02 -0.23094853368E+02 -0.13517106819E+02  0.29110405237E+02  0.00000000000E+00 0.  1.
</event>
<event>
 5    1  0.8752570E-005  0.9118800E+02  0.7818608E-02  0.1130116E+00
         25   -1    0    0    0    0  0.00000000000E+00  0.00000000000E+00  0.99999998245E-14  0.12500000000E+03  0.12500000000E+03 0.  0.
        -11    1    3    3    0    0 -0.36212983609E+02  0.46461373272E+02  0.97691369859E+01  0.59711602104E+02  0.51100000000E-03 0.  1.
         23    2    1    0    0    0 -0.52109739255E+01  0.22340496948E+02  0.12106240801E+02  0.99061358565E+02  0.95605123510E+02 0.  0.
         11    1    3    3    0    0  0.31002009683E+02 -0.24120876324E+02  0.23371038150E+01  0.39349756461E+02  0.51100000000E-03 0. -1.
         22    1    1    0    0    0  0.52109739255E+01 -0.22340496948E+02 -0.12106240801E+02  0.25938641435E+02  0.00000000000E+00 0.  1.
</event>
<event>
 5    1  0.8752570E-005  0.9118800E+02  0.7818608E-02  0.1130116E+00
         25   -1    0    0    0    0  0.00000000000E+00  0.00000000000E+00  0.99999998245E-14  0.12500000000E+03  0.12500000000E+03 0.  0.
        -11    1    3    3    0    0  0.56215657259E+02 -0.44738979140E+01 -0.62655296211E+01  0.56740397824E+02  0.51100000000E-03 0.  1.
         23    2    1    0    0    0  0.24095663633E+02  0.14129876028E+02 -0.12532451639E+02  0.94384370878E+02  0.89280976246E+02 0.  0.
         11    1    3    3    0    0 -0.32119993626E+02  0.18603773942E+02 -0.62669220175E+01  0.37643973053E+02  0.51100000000E-03 0. -1.
         22    1    1    0    0    0 -0.24095663633E+02 -0.14129876028E+02  0.12532451639E+02  0.30615629122E+02  0.00000000000E+00 0.  1.
</event>
<event>
 5    1  0.8752570E-005  0.9118800E+02  0.7818608E-02  0.1130116E+00
         25   -1    0    0    0    0  0.00000000000E+00  0.00000000000E+00  0.99999998245E-14  0.12500000000E+03  0.12500000000E+03 0.  0.
        -11    1    3    3    0    0 -0.39711960994E+02 -0.14501971745E+02 -0.33879930832E+01  0.42412563326E+02  0.51100000000E-03 0. -1.
         23    2    1    0    0    0  0.63072098277E+01  0.15831171552E+02 -0.18782417978E+02  0.99638885797E+02  0.96357259452E+02 0.  0.
         11    1    3    3    0    0  0.46019170822E+02  0.30333143297E+02 -0.15394424895E+02  0.57226322471E+02  0.51100000000E-03 0.  1.
         22    1    1    0    0    0 -0.63072098277E+01 -0.15831171552E+02  0.18782417978E+02  0.25361114203E+02  0.00000000000E+00 0.  1.
</event>
<event>
 5    1  0.8752570E-005  0.9118800E+02  0.7818608E-02  0.1130116E+00
         25   -1    0    0    0    0  0.00000000000E+00  0.00000000000E+00  0.99999998245E-14  0.12500000000E+03  0.12500000000E+03 0.  0.
        -11    1    3    3    0    0 -0.30291758412E+02  0.18968688273E+02 -0.12921435246E+02  0.38004805638E+02  0.51100000000E-03 0.  1.
         23    2    1    0    0    0  0.23572505517E+02  0.19368625667E+02  0.34324512168E+01  0.94298397469E+02  0.89160525836E+02 0.  0.
         11    1    3    3    0    0  0.53864263930E+02  0.39993739415E+00  0.16353886463E+02  0.56293591832E+02  0.51100000000E-03 0. -1.
         22    1    1    0    0    0 -0.23572505517E+02 -0.19368625667E+02 -0.34324512168E+01  0.30701602531E+02  0.00000000000E+00 0. -1.
</event>
<event>
 5    1  0.8752570E-005  0.9118800E+02  0.7818608E-02  0.1130116E+00
         25   -1    0    0    0    0  0.00000000000E+00  0.00000000000E+00  0.99999998245E-14  0.12500000000E+03  0.12500000000E+03 0.  0.
        -11    1    3    3    0    0  0.27505662600E+02 -0.20321949146E+02 -0.35874338398E+02  0.49563204577E+02  0.51100000000E-03 0.  1.
         23    2    1    0    0    0  0.18502834372E+02 -0.19374280255E+02  0.10061599308E+02  0.96382638209E+02  0.92036186103E+02 0.  0.
         11    1    3    3    0    0 -0.90028282277E+01  0.94766889125E+00  0.45935937706E+02  0.46819433632E+02  0.51100000000E-03 0. -1.
         22    1    1    0    0    0 -0.18502834372E+02  0.19374280255E+02 -0.10061599308E+02  0.28617361791E+02  0.00000000000E+00 0.  1.
</event>
<event>
 5    1  0.8752570E-005  0.9118800E+02  0.7818608E-02  0.1130116E+00
         25   -1    0    0    0    0  0.00000000000E+00  0.00000000000E+00  0.99999998245E-14  0.12500000000E+03  0.12500000000E+03 0.  0.
        -11    1    3    3    0    0 -0.26211891475E+02  0.24060746141E+02 -0.25745944645E+01  0.35673677921E+02  0.51100000000E-03 0.  1.
         23    2    1    0    0    0  0.10414563160E+02 -0.20383242871E+02  0.16986024770E+02  0.96496232648E+02  0.92190336598E+02 0.  0.
         11    1    3    3    0    0  0.36626454635E+02 -0.44443989012E+02  0.19560619234E+02  0.60822554727E+02  0.51100000000E-03 0. -1.
         22    1    1    0    0    0 -0.10414563160E+02  0.20383242871E+02 -0.16986024770E+02  0.28503767352E+02  0.00000000000E+00 0. -1.
</event>
<event>
 5    1  0.8752570E-005  0.9118800E+02  0.7818608E-02  0.1130116E+00
         25   -1    0    0    0    0  0.00000000000E+00  0.00000000000E+00  0.99999998245E-14  0.12500000000E+03  0.12500000000E+03 0.  0.
        -11    1    3    3    0    0  0.21878539405E+02  0.19534949184E+02 -0.16869166489E+02  0.33835683892E+02  0.51100000000E-03 0. -1.
         23    2    1    0    0    0 -0.16362620144E+02 -0.22430405047E+02  0.84172940451E+01  0.95987774170E+02  0.91498325354E+02 0.  0.
         11    1    3    3    0    0 -0.38241159550E+02 -0.41965354231E+02  0.25286460534E+02  0.62152090279E+02  0.51100000000E-03 0.  1.
         22    1    1    0    0    0  0.16362620144E+02  0.22430405047E+02 -0.84172940451E+01  0.29012225830E+02  0.00000000000E+00 0.  1.
</event>
<event>
 5    1  0.8752570E-005  0.9118800E+02  0.7818608E-02  0.1130116E+00
         25   -1    0    0    0    0  0.00000000000E+00  0.00000000000E+00  0.99999998245E-14  0.12500000000E+03  0.12500000000E+03 0.  0.
        -11    1    3    3    0    0 -0.22186492794E+02 -0.38770250788E+02  0.33163667544E+02  0.55634536521E+02  0.51100000000E-03 0.  1.
         23    2    1    0    0    0  0.45733391788E+01 -0.28786015717E+02  0.56150469771E+01  0.95317027024E+02  0.90577352335E+02 0.  0.
         11    1    3    3    0    0  0.26759831973E+02  0.99842350709E+01 -0.27548620567E+02  0.39682490503E+02  0.51100000000E-03 0. -1.
         22    1    1    0    0    0 -0.45733391788E+01  0.28786015717E+02 -0.56150469771E+01  0.29682972976E+02  0.00000000000E+00 0.  1.
</event>
<event>
 5    1  0.8752570E-005  0.9118800E+02  0.7818608E-02  0.1130116E+00
         25   -1    0    0    0    0  0.00000000000E+00  0.00000000000E+00  0.99999998245E-14  0.12500000000E+03  0.12500000000E+03 0.  0.
        -11    1    3    3    0    0 -0.30009924069E+02  0.25817614388E+02  0.16403514434E+02  0.42851138157E+02  0.51100000000E-03 0. -1.
         23    2    1    0    0    0 -0.16531398302E+02 -0.23031914382E+02 -0.15361982087E+01  0.96607815955E+02  0.92341507399E+02 0.  0.
         11    1    3    3    0    0  0.13478525767E+02 -0.48849528770E+02 -0.17939712643E+02  0.53756677798E+02  0.51100000000E-03 0.  1.
         22    1    1    0    0    0  0.16531398302E+02  0.23031914382E+02  0.15361982087E+01  0.28392184045E+02  0.00000000000E+00 0.  1.
</event>
<event>
 5    1  0.8752570E-005  0.9118800E+02  0.7818608E-02  0.1130116E+00
         25   -1    0    0    0    0  0.00000000000E+00  0.00000000000E+00  0.99999998245E-14  0.12500000000E+03  0.12500000000E+03 0.  0.
        -11    1    3    3    0    0  0.37333600275E+02  0.17345000214E+02  0.23191165880E+01  0.41231359958E+02  0.51100000000E-03 0.  1.
         23    2    1    0    0    0 -0.16172135443E+02  0.24662035464E+02  0.38587755664E+01  0.95257032648E+02  0.90494520067E+02 0.  0.
         11    1    3    3    0    0 -0.53505735719E+02  0.73170352495E+01  0.15396589784E+01  0.54025672691E+02  0.51100000000E-03 0. -1.
         22    1    1    0    0    0  0.16172135443E+02 -0.24662035464E+02 -0.38587755664E+01  0.29742967352E+02  0.00000000000E+00 0. -1.
</event>
<event>
 5    1  0.8752570E-005  0.9118800E+02  0.7818608E-02  0.1130116E+00
         25   -1    0    0    0    0  0.00000000000E+00  0.00000000000E+00  0.99999998245E-14  0.12500000000E+03  0.12500000000E+03 0.  0.
        -11    1    3    3    0    0 -0.45303479551E+02  0.34121298877E+02 -0.30285816036E+01  0.56796484075E+02  0.51100000000E-03 0.  1.
         23    2    1    0    0    0 -0.11499739229E+02  0.17073143263E+02 -0.18142510363E+02  0.97561215306E+02  0.93623201326E+02 0.  0.
         11    1    3    3    0    0  0.33803740322E+02 -0.17048155614E+02 -0.15113928759E+02  0.40764731232E+02  0.51100000000E-03 0. -1.
         22    1    1    0    0    0  0.11499739229E+02 -0.17073143263E+02  0.18142510363E+02  0.27438784694E+02  0.00000000000E+00 0.  1.
</event>
<event>
 5    1  0.8752570E-005  0.9118800E+02  0.7818608E-02  0.1130116E+00
         25   -1    0    0    0    0  0.00000000000E+00  0.00000000000E+00  0.99999998245E-14  0.12500000000E+03  0.12500000000E+03 0.  0.
        -11    1    3    3    0    0 -0.11298479418E+02 -0.24968753485E+01  0.56600958161E+02  0.57771606250E+02  0.51100000000E-03 0.  1.
         23    2    1    0    0    0  0.11925521289E+02 -0.46146855686E+01  0.23222384473E+02  0.98489765721E+02  0.94854844000E+02 0.  0.
         11    1    3    3    0    0  0.23224000707E+02 -0.21178102201E+01 -0.33378573688E+02  0.40718159471E+02  0.51100000000E-03 0. -1.
         22    1    1    0    0    0 -0.11925521289E+02  0.46146855686E+01 -0.23222384473E+02  0.26510234279E+02  0.00000000000E+00 0.  1.
</event>
<event>
 5    1  0.8752570E-005  0.9118800E+02  0.7818608E-02  0.1130116E+00
         25   -1    0    0    0    0  0.00000000000E+00  0.00000000000E+00  0.99999998245E-14  0.12500000000E+03  0.12500000000E+03 0.  0.
        -11    1    3    3    0    0  0.44847819139E+02 -0.26820334577E+01 -0.94931971280E+01  0.45919940951E+02  0.51100000000E-03 0.  1.
         23    2    1    0    0    0 -0.57570660537E+01  0.86691662721E+01 -0.23208439316E+02  0.99565183137E+02  0.96261600777E+02 0.  0.
         11    1    3    3    0    0 -0.50604885192E+02  0.11351199730E+02 -0.13715242188E+02  0.53645242186E+02  0.51100000000E-03 0. -1.
         22    1    1    0    0    0  0.57570660537E+01 -0.86691662721E+01  0.23208439316E+02  0.25434816863E+02  0.00000000000E+00 0. -1.
</event>
<event>
 5    1  0.8752570E-005  0.9118800E+02  0.7818608E-02  0.1130116E+00
         25   -1    0    0    0    0  0.00000000000E+00  0.00000000000E+00  0.99999998245E-14  0.12500000000E+03  0.12500000000E+03 0.  0.
        -11    1    3    3    0    0 -0.24536820300E+02 -0.30034670897E+02  0.25261873782E+01  0.38865391151E+02  0.51100000000E-03 0. -1.
         23    2    1    0    0    0  0.17317123932E+02  0.80818578837E+00 -0.22524595322E+02  0.96576535399E+02  0.92299154112E+02 0.  0.
         11    1    3    3    0    0  0.41853944232E+02  0.30842856686E+02 -0.25050782700E+02  0.57711144248E+02  0.51100000000E-03 0.  1.
         22    1    1    0    0    0 -0.17317123932E+02 -0.80818578837E+00  0.22524595322E+02  0.28423464601E+02  0.00000000000E+00 0.  1.
</event>
<event>
 5    1  0.8752570E-005  0.9118800E+02  0.7818608E-02  0.1130116E+00
         25   -1    0    0    0    0  0.00000000000E+00  0.00000000000E+00  0.99999998245E-14  0.12500000000E+03  0.12500000000E+03 0.  0.
        -11    1    3    3    0    0  0.22442602142E+02 -0.17525968061E+02  0.52184302023E+02  0.59447719261E+02  0.51100000000E-03 0.  1.
         23    2    1    0    0    0 -0.28229973262E+01 -0.62805942173E+01  0.27935591382E+02  0.96228270064E+02  0.91826289896E+02 0.  0.
         11    1    3    3    0    0 -0.25265599468E+02  0.11245373844E+02 -0.24248710641E+02  0.36780550803E+02  0.51100000000E-03 0. -1.
         22    1    1    0    0    0  0.28229973262E+01  0.62805942173E+01 -0.27935591382E+02  0.28771729936E+02  0.00000000000E+00 0.  1.
</event>
<event>
 5    1  0.8752570E-005  0.9118800E+02  0.7818608E-02  0.1130116E+00
         25   -1    0    0    0    0  0.00000000000E+00  0.00000000000E+00  0.99999998245E-14  0.12500000000E+03  0.12500000000E+03 0.  0.
        -11    1    3    3    0    0 -0.20220695648E+02 -0.23476991126E+02  0.25973129925E+02  0.40430794244E+02  0.51100000000E-03 0. -1.
         23    2    1    0    0    0 -0.16244976449E+02  0.25068449516E+02  0.11339852451E+01  0.95106650514E+02  0.90286558404E+02 0.  0.
         11    1    3    3    0    0  0.39757191989E+01  0.48545440641E+02 -0.24839144680E+02  0.54675856270E+02  0.51100000000E-03 0.  1.
         22    1    1    0    0    0  0.16244976449E+02 -0.25068449516E+02 -0.11339852451E+01  0.29893349486E+02  0.00000000000E+00 0.  1.
</event>
<event>
 5    1  0.8752570E-005  0.9118800E+02  0.7818608E-02  0.1130116E+00
         25   -1    0    0    0    0  0.00000000000E+00  0.00000000000E+00  0.99999998245E-14  0.12500000000E+03  0.12500000000E+03 0.  0.
        -11    1    3    3    0    0  0.27834690452E+00  0.21617295071E+02  0.36660333757E+02  0.42560133865E+02  0.51100000000E-03 0.  1.
         23    2    1    0    0    0 -0.34541882667E+01  0.25353591627E+02 -0.15563767407E+02  0.95050594649E+02  0.90208916756E+02 0.  0.
         11    1    3    3    0    0 -0.37325351712E+01  0.37362965563E+01 -0.52224101163E+02  0.52490460784E+02  0.51100000000E-03 0. -1.
         22    1    1    0    0    0  0.34541882667E+01 -0.25353591627E+02  0.15563767407E+02  0.29949405351E+02  0.00000000000E+00 0. -1.
</event>
<event>
 5    1  0.8752570E-005  0.9118800E+02  0.7818608E-02  0.1130116E+00
         25   -1    0    0    0    0  0.00000000000E+00  0.00000000000E+00  0.99999998245E-14  0.12500000000E+03  0.12500000000E+03 0.  0.
        -11    1    3    3    0    0  0.10492889348E+02  0.58552101140E+02  0.10361038611E+02  0.60380463696E+02  0.51100000000E-03 0.  1.
         23    2    1    0    0    0 -0.44473108622E+01  0.33160448989E+02  0.20739349455E+00  0.91542011968E+02  0.85208585201E+02 0.  0.
         11    1    3    3    0    0 -0.14940200210E+02 -0.25391652151E+02 -0.10153645117E+02  0.31161548272E+02  0.51100000000E-03 0. -1.
         22    1    1    0    0    0  0.44473108622E+01 -0.33160448989E+02 -0.20739349455E+00  0.33457988032E+02  0.00000000000E+00 0.  1.
</event>
<event>
 5    1  0.8752570E-005  0.9118800E+02  0.7818608E-02  0.1130116E+00
         25   -1    0    0    0    0  0.00000000000E+00  0.00000000000E+00  0.99999998245E-14  0.12500000000E+03  0.12500000000E+03 0.  0.
        -11    1    3    3    0    0  0.15458683579E+02  0.35785377983E+02 -0.20133032491E+01  0.39033544107E+02  0.51100000000E-03 0.  1.
         23    2    1    0    0    0  0.16701895279E+02 -0.19596647975E+02  0.12613493646E+02  0.96328025187E+02  0.91961982888E+02 0.  0.
         11    1    3    3    0    0  0.12432116996E+01 -0.55382025957E+02  0.14626796895E+02  0.57294481079E+02  0.51100000000E-03 0. -1.
         22    1    1    0    0    0 -0.16701895279E+02  0.19596647975E+02 -0.12613493646E+02  0.28671974813E+02  0.00000000000E+00 0. -1.
</event>
<event>
 5    1  0.8752570E-005  0.9118800E+02  0.7818608E-02  0.1130116E+00
         25   -1    0    0    0    0  0.00000000000E+00  0.00000000000E+00  0.99999998245E-14  0.12500000000E+03  0.12500000000E+03 0.  0.
        -11    1    3    3    0    0  0.19390178746E+02 -0.27002952420E+02 -0.46573176809E+02  0.57220619269E+02  0.51100000000E-03 0.  1.
         23    2    1    0    0    0  0.23417427449E+02 -0.14737996417E+02 -0.10720506075E+02  0.95326548950E+02  0.90590491982E+02 0.  0.
         11    1    3    3    0    0  0.40272487023E+01  0.12264956004E+02  0.35852670734E+02  0.38105929681E+02  0.51100000000E-03 0. -1.
         22    1    1    0    0    0 -0.23417427449E+02  0.14737996417E+02  0.10720506075E+02  0.29673451050E+02  0.00000000000E+00 0.  1.
</event>
<event>
 5    1  0.8752570E-005  0.9118800E+02  0.7818608E-02  0.1130116E+00
         25   -1    0    0    0    0  0.00000000000E+00  0.00000000000E+00  0.99999998245E-14  0.12500000000E+03  0.12500000000E+03 0.  0.
        -11    1    3    3    0    0  0.35574925281E+02 -0.33387645590E+02  0.18628871164E+02  0.52223989008E+02  0.51100000000E-03 0. -1.
         23    2    1    0    0    0  0.16740824579E+02  0.55870574446E+01  0.23309307291E+02  0.95763135858E+02  0.91190920406E+02 0.  0.
         11    1    3    3    0    0 -0.18834100702E+02  0.38974703034E+02  0.46804361272E+01  0.43539146850E+02  0.51100000000E-03 0.  1.
         22    1    1    0    0    0 -0.16740824579E+02 -0.55870574446E+01 -0.23309307291E+02  0.29236864142E+02  0.00000000000E+00 0. -1.
</event>
<event>
 5    1  0.8752570E-005  0.9118800E+02  0.7818608E-02  0.1130116E+00
         25   -1    0    0    0    0  0.00000000000E+00  0.00000000000E+00  0.99999998245E-14  0.12500000000E+03  0.12500000000E+03 0.  0.
        -11    1    3    3    0    0 -0.30336638067E+02 -0.42866372223E+02 -0.51979347033E+01  0.52771734880E+02  0.51100000000E-03 0.  1.
         23    2    1    0    0    0 -0.13605385172E+02 -0.15014832984E+02  0.21961792658E+02  0.95119035290E+02  0.90303703261E+02 0.  0.
         11    1    3    3    0    0  0.16731252896E+02  0.27851539239E+02  0.27159727362E+02  0.42347300411E+02  0.51100000000E-03 0. -1.
         22    1    1    0    0    0  0.13605385172E+02  0.15014832984E+02 -0.21961792658E+02  0.29880964710E+02  0.00000000000E+00 0.  1.
</event>
<event>
 5    1  0.8752570E-005  0.9118800E+02  0.7818608E-02  0.1130116E+00
         25   -1    0    0    0    0  0.00000000000E+00  0.00000000000E+00  0.99999998245E-14  0.12500000000E+03  0.12500000000E+03 0.  0.
        -11    1    3    3    0    0  0.22059596237E+02  0.23160122569E+02 -0.13255708128E+02  0.34622692873E+02  0.51100000000E-03 0. -1.
         23    2    1    0    0    0 -0.26726873156E+02 -0.11942535413E+02 -0.53186130169E+01  0.95247058209E+02  0.90480741333E+02 0.  0.
         11    1    3    3    0    0 -0.48786469393E+02 -0.35102657982E+02  0.79370951113E+01  0.60624365336E+02  0.51100000000E-03 0.  1.
         22    1    1    0    0    0  0.26726873156E+02  0.11942535413E+02  0.53186130169E+01  0.29752941791E+02  0.00000000000E+00 0.  1.
</event>
<event>
 5    1  0.8752570E-005  0.9118800E+02  0.7818608E-02  0.1130116E+00
         25   -1    0    0    0    0  0.00000000000E+00  0.00000000000E+00  0.99999998245E-14  0.12500000000E+03  0.12500000000E+03 0.  0.
        -11    1    3    3    0    0  0.20253317243E+02 -0.34238428190E+02  0.10315795487E+02  0.41096015148E+02  0.51100000000E-03 0.  1.
         23    2    1    0    0    0  0.19677280742E+02  0.20491780778E+02  0.57056107235E+01  0.96023070373E+02  0.91546532393E+02 0.  0.
         11    1    3    3    0    0 -0.57603650038E+00  0.54730208969E+02 -0.46101847636E+01  0.54927055224E+02  0.51100000000E-03 0. -1.
         22    1    1    0    0    0 -0.19677280742E+02 -0.20491780778E+02 -0.57056107235E+01  0.28976929627E+02  0.00000000000E+00 0. -1.
</event>
<event>
 5    1  0.8752570E-005  0.9118800E+02  0.7818608E-02  0.1130116E+00
         25   -1    0    0    0    0  0.00000000000E+00  0.00000000000E+00  0.99999998245E-14  0.12500000000E+03  0.12500000000E+03 0.  0.
        -11    1    3    3    0    0  0.22253952560E+02  0.41409768218E+02  0.40661817597E+02  0.62156180054E+02  0.51100000000E-03 0. -1.
         23    2    1    0    0    0  0.12900420615E+02  0.16069226756E+02  0.14164437493E+02  0.99994556791E+02  0.96817556248E+02 0.  0.
         11    1    3    3    0    0 -0.93535319450E+01 -0.25340541462E+02 -0.26497380104E+02  0.37838376737E+02  0.51100000000E-03 0.  1.
         22    1    1    0    0    0 -0.12900420615E+02 -0.16069226756E+02 -0.14164437493E+02  0.25005443209E+02  0.00000000000E+00 0. -1.
</event>
<event>
 5    1  0.8752570E-005  0.9118800E+02  0.7818608E-02  0.1130116E+00
         25   -1    0    0    0    0  0.00000000000E+00  0.00000000000E+00  0.99999998245E-14  0.12500000000E+03  0.12500000000E+03 0.  0.
        -11    1    3    3    0    0  0.18276454188E+02 -0.37559973267E+02 -0.12648637821E+02  0.43643652557E+02  0.51100000000E-03 0.  1.
         23    2    1    0    0    0  0.10237442955E+02 -0.16923780897E+02  0.28462002576E+02  0.90340150192E+02  0.83426839494E+02 0.  0.
         11    1    3    3    0    0 -0.80390112338E+01  0.20636192371E+02  0.41110640397E+02  0.46696497634E+02  0.51100000000E-03 0. -1.
         22    1    1    0    0    0 -0.10237442955E+02  0.16923780897E+02 -0.28462002576E+02  0.34659849808E+02  0.00000000000E+00 0. -1.
</event>
<event>
 5    1  0.8752570E-005  0.9118800E+02  0.7818608E-02  0.1130116E+00
         25   -1    0    0    0    0  0.00000000000E+00  0.00000000000E+00  0.99999998245E-14  0.12500000000E+03  0.12500000000E+03 0.  0.
        -11    1    3    3    0    0 -0.35146461166E+02 -0.51603216723E+02  0.26541330344E+01  0.62491680495E+02  0.51100000000E-03 0. -1.
         23    2    1    0    0    0 -0.15741815848E+02 -0.24333678469E+02  0.10197577595E+01  0.96000472764E+02  0.91515671833E+02 0.  0.
         11    1    3    3    0    0  0.19404645318E+02  0.27269538254E+02 -0.16343752749E+01  0.33508792269E+02  0.51100000000E-03 0.  1.
         22    1    1    0    0    0  0.15741815848E+02  0.24333678469E+02 -0.10197577595E+01  0.28999527236E+02  0.00000000000E+00 0. -1.
</event>
<event>
 5    1  0.8752570E-005  0.9118800E+02  0.7818608E-02  0.1130116E+00
         25   -1    0    0    0    0  0.00000000000E+00  0.00000000000E+00  0.99999998245E-14  0.12500000000E+03  0.12500000000E+03 0.  0.
        -11    1    3    3    0    0  0.25735608829E+02 -0.14689447077E+02  0.33999855518E+02  0.45100904567E+02  0.51100000000E-03 0. -1.
         23    2    1    0    0    0 -0.13619459316E+02  0.16095355176E+02  0.17119943153E+02  0.97840423717E+02  0.93995244184E+02 0.  0.
         11    1    3    3    0    0 -0.39355068145E+02  0.30784802253E+02 -0.16879912365E+02  0.52739519150E+02  0.51100000000E-03 0.  1.
         22    1    1    0    0    0  0.13619459316E+02 -0.16095355176E+02 -0.17119943153E+02  0.27159576283E+02  0.00000000000E+00 0.  1.
</event>
<event>
 5    1  0.8752570E-005  0.9118800E+02  0.7818608E-02  0.1130116E+00
         25   -1    0    0    0    0  0.00000000000E+00  0.00000000000E+00  0.99999998245E-14  0.12500000000E+03  0.12500000000E+03 0.  0.
        -11    1    3    3    0    0 -0.30834208800E+02  0.13664716230E+02 -0.78670937716E+01  0.34631836027E+02  0.51100000000E-03 0.  1.
         23    2    1    0    0    0  0.98131165627E+01 -0.28683414559E+02 -0.91139323531E+01  0.93344048105E+02  0.87812368299E+02 0.  0.
         11    1    3    3    0    0  0.40647325362E+02 -0.42348130789E+02 -0.12468385815E+01  0.58712212078E+02  0.51100000000E-03 0. -1.
         22    1    1    0    0    0 -0.98131165627E+01  0.28683414559E+02  0.91139323531E+01  0.31655951895E+02  0.00000000000E+00 0. -1.
</event>
<event>
 5    1  0.8752570E-005  0.9118800E+02  0.7818608E-02  0.1130116E+00
         25   -1    0    0    0    0  0.00000000000E+00  0.00000000000E+00  0.99999998245E-14  0.12500000000E+03  0.12500000000E+03 0.  0.
        -11    1    3    3    0    0 -0.89173397009E+01  0.26312652326E+02 -0.47238071293E+02  0.54802463444E+02  0.51100000000E-03 0.  1.
         23    2    1    0    0    0 -0.22996933639E+02  0.14819748476E+01 -0.25098745670E+02  0.90926517048E+02  0.84300825987E+02 0.  0.
         11    1    3    3    0    0 -0.14079593938E+02 -0.24830677479E+02  0.22139325623E+02  0.36124053604E+02  0.51100000000E-03 0. -1.
         22    1    1    0    0    0  0.22996933639E+02 -0.14819748476E+01  0.25098745670E+02  0.34073482952E+02  0.00000000000E+00 0.  1.
</event>
<event>
 5    1  0.8752570E-005  0.9118800E+02  0.7818608E-02  0.1130116E+00
         25   -1    0    0    0    0  0.00000000000E+00  0.00000000000E+00  0.99999998245E-14  0.12500000000E+03  0.12500000000E+03 0.  0.
        -11    1    3    3    0    0 -0.52471267503E+02 -0.28909909241E+02  0.42514330881E+01  0.60059066337E+02  0.51100000000E-03 0. -1.
         23    2    1    0    0    0 -0.22527800008E+02 -0.15932144259E+02 -0.99750270894E+01  0.95659990468E+02  0.91049424035E+02 0.  0.
         11    1    3    3    0    0  0.29943467495E+02  0.12977764982E+02 -0.14226460177E+02  0.35600924131E+02  0.51100000000E-03 0.  1.
         22    1    1    0    0    0  0.22527800008E+02  0.15932144259E+02  0.99750270894E+01  0.29340009532E+02  0.00000000000E+00 0. -1.
</event>
<event>
 5    1  0.8752570E-005  0.9118800E+02  0.7818608E-02  0.1130116E+00
         25   -1    0    0    0    0  0.00000000000E+00  0.00000000000E+00  0.99999998245E-14  0.12500000000E+03  0.12500000000E+03 0.  0.
        -11    1    3    3    0    0  0.34312251938E+02  0.24484434561E+02 -0.98142142233E-01  0.42152435291E+02  0.51100000000E-03 0.  1.
         23    2    1    0    0    0 -0.13555241679E+02  0.10163465681E+02 -0.22438738918E+02  0.96883499225E+02  0.92713940733E+02 0.  0.
         11    1    3    3    0    0 -0.47867493616E+02 -0.14320968880E+02 -0.22340596776E+02  0.54731063934E+02  0.51100000000E-03 0. -1.
         22    1    1    0    0    0  0.13555241679E+02 -0.10163465681E+02  0.22438738918E+02  0.28116500775E+02  0.00000000000E+00 0. -1.
</event>
<event>
 5    1  0.8752570E-005  0.9118800E+02  0.7818608E-02  0.1130116E+00
         25   -1    0    0    0    0  0.00000000000E+00  0.00000000000E+00  0.99999998245E-14  0.12500000000E+03  0.12500000000E+03 0.  0.
        -11    1    3    3    0    0 -0.21177976172E+02 -0.51152435202E+02 -0.85827827718E+00  0.55369801730E+02  0.51100000000E-03 0.  1.
         23    2    1    0    0    0 -0.18854764657E+02 -0.14502024359E+02  0.16561304873E+02  0.96015733926E+02  0.91536514471E+02 0.  0.
         11    1    3    3    0    0  0.23232115152E+01  0.36650410843E+02  0.17419583150E+02  0.40645932196E+02  0.51100000000E-03 0. -1.
         22    1    1    0    0    0  0.18854764657E+02  0.14502024359E+02 -0.16561304873E+02  0.28984266074E+02  0.00000000000E+00 0.  1.
</event>
<event>
 5    1  0.8752570E-005  0.9118800E+02  0.7818608E-02  0.1130116E+00
         25   -1    0    0    0    0  0.00000000000E+00  0.00000000000E+00  0.99999998245E-14  0.12500000000E+03  0.12500000000E+03 0.  0.
        -11    1    3    3    0    0  0.17157143690E+02 -0.43657585596E+02 -0.23201070466E+02  0.52332036371E+02  0.51100000000E-03 0.  1.
         23    2    1    0    0    0  0.15122996566E+01 -0.28739401701E+01 -0.28483730497E+02  0.96331733827E+02  0.91967023747E+02 0.  0.
         11    1    3    3    0    0 -0.15644844033E+02  0.40783645426E+02 -0.52826600301E+01  0.43999697457E+02  0.51100000000E-03 0. -1.
         22    1    1    0    0    0 -0.15122996566E+01  0.28739401701E+01  0.28483730497E+02  0.28668266173E+02  0.00000000000E+00 0.  1.
</event>
<event>
 5    1  0.8752570E-005  0.9118800E+02  0.7818608E-02  0.1130116E+00
         25   -1    0    0    0    0  0.00000000000E+00  0.00000000000E+00  0.99999998245E-14  0.12500000000E+03  0.12500000000E+03 0.  0.
        -11    1    3    3    0    0 -0.30491145578E+02  0.28804695932E+02  0.28479450201E+02  0.50700094186E+02  0.51100000000E-03 0.  1.
         23    2    1    0    0    0 -0.90832986345E+01 -0.11362983693E+02  0.24650343301E+02  0.96377226945E+02  0.92028836439E+02 0.  0.
         11    1    3    3    0    0  0.21407846944E+02 -0.40167679625E+02 -0.38291068996E+01  0.45677132759E+02  0.51100000000E-03 0. -1.
         22    1    1    0    0    0  0.90832986345E+01  0.11362983693E+02 -0.24650343301E+02  0.28622773055E+02  0.00000000000E+00 0. -1.
</event>
<event>
 5    1  0.8752570E-005  0.9118800E+02  0.7818608E-02  0.1130116E+00
         25   -1    0    0    0    0  0.00000000000E+00  0.00000000000E+00  0.99999998245E-14  0.12500000000E+03  0.12500000000E+03 0.  0.
        -11    1    3    3    0    0 -0.44526922400E+02  0.28315431447E+00  0.41805811342E+02  0.61077433288E+02  0.51100000000E-03 0. -1.
         23    2    1    0    0    0 -0.29505965639E+02  0.36047343211E+01  0.15688842739E+02  0.91388455788E+02  0.84983021523E+02 0.  0.
         11    1    3    3    0    0  0.15020956762E+02  0.33215800066E+01 -0.26116968603E+02  0.30311022501E+02  0.51100000000E-03 0.  1.
         22    1    1    0    0    0  0.29505965639E+02 -0.36047343211E+01 -0.15688842739E+02  0.33611544212E+02  0.00000000000E+00 0. -1.
</event>
<event>
 5    1  0.8752570E-005  0.9118800E+02  0.7818608E-02  0.1130116E+00
         25   -1    0    0    0    0  0.00000000000E+00  0.00000000000E+00  0.99999998245E-14  0.12500000000E+03  0.12500000000E+03 0.  0.
        -11    1    3    3    0    0 -0.20111139871E+02 -0.19240829929E+02 -0.20667426550E+02  0.34667131461E+02  0.51100000000E-03 0. -1.
         23    2    1    0    0    0  0.24894553287E+02  0.57720237636E+01  0.13141364614E+02  0.96264125111E+02  0.91875085185E+02 0.  0.
         11    1    3    3    0    0  0.45005693158E+02  0.25012853693E+02  0.33808791164E+02  0.61596993650E+02  0.51100000000E-03 0.  1.
         22    1    1    0    0    0 -0.24894553287E+02 -0.57720237636E+01 -0.13141364614E+02  0.28735874889E+02  0.00000000000E+00 0.  1.
</event>
<event>
 5    1  0.8752570E-005  0.9118800E+02  0.7818608E-02  0.1130116E+00
         25   -1    0    0    0    0  0.00000000000E+00  0.00000000000E+00  0.99999998245E-14  0.12500000000E+03  0.12500000000E+03 0.  0.
        -11    1    3    3    0    0 -0.20145670285E+02 -0.38062591930E+02 -0.43204902651E+02  0.61002233968E+02  0.51100000000E-03 0.  1.
         23    2    1    0    0    0 -0.11590053202E+01 -0.22496403851E+02 -0.18265880643E+02  0.95998726317E+02  0.91513286354E+02 0.  0.
         11    1    3    3    0    0  0.18986664965E+02  0.15566188079E+02  0.24939022007E+02  0.34996492349E+02  0.51100000000E-03 0. -1.
         22    1    1    0    0    0  0.11590053202E+01  0.22496403851E+02  0.18265880643E+02  0.29001273683E+02  0.00000000000E+00 0.  1.
</event>
<event>
 5    1  0.8752570E-005  0.9118800E+02  0.7818608E-02  0.1130116E+00
         25   -1    0    0    0    0  0.00000000000E+00  0.00000000000E+00  0.99999998245E-14  0.12500000000E+03  0.12500000000E+03 0.  0.
        -11    1    3    3    0    0  0.15035864877E+02 -0.28771074508E+02  0.90106485216E+01  0.33690410327E+02  0.51100000000E-03 0.  1.
         23    2    1    0    0    0 -0.71784399295E-01  0.29214169534E+02  0.11353296976E+02  0.93657214438E+02  0.88257031502E+02 0.  0.
         11    1    3    3    0    0 -0.15107649276E+02  0.57985244042E+02  0.23426484542E+01  0.59966804111E+02  0.51100000000E-03 0. -1.
         22    1    1    0    0    0  0.71784399295E-01 -0.29214169534E+02 -0.11353296976E+02  0.31342785562E+02  0.00000000000E+00 0. -1.
</event>
<event>
 5    1  0.8752570E-005  0.9118800E+02  0.7818608E-02  0.1130116E+00
         25   -1    0    0    0    0  0.00000000000E+00  0.00000000000E+00  0.99999998245E-14  0.12500000000E+03  0.12500000000E+03 0.  0.
        -11    1    3    3    0    0 -0.45211968095E+02 -0.24385630924E+02 -0.20877932468E+02  0.55449698998E+02  0.51100000000E-03 0. -1.
         23    2    1    0    0    0 -0.24378858832E+02  0.92679171547E+01 -0.13204724360E+02  0.95766666427E+02  0.91195759807E+02 0.  0.
         11    1    3    3    0    0  0.20833109262E+02  0.33653548078E+02  0.76732081074E+01  0.40316967430E+02  0.51100000000E-03 0.  1.
         22    1    1    0    0    0  0.24378858832E+02 -0.92679171547E+01  0.13204724360E+02  0.29233333573E+02  0.00000000000E+00 0. -1.
</event>
<event>
 5    1  0.8752570E-005  0.9118800E+02  0.7818608E-02  0.1130116E+00
         25   -1    0    0    0    0  0.00000000000E+00  0.00000000000E+00  0.99999998245E-14  0.12500000000E+03  0.12500000000E+03 0.  0.
        -11    1    3    3    0    0 -0.19178397044E+02  0.16457577510E+02 -0.30628991977E+02  0.39708914874E+02  0.51100000000E-03 0. -1.
         23    2    1    0    0    0 -0.95279113668E+01  0.73898379451E+01  0.25187689488E+02  0.97074912684E+02  0.92971652513E+02 0.  0.
         11    1    3    3    0    0  0.96504856777E+01 -0.90677395654E+01  0.55816681465E+02  0.57365997809E+02  0.51100000000E-03 0.  1.
         22    1    1    0    0    0  0.95279113668E+01 -0.73898379451E+01 -0.25187689488E+02  0.27925087316E+02  0.00000000000E+00 0.  1.
</event>
<event>
 5    1  0.8752570E-005  0.9118800E+02  0.7818608E-02  0.1130116E+00
         25   -1    0    0    0    0  0.00000000000E+00  0.00000000000E+00  0.99999998245E-14  0.12500000000E+03  0.12500000000E+03 0.  0.
        -11    1    3    3    0    0  0.27794255748E+02 -0.19981124657E+02  0.39604033100E+01  0.34459407856E+02  0.51100000000E-03 0.  1.
         23    2    1    0    0    0 -0.28612330084E+02  0.24617362880E+01  0.76553848073E+01  0.95279123584E+02  0.90525029113E+02 0.  0.
         11    1    3    3    0    0 -0.56406585832E+02  0.22442860945E+02  0.36949814972E+01  0.60819715728E+02  0.51100000000E-03 0. -1.
         22    1    1    0    0    0  0.28612330084E+02 -0.24617362880E+01 -0.76553848073E+01  0.29720876416E+02  0.00000000000E+00 0. -1.
</event>
<event>
 5    1  0.8752570E-005  0.9118800E+02  0.7818608E-02  0.1130116E+00
         25   -1    0    0    0    0  0.00000000000E+00  0.00000000000E+00  0.99999998245E-14  0.12500000000E+03  0.12500000000E+03 0.  0.
        -11    1    3    3    0    0  0.33930085623E+02  0.34507986909E+02 -0.30734500709E+02  0.57329411344E+02  0.51100000000E-03 0.  1.
         23    2    1    0    0    0  0.24025855512E+02 -0.70954568367E-01 -0.15604093981E+02  0.96351535528E+02  0.91993933941E+02 0.  0.
         11    1    3    3    0    0 -0.99042301110E+01 -0.34578941478E+02  0.15130406728E+02  0.39022124184E+02  0.51100000000E-03 0. -1.
         22    1    1    0    0    0 -0.24025855512E+02  0.70954568367E-01  0.15604093981E+02  0.28648464472E+02  0.00000000000E+00 0.  1.
</event>
<event>
 5    1  0.8752570E-005  0.9118800E+02  0.7818608E-02  0.1130116E+00
         25   -1    0    0    0    0  0.00000000000E+00  0.00000000000E+00  0.99999998245E-14  0.12500000000E+03  0.12500000000E+03 0.  0.
        -11    1    3    3    0    0 -0.18520125639E+02 -0.27715226153E+02 -0.12367714797E+02  0.35554031895E+02  0.51100000000E-03 0.  1.
         23    2    1    0    0    0  0.24538025648E+02 -0.75776288941E+00  0.17835729685E+02  0.94655277877E+02  0.89659463914E+02 0.  0.
         11    1    3    3    0    0  0.43058151287E+02  0.26957463264E+02  0.30203444482E+02  0.59101245983E+02  0.51100000000E-03 0. -1.
         22    1    1    0    0    0 -0.24538025648E+02  0.75776288941E+00 -0.17835729685E+02  0.30344722123E+02  0.00000000000E+00 0. -1.
</event>
<event>
 5    1  0.8752570E-005  0.9118800E+02  0.7818608E-02  0.1130116E+00
         25   -1    0    0    0    0  0.00000000000E+00  0.00000000000E+00  0.99999998245E-14  0.12500000000E+03  0.12500000000E+03 0.  0.
        -11    1    3    3    0    0 -0.26390503674E+02  0.18674984761E+02  0.24977117188E+02  0.40854254653E+02  0.51100000000E-03 0.  1.
         23    2    1    0    0    0 -0.17018879073E+02 -0.19576688340E+02 -0.13365176379E+02  0.95819237315E+02  0.91267789108E+02 0.  0.
         11    1    3    3    0    0  0.93716246013E+01 -0.38251673101E+02 -0.38342293567E+02  0.54964982661E+02  0.51100000000E-03 0. -1.
         22    1    1    0    0    0  0.17018879073E+02  0.19576688340E+02  0.13365176379E+02  0.29180762685E+02  0.00000000000E+00 0. -1.
</event>
<event>
 5    1  0.8752570E-005  0.9118800E+02  0.7818608E-02  0.1130116E+00
         25   -1    0    0    0    0  0.00000000000E+00  0.00000000000E+00  0.99999998245E-14  0.12500000000E+03  0.12500000000E+03 0.  0.
        -11    1    3    3    0    0  0.36652285503E+02  0.16184485627E+02  0.20950484266E+02  0.45213387385E+02  0.51100000000E-03 0.  1.
         23    2    1    0    0    0  0.15600916117E+02 -0.22408571167E+02 -0.63567201474E+01  0.96965368979E+02  0.92824254615E+02 0.  0.
         11    1    3    3    0    0 -0.21051369386E+02 -0.38593056795E+02 -0.27307204413E+02  0.51751981594E+02  0.51100000000E-03 0. -1.
         22    1    1    0    0    0 -0.15600916117E+02  0.22408571167E+02  0.63567201474E+01  0.28034631021E+02  0.00000000000E+00 0. -1.
</event>
<event>
 5    1  0.8752570E-005  0.9118800E+02  0.7818608E-02  0.1130116E+00
         25   -1    0    0    0    0  0.00000000000E+00  0.00000000000E+00  0.99999998245E-14  0.12500000000E+03  0.12500000000E+03 0.  0.
        -11    1    3    3    0    0  0.13109926418E+01 -0.40578324102E+02 -0.39720776088E+02  0.56798407917E+02  0.51100000000E-03 0.  1.
         23    2    1    0    0    0  0.17885296937E+02 -0.20683136168E+02 -0.10844992144E+02  0.95584190936E+02  0.90945300781E+02 0.  0.
         11    1    3    3    0    0  0.16574304295E+02  0.19895187934E+02  0.28875783944E+02  0.38785783019E+02  0.51100000000E-03 0. -1.
         22    1    1    0    0    0 -0.17885296937E+02  0.20683136168E+02  0.10844992144E+02  0.29415809064E+02  0.00000000000E+00 0.  1.
</event>
<event>
 5    1  0.8752570E-005  0.9118800E+02  0.7818608E-02  0.1130116E+00
         25   -1    0    0    0    0  0.00000000000E+00  0.00000000000E+00  0.99999998245E-14  0.12500000000E+03  0.12500000000E+03 0.  0.
        -11    1    3    3    0    0  0.21946764209E+02  0.21657604370E+02  0.54280205396E+02  0.62426380516E+02  0.51100000000E-03 0. -1.
         23    2    1    0    0    0  0.11582294852E+02  0.95485256115E+01  0.22969601075E+02  0.97560494375E+02  0.93622238778E+02 0.  0.
         11    1    3    3    0    0 -0.10364469357E+02 -0.12109078759E+02 -0.31310604321E+02  0.35134113859E+02  0.51100000000E-03 0.  1.
         22    1    1    0    0    0 -0.11582294852E+02 -0.95485256115E+01 -0.22969601075E+02  0.27439505625E+02  0.00000000000E+00 0. -1.
</event>
<event>
 5    1  0.8752570E-005  0.9118800E+02  0.7818608E-02  0.1130116E+00
         25   -1    0    0    0    0  0.00000000000E+00  0.00000000000E+00  0.99999998245E-14  0.12500000000E+03  0.12500000000E+03 0.  0.
        -11    1    3    3    0    0 -0.99001513952E+01 -0.43066085108E+02  0.12848112540E+01  0.44208047054E+02  0.51100000000E-03 0. -1.
         23    2    1    0    0    0 -0.13059109803E+01 -0.11144865298E+01 -0.28549525175E+02  0.96398900870E+02  0.92058270772E+02 0.  0.
         11    1    3    3    0    0  0.85942404149E+01  0.41951598578E+02 -0.29834336429E+02  0.52190853815E+02  0.51100000000E-03 0.  1.
         22    1    1    0    0    0  0.13059109803E+01  0.11144865298E+01  0.28549525175E+02  0.28601099130E+02  0.00000000000E+00 0.  1.
</event>
<event>
 5    1  0.8752570E-005  0.9118800E+02  0.7818608E-02  0.1130116E+00
         25   -1    0    0    0    0  0.00000000000E+00  0.00000000000E+00  0.99999998245E-14  0.12500000000E+03  0.12500000000E+03 0.  0.
        -11    1    3    3    0    0 -0.13144710737E+02 -0.16062676878E+02  0.47331302535E+02  0.51682155613E+02  0.51100000000E-03 0. -1.
         23    2    1    0    0    0 -0.12262370108E+02  0.17998388118E+02  0.21030452740E+02  0.94724801604E+02  0.89756339057E+02 0.  0.
         11    1    3    3    0    0  0.88234062835E+00  0.34061064996E+02 -0.26300849796E+02  0.43042645991E+02  0.51100000000E-03 0.  1.
         22    1    1    0    0    0  0.12262370108E+02 -0.17998388118E+02 -0.21030452740E+02  0.30275198396E+02  0.00000000000E+00 0. -1.
</event>
<event>
 5    1  0.8752570E-005  0.9118800E+02  0.7818608E-02  0.1130116E+00
         25   -1    0    0    0    0  0.00000000000E+00  0.00000000000E+00  0.99999998245E-14  0.12500000000E+03  0.12500000000E+03 0.  0.
        -11    1    3    3    0    0 -0.43770990794E+02 -0.19732693673E+02  0.18027176527E+02  0.51286040288E+02  0.51100000000E-03 0. -1.
         23    2    1    0    0    0  0.30932979733E+01 -0.24009801063E+02  0.88048685557E+01  0.99240249424E+02  0.95838730981E+02 0.  0.
         11    1    3    3    0    0  0.46864288767E+02 -0.42771073900E+01 -0.92223079715E+01  0.47954209136E+02  0.51100000000E-03 0.  1.
         22    1    1    0    0    0 -0.30932979733E+01  0.24009801063E+02 -0.88048685557E+01  0.25759750576E+02  0.00000000000E+00 0.  1.
</event>
<event>
 5    1  0.8752570E-005  0.9118800E+02  0.7818608E-02  0.1130116E+00
         25   -1    0    0    0    0  0.00000000000E+00  0.00000000000E+00  0.99999998245E-14  0.12500000000E+03  0.12500000000E+03 0.  0.
        -11    1    3    3    0    0 -0.19536503934E+02 -0.15998168650E+02 -0.52845214093E+02  0.58568191358E+02  0.51100000000E-03 0. -1.
         23    2    1    0    0    0 -0.25357474362E+01 -0.21310441257E+02 -0.21489872347E+02  0.94629298080E+02  0.89623236495E+02 0.  0.
         11    1    3    3    0    0  0.17000756498E+02 -0.53122726074E+01  0.31355341746E+02  0.36061106722E+02  0.51100000000E-03 0.  1.
         22    1    1    0    0    0  0.25357474362E+01  0.21310441257E+02  0.21489872347E+02  0.30370701920E+02  0.00000000000E+00 0. -1.
</event>
<event>
 5    1  0.8752570E-005  0.9118800E+02  0.7818608E-02  0.1130116E+00
         25   -1    0    0    0    0  0.00000000000E+00  0.00000000000E+00  0.99999998245E-14  0.12500000000E+03  0.12500000000E+03 0.  0.
        -11    1    3    3    0    0  0.12481193698E+02 -0.40773268073E+02 -0.19151564048E+02  0.46744218800E+02  0.51100000000E-03 0. -1.
         23    2    1    0    0    0 -0.22155126198E+02 -0.59949790611E+01 -0.17983713343E+02  0.95841753544E+02  0.91298622038E+02 0.  0.
         11    1    3    3    0    0 -0.34636319895E+02  0.34778289012E+02  0.11678507055E+01  0.49097534745E+02  0.51100000000E-03 0.  1.
         22    1    1    0    0    0  0.22155126198E+02  0.59949790611E+01  0.17983713343E+02  0.29158246456E+02  0.00000000000E+00 0. -1.
</event>
<event>
 5    1  0.8752570E-005  0.9118800E+02  0.7818608E-02  0.1130116E+00
         25   -1    0    0    0    0  0.00000000000E+00  0.00000000000E+00  0.99999998245E-14  0.12500000000E+03  0.12500000000E+03 0.  0.
        -11    1    3    3    0    0  0.36962407597E+01  0.55804217150E+02  0.17628681585E+02  0.58639093293E+02  0.51100000000E-03 0. -1.
         23    2    1    0    0    0  0.10095597281E+02  0.29947091778E+02 -0.42537238414E+01  0.93112015477E+02  0.87481448714E+02 0.  0.
         11    1    3    3    0    0  0.63993565213E+01 -0.25857125372E+02 -0.21882405427E+02  0.34472922184E+02  0.51100000000E-03 0.  1.
         22    1    1    0    0    0 -0.10095597281E+02 -0.29947091778E+02  0.42537238414E+01  0.31887984523E+02  0.00000000000E+00 0. -1.
</event>
<event>
 5    1  0.8752570E-005  0.9118800E+02  0.7818608E-02  0.1130116E+00
         25   -1    0    0    0    0  0.00000000000E+00  0.00000000000E+00  0.99999998245E-14  0.12500000000E+03  0.12500000000E+03 0.  0.
        -11    1    3    3    0    0 -0.27867758202E+02 -0.33213307842E+02  0.33652878966E+02  0.54883986991E+02  0.51100000000E-03 0.  1.
         23    2    1    0    0    0 -0.20044189577E+02  0.25467885537E+01  0.25637972939E+02  0.92357063181E+02  0.86395982518E+02 0.  0.
         11    1    3    3    0    0  0.78235686255E+01  0.35760096396E+02 -0.80149060270E+01  0.37473076190E+02  0.51100000000E-03 0. -1.
         22    1    1    0    0    0  0.20044189577E+02 -0.25467885537E+01 -0.25637972939E+02  0.32642936819E+02  0.00000000000E+00 0.  1.
</event>
<event>
 5    1  0.8752570E-005  0.9118800E+02  0.7818608E-02  0.1130116E+00
         25   -1    0    0    0    0  0.00000000000E+00  0.00000000000E+00  0.99999998245E-14  0.12500000000E+03  0.12500000000E+03 0.  0.
        -11    1    3    3    0    0 -0.22930969000E+02  0.37924882625E+02 -0.44112031980E+00  0.44320657134E+02  0.51100000000E-03 0.  1.
         23    2    1    0    0    0 -0.85725130687E+01 -0.27232148265E+01  0.27749373253E+02  0.95829268174E+02  0.91281526299E+02 0.  0.
         11    1    3    3    0    0  0.14358455931E+02 -0.40648097451E+02  0.28190493573E+02  0.51508611040E+02  0.51100000000E-03 0. -1.
         22    1    1    0    0    0  0.85725130687E+01  0.27232148265E+01 -0.27749373253E+02  0.29170731826E+02  0.00000000000E+00 0. -1.
</event>
<event>
 5    1  0.8752570E-005  0.9118800E+02  0.7818608E-02  0.1130116E+00
         25   -1    0    0    0    0  0.00000000000E+00  0.00000000000E+00  0.99999998245E-14  0.12500000000E+03  0.12500000000E+03 0.  0.
        -11    1    3    3    0    0  0.26398489035E+02  0.47497566864E+02  0.12644196611E+02  0.55792246680E+02  0.51100000000E-03 0. -1.
         23    2    1    0    0    0  0.26695585712E+01  0.29592271967E+02 -0.10521931031E+02  0.93479528308E+02  0.88005011658E+02 0.  0.
         11    1    3    3    0    0 -0.23728930464E+02 -0.17905294898E+02 -0.23166127642E+02  0.37687281628E+02  0.51100000000E-03 0.  1.
         22    1    1    0    0    0 -0.26695585712E+01 -0.29592271967E+02  0.10521931031E+02  0.31520471692E+02  0.00000000000E+00 0. -1.
</event>
<event>
 5    1  0.8752570E-005  0.9118800E+02  0.7818608E-02  0.1130116E+00
         25   -1    0    0    0    0  0.00000000000E+00  0.00000000000E+00  0.99999998245E-14  0.12500000000E+03  0.12500000000E+03 0.  0.
        -11    1    3    3    0    0 -0.21741721924E+02 -0.25843855936E+02 -0.56312206998E-01  0.33772926038E+02  0.51100000000E-03 0.  1.
         23    2    1    0    0    0  0.18546760668E+02  0.18180463534E+02  0.14576918239E+02  0.95217486155E+02  0.90439878034E+02 0.  0.
         11    1    3    3    0    0  0.40288482592E+02  0.44024319470E+02  0.14633230446E+02  0.61444560117E+02  0.51100000000E-03 0. -1.
         22    1    1    0    0    0 -0.18546760668E+02 -0.18180463534E+02 -0.14576918239E+02  0.29782513845E+02  0.00000000000E+00 0. -1.
</event>
<event>
 5    1  0.8752570E-005  0.9118800E+02  0.7818608E-02  0.1130116E+00
         25   -1    0    0    0    0  0.00000000000E+00  0.00000000000E+00  0.99999998245E-14  0.12500000000E+03  0.12500000000E+03 0.  0.
        -11    1    3    3    0    0 -0.16411365641E+02  0.54407720429E+02 -0.18407571941E+02  0.59735849115E+02  0.51100000000E-03 0.  1.
         23    2    1    0    0    0  0.11525162892E+01  0.29032262010E+02 -0.18422085064E+02  0.90596893319E+02  0.83810639716E+02 0.  0.
         11    1    3    3    0    0  0.17563881930E+02 -0.25375458419E+02 -0.14513123003E-01  0.30861044203E+02  0.51100000000E-03 0. -1.
         22    1    1    0    0    0 -0.11525162892E+01 -0.29032262010E+02  0.18422085064E+02  0.34403106681E+02  0.00000000000E+00 0.  1.
</event>
<event>
 5    1  0.8752570E-005  0.9118800E+02  0.7818608E-02  0.1130116E+00
         25   -1    0    0    0    0  0.00000000000E+00  0.00000000000E+00  0.99999998245E-14  0.12500000000E+03  0.12500000000E+03 0.  0.
        -11    1    3    3    0    0 -0.20821924486E+02 -0.34065488972E+02 -0.46284691398E+02  0.61125139970E+02  0.51100000000E-03 0. -1.
         23    2    1    0    0    0 -0.17066158775E+02 -0.16930320132E+02 -0.16001940765E+02  0.96121779429E+02  0.91681213218E+02 0.  0.
         11    1    3    3    0    0  0.37557657112E+01  0.17135168840E+02  0.30282750633E+02  0.34996639459E+02  0.51100000000E-03 0.  1.
         22    1    1    0    0    0  0.17066158775E+02  0.16930320132E+02  0.16001940765E+02  0.28878220571E+02  0.00000000000E+00 0. -1.
</event>
<event>
 5    1  0.8752570E-005  0.9118800E+02  0.7818608E-02  0.1130116E+00
         25   -1    0    0    0    0  0.00000000000E+00  0.00000000000E+00  0.99999998245E-14  0.12500000000E+03  0.12500000000E+03 0.  0.
        -11    1    3    3    0    0  0.34945824440E+02 -0.32526524154E+02  0.49969490701E+01  0.48001613719E+02  0.51100000000E-03 0.  1.
         23    2    1    0    0    0  0.11290750504E+02 -0.61259700968E+01 -0.26582837320E+02  0.95476182555E+02  0.90796727027E+02 0.  0.
         11    1    3    3    0    0 -0.23655073936E+02  0.26400554057E+02 -0.31579786390E+02  0.47474568836E+02  0.51100000000E-03 0. -1.
         22    1    1    0    0    0 -0.11290750504E+02  0.61259700968E+01  0.26582837320E+02  0.29523817445E+02  0.00000000000E+00 0. -1.
</event>
<event>
 5    1  0.8752570E-005  0.9118800E+02  0.7818608E-02  0.1130116E+00
         25   -1    0    0    0    0  0.00000000000E+00  0.00000000000E+00  0.99999998245E-14  0.12500000000E+03  0.12500000000E+03 0.  0.
        -11    1    3    3    0    0 -0.21191770840E+02 -0.50307854451E+02 -0.29904181522E+02  0.62243324490E+02  0.51100000000E-03 0.  1.
         23    2    1    0    0    0 -0.13162452311E+02 -0.21354021066E+02 -0.14834090358E+02  0.95857340491E+02  0.91319960155E+02 0.  0.
         11    1    3    3    0    0  0.80293185286E+01  0.28953833386E+02  0.15070091164E+02  0.33614016001E+02  0.51100000000E-03 0. -1.
         22    1    1    0    0    0  0.13162452311E+02  0.21354021066E+02  0.14834090358E+02  0.29142659509E+02  0.00000000000E+00 0.  1.
</event>
<event>
 5    1  0.8752570E-005  0.9118800E+02  0.7818608E-02  0.1130116E+00
         25   -1    0    0    0    0  0.00000000000E+00  0.00000000000E+00  0.99999998245E-14  0.12500000000E+03  0.12500000000E+03 0.  0.
        -11    1    3    3    0    0 -0.11373640584E+02 -0.43310044278E+02 -0.75473773609E+01  0.45410159004E+02  0.51100000000E-03 0.  1.
         23    2    1    0    0    0 -0.40756026970E+01 -0.42399271814E+00 -0.30245448223E+02  0.94478246358E+02  0.89412312292E+02 0.  0.
         11    1    3    3    0    0  0.72980378869E+01  0.42886051560E+02 -0.22698070862E+02  0.49068087354E+02  0.51100000000E-03 0. -1.
         22    1    1    0    0    0  0.40756026970E+01  0.42399271814E+00  0.30245448223E+02  0.30521753642E+02  0.00000000000E+00 0. -1.
</event>
<event>
 5    1  0.8752570E-005  0.9118800E+02  0.7818608E-02  0.1130116E+00
         25   -1    0    0    0    0  0.00000000000E+00  0.00000000000E+00  0.99999998245E-14  0.12500000000E+03  0.12500000000E+03 0.  0.
        -11    1    3    3    0    0 -0.33908232355E+02 -0.33133971224E+02 -0.13920499573E+01  0.47429590699E+02  0.51100000000E-03 0. -1.
         23    2    1    0    0    0 -0.23198009951E+02  0.13219025084E+02  0.10237436978E+02  0.96404626148E+02  0.92066044430E+02 0.  0.
         11    1    3    3    0    0  0.10710222404E+02  0.46352996308E+02  0.11629486935E+02  0.48975035450E+02  0.51100000000E-03 0.  1.
         22    1    1    0    0    0  0.23198009951E+02 -0.13219025084E+02 -0.10237436978E+02  0.28595373852E+02  0.00000000000E+00 0. -1.
</event>
<event>
 5    1  0.8752570E-005  0.9118800E+02  0.7818608E-02  0.1130116E+00
         25   -1    0    0    0    0  0.00000000000E+00  0.00000000000E+00  0.99999998245E-14  0.12500000000E+03  0.12500000000E+03 0.  0.
        -11    1    3    3    0    0 -0.44974580573E+02 -0.26264337920E+02 -0.18482788819E+02  0.55264290703E+02  0.51100000000E-03 0. -1.
         23    2    1    0    0    0 -0.13916975233E+02 -0.20152004275E+02  0.10659772418E+02  0.98290147437E+02  0.94591420643E+02 0.  0.
         11    1    3    3    0    0  0.31057605340E+02  0.61123336450E+01  0.29142561237E+02  0.43025856734E+02  0.51100000000E-03 0.  1.
         22    1    1    0    0    0  0.13916975233E+02  0.20152004275E+02 -0.10659772418E+02  0.26709852563E+02  0.00000000000E+00 0. -1.
</event>
<event>
 5    1  0.8752570E-005  0.9118800E+02  0.7818608E-02  0.1130116E+00
         25   -1    0    0    0    0  0.00000000000E+00  0.00000000000E+00  0.99999998245E-14  0.12500000000E+03  0.12500000000E+03 0.  0.
        -11    1    3    3    0    0  0.52625160097E+02  0.19495422071E+00  0.19383959972E+02  0.56081934586E+02  0.51100000000E-03 0.  1.
         23    2    1    0    0    0  0.24047533752E+02 -0.98594061070E+01 -0.89004394322E+01  0.97528021724E+02  0.93578872781E+02 0.  0.
         11    1    3    3    0    0 -0.28577626345E+02 -0.10054360328E+02 -0.28284399404E+02  0.41446087138E+02  0.51100000000E-03 0. -1.
         22    1    1    0    0    0 -0.24047533752E+02  0.98594061070E+01  0.89004394322E+01  0.27471978276E+02  0.00000000000E+00 0.  1.
</event>
<event>
 5    1  0.8752570E-005  0.9118800E+02  0.7818608E-02  0.1130116E+00
         25   -1    0    0    0    0  0.00000000000E+00  0.00000000000E+00  0.99999998245E-14  0.12500000000E+03  0.12500000000E+03 0.  0.
        -11    1    3    3    0    0 -0.25297035643E+02 -0.34856548882E+02  0.59990255116E+01  0.43484564153E+02  0.51100000000E-03 0.  1.
         23    2    1    0    0    0  0.18615853674E+02 -0.72168843890E+01  0.19491522848E+02  0.97097439343E+02  0.93001934580E+02 0.  0.
         11    1    3    3    0    0  0.43912889317E+02  0.27639664493E+02  0.13492497336E+02  0.53612875189E+02  0.51100000000E-03 0. -1.
         22    1    1    0    0    0 -0.18615853674E+02  0.72168843890E+01 -0.19491522848E+02  0.27902560657E+02  0.00000000000E+00 0. -1.
</event>
<event>
 5    1  0.8752570E-005  0.9118800E+02  0.7818608E-02  0.1130116E+00
         25   -1    0    0    0    0  0.00000000000E+00  0.00000000000E+00  0.99999998245E-14  0.12500000000E+03  0.12500000000E+03 0.  0.
        -11    1    3    3    0    0 -0.37167271052E+02  0.15512245353E+02  0.40803163094E+02  0.57331787972E+02  0.51100000000E-03 0.  1.
         23    2    1    0    0    0 -0.27500308440E+01  0.16895577702E+02  0.23632152067E+02  0.95819495775E+02  0.91268143094E+02 0.  0.
         11    1    3    3    0    0  0.34417240208E+02  0.13833323489E+01 -0.17171011028E+02  0.38487707803E+02  0.51100000000E-03 0. -1.
         22    1    1    0    0    0  0.27500308440E+01 -0.16895577702E+02 -0.23632152067E+02  0.29180504225E+02  0.00000000000E+00 0.  1.
</event>
<event>
 5    1  0.8752570E-005  0.9118800E+02  0.7818608E-02  0.1130116E+00
         25   -1    0    0    0    0  0.00000000000E+00  0.00000000000E+00  0.99999998245E-14  0.12500000000E+03  0.12500000000E+03 0.  0.
        -11    1    3    3    0    0  0.53706602997E+02  0.71490212867E+01 -0.14471647730E+02  0.56079731624E+02  0.51100000000E-03 0.  1.
         23    2    1    0    0    0  0.17925218605E+02  0.20309759308E+02  0.24689336770E+01  0.97798981293E+02  0.93940115623E+02 0.  0.
         11    1    3    3    0    0 -0.35781384392E+02  0.13160738021E+02  0.16940581407E+02  0.41719249669E+02  0.51100000000E-03 0. -1.
         22    1    1    0    0    0 -0.17925218605E+02 -0.20309759308E+02 -0.24689336770E+01  0.27201018707E+02  0.00000000000E+00 0.  1.
</event>
<event>
 5    1  0.8752570E-005  0.9118800E+02  0.7818608E-02  0.1130116E+00
         25   -1    0    0    0    0  0.00000000000E+00  0.00000000000E+00  0.99999998245E-14  0.12500000000E+03  0.12500000000E+03 0.  0.
        -11    1    3    3    0    0 -0.23744196041E+02 -0.87313844172E+01 -0.55776894782E+02  0.61246109356E+02  0.51100000000E-03 0.  1.
         23    2    1    0    0    0 -0.16082600524E+02 -0.11252417416E+02 -0.24180366687E+02  0.93855866196E+02  0.88537938472E+02 0.  0.
         11    1    3    3    0    0  0.76615955168E+01 -0.25210329987E+01  0.31596528095E+02  0.32609756840E+02  0.51100000000E-03 0. -1.
         22    1    1    0    0    0  0.16082600524E+02  0.11252417416E+02  0.24180366687E+02  0.31144133804E+02  0.00000000000E+00 0.  1.
</event>
<event>
 5    1  0.8752570E-005  0.9118800E+02  0.7818608E-02  0.1130116E+00
         25   -1    0    0    0    0  0.00000000000E+00  0.00000000000E+00  0.99999998245E-14  0.12500000000E+03  0.12500000000E+03 0.  0.
        -11    1    3    3    0    0 -0.41651548032E+01 -0.15483564183E+02  0.39076050241E+02  0.42237743513E+02  0.51100000000E-03 0. -1.
         23    2    1    0    0    0 -0.11520973298E+02  0.26479230411E+02  0.78004739866E+01  0.95087964574E+02  0.90260684373E+02 0.  0.
         11    1    3    3    0    0 -0.73558184947E+01  0.41962794595E+02 -0.31275576254E+02  0.52850221061E+02  0.51100000000E-03 0.  1.
         22    1    1    0    0    0  0.11520973298E+02 -0.26479230411E+02 -0.78004739866E+01  0.29912035426E+02  0.00000000000E+00 0. -1.
</event>
<event>
 5    1  0.8752570E-005  0.9118800E+02  0.7818608E-02  0.1130116E+00
         25   -1    0    0    0    0  0.00000000000E+00  0.00000000000E+00  0.99999998245E-14  0.12500000000E+03  0.12500000000E+03 0.  0.
        -11    1    3    3    0    0  0.43560151542E+02 -0.36138599587E+02 -0.26200173976E+02  0.62369337812E+02  0.51100000000E-03 0. -1.
         23    2    1    0    0    0  0.21184251240E+02 -0.17426666981E+02 -0.95597082491E+01  0.95950916633E+02  0.91447958743E+02 0.  0.
         11    1    3    3    0    0 -0.22375900302E+02  0.18711932606E+02  0.16640465727E+02  0.33581578821E+02  0.51100000000E-03 0.  1.
         22    1    1    0    0    0 -0.21184251240E+02  0.17426666981E+02  0.95597082491E+01  0.29049083367E+02  0.00000000000E+00 0. -1.
</event>
<event>
 5    1  0.8752570E-005  0.9118800E+02  0.7818608E-02  0.1130116E+00
         25   -1    0    0    0    0  0.00000000000E+00  0.00000000000E+00  0.99999998245E-14  0.12500000000E+03  0.12500000000E+03 0.  0.
        -11    1    3    3    0    0 -0.39595041365E+02 -0.77315974775E+01 -0.39425427003E+02  0.56408414220E+02  0.51100000000E-03 0.  1.
         23    2    1    0    0    0 -0.28745914034E+01 -0.23708414878E+01 -0.30097814665E+02  0.94672411690E+02  0.89683348078E+02 0.  0.
         11    1    3    3    0    0  0.36720449962E+02  0.53607559897E+01  0.93276123379E+01  0.38263997470E+02  0.51100000000E-03 0. -1.
         22    1    1    0    0    0  0.28745914034E+01  0.23708414878E+01  0.30097814665E+02  0.30327588310E+02  0.00000000000E+00 0.  1.
</event>
<event>
 5    1  0.8752570E-005  0.9118800E+02  0.7818608E-02  0.1130116E+00
         25   -1    0    0    0    0  0.00000000000E+00  0.00000000000E+00  0.99999998245E-14  0.12500000000E+03  0.12500000000E+03 0.  0.
        -11    1    3    3    0    0  0.20952030288E+02 -0.40809011439E+02  0.76253522494E+01  0.46502784702E+02  0.51100000000E-03 0.  1.
         23    2    1    0    0    0  0.20583931305E+02  0.32803070848E+01 -0.17965727907E+02  0.97482259872E+02  0.93517725421E+02 0.  0.
         11    1    3    3    0    0 -0.36809898370E+00  0.44089318524E+02 -0.25591080157E+02  0.50979475170E+02  0.51100000000E-03 0. -1.
         22    1    1    0    0    0 -0.20583931305E+02 -0.32803070848E+01  0.17965727907E+02  0.27517740128E+02  0.00000000000E+00 0. -1.
</event>
<event>
 5    1  0.8752570E-005  0.9118800E+02  0.7818608E-02  0.1130116E+00
         25   -1    0    0    0    0  0.00000000000E+00  0.00000000000E+00  0.99999998245E-14  0.12500000000E+03  0.12500000000E+03 0.  0.
        -11    1    3    3    0    0  0.23133370588E+02  0.18307427979E+02  0.24996737924E+02  0.38667191017E+02  0.51100000000E-03 0. -1.
         23    2    1    0    0    0 -0.67872686290E+00 -0.28945496889E+02  0.32898154997E+01  0.95860244573E+02  0.91323935215E+02 0.  0.
         11    1    3    3    0    0 -0.23812097451E+02 -0.47252924869E+02 -0.21706922425E+02  0.57193053556E+02  0.51100000000E-03 0.  1.
         22    1    1    0    0    0  0.67872686290E+00  0.28945496889E+02 -0.32898154997E+01  0.29139755427E+02  0.00000000000E+00 0.  1.
</event>
<event>
 5    1  0.8752570E-005  0.9118800E+02  0.7818608E-02  0.1130116E+00
         25   -1    0    0    0    0  0.00000000000E+00  0.00000000000E+00  0.99999998245E-14  0.12500000000E+03  0.12500000000E+03 0.  0.
        -11    1    3    3    0    0  0.48106448972E+02 -0.23891552302E+02 -0.11563834060E+02  0.54943234001E+02  0.51100000000E-03 0. -1.
         23    2    1    0    0    0  0.81841778635E+01 -0.27775908342E+02 -0.58407039794E+01  0.95460269559E+02  0.90774816936E+02 0.  0.
         11    1    3    3    0    0 -0.39922271108E+02 -0.38843560405E+01  0.57231300803E+01  0.40517035559E+02  0.51100000000E-03 0.  1.
         22    1    1    0    0    0 -0.81841778635E+01  0.27775908342E+02  0.58407039794E+01  0.29539730441E+02  0.00000000000E+00 0. -1.
</event>
<event>
 5    1  0.8752570E-005  0.9118800E+02  0.7818608E-02  0.1130116E+00
         25   -1    0    0    0    0  0.00000000000E+00  0.00000000000E+00  0.99999998245E-14  0.12500000000E+03  0.12500000000E+03 0.  0.
        -11    1    3    3    0    0 -0.15093430097E+00  0.12434476472E+02  0.32362341836E+02  0.34669297017E+02  0.51100000000E-03 0. -1.
         23    2    1    0    0    0 -0.23045164129E+02 -0.19381780172E+02 -0.10833437253E+02  0.92998494488E+02  0.87319090822E+02 0.  0.
         11    1    3    3    0    0 -0.22894229828E+02 -0.31816256644E+02 -0.43195779089E+02  0.58329197471E+02  0.51100000000E-03 0.  1.
         22    1    1    0    0    0  0.23045164129E+02  0.19381780172E+02  0.10833437253E+02  0.32001505512E+02  0.00000000000E+00 0.  1.
</event>
<event>
 5    1  0.8752570E-005  0.9118800E+02  0.7818608E-02  0.1130116E+00
         25   -1    0    0    0    0  0.00000000000E+00  0.00000000000E+00  0.99999998245E-14  0.12500000000E+03  0.12500000000E+03 0.  0.
        -11    1    3    3    0    0  0.42766460922E+02  0.24860169585E+02  0.47435699237E+00  0.49469417082E+02  0.51100000000E-03 0.  1.
         23    2    1    0    0    0  0.20168466947E+02 -0.82841891797E+01 -0.20791145535E+02  0.94872494594E+02  0.89961789936E+02 0.  0.
         11    1    3    3    0    0 -0.22597993975E+02 -0.33144358764E+02 -0.21265502527E+02  0.45403077512E+02  0.51100000000E-03 0. -1.
         22    1    1    0    0    0 -0.20168466947E+02  0.82841891797E+01  0.20791145535E+02  0.30127505406E+02  0.00000000000E+00 0.  1.
</event>
<event>
 5    1  0.8752570E-005  0.9118800E+02  0.7818608E-02  0.1130116E+00
         25   -1    0    0    0    0  0.00000000000E+00  0.00000000000E+00  0.99999998245E-14  0.12500000000E+03  0.12500000000E+03 0.  0.
        -11    1    3    3    0    0 -0.40560649456E+02 -0.17185087110E+02 -0.31500311956E+02  0.54154991985E+02  0.51100000000E-03 0.  1.
         23    2    1    0    0    0 -0.39178002880E+01  0.21548619150E+01 -0.28992990705E+02  0.95664252200E+02  0.91055274696E+02 0.  0.
         11    1    3    3    0    0  0.36642849168E+02  0.19339949025E+02  0.25073212510E+01  0.41509260215E+02  0.51100000000E-03 0. -1.
         22    1    1    0    0    0  0.39178002880E+01 -0.21548619150E+01  0.28992990705E+02  0.29335747800E+02  0.00000000000E+00 0.  1.
</event>
<event>
 5    1  0.8752570E-005  0.9118800E+02  0.7818608E-02  0.1130116E+00
         25   -1    0    0    0    0  0.00000000000E+00  0.00000000000E+00  0.99999998245E-14  0.12500000000E+03  0.12500000000E+03 0.  0.
        -11    1    3    3    0    0 -0.43135726521E+02 -0.16668456683E+01 -0.36208954192E+02  0.56343212909E+02  0.51100000000E-03 0. -1.
         23    2    1    0    0    0 -0.23647766458E+02  0.17757351630E+02 -0.25778638711E+02  0.85768907622E+02  0.76270747377E+02 0.  0.
         11    1    3    3    0    0  0.19487960062E+02  0.19424197298E+02  0.10430315480E+02  0.29425694713E+02  0.51100000000E-03 0.  1.
         22    1    1    0    0    0  0.23647766458E+02 -0.17757351630E+02  0.25778638711E+02  0.39231092378E+02  0.00000000000E+00 0. -1.
</event>
<event>
 5    1  0.8752570E-005  0.9118800E+02  0.7818608E-02  0.1130116E+00
         25   -1    0    0    0    0  0.00000000000E+00  0.00000000000E+00  0.99999998245E-14  0.12500000000E+03  0.12500000000E+03 0.  0.
        -11    1    3    3    0    0 -0.21961977237E+02 -0.13415963991E+02 -0.35172520408E+02  0.43582367147E+02  0.51100000000E-03 0.  1.
         23    2    1    0    0    0 -0.24282403948E+01 -0.28036554418E+02  0.10173545608E+02  0.95076000179E+02  0.90244113630E+02 0.  0.
         11    1    3    3    0    0  0.19533736842E+02 -0.14620590427E+02  0.45346066017E+02  0.51493633033E+02  0.51100000000E-03 0. -1.
         22    1    1    0    0    0  0.24282403948E+01  0.28036554418E+02 -0.10173545608E+02  0.29923999821E+02  0.00000000000E+00 0. -1.
</event>
<event>
 5    1  0.8752570E-005  0.9118800E+02  0.7818608E-02  0.1130116E+00
         25   -1    0    0    0    0  0.00000000000E+00  0.00000000000E+00  0.99999998245E-14  0.12500000000E+03  0.12500000000E+03 0.  0.
        -11    1    3    3    0    0 -0.32265931888E+00  0.29473873775E+02 -0.13980362384E+02  0.32623057444E+02  0.51100000000E-03 0.  1.
         23    2    1    0    0    0  0.55616089206E+01 -0.28618084274E+02  0.75991894524E+01  0.94872372785E+02  0.89961620685E+02 0.  0.
         11    1    3    3    0    0  0.58842682395E+01 -0.58091958049E+02  0.21579551837E+02  0.62249315341E+02  0.51100000000E-03 0. -1.
         22    1    1    0    0    0 -0.55616089206E+01  0.28618084274E+02 -0.75991894524E+01  0.30127627215E+02  0.00000000000E+00 0. -1.
</event>
<event>
 5    1  0.8752570E-005  0.9118800E+02  0.7818608E-02  0.1130116E+00
         25   -1    0    0    0    0  0.00000000000E+00  0.00000000000E+00  0.99999998245E-14  0.12500000000E+03  0.12500000000E+03 0.  0.
        -11    1    3    3    0    0  0.43410646277E+02  0.29709607461E+02  0.30640087633E+02  0.60876596128E+02  0.51100000000E-03 0.  1.
         23    2    1    0    0    0  0.24228725610E+02  0.16098202073E+02  0.53331816470E+01  0.95425922142E+02  0.90727507050E+02 0.  0.
         11    1    3    3    0    0 -0.19181920668E+02 -0.13611405388E+02 -0.25306905987E+02  0.34549326014E+02  0.51100000000E-03 0. -1.
         22    1    1    0    0    0 -0.24228725610E+02 -0.16098202073E+02 -0.53331816470E+01  0.29574077858E+02  0.00000000000E+00 0.  1.
</event>
<event>
 5    1  0.8752570E-005  0.9118800E+02  0.7818608E-02  0.1130116E+00
         25   -1    0    0    0    0  0.00000000000E+00  0.00000000000E+00  0.99999998245E-14  0.12500000000E+03  0.12500000000E+03 0.  0.
        -11    1    3    3    0    0  0.67425206236E+01  0.13486537915E+02 -0.17793539722E+02  0.23322914599E+02  0.51100000000E-03 0.  1.
         23    2    1    0    0    0 -0.16572832801E+02 -0.12467914376E+02  0.33644647843E+02  0.85476968684E+02  0.75790778932E+02 0.  0.
         11    1    3    3    0    0 -0.23315353424E+02 -0.25954452291E+02  0.51438187565E+02  0.62154054085E+02  0.51100000000E-03 0. -1.
         22    1    1    0    0    0  0.16572832801E+02  0.12467914376E+02 -0.33644647843E+02  0.39523031316E+02  0.00000000000E+00 0. -1.
</event>
<event>
 5    1  0.8752570E-005  0.9118800E+02  0.7818608E-02  0.1130116E+00
         25   -1    0    0    0    0  0.00000000000E+00  0.00000000000E+00  0.99999998245E-14  0.12500000000E+03  0.12500000000E+03 0.  0.
        -11    1    3    3    0    0  0.47976939340E+02 -0.88074286728E+01  0.19817201538E+02  0.52650536420E+02  0.51100000000E-03 0.  1.
         23    2    1    0    0    0  0.78712196029E+01  0.49851490564E+01  0.27688524877E+02  0.95785924299E+02  0.91222152325E+02 0.  0.
         11    1    3    3    0    0 -0.40105719738E+02  0.13792577729E+02  0.78713233395E+01  0.43135387879E+02  0.51100000000E-03 0. -1.
         22    1    1    0    0    0 -0.78712196029E+01 -0.49851490564E+01 -0.27688524877E+02  0.29214075701E+02  0.00000000000E+00 0.  1.
</event>
<event>
 5    1  0.8752570E-005  0.9118800E+02  0.7818608E-02  0.1130116E+00
         25   -1    0    0    0    0  0.00000000000E+00  0.00000000000E+00  0.99999998245E-14  0.12500000000E+03  0.12500000000E+03 0.  0.
        -11    1    3    3    0    0 -0.57850319427E+02 -0.11065252552E+02 -0.21451436780E+01  0.58938110875E+02  0.51100000000E-03 0. -1.
         23    2    1    0    0    0 -0.23493290736E+02 -0.10848536556E+02 -0.14363587062E+02  0.95403748745E+02  0.90696952465E+02 0.  0.
         11    1    3    3    0    0  0.34357028691E+02  0.21671599583E+00 -0.12218443384E+02  0.36465637870E+02  0.51100000000E-03 0.  1.
         22    1    1    0    0    0  0.23493290736E+02  0.10848536556E+02  0.14363587062E+02  0.29596251255E+02  0.00000000000E+00 0. -1.
</event>
<event>
 5    1  0.8752570E-005  0.9118800E+02  0.7818608E-02  0.1130116E+00
         25   -1    0    0    0    0  0.00000000000E+00  0.00000000000E+00  0.99999998245E-14  0.12500000000E+03  0.12500000000E+03 0.  0.
        -11    1    3    3    0    0 -0.29213325576E+02  0.16615477469E+02 -0.35653859045E+02  0.48996838141E+02  0.51100000000E-03 0.  1.
         23    2    1    0    0    0  0.11298026894E+02  0.23445852991E+02 -0.13120872256E+02  0.95853632766E+02  0.91314884830E+02 0.  0.
         11    1    3    3    0    0  0.40511352470E+02  0.68303755220E+01  0.22532986789E+02  0.46856794626E+02  0.51100000000E-03 0. -1.
         22    1    1    0    0    0 -0.11298026894E+02 -0.23445852991E+02  0.13120872256E+02  0.29146367234E+02  0.00000000000E+00 0.  1.
</event>
<event>
 5    1  0.8752570E-005  0.9118800E+02  0.7818608E-02  0.1130116E+00
         25   -1    0    0    0    0  0.00000000000E+00  0.00000000000E+00  0.99999998245E-14  0.12500000000E+03  0.12500000000E+03 0.  0.
        -11    1    3    3    0    0 -0.13913993300E+02 -0.18271558418E+02 -0.57793963081E+02  0.62189960809E+02  0.51100000000E-03 0. -1.
         23    2    1    0    0    0 -0.66053044839E+01 -0.11309009335E+02 -0.21839077953E+02  0.99534944231E+02  0.96222326192E+02 0.  0.
         11    1    3    3    0    0  0.73086888157E+01  0.69625490831E+01  0.35954885128E+02  0.37344983422E+02  0.51100000000E-03 0.  1.
         22    1    1    0    0    0  0.66053044839E+01  0.11309009335E+02  0.21839077953E+02  0.25465055769E+02  0.00000000000E+00 0. -1.
</event>
<event>
 5    1  0.8752570E-005  0.9118800E+02  0.7818608E-02  0.1130116E+00
         25   -1    0    0    0    0  0.00000000000E+00  0.00000000000E+00  0.99999998245E-14  0.12500000000E+03  0.12500000000E+03 0.  0.
        -11    1    3    3    0    0  0.44114785941E+02  0.17394404951E+01 -0.33725651590E+02  0.55556813870E+02  0.51100000000E-03 0.  1.
         23    2    1    0    0    0  0.29486217211E+02 -0.63253479875E+01  0.17746179031E+01  0.94790791118E+02  0.89848192967E+02 0.  0.
         11    1    3    3    0    0 -0.14628568730E+02 -0.80647884826E+01  0.35500269493E+02  0.39233977248E+02  0.51100000000E-03 0. -1.
         22    1    1    0    0    0 -0.29486217211E+02  0.63253479875E+01 -0.17746179031E+01  0.30209208882E+02  0.00000000000E+00 0.  1.
</event>
<event>
 5    1  0.8752570E-005  0.9118800E+02  0.7818608E-02  0.1130116E+00
         25   -1    0    0    0    0  0.00000000000E+00  0.00000000000E+00  0.99999998245E-14  0.12500000000E+03  0.12500000000E+03 0.  0.
        -11    1    3    3    0    0 -0.37562075489E+02  0.11707200073E+02  0.11986860013E+02  0.41129707777E+02  0.51100000000E-03 0.  1.
         23    2    1    0    0    0  0.39174663835E+01 -0.25665675016E+02 -0.27979709106E+01  0.98886745548E+02  0.95376550508E+02 0.  0.
         11    1    3    3    0    0  0.41479541872E+02 -0.37372875089E+02 -0.14784830924E+02  0.57757037771E+02  0.51100000000E-03 0. -1.
         22    1    1    0    0    0 -0.39174663835E+01  0.25665675016E+02  0.27979709106E+01  0.26113254452E+02  0.00000000000E+00 0. -1.
</event>
<event>
 5    1  0.8752570E-005  0.9118800E+02  0.7818608E-02  0.1130116E+00
         25   -1    0    0    0    0  0.00000000000E+00  0.00000000000E+00  0.99999998245E-14  0.12500000000E+03  0.12500000000E+03 0.  0.
        -11    1    3    3    0    0 -0.34581564352E+02  0.12815931154E+02 -0.49561661191E+02  0.61777754448E+02  0.51100000000E-03 0. -1.
         23    2    1    0    0    0 -0.15927680373E+02  0.13023269403E+02 -0.24923614648E+02  0.92681536003E+02  0.86864169833E+02 0.  0.
         11    1    3    3    0    0  0.18653883979E+02  0.20733824886E+00  0.24638046544E+02  0.30903781555E+02  0.51100000000E-03 0.  1.
         22    1    1    0    0    0  0.15927680373E+02 -0.13023269403E+02  0.24923614648E+02  0.32318463997E+02  0.00000000000E+00 0. -1.
</event>
<event>
 5    1  0.8752570E-005  0.9118800E+02  0.7818608E-02  0.1130116E+00
         25   -1    0    0    0    0  0.00000000000E+00  0.00000000000E+00  0.99999998245E-14  0.12500000000E+03  0.12500000000E+03 0.  0.
        -11    1    3    3    0    0  0.15818307745E+02  0.22556263924E+02 -0.40783404679E+02  0.49216765432E+02  0.51100000000E-03 0.  1.
         23    2    1    0    0    0  0.19178530633E+02  0.22109198836E+02  0.51559703910E+01  0.95281037349E+02  0.90527671665E+02 0.  0.
         11    1    3    3    0    0  0.33602228881E+01 -0.44706508817E+00  0.45939375070E+02  0.46064271916E+02  0.51100000000E-03 0. -1.
         22    1    1    0    0    0 -0.19178530633E+02 -0.22109198836E+02 -0.51559703910E+01  0.29718962651E+02  0.00000000000E+00 0. -1.
</event>
<event>
 5    1  0.8752570E-005  0.9118800E+02  0.7818608E-02  0.1130116E+00
         25   -1    0    0    0    0  0.00000000000E+00  0.00000000000E+00  0.99999998245E-14  0.12500000000E+03  0.12500000000E+03 0.  0.
        -11    1    3    3    0    0 -0.35650209466E+02 -0.32870927922E+02 -0.39302888406E+02  0.62419166726E+02  0.51100000000E-03 0. -1.
         23    2    1    0    0    0 -0.15180435897E+02 -0.16928227491E+02 -0.19155711600E+02  0.95268672971E+02  0.90510597405E+02 0.  0.
         11    1    3    3    0    0  0.20469773570E+02  0.15942700431E+02  0.20147176805E+02  0.32849506245E+02  0.51100000000E-03 0.  1.
         22    1    1    0    0    0  0.15180435897E+02  0.16928227491E+02  0.19155711600E+02  0.29731327029E+02  0.00000000000E+00 0. -1.
</event>
<event>
 5    1  0.8752570E-005  0.9118800E+02  0.7818608E-02  0.1130116E+00
         25   -1    0    0    0    0  0.00000000000E+00  0.00000000000E+00  0.99999998245E-14  0.12500000000E+03  0.12500000000E+03 0.  0.
        -11    1    3    3    0    0 -0.49429473597E+02 -0.24980180981E+01  0.24109751614E+02  0.55052639152E+02  0.51100000000E-03 0.  1.
         23    2    1    0    0    0 -0.31514185329E+02  0.95418930543E+01  0.32986786135E+02  0.78391849860E+02  0.63031440289E+02 0.  0.
         11    1    3    3    0    0  0.17915288268E+02  0.12039911152E+02  0.88770345211E+01  0.23339210707E+02  0.51100000000E-03 0. -1.
         22    1    1    0    0    0  0.31514185329E+02 -0.95418930543E+01 -0.32986786135E+02  0.46608150140E+02  0.00000000000E+00 0.  1.
</event>
<event>
 5    1  0.8752570E-005  0.9118800E+02  0.7818608E-02  0.1130116E+00
         25   -1    0    0    0    0  0.00000000000E+00  0.00000000000E+00  0.99999998245E-14  0.12500000000E+03  0.12500000000E+03 0.  0.
        -11    1    3    3    0    0  0.10460597460E+02  0.41246788533E+02 -0.18847555078E+02  0.46539789388E+02  0.51100000000E-03 0.  1.
         23    2    1    0    0    0  0.28937624409E+02 -0.19781452482E+01 -0.48158047680E+01  0.95597769802E+02  0.90963962372E+02 0.  0.
         11    1    3    3    0    0  0.18477026949E+02 -0.43224933782E+02  0.14031750310E+02  0.49057980414E+02  0.51100000000E-03 0. -1.
         22    1    1    0    0    0 -0.28937624409E+02  0.19781452482E+01  0.48158047680E+01  0.29402230198E+02  0.00000000000E+00 0. -1.
</event>
<event>
 5    1  0.8752570E-005  0.9118800E+02  0.7818608E-02  0.1130116E+00
         25   -1    0    0    0    0  0.00000000000E+00  0.00000000000E+00  0.99999998245E-14  0.12500000000E+03  0.12500000000E+03 0.  0.
        -11    1    3    3    0    0 -0.37179643483E+02  0.10424804682E+02 -0.50525405217E+01  0.38942657949E+02  0.51100000000E-03 0.  1.
         23    2    1    0    0    0  0.18208397618E+02  0.21372594089E+02 -0.89341918260E+01  0.95535558626E+02  0.90878433396E+02 0.  0.
         11    1    3    3    0    0  0.55388041101E+02  0.10947789407E+02 -0.38816513042E+01  0.56592900677E+02  0.51100000000E-03 0. -1.
         22    1    1    0    0    0 -0.18208397618E+02 -0.21372594089E+02  0.89341918260E+01  0.29464441374E+02  0.00000000000E+00 0. -1.
</event>
<event>
 5    1  0.8752570E-005  0.9118800E+02  0.7818608E-02  0.1130116E+00
         25   -1    0    0    0    0  0.00000000000E+00  0.00000000000E+00  0.99999998245E-14  0.12500000000E+03  0.12500000000E+03 0.  0.
        -11    1    3    3    0    0 -0.65469572813E+01 -0.24447570696E+02  0.26036015877E+02  0.36310060391E+02  0.51100000000E-03 0. -1.
         23    2    1    0    0    0  0.17055583545E+02 -0.12305787168E+02 -0.24084699187E+02  0.93025040065E+02  0.87357083378E+02 0.  0.
         11    1    3    3    0    0  0.23602540827E+02  0.12141783529E+02 -0.50120715064E+02  0.56714979675E+02  0.51100000000E-03 0.  1.
         22    1    1    0    0    0 -0.17055583545E+02  0.12305787168E+02  0.24084699187E+02  0.31974959935E+02  0.00000000000E+00 0.  1.
</event>
<event>
 5    1  0.8752570E-005  0.9118800E+02  0.7818608E-02  0.1130116E+00
         25   -1    0    0    0    0  0.00000000000E+00  0.00000000000E+00  0.99999998245E-14  0.12500000000E+03  0.12500000000E+03 0.  0.
        -11    1    3    3    0    0  0.26849870754E+02  0.81923328522E+01  0.26502613544E+02  0.38605937393E+02  0.51100000000E-03 0. -1.
         23    2    1    0    0    0  0.14406211132E+02  0.19120275545E+00 -0.27151755430E+02  0.94262509852E+02  0.89110198423E+02 0.  0.
         11    1    3    3    0    0 -0.12443659622E+02 -0.80011300968E+01 -0.53654368974E+02  0.55656572459E+02  0.51100000000E-03 0.  1.
         22    1    1    0    0    0 -0.14406211132E+02 -0.19120275545E+00  0.27151755430E+02  0.30737490148E+02  0.00000000000E+00 0.  1.
</event>
<event>
 5    1  0.8752570E-005  0.9118800E+02  0.7818608E-02  0.1130116E+00
         25   -1    0    0    0    0  0.00000000000E+00  0.00000000000E+00  0.99999998245E-14  0.12500000000E+03  0.12500000000E+03 0.  0.
        -11    1    3    3    0    0 -0.37331433396E+02 -0.38362504505E+02  0.75318231488E+01  0.54055952785E+02  0.51100000000E-03 0. -1.
         23    2    1    0    0    0 -0.27196291351E+01 -0.16471783837E+02  0.21904950408E+02  0.97458342501E+02  0.93485750921E+02 0.  0.
         11    1    3    3    0    0  0.34611804261E+02  0.21890720668E+02  0.14373127259E+02  0.43402389716E+02  0.51100000000E-03 0.  1.
         22    1    1    0    0    0  0.27196291351E+01  0.16471783837E+02 -0.21904950408E+02  0.27541657499E+02  0.00000000000E+00 0. -1.
</event>
<event>
 5    1  0.8752570E-005  0.9118800E+02  0.7818608E-02  0.1130116E+00
         25   -1    0    0    0    0  0.00000000000E+00  0.00000000000E+00  0.99999998245E-14  0.12500000000E+03  0.12500000000E+03 0.  0.
        -11    1    3    3    0    0  0.49043473975E+02  0.43045009966E+00  0.16091863856E+02  0.51617784817E+02  0.51100000000E-03 0. -1.
         23    2    1    0    0    0  0.78050685463E+01  0.15960670559E+02  0.22697285569E+02  0.96175897726E+02  0.91754969520E+02 0.  0.
         11    1    3    3    0    0 -0.41238405428E+02  0.15530220459E+02  0.66054217131E+01  0.44558112909E+02  0.51100000000E-03 0.  1.
         22    1    1    0    0    0 -0.78050685463E+01 -0.15960670559E+02 -0.22697285569E+02  0.28824102274E+02  0.00000000000E+00 0.  1.
</event>
<event>
 5    1  0.8752570E-005  0.9118800E+02  0.7818608E-02  0.1130116E+00
         25   -1    0    0    0    0  0.00000000000E+00  0.00000000000E+00  0.99999998245E-14  0.12500000000E+03  0.12500000000E+03 0.  0.
        -11    1    3    3    0    0  0.18599953157E+02 -0.15336779507E+01 -0.44329962731E+02  0.48098399365E+02  0.51100000000E-03 0. -1.
         23    2    1    0    0    0  0.21336622751E+02  0.18756745375E+02 -0.37418889792E+00  0.96588611705E+02  0.92315507507E+02 0.  0.
         11    1    3    3    0    0  0.27366695946E+01  0.20290423326E+02  0.43955773833E+02  0.48490212340E+02  0.51100000000E-03 0.  1.
         22    1    1    0    0    0 -0.21336622751E+02 -0.18756745375E+02  0.37418889792E+00  0.28411388295E+02  0.00000000000E+00 0. -1.
</event>
<event>
 5    1  0.8752570E-005  0.9118800E+02  0.7818608E-02  0.1130116E+00
         25   -1    0    0    0    0  0.00000000000E+00  0.00000000000E+00  0.99999998245E-14  0.12500000000E+03  0.12500000000E+03 0.  0.
        -11    1    3    3    0    0 -0.10163950752E+02  0.32008338468E+02 -0.91949062242E+01  0.34819332664E+02  0.51100000000E-03 0. -1.
         23    2    1    0    0    0  0.18864504205E+02 -0.18838931011E+02  0.10135905121E+02  0.96477878529E+02  0.92165447063E+02 0.  0.
         11    1    3    3    0    0  0.29028454957E+02 -0.50847269480E+02  0.19330811345E+02  0.61658545866E+02  0.51100000000E-03 0.  1.
         22    1    1    0    0    0 -0.18864504205E+02  0.18838931011E+02 -0.10135905121E+02  0.28522121471E+02  0.00000000000E+00 0.  1.
</event>
<event>
 5    1  0.8752570E-005  0.9118800E+02  0.7818608E-02  0.1130116E+00
         25   -1    0    0    0    0  0.00000000000E+00  0.00000000000E+00  0.99999998245E-14  0.12500000000E+03  0.12500000000E+03 0.  0.
        -11    1    3    3    0    0  0.20990999808E+02  0.28339285905E+01 -0.51489901458E+02  0.55676414905E+02  0.51100000000E-03 0.  1.
         23    2    1    0    0    0  0.20709934895E+02  0.19902601851E+02 -0.26642006512E+02  0.85823329968E+02  0.76359887978E+02 0.  0.
         11    1    3    3    0    0 -0.28106491351E+00  0.17068673260E+02  0.24847894946E+02  0.30146915064E+02  0.51100000000E-03 0. -1.
         22    1    1    0    0    0 -0.20709934895E+02 -0.19902601851E+02  0.26642006512E+02  0.39176670032E+02  0.00000000000E+00 0.  1.
</event>
<event>
 5    1  0.8752570E-005  0.9118800E+02  0.7818608E-02  0.1130116E+00
         25   -1    0    0    0    0  0.00000000000E+00  0.00000000000E+00  0.99999998245E-14  0.12500000000E+03  0.12500000000E+03 0.  0.
        -11    1    3    3    0    0 -0.40558362917E+00  0.38412728366E+02 -0.31706659109E+02  0.49809782481E+02  0.51100000000E-03 0.  1.
         23    2    1    0    0    0  0.21643468922E+02  0.18318311354E+02  0.40285966938E+01  0.96360344465E+02  0.92005902616E+02 0.  0.
         11    1    3    3    0    0  0.22049052551E+02 -0.20094417012E+02  0.35735255803E+02  0.46550561984E+02  0.51100000000E-03 0. -1.
         22    1    1    0    0    0 -0.21643468922E+02 -0.18318311354E+02 -0.40285966938E+01  0.28639655535E+02  0.00000000000E+00 0.  1.
</event>
<event>
 5    1  0.8752570E-005  0.9118800E+02  0.7818608E-02  0.1130116E+00
         25   -1    0    0    0    0  0.00000000000E+00  0.00000000000E+00  0.99999998245E-14  0.12500000000E+03  0.12500000000E+03 0.  0.
        -11    1    3    3    0    0  0.33130946896E+02 -0.14374902146E+02  0.16525287155E+02  0.39716275879E+02  0.51100000000E-03 0.  1.
         23    2    1    0    0    0 -0.57616163965E+01 -0.26806788257E+02 -0.17164188795E+02  0.92651746613E+02  0.86821291474E+02 0.  0.
         11    1    3    3    0    0 -0.38892563292E+02 -0.12431886111E+02 -0.33689475951E+02  0.52935470734E+02  0.51100000000E-03 0. -1.
         22    1    1    0    0    0  0.57616163965E+01  0.26806788257E+02  0.17164188795E+02  0.32348253387E+02  0.00000000000E+00 0. -1.
</event>
<event>
 5    1  0.8752570E-005  0.9118800E+02  0.7818608E-02  0.1130116E+00
         25   -1    0    0    0    0  0.00000000000E+00  0.00000000000E+00  0.99999998245E-14  0.12500000000E+03  0.12500000000E+03 0.  0.
        -11    1    3    3    0    0  0.53046367070E+01 -0.44503905839E+02 -0.17348226871E+02  0.48059315241E+02  0.51100000000E-03 0.  1.
         23    2    1    0    0    0  0.15536315343E+02 -0.17930660746E+02  0.19262300424E+02  0.94439864090E+02  0.89358637089E+02 0.  0.
         11    1    3    3    0    0  0.10231678636E+02  0.26573245093E+02  0.36610527295E+02  0.46380548849E+02  0.51100000000E-03 0. -1.
         22    1    1    0    0    0 -0.15536315343E+02  0.17930660746E+02 -0.19262300424E+02  0.30560135910E+02  0.00000000000E+00 0. -1.
</event>
<event>
 5    1  0.8752570E-005  0.9118800E+02  0.7818608E-02  0.1130116E+00
         25   -1    0    0    0    0  0.00000000000E+00  0.00000000000E+00  0.99999998245E-14  0.12500000000E+03  0.12500000000E+03 0.  0.
        -11    1    3    3    0    0 -0.14779318769E+02 -0.27855047283E+02 -0.37476208189E+02  0.48977526509E+02  0.51100000000E-03 0.  1.
         23    2    1    0    0    0 -0.24338394019E+02 -0.10763665438E+02  0.69215898899E+01  0.97502321485E+02  0.93544536833E+02 0.  0.
         11    1    3    3    0    0 -0.95590752499E+01  0.17091381845E+02  0.44397798079E+02  0.48524794977E+02  0.51100000000E-03 0. -1.
         22    1    1    0    0    0  0.24338394019E+02  0.10763665438E+02 -0.69215898899E+01  0.27497678515E+02  0.00000000000E+00 0. -1.
</event>
<event>
 5    1  0.8752570E-005  0.9118800E+02  0.7818608E-02  0.1130116E+00
         25   -1    0    0    0    0  0.00000000000E+00  0.00000000000E+00  0.99999998245E-14  0.12500000000E+03  0.12500000000E+03 0.  0.
        -11    1    3    3    0    0 -0.11101917209E+02 -0.68219699397E+00  0.46808233718E+02  0.48111627519E+02  0.51100000000E-03 0.  1.
         23    2    1    0    0    0  0.22175674955E+01  0.28450575276E+02  0.17531428852E+02  0.91508152683E+02  0.85158899540E+02 0.  0.
         11    1    3    3    0    0  0.13319484705E+02  0.29132772270E+02 -0.29276804866E+02  0.43396525164E+02  0.51100000000E-03 0. -1.
         22    1    1    0    0    0 -0.22175674955E+01 -0.28450575276E+02 -0.17531428852E+02  0.33491847317E+02  0.00000000000E+00 0. -1.
</event>
<event>
 5    1  0.8752570E-005  0.9118800E+02  0.7818608E-02  0.1130116E+00
         25   -1    0    0    0    0  0.00000000000E+00  0.00000000000E+00  0.99999998245E-14  0.12500000000E+03  0.12500000000E+03 0.  0.
        -11    1    3    3    0    0  0.22768912997E+02  0.17648244821E+02 -0.16301364242E+02  0.33100127201E+02  0.51100000000E-03 0.  1.
         23    2    1    0    0    0 -0.24676551922E+02 -0.16392175222E+02  0.43904684622E+01  0.95051513618E+02  0.90210190137E+02 0.  0.
         11    1    3    3    0    0 -0.47445464919E+02 -0.34040420043E+02  0.20691832704E+02  0.61951386417E+02  0.51100000000E-03 0. -1.
         22    1    1    0    0    0  0.24676551922E+02  0.16392175222E+02 -0.43904684622E+01  0.29948486382E+02  0.00000000000E+00 0. -1.
</event>
<event>
 5    1  0.8752570E-005  0.9118800E+02  0.7818608E-02  0.1130116E+00
         25   -1    0    0    0    0  0.00000000000E+00  0.00000000000E+00  0.99999998245E-14  0.12500000000E+03  0.12500000000E+03 0.  0.
        -11    1    3    3    0    0 -0.45276726916E+02  0.27563154869E+02 -0.18055220712E+02  0.55997325844E+02  0.51100000000E-03 0.  1.
         23    2    1    0    0    0 -0.15536282408E+02  0.27256921605E+02  0.44738573465E+01  0.93308814380E+02  0.87762199124E+02 0.  0.
         11    1    3    3    0    0  0.29740444507E+02 -0.30623326375E+00  0.22529078059E+02  0.37311488536E+02  0.51100000000E-03 0. -1.
         22    1    1    0    0    0  0.15536282408E+02 -0.27256921605E+02 -0.44738573465E+01  0.31691185620E+02  0.00000000000E+00 0.  1.
</event>
<event>
 5    1  0.8752570E-005  0.9118800E+02  0.7818608E-02  0.1130116E+00
         25   -1    0    0    0    0  0.00000000000E+00  0.00000000000E+00  0.99999998245E-14  0.12500000000E+03  0.12500000000E+03 0.  0.
        -11    1    3    3    0    0  0.58265078974E+02  0.94493638202E+01  0.30402130255E+01  0.59104592038E+02  0.51100000000E-03 0.  1.
         23    2    1    0    0    0  0.25030925409E+02  0.18451340785E+02 -0.16782753915E+01  0.93858134098E+02  0.88541140293E+02 0.  0.
         11    1    3    3    0    0 -0.33234153565E+02  0.90019769651E+01 -0.47184884169E+01  0.34753542060E+02  0.51100000000E-03 0. -1.
         22    1    1    0    0    0 -0.25030925409E+02 -0.18451340785E+02  0.16782753915E+01  0.31141865902E+02  0.00000000000E+00 0.  1.
</event>
<event>
 5    1  0.8752570E-005  0.9118800E+02  0.7818608E-02  0.1130116E+00
         25   -1    0    0    0    0  0.00000000000E+00  0.00000000000E+00  0.99999998245E-14  0.12500000000E+03  0.12500000000E+03 0.  0.
        -11    1    3    3    0    0 -0.36530343662E+01  0.31602669346E+02  0.40158055348E+02  0.51232243553E+02  0.51100000000E-03 0.  1.
         23    2    1    0    0    0 -0.99654890631E+01 -0.41135457262E+01  0.35619271252E+02  0.87784885930E+02  0.79506109718E+02 0.  0.
         11    1    3    3    0    0 -0.63124546969E+01 -0.35716215072E+02 -0.45387840959E+01  0.36552642377E+02  0.51100000000E-03 0. -1.
         22    1    1    0    0    0  0.99654890631E+01  0.41135457262E+01 -0.35619271252E+02  0.37215114070E+02  0.00000000000E+00 0.  1.
</event>
<event>
 5    1  0.8752570E-005  0.9118800E+02  0.7818608E-02  0.1130116E+00
         25   -1    0    0    0    0  0.00000000000E+00  0.00000000000E+00  0.99999998245E-14  0.12500000000E+03  0.12500000000E+03 0.  0.
        -11    1    3    3    0    0 -0.18859302032E+02 -0.20328952030E+02 -0.18788985605E+02  0.33495754120E+02  0.51100000000E-03 0.  1.
         23    2    1    0    0    0  0.12213558649E+02  0.23854736315E+02  0.11962416793E+02  0.95651765385E+02  0.91038131275E+02 0.  0.
         11    1    3    3    0    0  0.31072860681E+02  0.44183688345E+02  0.30751402397E+02  0.62156011264E+02  0.51100000000E-03 0. -1.
         22    1    1    0    0    0 -0.12213558649E+02 -0.23854736315E+02 -0.11962416793E+02  0.29348234615E+02  0.00000000000E+00 0. -1.
</event>
<event>
 5    1  0.8752570E-005  0.9118800E+02  0.7818608E-02  0.1130116E+00
         25   -1    0    0    0    0  0.00000000000E+00  0.00000000000E+00  0.99999998245E-14  0.12500000000E+03  0.12500000000E+03 0.  0.
        -11    1    3    3    0    0 -0.33492009424E+02 -0.98004567460E+01  0.15573930429E+02  0.38214015190E+02  0.51100000000E-03 0. -1.
         23    2    1    0    0    0  0.24807999170E+02  0.30785426095E+01  0.96154787182E+01  0.98216204930E+02  0.94493657101E+02 0.  0.
         11    1    3    3    0    0  0.58300008594E+02  0.12878999356E+02 -0.59584517106E+01  0.60002189739E+02  0.51100000000E-03 0.  1.
         22    1    1    0    0    0 -0.24807999170E+02 -0.30785426095E+01 -0.96154787182E+01  0.26783795070E+02  0.00000000000E+00 0.  1.
</event>
<event>
 5    1  0.8752570E-005  0.9118800E+02  0.7818608E-02  0.1130116E+00
         25   -1    0    0    0    0  0.00000000000E+00  0.00000000000E+00  0.99999998245E-14  0.12500000000E+03  0.12500000000E+03 0.  0.
        -11    1    3    3    0    0  0.10754445719E+02  0.28118342636E+02  0.18962494648E+02  0.35579144156E+02  0.51100000000E-03 0. -1.
         23    2    1    0    0    0 -0.10216311125E+02 -0.26356666543E+02  0.11721734721E+02  0.94398595635E+02  0.89300889742E+02 0.  0.
         11    1    3    3    0    0 -0.20970756844E+02 -0.54475009179E+02 -0.72407599278E+01  0.58819451479E+02  0.51100000000E-03 0.  1.
         22    1    1    0    0    0  0.10216311125E+02  0.26356666543E+02 -0.11721734721E+02  0.30601404365E+02  0.00000000000E+00 0.  1.
</event>
<event>
 5    1  0.8752570E-005  0.9118800E+02  0.7818608E-02  0.1130116E+00
         25   -1    0    0    0    0  0.00000000000E+00  0.00000000000E+00  0.99999998245E-14  0.12500000000E+03  0.12500000000E+03 0.  0.
        -11    1    3    3    0    0 -0.16654136163E+02  0.18147840607E+02  0.50658073570E+02  0.56328898339E+02  0.51100000000E-03 0. -1.
         23    2    1    0    0    0 -0.24891593132E+02  0.54132931153E+01  0.14153641502E+02  0.95858608153E+02  0.91321695332E+02 0.  0.
         11    1    3    3    0    0 -0.82374569687E+01 -0.12734547492E+02 -0.36504432068E+02  0.39529709814E+02  0.51100000000E-03 0.  1.
         22    1    1    0    0    0  0.24891593132E+02 -0.54132931153E+01 -0.14153641502E+02  0.29141391847E+02  0.00000000000E+00 0.  1.
</event>
<event>
 5    1  0.8752570E-005  0.9118800E+02  0.7818608E-02  0.1130116E+00
         25   -1    0    0    0    0  0.00000000000E+00  0.00000000000E+00  0.99999998245E-14  0.12500000000E+03  0.12500000000E+03 0.  0.
        -11    1    3    3    0    0 -0.36338393298E+02 -0.27629357813E+02 -0.34793917599E+02  0.57397534292E+02  0.51100000000E-03 0.  1.
         23    2    1    0    0    0 -0.27554576226E+02 -0.17868854074E+02 -0.27306993998E+01  0.92045374587E+02  0.85943840075E+02 0.  0.
         11    1    3    3    0    0  0.87838170720E+01  0.97605037388E+01  0.32063218199E+02  0.34647840296E+02  0.51100000000E-03 0. -1.
         22    1    1    0    0    0  0.27554576226E+02  0.17868854074E+02  0.27306993998E+01  0.32954625413E+02  0.00000000000E+00 0.  1.
</event>
<event>
 5    1  0.8752570E-005  0.9118800E+02  0.7818608E-02  0.1130116E+00
         25   -1    0    0    0    0  0.00000000000E+00  0.00000000000E+00  0.99999998245E-14  0.12500000000E+03  0.12500000000E+03 0.  0.
        -11    1    3    3    0    0  0.30599056295E+00  0.34446811885E+02  0.26514326233E+02  0.43470518459E+02  0.51100000000E-03 0.  1.
         23    2    1    0    0    0 -0.21637161861E+02 -0.12076755097E+02  0.14486623034E+02  0.96296741753E+02  0.91919450816E+02 0.  0.
         11    1    3    3    0    0 -0.21943152424E+02 -0.46523566982E+02 -0.12027703199E+02  0.52826223294E+02  0.51100000000E-03 0. -1.
         22    1    1    0    0    0  0.21637161861E+02  0.12076755097E+02 -0.14486623034E+02  0.28703258247E+02  0.00000000000E+00 0.  1.
</event>
<event>
 5    1  0.8752570E-005  0.9118800E+02  0.7818608E-02  0.1130116E+00
         25   -1    0    0    0    0  0.00000000000E+00  0.00000000000E+00  0.99999998245E-14  0.12500000000E+03  0.12500000000E+03 0.  0.
        -11    1    3    3    0    0 -0.18959135360E+02  0.28490412278E+02 -0.13188715255E+02  0.36675531566E+02  0.51100000000E-03 0.  1.
         23    2    1    0    0    0 -0.12458849626E+02 -0.24960523538E+02  0.10086372058E+02  0.95335449260E+02  0.90602772116E+02 0.  0.
         11    1    3    3    0    0  0.65002857341E+01 -0.53450935816E+02  0.23275087312E+02  0.58659917694E+02  0.51100000000E-03 0. -1.
         22    1    1    0    0    0  0.12458849626E+02  0.24960523538E+02 -0.10086372058E+02  0.29664550740E+02  0.00000000000E+00 0. -1.
</event>
<event>
 5    1  0.8752570E-005  0.9118800E+02  0.7818608E-02  0.1130116E+00
         25   -1    0    0    0    0  0.00000000000E+00  0.00000000000E+00  0.99999998245E-14  0.12500000000E+03  0.12500000000E+03 0.  0.
        -11    1    3    3    0    0 -0.22654521833E+02 -0.38209838117E+02  0.29959517416E+01  0.44521846497E+02  0.51100000000E-03 0.  1.
         23    2    1    0    0    0 -0.20396392214E+02  0.98105405543E+01  0.19269525657E+02  0.95275024973E+02  0.90519369437E+02 0.  0.
         11    1    3    3    0    0  0.22581296190E+01  0.48020378672E+02  0.16273573916E+02  0.50753178476E+02  0.51100000000E-03 0. -1.
         22    1    1    0    0    0  0.20396392214E+02 -0.98105405543E+01 -0.19269525657E+02  0.29724975027E+02  0.00000000000E+00 0.  1.
</event>
<event>
 5    1  0.8752570E-005  0.9118800E+02  0.7818608E-02  0.1130116E+00
         25   -1    0    0    0    0  0.00000000000E+00  0.00000000000E+00  0.99999998245E-14  0.12500000000E+03  0.12500000000E+03 0.  0.
        -11    1    3    3    0    0 -0.40811517836E+02 -0.43198946115E+02 -0.85518408113E+01  0.60040510616E+02  0.51100000000E-03 0.  1.
         23    2    1    0    0    0 -0.29891493078E+02 -0.13967936735E+02 -0.18634732120E+01  0.91953409443E+02  0.85809978212E+02 0.  0.
         11    1    3    3    0    0  0.10920024758E+02  0.29231009381E+02  0.66883675993E+01  0.31912898827E+02  0.51100000000E-03 0. -1.
         22    1    1    0    0    0  0.29891493078E+02  0.13967936735E+02  0.18634732120E+01  0.33046590557E+02  0.00000000000E+00 0.  1.
</event>
<event>
 5    1  0.8752570E-005  0.9118800E+02  0.7818608E-02  0.1130116E+00
         25   -1    0    0    0    0  0.00000000000E+00  0.00000000000E+00  0.99999998245E-14  0.12500000000E+03  0.12500000000E+03 0.  0.
        -11    1    3    3    0    0 -0.18202911236E+02 -0.11854535700E+02  0.51771990201E+02  0.56144589799E+02  0.51100000000E-03 0.  1.
         23    2    1    0    0    0 -0.77220023568E+01  0.12865651136E+02  0.32524710763E+02  0.89180855541E+02  0.81671377393E+02 0.  0.
         11    1    3    3    0    0  0.10480908879E+02  0.24720186836E+02 -0.19247279438E+02  0.33036265742E+02  0.51100000000E-03 0. -1.
         22    1    1    0    0    0  0.77220023568E+01 -0.12865651136E+02 -0.32524710763E+02  0.35819144459E+02  0.00000000000E+00 0.  1.
</event>
<event>
 5    1  0.8752570E-005  0.9118800E+02  0.7818608E-02  0.1130116E+00
         25   -1    0    0    0    0  0.00000000000E+00  0.00000000000E+00  0.99999998245E-14  0.12500000000E+03  0.12500000000E+03 0.  0.
        -11    1    3    3    0    0  0.51997605151E+02 -0.25786310539E+02  0.25669185786E+01  0.58097106847E+02  0.51100000000E-03 0.  1.
         23    2    1    0    0    0  0.24574728761E+02 -0.30292689647E+02  0.28447585093E+01  0.85889170417E+02  0.76467591856E+02 0.  0.
         11    1    3    3    0    0 -0.27422876391E+02 -0.45063791081E+01  0.27783993063E+00  0.27792063570E+02  0.51100000000E-03 0. -1.
         22    1    1    0    0    0 -0.24574728761E+02  0.30292689647E+02 -0.28447585093E+01  0.39110829583E+02  0.00000000000E+00 0.  1.
</event>
<event>
 5    1  0.8752570E-005  0.9118800E+02  0.7818608E-02  0.1130116E+00
         25   -1    0    0    0    0  0.00000000000E+00  0.00000000000E+00  0.99999998245E-14  0.12500000000E+03  0.12500000000E+03 0.  0.
        -11    1    3    3    0    0  0.14803985879E+01  0.33427896845E+02 -0.76060226931E+01  0.34314245568E+02  0.51100000000E-03 0. -1.
         23    2    1    0    0    0 -0.22467566609E+02 -0.19771946488E+02  0.65820863611E+01  0.94356154319E+02  0.89241462224E+02 0.  0.
         11    1    3    3    0    0 -0.23947965196E+02 -0.53199843333E+02  0.14188109054E+02  0.60041908751E+02  0.51100000000E-03 0.  1.
         22    1    1    0    0    0  0.22467566609E+02  0.19771946488E+02 -0.65820863611E+01  0.30643845681E+02  0.00000000000E+00 0.  1.
</event>
<event>
 5    1  0.8752570E-005  0.9118800E+02  0.7818608E-02  0.1130116E+00
         25   -1    0    0    0    0  0.00000000000E+00  0.00000000000E+00  0.99999998245E-14  0.12500000000E+03  0.12500000000E+03 0.  0.
        -11    1    3    3    0    0 -0.13477931477E+02  0.63029160630E+01  0.53444666988E+02  0.55477146804E+02  0.51100000000E-03 0.  1.
         23    2    1    0    0    0 -0.17098537457E+02  0.16775766284E+02  0.12329709203E+02  0.98059175094E+02  0.94285702912E+02 0.  0.
         11    1    3    3    0    0 -0.36206059793E+01  0.10472850221E+02 -0.41114957785E+02  0.42582028291E+02  0.51100000000E-03 0. -1.
         22    1    1    0    0    0  0.17098537457E+02 -0.16775766284E+02 -0.12329709203E+02  0.26940824906E+02  0.00000000000E+00 0.  1.
</event>
<event>
 5    1  0.8752570E-005  0.9118800E+02  0.7818608E-02  0.1130116E+00
         25   -1    0    0    0    0  0.00000000000E+00  0.00000000000E+00  0.99999998245E-14  0.12500000000E+03  0.12500000000E+03 0.  0.
        -11    1    3    3    0    0  0.93046038980E+01 -0.26339798187E+02  0.30816661442E+02  0.41593596201E+02  0.51100000000E-03 0. -1.
         23    2    1    0    0    0  0.20409501708E+02  0.17873251813E+02  0.25982482267E+02  0.87435518437E+02  0.78954921374E+02 0.  0.
         11    1    3    3    0    0  0.11104897810E+02  0.44213050001E+02 -0.48341791748E+01  0.45841922236E+02  0.51100000000E-03 0.  1.
         22    1    1    0    0    0 -0.20409501708E+02 -0.17873251813E+02 -0.25982482267E+02  0.37564481563E+02  0.00000000000E+00 0.  1.
</event>
<event>
 5    1  0.8752570E-005  0.9118800E+02  0.7818608E-02  0.1130116E+00
         25   -1    0    0    0    0  0.00000000000E+00  0.00000000000E+00  0.99999998245E-14  0.12500000000E+03  0.12500000000E+03 0.  0.
        -11    1    3    3    0    0 -0.91458514276E+01 -0.13451724015E+02  0.32538131473E+02  0.36377540837E+02  0.51100000000E-03 0. -1.
         23    2    1    0    0    0  0.25377075968E+02  0.38079384656E+01 -0.13132764886E+02  0.96173520964E+02  0.91751731543E+02 0.  0.
         11    1    3    3    0    0  0.34522927395E+02  0.17259662481E+02 -0.45670896359E+02  0.59795980128E+02  0.51100000000E-03 0.  1.
         22    1    1    0    0    0 -0.25377075968E+02 -0.38079384656E+01  0.13132764886E+02  0.28826479036E+02  0.00000000000E+00 0.  1.
</event>
<event>
 5    1  0.8752570E-005  0.9118800E+02  0.7818608E-02  0.1130116E+00
         25   -1    0    0    0    0  0.00000000000E+00  0.00000000000E+00  0.99999998245E-14  0.12500000000E+03  0.12500000000E+03 0.  0.
        -11    1    3    3    0    0 -0.89747670752E+01  0.36640639656E+02 -0.23049229577E+02  0.44208029846E+02  0.51100000000E-03 0. -1.
         23    2    1    0    0    0  0.27272405104E+02  0.20902958968E+01 -0.86299073919E+01  0.96318495181E+02  0.91949028245E+02 0.  0.
         11    1    3    3    0    0  0.36247172179E+02 -0.34550343759E+02  0.14419322186E+02  0.52110465335E+02  0.51100000000E-03 0.  1.
         22    1    1    0    0    0 -0.27272405104E+02 -0.20902958968E+01  0.86299073919E+01  0.28681504819E+02  0.00000000000E+00 0.  1.
</event>
<event>
 5    1  0.8752570E-005  0.9118800E+02  0.7818608E-02  0.1130116E+00
         25   -1    0    0    0    0  0.00000000000E+00  0.00000000000E+00  0.99999998245E-14  0.12500000000E+03  0.12500000000E+03 0.  0.
        -11    1    3    3    0    0 -0.30345805838E+02  0.48738785809E+02 -0.15056201484E+02  0.59355087209E+02  0.51100000000E-03 0. -1.
         23    2    1    0    0    0 -0.12253990705E+02  0.24741643682E+02  0.68601469569E+01  0.96550556481E+02  0.92263964364E+02 0.  0.
         11    1    3    3    0    0  0.18091815133E+02 -0.23997142127E+02  0.21916348441E+02  0.37195469272E+02  0.51100000000E-03 0.  1.
         22    1    1    0    0    0  0.12253990705E+02 -0.24741643682E+02 -0.68601469569E+01  0.28449443519E+02  0.00000000000E+00 0. -1.
</event>
<event>
 5    1  0.8752570E-005  0.9118800E+02  0.7818608E-02  0.1130116E+00
         25   -1    0    0    0    0  0.00000000000E+00  0.00000000000E+00  0.99999998245E-14  0.12500000000E+03  0.12500000000E+03 0.  0.
        -11    1    3    3    0    0 -0.23069581295E+02 -0.89546577550E+01  0.25794091155E+02  0.35745302005E+02  0.51100000000E-03 0. -1.
         23    2    1    0    0    0  0.26194169530E+02 -0.12896620544E+02 -0.68959670803E+01  0.94999804987E+02  0.90138511452E+02 0.  0.
         11    1    3    3    0    0  0.49263750825E+02 -0.39419627890E+01 -0.32690058235E+02  0.59254502982E+02  0.51100000000E-03 0.  1.
         22    1    1    0    0    0 -0.26194169530E+02  0.12896620544E+02  0.68959670803E+01  0.30000195013E+02  0.00000000000E+00 0.  1.
</event>
<event>
 5    1  0.8752570E-005  0.9118800E+02  0.7818608E-02  0.1130116E+00
         25   -1    0    0    0    0  0.00000000000E+00  0.00000000000E+00  0.99999998245E-14  0.12500000000E+03  0.12500000000E+03 0.  0.
        -11    1    3    3    0    0  0.63637268681E+01 -0.21448124056E+02 -0.43948837599E+02  0.49315508430E+02  0.51100000000E-03 0. -1.
         23    2    1    0    0    0  0.19756343991E+02  0.13669348605E+02 -0.17737397895E+02  0.95137322571E+02  0.90329013294E+02 0.  0.
         11    1    3    3    0    0  0.13392617123E+02  0.35117472661E+02  0.26211439704E+02  0.45821814140E+02  0.51100000000E-03 0.  1.
         22    1    1    0    0    0 -0.19756343991E+02 -0.13669348605E+02  0.17737397895E+02  0.29862677429E+02  0.00000000000E+00 0. -1.
</event>
<event>
 5    1  0.8752570E-005  0.9118800E+02  0.7818608E-02  0.1130116E+00
         25   -1    0    0    0    0  0.00000000000E+00  0.00000000000E+00  0.99999998245E-14  0.12500000000E+03  0.12500000000E+03 0.  0.
        -11    1    3    3    0    0  0.35764850353E+02 -0.30909725030E+01 -0.17431522659E+02  0.39906598630E+02  0.51100000000E-03 0.  1.
         23    2    1    0    0    0 -0.10079705055E+02  0.13626744165E+02  0.18049332418E+02  0.10023980995E+03  0.97133683590E+02 0.  0.
         11    1    3    3    0    0 -0.45844555407E+02  0.16717716668E+02  0.35480855077E+02  0.60333211321E+02  0.51100000000E-03 0. -1.
         22    1    1    0    0    0  0.10079705055E+02 -0.13626744165E+02 -0.18049332418E+02  0.24760190049E+02  0.00000000000E+00 0. -1.
</event>
<event>
 5    1  0.8752570E-005  0.9118800E+02  0.7818608E-02  0.1130116E+00
         25   -1    0    0    0    0  0.00000000000E+00  0.00000000000E+00  0.99999998245E-14  0.12500000000E+03  0.12500000000E+03 0.  0.
        -11    1    3    3    0    0  0.50505008111E+02 -0.18697089300E+01 -0.22371494818E+01  0.50589094614E+02  0.51100000000E-03 0. -1.
         23    2    1    0    0    0  0.12171206324E+02 -0.60729015990E+01 -0.25837281573E+02  0.95800967203E+02  0.91242763005E+02 0.  0.
         11    1    3    3    0    0 -0.38333801787E+02 -0.42031926690E+01 -0.23600132091E+02  0.45211872589E+02  0.51100000000E-03 0.  1.
         22    1    1    0    0    0 -0.12171206324E+02  0.60729015990E+01  0.25837281573E+02  0.29199032797E+02  0.00000000000E+00 0.  1.
</event>
<event>
 5    1  0.8752570E-005  0.9118800E+02  0.7818608E-02  0.1130116E+00
         25   -1    0    0    0    0  0.00000000000E+00  0.00000000000E+00  0.99999998245E-14  0.12500000000E+03  0.12500000000E+03 0.  0.
        -11    1    3    3    0    0  0.41372961546E+02  0.28861950192E+02  0.24260265070E+02  0.55975839230E+02  0.51100000000E-03 0. -1.
         23    2    1    0    0    0  0.28428402192E+01  0.18513138074E+02  0.22241329943E+02  0.95922607072E+02  0.91409254279E+02 0.  0.
         11    1    3    3    0    0 -0.38530121326E+02 -0.10348812118E+02 -0.20189351269E+01  0.39946767842E+02  0.51100000000E-03 0.  1.
         22    1    1    0    0    0 -0.28428402192E+01 -0.18513138074E+02 -0.22241329943E+02  0.29077392928E+02  0.00000000000E+00 0. -1.
</event>
<event>
 5    1  0.8752570E-005  0.9118800E+02  0.7818608E-02  0.1130116E+00
         25   -1    0    0    0    0  0.00000000000E+00  0.00000000000E+00  0.99999998245E-14  0.12500000000E+03  0.12500000000E+03 0.  0.
        -11    1    3    3    0    0 -0.13435309880E+02 -0.37916556726E+02  0.13138609177E+02  0.42317796220E+02  0.51100000000E-03 0.  1.
         23    2    1    0    0    0 -0.20288080887E+00  0.20438319004E+01  0.35129707345E+02  0.89810303389E+02  0.82629146475E+02 0.  0.
         11    1    3    3    0    0  0.13232429071E+02  0.39960388626E+02  0.21991098168E+02  0.47492507169E+02  0.51100000000E-03 0. -1.
         22    1    1    0    0    0  0.20288080887E+00 -0.20438319004E+01 -0.35129707345E+02  0.35189696611E+02  0.00000000000E+00 0. -1.
</event>
<event>
 5    1  0.8752570E-005  0.9118800E+02  0.7818608E-02  0.1130116E+00
         25   -1    0    0    0    0  0.00000000000E+00  0.00000000000E+00  0.99999998245E-14  0.12500000000E+03  0.12500000000E+03 0.  0.
        -11    1    3    3    0    0 -0.47618162204E+02  0.78216120022E+01  0.52603374111E+01  0.48542127435E+02  0.51100000000E-03 0.  1.
         23    2    1    0    0    0 -0.16120711532E+02 -0.21897288863E+02 -0.12152438842E+02  0.95216609164E+02  0.90438665907E+02 0.  0.
         11    1    3    3    0    0  0.31497450673E+02 -0.29718900866E+02 -0.17412776254E+02  0.46674481729E+02  0.51100000000E-03 0. -1.
         22    1    1    0    0    0  0.16120711532E+02  0.21897288863E+02  0.12152438842E+02  0.29783390836E+02  0.00000000000E+00 0.  1.
</event>
<event>
 5    1  0.8752570E-005  0.9118800E+02  0.7818608E-02  0.1130116E+00
         25   -1    0    0    0    0  0.00000000000E+00  0.00000000000E+00  0.99999998245E-14  0.12500000000E+03  0.12500000000E+03 0.  0.
        -11    1    3    3    0    0  0.75082852076E+01  0.18937935049E+02 -0.37321170729E+02  0.42519284043E+02  0.51100000000E-03 0. -1.
         23    2    1    0    0    0  0.30881278850E+02 -0.11266897267E+01  0.37639611678E+01  0.93869786110E+02  0.88557588763E+02 0.  0.
         11    1    3    3    0    0  0.23372993643E+02 -0.20064624776E+02  0.41085131897E+02  0.51350502067E+02  0.51100000000E-03 0.  1.
         22    1    1    0    0    0 -0.30881278850E+02  0.11266897267E+01 -0.37639611678E+01  0.31130213890E+02  0.00000000000E+00 0. -1.
</event>
<event>
 5    1  0.8752570E-005  0.9118800E+02  0.7818608E-02  0.1130116E+00
         25   -1    0    0    0    0  0.00000000000E+00  0.00000000000E+00  0.99999998245E-14  0.12500000000E+03  0.12500000000E+03 0.  0.
        -11    1    3    3    0    0 -0.41826377808E+02 -0.15555659576E+02  0.13456752410E+02  0.46610177119E+02  0.51100000000E-03 0.  1.
         23    2    1    0    0    0 -0.11311479248E+01 -0.24399330887E+02 -0.14336485430E+02  0.96677894537E+02  0.92436322051E+02 0.  0.
         11    1    3    3    0    0  0.40695229883E+02 -0.88436713108E+01 -0.27793237840E+02  0.50067717418E+02  0.51100000000E-03 0. -1.
         22    1    1    0    0    0  0.11311479248E+01  0.24399330887E+02  0.14336485430E+02  0.28322105463E+02  0.00000000000E+00 0. -1.
</event>
<event>
 5    1  0.8752570E-005  0.9118800E+02  0.7818608E-02  0.1130116E+00
         25   -1    0    0    0    0  0.00000000000E+00  0.00000000000E+00  0.99999998245E-14  0.12500000000E+03  0.12500000000E+03 0.  0.
        -11    1    3    3    0    0 -0.48554956096E+02 -0.13026787692E+01  0.26999838997E+02  0.55572223634E+02  0.51100000000E-03 0. -1.
         23    2    1    0    0    0 -0.15124335361E+02  0.19171945893E+02  0.13879283599E+02  0.96911861175E+02  0.92752171369E+02 0.  0.
         11    1    3    3    0    0  0.33430620735E+02  0.20474624662E+02 -0.13120555398E+02  0.41339637541E+02  0.51100000000E-03 0.  1.
         22    1    1    0    0    0  0.15124335361E+02 -0.19171945893E+02 -0.13879283599E+02  0.28088138825E+02  0.00000000000E+00 0. -1.
</event>
<event>
 5    1  0.8752570E-005  0.9118800E+02  0.7818608E-02  0.1130116E+00
         25   -1    0    0    0    0  0.00000000000E+00  0.00000000000E+00  0.99999998245E-14  0.12500000000E+03  0.12500000000E+03 0.  0.
        -11    1    3    3    0    0 -0.11625813106E+02 -0.31033948550E+01  0.56840905502E+02  0.58100594907E+02  0.51100000000E-03 0.  1.
         23    2    1    0    0    0 -0.19964180476E+02 -0.92464995786E+01  0.24444226313E+02  0.92112518239E+02  0.86041440945E+02 0.  0.
         11    1    3    3    0    0 -0.83383673696E+01 -0.61431047236E+01 -0.32396679189E+02  0.34011923333E+02  0.51100000000E-03 0. -1.
         22    1    1    0    0    0  0.19964180476E+02  0.92464995786E+01 -0.24444226313E+02  0.32887481761E+02  0.00000000000E+00 0.  1.
</event>
<event>
 5    1  0.8752570E-005  0.9118800E+02  0.7818608E-02  0.1130116E+00
         25   -1    0    0    0    0  0.00000000000E+00  0.00000000000E+00  0.99999998245E-14  0.12500000000E+03  0.12500000000E+03 0.  0.
        -11    1    3    3    0    0  0.51513747599E+02  0.29753406473E+02 -0.17607546418E+02  0.62039963569E+02  0.51100000000E-03 0.  1.
         23    2    1    0    0    0  0.26821779316E+02  0.93731407716E+01 -0.90682952768E+01  0.95175553771E+02  0.90381903293E+02 0.  0.
         11    1    3    3    0    0 -0.24691968283E+02 -0.20380265702E+02  0.85392511407E+01  0.33135590203E+02  0.51100000000E-03 0. -1.
         22    1    1    0    0    0 -0.26821779316E+02 -0.93731407716E+01  0.90682952768E+01  0.29824446229E+02  0.00000000000E+00 0.  1.
</event>
<event>
 5    1  0.8752570E-005  0.9118800E+02  0.7818608E-02  0.1130116E+00
         25   -1    0    0    0    0  0.00000000000E+00  0.00000000000E+00  0.99999998245E-14  0.12500000000E+03  0.12500000000E+03 0.  0.
        -11    1    3    3    0    0  0.10053844046E+02 -0.38171114255E+02  0.26299591941E+02  0.47431869877E+02  0.51100000000E-03 0.  1.
         23    2    1    0    0    0 -0.12883016247E+02  0.50937733808E+01  0.25000272722E+02  0.96417972936E+02  0.92084163861E+02 0.  0.
         11    1    3    3    0    0 -0.22936860293E+02  0.43264887635E+02 -0.12993192184E+01  0.48986103059E+02  0.51100000000E-03 0. -1.
         22    1    1    0    0    0  0.12883016247E+02 -0.50937733808E+01 -0.25000272722E+02  0.28582027064E+02  0.00000000000E+00 0.  1.
</event>
<event>
 5    1  0.8752570E-005  0.9118800E+02  0.7818608E-02  0.1130116E+00
         25   -1    0    0    0    0  0.00000000000E+00  0.00000000000E+00  0.99999998245E-14  0.12500000000E+03  0.12500000000E+03 0.  0.
        -11    1    3    3    0    0  0.33566603180E+01 -0.13933190690E+02 -0.30520186909E+02  0.33717692396E+02  0.51100000000E-03 0. -1.
         23    2    1    0    0    0 -0.26140221891E+01 -0.22489757956E+02  0.25614250600E+02  0.90813567622E+02  0.84133179575E+02 0.  0.
         11    1    3    3    0    0 -0.59706825071E+01 -0.85565672659E+01  0.56134437509E+02  0.57095875225E+02  0.51100000000E-03 0.  1.
         22    1    1    0    0    0  0.26140221891E+01  0.22489757956E+02 -0.25614250600E+02  0.34186432378E+02  0.00000000000E+00 0.  1.
</event>
<event>
 5    1  0.8752570E-005  0.9118800E+02  0.7818608E-02  0.1130116E+00
         25   -1    0    0    0    0  0.00000000000E+00  0.00000000000E+00  0.99999998245E-14  0.12500000000E+03  0.12500000000E+03 0.  0.
        -11    1    3    3    0    0  0.16720535488E+02  0.10300950195E+02  0.31300416452E+02  0.36951345743E+02  0.51100000000E-03 0.  1.
         23    2    1    0    0    0  0.12288868699E+02 -0.24631407435E+01 -0.26167267596E+02  0.95986050774E+02  0.91495970915E+02 0.  0.
         11    1    3    3    0    0 -0.44316667891E+01 -0.12764090939E+02 -0.57467684048E+02  0.59034705031E+02  0.51100000000E-03 0. -1.
         22    1    1    0    0    0 -0.12288868699E+02  0.24631407435E+01  0.26167267596E+02  0.29013949226E+02  0.00000000000E+00 0. -1.
</event>
<event>
 5    1  0.8752570E-005  0.9118800E+02  0.7818608E-02  0.1130116E+00
         25   -1    0    0    0    0  0.00000000000E+00  0.00000000000E+00  0.99999998245E-14  0.12500000000E+03  0.12500000000E+03 0.  0.
        -11    1    3    3    0    0  0.76258035281E+01 -0.53446350092E+02 -0.37268978533E+00  0.53988925860E+02  0.51100000000E-03 0.  1.
         23    2    1    0    0    0 -0.21977917834E+01 -0.19777647661E+02  0.21800798400E+02  0.95482878755E+02  0.90805945228E+02 0.  0.
         11    1    3    3    0    0 -0.98235953116E+01  0.33668702431E+02  0.22173488185E+02  0.41493952894E+02  0.51100000000E-03 0. -1.
         22    1    1    0    0    0  0.21977917834E+01  0.19777647661E+02 -0.21800798400E+02  0.29517121245E+02  0.00000000000E+00 0.  1.
</event>
<event>
 5    1  0.8752570E-005  0.9118800E+02  0.7818608E-02  0.1130116E+00
         25   -1    0    0    0    0  0.00000000000E+00  0.00000000000E+00  0.99999998245E-14  0.12500000000E+03  0.12500000000E+03 0.  0.
        -11    1    3    3    0    0  0.36411945131E+02 -0.40564381809E+02 -0.89005083277E+01  0.55231493448E+02  0.51100000000E-03 0.  1.
         23    2    1    0    0    0 -0.63382776078E+01 -0.14696712597E+02 -0.11540006829E+02  0.10526832795E+03  0.10340252409E+03 0.  0.
         11    1    3    3    0    0 -0.42750222738E+02  0.25867669212E+02 -0.26394985016E+01  0.50036834504E+02  0.51100000000E-03 0. -1.
         22    1    1    0    0    0  0.63382776078E+01  0.14696712597E+02  0.11540006829E+02  0.19731672048E+02  0.00000000000E+00 0. -1.
</event>
<event>
 5    1  0.8752570E-005  0.9118800E+02  0.7818608E-02  0.1130116E+00
         25   -1    0    0    0    0  0.00000000000E+00  0.00000000000E+00  0.99999998245E-14  0.12500000000E+03  0.12500000000E+03 0.  0.
        -11    1    3    3    0    0  0.37690656754E+01 -0.15825599514E+02 -0.40505749724E+02  0.43650558038E+02  0.51100000000E-03 0. -1.
         23    2    1    0    0    0  0.47059749160E+01  0.16222033054E+02 -0.45835007131E+02  0.76151781660E+02  0.58420419503E+02 0.  0.
         11    1    3    3    0    0  0.93690924068E+00  0.32047632568E+02 -0.53292574071E+01  0.32501223622E+02  0.51100000000E-03 0.  1.
         22    1    1    0    0    0 -0.47059749160E+01 -0.16222033054E+02  0.45835007131E+02  0.48848218340E+02  0.00000000000E+00 0. -1.
</event>
<event>
 5    1  0.8752570E-005  0.9118800E+02  0.7818608E-02  0.1130116E+00
         25   -1    0    0    0    0  0.00000000000E+00  0.00000000000E+00  0.99999998245E-14  0.12500000000E+03  0.12500000000E+03 0.  0.
        -11    1    3    3    0    0  0.14815322096E+02  0.47414526513E+02 -0.28369978110E+02  0.57205653143E+02  0.51100000000E-03 0. -1.
         23    2    1    0    0    0  0.21381015060E+02  0.10196165511E+02 -0.12743978751E+02  0.98101699114E+02  0.94342062615E+02 0.  0.
         11    1    3    3    0    0  0.65656929640E+01 -0.37218361002E+02  0.15625999359E+02  0.40896045971E+02  0.51100000000E-03 0.  1.
         22    1    1    0    0    0 -0.21381015060E+02 -0.10196165511E+02  0.12743978751E+02  0.26898300886E+02  0.00000000000E+00 0. -1.
</event>
<event>
 5    1  0.8752570E-005  0.9118800E+02  0.7818608E-02  0.1130116E+00
         25   -1    0    0    0    0  0.00000000000E+00  0.00000000000E+00  0.99999998245E-14  0.12500000000E+03  0.12500000000E+03 0.  0.
        -11    1    3    3    0    0 -0.24587425929E+02 -0.44471043750E+02  0.31570444734E+02  0.59823977024E+02  0.51100000000E-03 0. -1.
         23    2    1    0    0    0 -0.25771260966E+01 -0.24158149248E+02  0.43057960090E+01  0.10032617514E+03  0.97244762248E+02 0.  0.
         11    1    3    3    0    0  0.22010299832E+02  0.20312894502E+02 -0.27264648725E+02  0.40502198115E+02  0.51100000000E-03 0.  1.
         22    1    1    0    0    0  0.25771260966E+01  0.24158149248E+02 -0.43057960090E+01  0.24673824861E+02  0.00000000000E+00 0. -1.
</event>
<event>
 5    1  0.8752570E-005  0.9118800E+02  0.7818608E-02  0.1130116E+00
         25   -1    0    0    0    0  0.00000000000E+00  0.00000000000E+00  0.99999998245E-14  0.12500000000E+03  0.12500000000E+03 0.  0.
        -11    1    3    3    0    0 -0.34909983247E+02  0.54412030152E+01 -0.69036429611E+01  0.35999637595E+02  0.51100000000E-03 0.  1.
         23    2    1    0    0    0  0.13826855960E+02  0.50545736465E+01  0.26220918017E+02  0.94928964066E+02  0.90040218884E+02 0.  0.
         11    1    3    3    0    0  0.48736839207E+02 -0.38662936865E+00  0.33124560978E+02  0.58929326471E+02  0.51100000000E-03 0. -1.
         22    1    1    0    0    0 -0.13826855960E+02 -0.50545736465E+01 -0.26220918017E+02  0.30071035934E+02  0.00000000000E+00 0. -1.
</event>
<event>
 5    1  0.8752570E-005  0.9118800E+02  0.7818608E-02  0.1130116E+00
         25   -1    0    0    0    0  0.00000000000E+00  0.00000000000E+00  0.99999998245E-14  0.12500000000E+03  0.12500000000E+03 0.  0.
        -11    1    3    3    0    0  0.28993885992E+02  0.76305807457E+01 -0.35082372686E+02  0.46148066709E+02  0.51100000000E-03 0.  1.
         23    2    1    0    0    0 -0.13321768624E+02  0.22143780352E+02 -0.11569034107E+02  0.96686415315E+02  0.92447843829E+02 0.  0.
         11    1    3    3    0    0 -0.42315654616E+02  0.14513199607E+02  0.23513338579E+02  0.50538348606E+02  0.51100000000E-03 0. -1.
         22    1    1    0    0    0  0.13321768624E+02 -0.22143780352E+02  0.11569034107E+02  0.28313584685E+02  0.00000000000E+00 0.  1.
</event>
<event>
 5    1  0.8752570E-005  0.9118800E+02  0.7818608E-02  0.1130116E+00
         25   -1    0    0    0    0  0.00000000000E+00  0.00000000000E+00  0.99999998245E-14  0.12500000000E+03  0.12500000000E+03 0.  0.
        -11    1    3    3    0    0 -0.18156649669E+02  0.25250830475E+01  0.34461570256E+02  0.39033828871E+02  0.51100000000E-03 0. -1.
         23    2    1    0    0    0  0.67098156363E+01 -0.26990639150E+02 -0.76492627907E+01  0.96155113991E+02  0.91726650968E+02 0.  0.
         11    1    3    3    0    0  0.24866465305E+02 -0.29515722198E+02 -0.42110833047E+02  0.57121285120E+02  0.51100000000E-03 0.  1.
         22    1    1    0    0    0 -0.67098156363E+01  0.26990639150E+02  0.76492627907E+01  0.28844886009E+02  0.00000000000E+00 0.  1.
</event>
<event>
 5    1  0.8752570E-005  0.9118800E+02  0.7818608E-02  0.1130116E+00
         25   -1    0    0    0    0  0.00000000000E+00  0.00000000000E+00  0.99999998245E-14  0.12500000000E+03  0.12500000000E+03 0.  0.
        -11    1    3    3    0    0 -0.29860421577E+02  0.16641053709E+02 -0.94766596214E+01  0.35473603188E+02  0.51100000000E-03 0.  1.
         23    2    1    0    0    0  0.24873007464E+02 -0.39456419910E+01 -0.17263837228E+02  0.94466826780E+02  0.89396346095E+02 0.  0.
         11    1    3    3    0    0  0.54733429041E+02 -0.20586695700E+02 -0.77871776064E+01  0.58993223592E+02  0.51100000000E-03 0. -1.
         22    1    1    0    0    0 -0.24873007464E+02  0.39456419910E+01  0.17263837228E+02  0.30533173220E+02  0.00000000000E+00 0. -1.
</event>
<event>
 5    1  0.8752570E-005  0.9118800E+02  0.7818608E-02  0.1130116E+00
         25   -1    0    0    0    0  0.00000000000E+00  0.00000000000E+00  0.99999998245E-14  0.12500000000E+03  0.12500000000E+03 0.  0.
        -11    1    3    3    0    0  0.53079788494E+01 -0.32501919232E+02 -0.34401776201E+02  0.47623855360E+02  0.51100000000E-03 0.  1.
         23    2    1    0    0    0 -0.24951844317E+02 -0.32589305064E+00 -0.15153838499E+02  0.95805144933E+02  0.91248486197E+02 0.  0.
         11    1    3    3    0    0 -0.30259823167E+02  0.32176026182E+02  0.19247937702E+02  0.48181289574E+02  0.51100000000E-03 0. -1.
         22    1    1    0    0    0  0.24951844317E+02  0.32589305064E+00  0.15153838499E+02  0.29194855067E+02  0.00000000000E+00 0. -1.
</event>
<event>
 5    1  0.8752570E-005  0.9118800E+02  0.7818608E-02  0.1130116E+00
         25   -1    0    0    0    0  0.00000000000E+00  0.00000000000E+00  0.99999998245E-14  0.12500000000E+03  0.12500000000E+03 0.  0.
        -11    1    3    3    0    0  0.19523966431E+01  0.60786134192E+00  0.50202169355E+02  0.50243797192E+02  0.51100000000E-03 0. -1.
         23    2    1    0    0    0 -0.95319570159E+00  0.24449112627E+02  0.72061612753E+01  0.99493207755E+02  0.96168092103E+02 0.  0.
         11    1    3    3    0    0 -0.29055923447E+01  0.23841251285E+02 -0.42996008080E+02  0.49249410563E+02  0.51100000000E-03 0.  1.
         22    1    1    0    0    0  0.95319570159E+00 -0.24449112627E+02 -0.72061612753E+01  0.25506792245E+02  0.00000000000E+00 0. -1.
</event>
<event>
 5    1  0.8752570E-005  0.9118800E+02  0.7818608E-02  0.1130116E+00
         25   -1    0    0    0    0  0.00000000000E+00  0.00000000000E+00  0.99999998245E-14  0.12500000000E+03  0.12500000000E+03 0.  0.
        -11    1    3    3    0    0  0.26885324747E+02  0.37889604704E+02 -0.88370252987E+01  0.47292027317E+02  0.51100000000E-03 0.  1.
         23    2    1    0    0    0 -0.57949548610E-01  0.47743720268E+02 -0.18900400946E+00  0.77255870458E+02  0.60736871952E+02 0.  0.
         11    1    3    3    0    0 -0.26943274296E+02  0.98541155646E+01  0.86480212892E+01  0.29963843141E+02  0.51100000000E-03 0. -1.
         22    1    1    0    0    0  0.57949548610E-01 -0.47743720268E+02  0.18900400946E+00  0.47744129542E+02  0.00000000000E+00 0. -1.
</event>
<event>
 5    1  0.8752570E-005  0.9118800E+02  0.7818608E-02  0.1130116E+00
         25   -1    0    0    0    0  0.00000000000E+00  0.00000000000E+00  0.99999998245E-14  0.12500000000E+03  0.12500000000E+03 0.  0.
        -11    1    3    3    0    0  0.53664838259E+01 -0.46520164567E+02  0.18944183403E+02  0.50515412946E+02  0.51100000000E-03 0.  1.
         23    2    1    0    0    0  0.27779825376E+02 -0.12387099602E+02  0.26927853075E+01  0.94464610250E+02  0.89393246739E+02 0.  0.
         11    1    3    3    0    0  0.22413341550E+02  0.34133064965E+02 -0.16251398096E+02  0.43949197304E+02  0.51100000000E-03 0. -1.
         22    1    1    0    0    0 -0.27779825376E+02  0.12387099602E+02 -0.26927853075E+01  0.30535389750E+02  0.00000000000E+00 0.  1.
</event>
<event>
 5    1  0.8752570E-005  0.9118800E+02  0.7818608E-02  0.1130116E+00
         25   -1    0    0    0    0  0.00000000000E+00  0.00000000000E+00  0.99999998245E-14  0.12500000000E+03  0.12500000000E+03 0.  0.
        -11    1    3    3    0    0  0.40427041933E+02  0.12583200650E+02 -0.43086611106E+02  0.60408101401E+02  0.51100000000E-03 0.  1.
         23    2    1    0    0    0  0.12979683895E+02 -0.13824836880E+01 -0.26671085983E+02  0.95306056464E+02  0.90562211303E+02 0.  0.
         11    1    3    3    0    0 -0.27447358038E+02 -0.13965684338E+02  0.16415525123E+02  0.34897955063E+02  0.51100000000E-03 0. -1.
         22    1    1    0    0    0 -0.12979683895E+02  0.13824836880E+01  0.26671085983E+02  0.29693943536E+02  0.00000000000E+00 0.  1.
</event>
<event>
 5    1  0.8752570E-005  0.9118800E+02  0.7818608E-02  0.1130116E+00
         25   -1    0    0    0    0  0.00000000000E+00  0.00000000000E+00  0.99999998245E-14  0.12500000000E+03  0.12500000000E+03 0.  0.
        -11    1    3    3    0    0 -0.10171507340E+02 -0.57270359263E+02  0.81426916216E+01  0.58733781070E+02  0.51100000000E-03 0. -1.
         23    2    1    0    0    0  0.10680847884E+02 -0.25269755712E+02  0.13154407323E+01  0.97534176700E+02  0.93587094062E+02 0.  0.
         11    1    3    3    0    0  0.20852355224E+02  0.32000603551E+02 -0.68272508893E+01  0.38800395629E+02  0.51100000000E-03 0.  1.
         22    1    1    0    0    0 -0.10680847884E+02  0.25269755712E+02 -0.13154407323E+01  0.27465823300E+02  0.00000000000E+00 0. -1.
</event>
<event>
 5    1  0.8752570E-005  0.9118800E+02  0.7818608E-02  0.1130116E+00
         25   -1    0    0    0    0  0.00000000000E+00  0.00000000000E+00  0.99999998245E-14  0.12500000000E+03  0.12500000000E+03 0.  0.
        -11    1    3    3    0    0  0.26319598628E+02 -0.78903337494E+01  0.22022645356E+02  0.35213286518E+02  0.51100000000E-03 0. -1.
         23    2    1    0    0    0 -0.21728696007E+02  0.12237324013E+02 -0.11889837759E+02  0.97372901508E+02  0.93371437693E+02 0.  0.
         11    1    3    3    0    0 -0.48048294635E+02  0.20127657762E+02 -0.33912483116E+02  0.62159614990E+02  0.51100000000E-03 0.  1.
         22    1    1    0    0    0  0.21728696007E+02 -0.12237324013E+02  0.11889837759E+02  0.27627098492E+02  0.00000000000E+00 0.  1.
</event>
<event>
 5    1  0.8752570E-005  0.9118800E+02  0.7818608E-02  0.1130116E+00
         25   -1    0    0    0    0  0.00000000000E+00  0.00000000000E+00  0.99999998245E-14  0.12500000000E+03  0.12500000000E+03 0.  0.
        -11    1    3    3    0    0  0.26302801363E+02 -0.19299962905E+02  0.41884985869E+02  0.53091223090E+02  0.51100000000E-03 0. -1.
         23    2    1    0    0    0  0.99117257972E+01  0.14888024514E+02  0.24149391390E+02  0.94948565979E+02  0.90067427491E+02 0.  0.
         11    1    3    3    0    0 -0.16391075566E+02  0.34187987419E+02 -0.17735594479E+02  0.41857342889E+02  0.51100000000E-03 0.  1.
         22    1    1    0    0    0 -0.99117257972E+01 -0.14888024514E+02 -0.24149391390E+02  0.30051434021E+02  0.00000000000E+00 0. -1.
</event>
<event>
 5    1  0.8752570E-005  0.9118800E+02  0.7818608E-02  0.1130116E+00
         25   -1    0    0    0    0  0.00000000000E+00  0.00000000000E+00  0.99999998245E-14  0.12500000000E+03  0.12500000000E+03 0.  0.
        -11    1    3    3    0    0  0.66467798640E+01  0.74071976842E+00  0.41570551367E+02  0.42105095767E+02  0.51100000000E-03 0.  1.
         23    2    1    0    0    0  0.11040372861E+02  0.28614161802E+02 -0.22746119484E+01  0.94245586527E+02  0.89086455939E+02 0.  0.
         11    1    3    3    0    0  0.43935929971E+01  0.27873442034E+02 -0.43845163316E+02  0.52140490760E+02  0.51100000000E-03 0. -1.
         22    1    1    0    0    0 -0.11040372861E+02 -0.28614161802E+02  0.22746119484E+01  0.30754413473E+02  0.00000000000E+00 0.  1.
</event>
<event>
 5    1  0.8752570E-005  0.9118800E+02  0.7818608E-02  0.1130116E+00
         25   -1    0    0    0    0  0.00000000000E+00  0.00000000000E+00  0.99999998245E-14  0.12500000000E+03  0.12500000000E+03 0.  0.
        -11    1    3    3    0    0 -0.19282808567E+02  0.28901365653E+02  0.12522151119E+02  0.36931286354E+02  0.51100000000E-03 0.  1.
         23    2    1    0    0    0 -0.21503465097E+01 -0.27701228091E+02  0.71298182712E+01  0.96315224658E+02  0.91944582029E+02 0.  0.
         11    1    3    3    0    0  0.17132462058E+02 -0.56602593744E+02 -0.53923328473E+01  0.59383938304E+02  0.51100000000E-03 0. -1.
         22    1    1    0    0    0  0.21503465097E+01  0.27701228091E+02 -0.71298182712E+01  0.28684775342E+02  0.00000000000E+00 0. -1.
</event>
<event>
 5    1  0.8752570E-005  0.9118800E+02  0.7818608E-02  0.1130116E+00
         25   -1    0    0    0    0  0.00000000000E+00  0.00000000000E+00  0.99999998245E-14  0.12500000000E+03  0.12500000000E+03 0.  0.
        -11    1    3    3    0    0  0.27385962243E+02 -0.17211239829E+02 -0.28600223107E+02  0.43176272031E+02  0.51100000000E-03 0.  1.
         23    2    1    0    0    0 -0.15157334337E+02  0.13481020009E+02 -0.20325719480E+02  0.96283845016E+02  0.91901911047E+02 0.  0.
         11    1    3    3    0    0 -0.42543296580E+02  0.30692259838E+02  0.82745036271E+01  0.53107572985E+02  0.51100000000E-03 0. -1.
         22    1    1    0    0    0  0.15157334337E+02 -0.13481020009E+02  0.20325719480E+02  0.28716154984E+02  0.00000000000E+00 0.  1.
</event>
<event>
 5    1  0.8752570E-005  0.9118800E+02  0.7818608E-02  0.1130116E+00
         25   -1    0    0    0    0  0.00000000000E+00  0.00000000000E+00  0.99999998245E-14  0.12500000000E+03  0.12500000000E+03 0.  0.
        -11    1    3    3    0    0 -0.19900852835E+02  0.32631615357E+02  0.10788015629E+00  0.38221432505E+02  0.51100000000E-03 0. -1.
         23    2    1    0    0    0  0.24678738369E+02 -0.44039208555E+01 -0.11646595623E+02  0.97358042110E+02  0.93351542716E+02 0.  0.
         11    1    3    3    0    0  0.44579591204E+02 -0.37035536212E+02 -0.11754475779E+02  0.59136609605E+02  0.51100000000E-03 0.  1.
         22    1    1    0    0    0 -0.24678738369E+02  0.44039208555E+01  0.11646595623E+02  0.27641957890E+02  0.00000000000E+00 0.  1.
</event>
<event>
 5    1  0.8752570E-005  0.9118800E+02  0.7818608E-02  0.1130116E+00
         25   -1    0    0    0    0  0.00000000000E+00  0.00000000000E+00  0.99999998245E-14  0.12500000000E+03  0.12500000000E+03 0.  0.
        -11    1    3    3    0    0 -0.19310524156E+02 -0.41837652798E+02  0.30383349875E+02  0.55194505929E+02  0.51100000000E-03 0.  1.
         23    2    1    0    0    0  0.69219986513E+01 -0.29159201440E+02  0.35198888528E+01  0.94824468331E+02  0.89895033694E+02 0.  0.
         11    1    3    3    0    0  0.26232522807E+02  0.12678451358E+02 -0.26863461023E+02  0.39629962403E+02  0.51100000000E-03 0. -1.
         22    1    1    0    0    0 -0.69219986513E+01  0.29159201440E+02 -0.35198888528E+01  0.30175531669E+02  0.00000000000E+00 0.  1.
</event>
<event>
 5    1  0.8752570E-005  0.9118800E+02  0.7818608E-02  0.1130116E+00
         25   -1    0    0    0    0  0.00000000000E+00  0.00000000000E+00  0.99999998245E-14  0.12500000000E+03  0.12500000000E+03 0.  0.
        -11    1    3    3    0    0  0.16645717476E+02 -0.31619267769E+02 -0.64125699417E+01  0.36303981298E+02  0.51100000000E-03 0.  1.
         23    2    1    0    0    0 -0.10667620322E+02  0.10232264967E+02  0.25447096752E+02  0.95571236811E+02  0.90927494208E+02 0.  0.
         11    1    3    3    0    0 -0.27313337798E+02  0.41851532736E+02  0.31859666694E+02  0.59267255514E+02  0.51100000000E-03 0. -1.
         22    1    1    0    0    0  0.10667620322E+02 -0.10232264967E+02 -0.25447096752E+02  0.29428763189E+02  0.00000000000E+00 0. -1.
</event>
<event>
 5    1  0.8752570E-005  0.9118800E+02  0.7818608E-02  0.1130116E+00
         25   -1    0    0    0    0  0.00000000000E+00  0.00000000000E+00  0.99999998245E-14  0.12500000000E+03  0.12500000000E+03 0.  0.
        -11    1    3    3    0    0 -0.40772200324E+01 -0.10123512601E+02 -0.56712873625E+02  0.57753435098E+02  0.51100000000E-03 0. -1.
         23    2    1    0    0    0 -0.10420273251E+02  0.10357511116E+02 -0.22694855569E+02  0.97964530697E+02  0.94160143768E+02 0.  0.
         11    1    3    3    0    0 -0.63430532182E+01  0.20481023717E+02  0.34018018056E+02  0.40211095600E+02  0.51100000000E-03 0.  1.
         22    1    1    0    0    0  0.10420273251E+02 -0.10357511116E+02  0.22694855569E+02  0.27035469303E+02  0.00000000000E+00 0. -1.
</event>
<event>
 5    1  0.8752570E-005  0.9118800E+02  0.7818608E-02  0.1130116E+00
         25   -1    0    0    0    0  0.00000000000E+00  0.00000000000E+00  0.99999998245E-14  0.12500000000E+03  0.12500000000E+03 0.  0.
        -11    1    3    3    0    0  0.60972337096E+02 -0.12019559807E+02  0.49168579611E+01  0.62339964720E+02  0.51100000000E-03 0.  1.
         23    2    1    0    0    0  0.29279421082E+02 -0.26452240779E+01  0.15659033843E+01  0.95559657564E+02  0.90911574572E+02 0.  0.
         11    1    3    3    0    0 -0.31692916014E+02  0.93743357292E+01 -0.33509545769E+01  0.33219692844E+02  0.51100000000E-03 0. -1.
         22    1    1    0    0    0 -0.29279421082E+02  0.26452240779E+01 -0.15659033843E+01  0.29440342436E+02  0.00000000000E+00 0.  1.
</event>
<event>
 5    1  0.8752570E-005  0.9118800E+02  0.7818608E-02  0.1130116E+00
         25   -1    0    0    0    0  0.00000000000E+00  0.00000000000E+00  0.99999998245E-14  0.12500000000E+03  0.12500000000E+03 0.  0.
        -11    1    3    3    0    0  0.13645536133E+02  0.20397934624E+02  0.28130770748E+02  0.37331175396E+02  0.51100000000E-03 0. -1.
         23    2    1    0    0    0 -0.27499432054E+02 -0.58682059042E+01 -0.51535888423E+01  0.96413043502E+02  0.92077472139E+02 0.  0.
         11    1    3    3    0    0 -0.41144968187E+02 -0.26266140528E+02 -0.33284359591E+02  0.59081868107E+02  0.51100000000E-03 0.  1.
         22    1    1    0    0    0  0.27499432054E+02  0.58682059042E+01  0.51535888423E+01  0.28586956498E+02  0.00000000000E+00 0.  1.
</event>
<event>
 5    1  0.8752570E-005  0.9118800E+02  0.7818608E-02  0.1130116E+00
         25   -1    0    0    0    0  0.00000000000E+00  0.00000000000E+00  0.99999998245E-14  0.12500000000E+03  0.12500000000E+03 0.  0.
        -11    1    3    3    0    0 -0.20736016663E+02  0.11166717880E+02  0.30295470647E+02  0.38373083239E+02  0.51100000000E-03 0. -1.
         23    2    1    0    0    0 -0.13737702203E+02 -0.23040327574E+02 -0.13973013567E+02  0.94753904968E+02  0.89796860981E+02 0.  0.
         11    1    3    3    0    0  0.69983144602E+01 -0.34207045454E+02 -0.44268484214E+02  0.56380821729E+02  0.51100000000E-03 0.  1.
         22    1    1    0    0    0  0.13737702203E+02  0.23040327574E+02  0.13973013567E+02  0.30246095032E+02  0.00000000000E+00 0. -1.
</event>
<event>
 5    1  0.8752570E-005  0.9118800E+02  0.7818608E-02  0.1130116E+00
         25   -1    0    0    0    0  0.00000000000E+00  0.00000000000E+00  0.99999998245E-14  0.12500000000E+03  0.12500000000E+03 0.  0.
        -11    1    3    3    0    0 -0.50492510297E+01 -0.11770535476E+02 -0.34096790298E+02  0.36422953617E+02  0.51100000000E-03 0.  1.
         23    2    1    0    0    0  0.13385999728E+02 -0.13469427186E+02  0.22258715879E+02  0.95741481753E+02  0.91161233198E+02 0.  0.
         11    1    3    3    0    0  0.18435250757E+02 -0.16988917106E+01  0.56355506176E+02  0.59318528136E+02  0.51100000000E-03 0. -1.
         22    1    1    0    0    0 -0.13385999728E+02  0.13469427186E+02 -0.22258715879E+02  0.29258518247E+02  0.00000000000E+00 0. -1.
</event>
<event>
 5    1  0.8752570E-005  0.9118800E+02  0.7818608E-02  0.1130116E+00
         25   -1    0    0    0    0  0.00000000000E+00  0.00000000000E+00  0.99999998245E-14  0.12500000000E+03  0.12500000000E+03 0.  0.
        -11    1    3    3    0    0 -0.16967049887E+02  0.80613598588E+01  0.31477212819E+02  0.36656257743E+02  0.51100000000E-03 0.  1.
         23    2    1    0    0    0 -0.16871114836E+02 -0.10697217302E+02 -0.23154602523E+02  0.94418950446E+02  0.89329377092E+02 0.  0.
         11    1    3    3    0    0  0.95935050572E-01 -0.18758577161E+02 -0.54631815341E+02  0.57762692704E+02  0.51100000000E-03 0. -1.
         22    1    1    0    0    0  0.16871114836E+02  0.10697217302E+02  0.23154602523E+02  0.30581049554E+02  0.00000000000E+00 0. -1.
</event>
<event>
 5    1  0.8752570E-005  0.9118800E+02  0.7818608E-02  0.1130116E+00
         25   -1    0    0    0    0  0.00000000000E+00  0.00000000000E+00  0.99999998245E-14  0.12500000000E+03  0.12500000000E+03 0.  0.
        -11    1    3    3    0    0  0.51124470097E+02  0.26444398249E+02  0.22056450619E+02  0.61640122125E+02  0.51100000000E-03 0.  1.
         23    2    1    0    0    0  0.29926547233E+02  0.19957767012E+02  0.72294544028E+01  0.88309732838E+02  0.80327039094E+02 0.  0.
         11    1    3    3    0    0 -0.21197922864E+02 -0.64866312368E+01 -0.14826996216E+02  0.26669610713E+02  0.51100000000E-03 0. -1.
         22    1    1    0    0    0 -0.29926547233E+02 -0.19957767012E+02 -0.72294544028E+01  0.36690267162E+02  0.00000000000E+00 0.  1.
</event>
<event>
 5    1  0.8752570E-005  0.9118800E+02  0.7818608E-02  0.1130116E+00
         25   -1    0    0    0    0  0.00000000000E+00  0.00000000000E+00  0.99999998245E-14  0.12500000000E+03  0.12500000000E+03 0.  0.
        -11    1    3    3    0    0 -0.57177172218E+01 -0.37667508246E+01  0.48856740470E+02  0.49334184818E+02  0.51100000000E-03 0.  1.
         23    2    1    0    0    0  0.18767771998E+02  0.16706177633E+02  0.15618780233E+02  0.95415004938E+02  0.90712464603E+02 0.  0.
         11    1    3    3    0    0  0.24485489219E+02  0.20472928458E+02 -0.33237960237E+02  0.46080820120E+02  0.51100000000E-03 0. -1.
         22    1    1    0    0    0 -0.18767771998E+02 -0.16706177633E+02 -0.15618780233E+02  0.29584995062E+02  0.00000000000E+00 0. -1.
</event>
<event>
 5    1  0.8752570E-005  0.9118800E+02  0.7818608E-02  0.1130116E+00
         25   -1    0    0    0    0  0.00000000000E+00  0.00000000000E+00  0.99999998245E-14  0.12500000000E+03  0.12500000000E+03 0.  0.
        -11    1    3    3    0    0  0.16362637086E+02  0.15821206241E+02  0.27177552680E+02  0.35449482779E+02  0.51100000000E-03 0.  1.
         23    2    1    0    0    0 -0.28754058300E+02  0.86546145972E+01 -0.89227010020E+01  0.93674087153E+02  0.88280925393E+02 0.  0.
         11    1    3    3    0    0 -0.45116695386E+02 -0.71665916438E+01 -0.36100253682E+02  0.58224604374E+02  0.51100000000E-03 0. -1.
         22    1    1    0    0    0  0.28754058300E+02 -0.86546145972E+01  0.89227010020E+01  0.31325912847E+02  0.00000000000E+00 0. -1.
</event>
<event>
 5    1  0.8752570E-005  0.9118800E+02  0.7818608E-02  0.1130116E+00
         25   -1    0    0    0    0  0.00000000000E+00  0.00000000000E+00  0.99999998245E-14  0.12500000000E+03  0.12500000000E+03 0.  0.
        -11    1    3    3    0    0 -0.19496290306E+02 -0.36535884349E+02 -0.42978317732E+02  0.59683431338E+02  0.51100000000E-03 0.  1.
         23    2    1    0    0    0  0.28167990643E+01 -0.13929967002E+02 -0.25161160861E+02  0.96102554550E+02  0.91654997887E+02 0.  0.
         11    1    3    3    0    0  0.22313089370E+02  0.22605917348E+02  0.17817156871E+02  0.36419123213E+02  0.51100000000E-03 0. -1.
         22    1    1    0    0    0 -0.28167990643E+01  0.13929967002E+02  0.25161160861E+02  0.28897445450E+02  0.00000000000E+00 0.  1.
</event>
<event>
 5    1  0.8752570E-005  0.9118800E+02  0.7818608E-02  0.1130116E+00
         25   -1    0    0    0    0  0.00000000000E+00  0.00000000000E+00  0.99999998245E-14  0.12500000000E+03  0.12500000000E+03 0.  0.
        -11    1    3    3    0    0  0.94369060949E+01 -0.52180922314E+01 -0.34845488062E+02  0.36475906044E+02  0.51100000000E-03 0.  1.
         23    2    1    0    0    0  0.81308078645E+01 -0.13059209734E+02  0.24347226617E+02  0.96199992372E+02  0.91787788366E+02 0.  0.
         11    1    3    3    0    0 -0.13060982304E+01 -0.78411175025E+01  0.59192714680E+02  0.59724086328E+02  0.51100000000E-03 0. -1.
         22    1    1    0    0    0 -0.81308078645E+01  0.13059209734E+02 -0.24347226617E+02  0.28800007628E+02  0.00000000000E+00 0. -1.
</event>
<event>
 5    1  0.8752570E-005  0.9118800E+02  0.7818608E-02  0.1130116E+00
         25   -1    0    0    0    0  0.00000000000E+00  0.00000000000E+00  0.99999998245E-14  0.12500000000E+03  0.12500000000E+03 0.  0.
        -11    1    3    3    0    0  0.34810948206E+02  0.14219196627E+02 -0.11079244070E+01  0.37619345614E+02  0.51100000000E-03 0.  1.
         23    2    1    0    0    0  0.27729458119E+01 -0.30685689370E+02 -0.78847343066E+01  0.93196387066E+02  0.87601922161E+02 0.  0.
         11    1    3    3    0    0 -0.32038002394E+02 -0.44904885997E+02 -0.67768098996E+01  0.55577041451E+02  0.51100000000E-03 0. -1.
         22    1    1    0    0    0 -0.27729458119E+01  0.30685689370E+02  0.78847343066E+01  0.31803612934E+02  0.00000000000E+00 0. -1.
</event>
<event>
 5    1  0.8752570E-005  0.9118800E+02  0.7818608E-02  0.1130116E+00
         25   -1    0    0    0    0  0.00000000000E+00  0.00000000000E+00  0.99999998245E-14  0.12500000000E+03  0.12500000000E+03 0.  0.
        -11    1    3    3    0    0  0.25950066480E+02 -0.52149405759E+02  0.10635882397E+02  0.59212232402E+02  0.51100000000E-03 0.  1.
         23    2    1    0    0    0 -0.13561997952E+01 -0.28468791383E+02  0.16800696134E+01  0.96449448436E+02  0.92126880491E+02 0.  0.
         11    1    3    3    0    0 -0.27306266275E+02  0.23680614376E+02 -0.89558127833E+01  0.37237216035E+02  0.51100000000E-03 0. -1.
         22    1    1    0    0    0  0.13561997952E+01  0.28468791383E+02 -0.16800696134E+01  0.28550551564E+02  0.00000000000E+00 0.  1.
</event>
<event>
 5    1  0.8752570E-005  0.9118800E+02  0.7818608E-02  0.1130116E+00
         25   -1    0    0    0    0  0.00000000000E+00  0.00000000000E+00  0.99999998245E-14  0.12500000000E+03  0.12500000000E+03 0.  0.
        -11    1    3    3    0    0 -0.28845490179E+02  0.36450716973E+02 -0.94714128854E+01  0.47438641779E+02  0.51100000000E-03 0. -1.
         23    2    1    0    0    0  0.17253039324E+02  0.19958049726E+02 -0.10986616608E+02  0.96422091412E+02  0.92089754332E+02 0.  0.
         11    1    3    3    0    0  0.46098529504E+02 -0.16492667247E+02 -0.15152037225E+01  0.48983449633E+02  0.51100000000E-03 0.  1.
         22    1    1    0    0    0 -0.17253039324E+02 -0.19958049726E+02  0.10986616608E+02  0.28577908588E+02  0.00000000000E+00 0.  1.
</event>
<event>
 5    1  0.8752570E-005  0.9118800E+02  0.7818608E-02  0.1130116E+00
         25   -1    0    0    0    0  0.00000000000E+00  0.00000000000E+00  0.99999998245E-14  0.12500000000E+03  0.12500000000E+03 0.  0.
        -11    1    3    3    0    0 -0.26938245604E+02 -0.18077182153E+02  0.11725980010E+02  0.34495683763E+02  0.51100000000E-03 0. -1.
         23    2    1    0    0    0  0.29291336645E+01  0.24365441305E+02 -0.18239149046E+02  0.94423520282E+02  0.89335771506E+02 0.  0.
         11    1    3    3    0    0  0.29867379268E+02  0.42442623458E+02 -0.29965129056E+02  0.59927836520E+02  0.51100000000E-03 0.  1.
         22    1    1    0    0    0 -0.29291336645E+01 -0.24365441305E+02  0.18239149046E+02  0.30576479718E+02  0.00000000000E+00 0.  1.
</event>
<event>
 5    1  0.8752570E-005  0.9118800E+02  0.7818608E-02  0.1130116E+00
         25   -1    0    0    0    0  0.00000000000E+00  0.00000000000E+00  0.99999998245E-14  0.12500000000E+03  0.12500000000E+03 0.  0.
        -11    1    3    3    0    0 -0.71700339317E+01 -0.35692090955E+01 -0.34816163683E+02  0.35725535601E+02  0.51100000000E-03 0. -1.
         23    2    1    0    0    0  0.21628135762E+02  0.70563196193E+00  0.18537671280E+02  0.96505800073E+02  0.92203308066E+02 0.  0.
         11    1    3    3    0    0  0.28798169693E+02  0.42748410575E+01  0.53353834963E+02  0.60780264472E+02  0.51100000000E-03 0.  1.
         22    1    1    0    0    0 -0.21628135762E+02 -0.70563196193E+00 -0.18537671280E+02  0.28494199927E+02  0.00000000000E+00 0.  1.
</event>
<event>
 5    1  0.8752570E-005  0.9118800E+02  0.7818608E-02  0.1130116E+00
         25   -1    0    0    0    0  0.00000000000E+00  0.00000000000E+00  0.99999998245E-14  0.12500000000E+03  0.12500000000E+03 0.  0.
        -11    1    3    3    0    0  0.95716919954E+01 -0.66052479368E+01 -0.51455294783E+02  0.52753141607E+02  0.51100000000E-03 0.  1.
         23    2    1    0    0    0  0.22879385677E+02  0.11718120307E+02 -0.16329549561E+02  0.94546185438E+02  0.89507241939E+02 0.  0.
         11    1    3    3    0    0  0.13307693682E+02  0.18323368244E+02  0.35125745222E+02  0.41793043830E+02  0.51100000000E-03 0. -1.
         22    1    1    0    0    0 -0.22879385677E+02 -0.11718120307E+02  0.16329549561E+02  0.30453814562E+02  0.00000000000E+00 0.  1.
</event>
<event>
 5    1  0.8752570E-005  0.9118800E+02  0.7818608E-02  0.1130116E+00
         25   -1    0    0    0    0  0.00000000000E+00  0.00000000000E+00  0.99999998245E-14  0.12500000000E+03  0.12500000000E+03 0.  0.
        -11    1    3    3    0    0  0.35160919689E+02  0.43437709084E+01 -0.65101435977E+01  0.36021390714E+02  0.51100000000E-03 0.  1.
         23    2    1    0    0    0 -0.25676374823E+02  0.97251384276E+01  0.79854153598E+00  0.97531978410E+02  0.93584157860E+02 0.  0.
         11    1    3    3    0    0 -0.60837294512E+02  0.53813675192E+01  0.73086851337E+01  0.61510587695E+02  0.51100000000E-03 0. -1.
         22    1    1    0    0    0  0.25676374823E+02 -0.97251384276E+01 -0.79854153598E+00  0.27468021590E+02  0.00000000000E+00 0. -1.
</event>
<event>
 5    1  0.8752570E-005  0.9118800E+02  0.7818608E-02  0.1130116E+00
         25   -1    0    0    0    0  0.00000000000E+00  0.00000000000E+00  0.99999998245E-14  0.12500000000E+03  0.12500000000E+03 0.  0.
        -11    1    3    3    0    0 -0.23954499055E+02  0.92958506768E+01  0.41068281290E+02  0.48444138894E+02  0.51100000000E-03 0.  1.
         23    2    1    0    0    0  0.76986675758E+01  0.26821767689E+02  0.13108866249E+02  0.94169510566E+02  0.88979647344E+02 0.  0.
         11    1    3    3    0    0  0.31653166631E+02  0.17525917012E+02 -0.27959415041E+02  0.45725371672E+02  0.51100000000E-03 0. -1.
         22    1    1    0    0    0 -0.76986675758E+01 -0.26821767689E+02 -0.13108866249E+02  0.30830489434E+02  0.00000000000E+00 0. -1.
</event>
<event>
 5    1  0.8752570E-005  0.9118800E+02  0.7818608E-02  0.1130116E+00
         25   -1    0    0    0    0  0.00000000000E+00  0.00000000000E+00  0.99999998245E-14  0.12500000000E+03  0.12500000000E+03 0.  0.
        -11    1    3    3    0    0  0.21376070836E+02 -0.36528474983E+01  0.38848930369E+02  0.44491786774E+02  0.51100000000E-03 0. -1.
         23    2    1    0    0    0  0.90235908898E+01 -0.26686551845E+02 -0.58094017941E+01  0.96236370341E+02  0.91837315865E+02 0.  0.
         11    1    3    3    0    0 -0.12352479947E+02 -0.23033704347E+02 -0.44658332163E+02  0.51744583568E+02  0.51100000000E-03 0.  1.
         22    1    1    0    0    0 -0.90235908898E+01  0.26686551845E+02  0.58094017941E+01  0.28763629659E+02  0.00000000000E+00 0.  1.
</event>
<event>
 5    1  0.8752570E-005  0.9118800E+02  0.7818608E-02  0.1130116E+00
         25   -1    0    0    0    0  0.00000000000E+00  0.00000000000E+00  0.99999998245E-14  0.12500000000E+03  0.12500000000E+03 0.  0.
        -11    1    3    3    0    0  0.44832264129E+01  0.13001158258E+02 -0.35951247476E+02  0.38491838492E+02  0.51100000000E-03 0.  1.
         23    2    1    0    0    0 -0.24722211655E+02 -0.18230768268E+02 -0.11534054137E+00  0.94282546261E+02  0.89138300215E+02 0.  0.
         11    1    3    3    0    0 -0.29205438068E+02 -0.31231926526E+02  0.35835906935E+02  0.55790707769E+02  0.51100000000E-03 0. -1.
         22    1    1    0    0    0  0.24722211655E+02  0.18230768268E+02  0.11534054137E+00  0.30717453739E+02  0.00000000000E+00 0.  1.
</event>
<event>
 5    1  0.8752570E-005  0.9118800E+02  0.7818608E-02  0.1130116E+00
         25   -1    0    0    0    0  0.00000000000E+00  0.00000000000E+00  0.99999998245E-14  0.12500000000E+03  0.12500000000E+03 0.  0.
        -11    1    3    3    0    0  0.36528824570E+02 -0.19981455307E+00 -0.36542491846E+02  0.51669610613E+02  0.51100000000E-03 0.  1.
         23    2    1    0    0    0 -0.62862987212E+01  0.10750430387E+02 -0.24567232854E+02  0.97456611769E+02  0.93483436727E+02 0.  0.
         11    1    3    3    0    0 -0.42815123291E+02  0.10950244940E+02  0.11975258991E+02  0.45787001156E+02  0.51100000000E-03 0. -1.
         22    1    1    0    0    0  0.62862987212E+01 -0.10750430387E+02  0.24567232854E+02  0.27543388231E+02  0.00000000000E+00 0. -1.
</event>
<event>
 5    1  0.8752570E-005  0.9118800E+02  0.7818608E-02  0.1130116E+00
         25   -1    0    0    0    0  0.00000000000E+00  0.00000000000E+00  0.99999998245E-14  0.12500000000E+03  0.12500000000E+03 0.  0.
        -11    1    3    3    0    0 -0.15841806644E+02  0.13915472696E+01 -0.54801195348E+02  0.57061986063E+02  0.51100000000E-03 0.  1.
         23    2    1    0    0    0  0.32223445036E+01  0.15858054703E+02 -0.23623715883E+02  0.96365381875E+02  0.92012746230E+02 0.  0.
         11    1    3    3    0    0  0.19064151147E+02  0.14466507433E+02  0.31177479466E+02  0.39303395812E+02  0.51100000000E-03 0. -1.
         22    1    1    0    0    0 -0.32223445036E+01 -0.15858054703E+02  0.23623715883E+02  0.28634618125E+02  0.00000000000E+00 0.  1.
</event>
<event>
 5    1  0.8752570E-005  0.9118800E+02  0.7818608E-02  0.1130116E+00
         25   -1    0    0    0    0  0.00000000000E+00  0.00000000000E+00  0.99999998245E-14  0.12500000000E+03  0.12500000000E+03 0.  0.
        -11    1    3    3    0    0 -0.55840200812E+02 -0.22559035934E+02 -0.15002410935E+02  0.62065372496E+02  0.51100000000E-03 0. -1.
         23    2    1    0    0    0 -0.29644869474E+02 -0.86798762628E+01 -0.33068835269E+01  0.93934037650E+02  0.88648234120E+02 0.  0.
         11    1    3    3    0    0  0.26195331338E+02  0.13879159671E+02  0.11695527408E+02  0.31868665154E+02  0.51100000000E-03 0.  1.
         22    1    1    0    0    0  0.29644869474E+02  0.86798762628E+01  0.33068835269E+01  0.31065962350E+02  0.00000000000E+00 0. -1.
</event>
<event>
 5    1  0.8752570E-005  0.9118800E+02  0.7818608E-02  0.1130116E+00
         25   -1    0    0    0    0  0.00000000000E+00  0.00000000000E+00  0.99999998245E-14  0.12500000000E+03  0.12500000000E+03 0.  0.
        -11    1    3    3    0    0  0.19388958510E+02  0.28498759768E+02  0.13722172827E+02  0.37099987166E+02  0.51100000000E-03 0.  1.
         23    2    1    0    0    0 -0.88139401831E+01  0.16437795705E-01 -0.28410736081E+02  0.95253475221E+02  0.90489606062E+02 0.  0.
         11    1    3    3    0    0 -0.28202898693E+02 -0.28482321972E+02 -0.42132908908E+02  0.58153488055E+02  0.51100000000E-03 0. -1.
         22    1    1    0    0    0  0.88139401831E+01 -0.16437795705E-01  0.28410736081E+02  0.29746524779E+02  0.00000000000E+00 0.  1.
</event>
<event>
 5    1  0.8752570E-005  0.9118800E+02  0.7818608E-02  0.1130116E+00
         25   -1    0    0    0    0  0.00000000000E+00  0.00000000000E+00  0.99999998245E-14  0.12500000000E+03  0.12500000000E+03 0.  0.
        -11    1    3    3    0    0  0.54073942609E+02 -0.12161455915E+02 -0.20060147396E+02  0.58943208202E+02  0.51100000000E-03 0.  1.
         23    2    1    0    0    0  0.29665446480E+02  0.68788372804E+01 -0.27180066430E+01  0.94426405555E+02  0.89339808534E+02 0.  0.
         11    1    3    3    0    0 -0.24408496130E+02  0.19040293195E+02  0.17342140753E+02  0.35483197354E+02  0.51100000000E-03 0. -1.
         22    1    1    0    0    0 -0.29665446480E+02 -0.68788372804E+01  0.27180066430E+01  0.30573594445E+02  0.00000000000E+00 0.  1.
</event>
<event>
 5    1  0.8752570E-005  0.9118800E+02  0.7818608E-02  0.1130116E+00
         25   -1    0    0    0    0  0.00000000000E+00  0.00000000000E+00  0.99999998245E-14  0.12500000000E+03  0.12500000000E+03 0.  0.
        -11    1    3    3    0    0 -0.34029582541E+02  0.90531749599E+01 -0.81497538162E+01  0.36144030660E+02  0.51100000000E-03 0. -1.
         23    2    1    0    0    0  0.25513440404E+02  0.84746889241E+01  0.62341540134E+01  0.97402524212E+02  0.93411086349E+02 0.  0.
         11    1    3    3    0    0  0.59543022945E+02 -0.57848603586E+00  0.14383907830E+02  0.61258493552E+02  0.51100000000E-03 0.  1.
         22    1    1    0    0    0 -0.25513440404E+02 -0.84746889241E+01 -0.62341540134E+01  0.27597475788E+02  0.00000000000E+00 0.  1.
</event>
<event>
 5    1  0.8752570E-005  0.9118800E+02  0.7818608E-02  0.1130116E+00
         25   -1    0    0    0    0  0.00000000000E+00  0.00000000000E+00  0.99999998245E-14  0.12500000000E+03  0.12500000000E+03 0.  0.
        -11    1    3    3    0    0  0.12638827193E+02 -0.26320097375E+02 -0.27493232012E+02  0.40104429748E+02  0.51100000000E-03 0.  1.
         23    2    1    0    0    0  0.29571061008E+01  0.26043567108E+02 -0.14996129353E+02  0.94802388178E+02  0.89864325761E+02 0.  0.
         11    1    3    3    0    0 -0.96817210919E+01  0.52363664483E+02  0.12497102660E+02  0.54697958431E+02  0.51100000000E-03 0. -1.
         22    1    1    0    0    0 -0.29571061008E+01 -0.26043567108E+02  0.14996129353E+02  0.30197611822E+02  0.00000000000E+00 0.  1.
</event>
<event>
 5    1  0.8752570E-005  0.9118800E+02  0.7818608E-02  0.1130116E+00
         25   -1    0    0    0    0  0.00000000000E+00  0.00000000000E+00  0.99999998245E-14  0.12500000000E+03  0.12500000000E+03 0.  0.
        -11    1    3    3    0    0  0.58057112688E+01 -0.23834312308E+02  0.49934007769E+02  0.55634394566E+02  0.51100000000E-03 0.  1.
         23    2    1    0    0    0  0.18414535270E+02 -0.19312423315E+02  0.12231588596E+02  0.95645672157E+02  0.91029764579E+02 0.  0.
         11    1    3    3    0    0  0.12608824001E+02  0.45218889929E+01 -0.37702419173E+02  0.40011277592E+02  0.51100000000E-03 0. -1.
         22    1    1    0    0    0 -0.18414535270E+02  0.19312423315E+02 -0.12231588596E+02  0.29354327843E+02  0.00000000000E+00 0.  1.
</event>
<event>
 5    1  0.8752570E-005  0.9118800E+02  0.7818608E-02  0.1130116E+00
         25   -1    0    0    0    0  0.00000000000E+00  0.00000000000E+00  0.99999998245E-14  0.12500000000E+03  0.12500000000E+03 0.  0.
        -11    1    3    3    0    0 -0.25763131833E+02  0.77781026378E+01  0.35043125651E+02  0.44184369387E+02  0.51100000000E-03 0. -1.
         23    2    1    0    0    0  0.39919621303E+01 -0.26855027161E+02  0.12336900635E+02  0.95178407776E+02  0.90385850353E+02 0.  0.
         11    1    3    3    0    0  0.29755093963E+02 -0.34633129799E+02 -0.22706225016E+02  0.50994038389E+02  0.51100000000E-03 0.  1.
         22    1    1    0    0    0 -0.39919621303E+01  0.26855027161E+02 -0.12336900635E+02  0.29821592224E+02  0.00000000000E+00 0.  1.
</event>
<event>
 5    1  0.8752570E-005  0.9118800E+02  0.7818608E-02  0.1130116E+00
         25   -1    0    0    0    0  0.00000000000E+00  0.00000000000E+00  0.99999998245E-14  0.12500000000E+03  0.12500000000E+03 0.  0.
        -11    1    3    3    0    0 -0.23571548482E+02  0.74777400999E+01  0.30412580471E+02  0.39197698223E+02  0.51100000000E-03 0. -1.
         23    2    1    0    0    0  0.20577090581E+02 -0.19476964162E+02  0.80989928035E+01  0.95532009329E+02  0.90873551335E+02 0.  0.
         11    1    3    3    0    0  0.44148639062E+02 -0.26954704262E+02 -0.22313587667E+02  0.56334311106E+02  0.51100000000E-03 0.  1.
         22    1    1    0    0    0 -0.20577090581E+02  0.19476964162E+02 -0.80989928035E+01  0.29467990671E+02  0.00000000000E+00 0.  1.
</event>
<event>
 5    1  0.8752570E-005  0.9118800E+02  0.7818608E-02  0.1130116E+00
         25   -1    0    0    0    0  0.00000000000E+00  0.00000000000E+00  0.99999998245E-14  0.12500000000E+03  0.12500000000E+03 0.  0.
        -11    1    3    3    0    0  0.24757635695E+02  0.42560390662E+02 -0.16715091654E+02  0.51997323659E+02  0.51100000000E-03 0. -1.
         23    2    1    0    0    0 -0.25026006870E+00  0.22133750056E+02  0.15786521119E+02  0.97812139277E+02  0.93957622465E+02 0.  0.
         11    1    3    3    0    0 -0.25007895764E+02 -0.20426640606E+02  0.32501612774E+02  0.45814815618E+02  0.51100000000E-03 0.  1.
         22    1    1    0    0    0  0.25026006870E+00 -0.22133750056E+02 -0.15786521119E+02  0.27187860723E+02  0.00000000000E+00 0. -1.
</event>
<event>
 5    1  0.8752570E-005  0.9118800E+02  0.7818608E-02  0.1130116E+00
         25   -1    0    0    0    0  0.00000000000E+00  0.00000000000E+00  0.99999998245E-14  0.12500000000E+03  0.12500000000E+03 0.  0.
        -11    1    3    3    0    0  0.22859690316E+02  0.29215298589E+02 -0.30345441303E+02  0.47926453250E+02  0.51100000000E-03 0. -1.
         23    2    1    0    0    0  0.10911012603E+02 -0.15858396165E+02 -0.22795432942E+02  0.95164271620E+02  0.90366298503E+02 0.  0.
         11    1    3    3    0    0 -0.11948677713E+02 -0.45073694754E+02  0.75500083615E+01  0.47237818370E+02  0.51100000000E-03 0.  1.
         22    1    1    0    0    0 -0.10911012603E+02  0.15858396165E+02  0.22795432942E+02  0.29835728380E+02  0.00000000000E+00 0.  1.
</event>
<event>
 5    1  0.8752570E-005  0.9118800E+02  0.7818608E-02  0.1130116E+00
         25   -1    0    0    0    0  0.00000000000E+00  0.00000000000E+00  0.99999998245E-14  0.12500000000E+03  0.12500000000E+03 0.  0.
        -11    1    3    3    0    0  0.38340390977E+02  0.15455920990E+02 -0.99750400900E+01  0.42524963245E+02  0.51100000000E-03 0. -1.
         23    2    1    0    0    0 -0.29922641033E+01  0.64635040547E+01  0.25992697515E+02  0.98049102923E+02  0.94272348707E+02 0.  0.
         11    1    3    3    0    0 -0.41332655080E+02 -0.89924169350E+01  0.35967737605E+02  0.55524139678E+02  0.51100000000E-03 0.  1.
         22    1    1    0    0    0  0.29922641033E+01 -0.64635040547E+01 -0.25992697515E+02  0.26950897077E+02  0.00000000000E+00 0.  1.
</event>
<event>
 5    1  0.8752570E-005  0.9118800E+02  0.7818608E-02  0.1130116E+00
         25   -1    0    0    0    0  0.00000000000E+00  0.00000000000E+00  0.99999998245E-14  0.12500000000E+03  0.12500000000E+03 0.  0.
        -11    1    3    3    0    0 -0.23100489261E+02 -0.60386238827E+01 -0.29172746230E+02  0.37698099493E+02  0.51100000000E-03 0.  1.
         23    2    1    0    0    0 -0.58182217832E+01  0.25527018984E+02  0.15118841375E+02  0.94766578635E+02  0.89814501383E+02 0.  0.
         11    1    3    3    0    0  0.17282267478E+02  0.31565642867E+02  0.44291587605E+02  0.57068479142E+02  0.51100000000E-03 0. -1.
         22    1    1    0    0    0  0.58182217832E+01 -0.25527018984E+02 -0.15118841375E+02  0.30233421365E+02  0.00000000000E+00 0. -1.
</event>
<event>
 5    1  0.8752570E-005  0.9118800E+02  0.7818608E-02  0.1130116E+00
         25   -1    0    0    0    0  0.00000000000E+00  0.00000000000E+00  0.99999998245E-14  0.12500000000E+03  0.12500000000E+03 0.  0.
        -11    1    3    3    0    0  0.86048971801E+00 -0.49521468448E+02  0.35942186532E+02  0.61196054225E+02  0.51100000000E-03 0.  1.
         23    2    1    0    0    0  0.45953702751E+01 -0.27941638017E+02  0.10420040313E+02  0.94826670665E+02  0.89898096010E+02 0.  0.
         11    1    3    3    0    0  0.37348805571E+01  0.21579830431E+02 -0.25522146220E+02  0.33630616440E+02  0.51100000000E-03 0. -1.
         22    1    1    0    0    0 -0.45953702751E+01  0.27941638017E+02 -0.10420040313E+02  0.30173329335E+02  0.00000000000E+00 0.  1.
</event>
<event>
 5    1  0.8752570E-005  0.9118800E+02  0.7818608E-02  0.1130116E+00
         25   -1    0    0    0    0  0.00000000000E+00  0.00000000000E+00  0.99999998245E-14  0.12500000000E+03  0.12500000000E+03 0.  0.
        -11    1    3    3    0    0  0.34339047264E+02  0.13099304133E+01  0.11270953457E+02  0.36165183212E+02  0.51100000000E-03 0. -1.
         23    2    1    0    0    0 -0.12597153142E+02  0.95748962305E+01 -0.24555685715E+02  0.95787868855E+02  0.91224816874E+02 0.  0.
         11    1    3    3    0    0 -0.46936200406E+02  0.82649658172E+01 -0.35826639173E+02  0.59622685642E+02  0.51100000000E-03 0.  1.
         22    1    1    0    0    0  0.12597153142E+02 -0.95748962305E+01  0.24555685715E+02  0.29212131145E+02  0.00000000000E+00 0.  1.
</event>
<event>
 5    1  0.8752570E-005  0.9118800E+02  0.7818608E-02  0.1130116E+00
         25   -1    0    0    0    0  0.00000000000E+00  0.00000000000E+00  0.99999998245E-14  0.12500000000E+03  0.12500000000E+03 0.  0.
        -11    1    3    3    0    0  0.43625955795E+02 -0.59894081678E+00 -0.44272856990E+02  0.62158415483E+02  0.51100000000E-03 0.  1.
         23    2    1    0    0    0  0.16955198413E+02 -0.13290088223E+01 -0.23597534860E+02  0.95912396641E+02  0.91395290690E+02 0.  0.
         11    1    3    3    0    0 -0.26670757382E+02 -0.73006800550E+00  0.20675322130E+02  0.33753981158E+02  0.51100000000E-03 0. -1.
         22    1    1    0    0    0 -0.16955198413E+02  0.13290088223E+01  0.23597534860E+02  0.29087603359E+02  0.00000000000E+00 0.  1.
</event>
<event>
 5    1  0.8752570E-005  0.9118800E+02  0.7818608E-02  0.1130116E+00
         25   -1    0    0    0    0  0.00000000000E+00  0.00000000000E+00  0.99999998245E-14  0.12500000000E+03  0.12500000000E+03 0.  0.
        -11    1    3    3    0    0  0.39286240970E+02  0.29375196903E+02 -0.31438945146E+02  0.58264210239E+02  0.51100000000E-03 0.  1.
         23    2    1    0    0    0  0.48144046420E+01  0.14299719550E+02 -0.24052587223E+02  0.96606560205E+02  0.92339807511E+02 0.  0.
         11    1    3    3    0    0 -0.34471836328E+02 -0.15075477353E+02  0.73863579229E+01  0.38342349965E+02  0.51100000000E-03 0. -1.
         22    1    1    0    0    0 -0.48144046420E+01 -0.14299719550E+02  0.24052587223E+02  0.28393439795E+02  0.00000000000E+00 0.  1.
</event>
<event>
 5    1  0.8752570E-005  0.9118800E+02  0.7818608E-02  0.1130116E+00
         25   -1    0    0    0    0  0.00000000000E+00  0.00000000000E+00  0.99999998245E-14  0.12500000000E+03  0.12500000000E+03 0.  0.
        -11    1    3    3    0    0  0.39063233823E+02  0.18564258927E+02 -0.37576061528E+02  0.57293353423E+02  0.51100000000E-03 0. -1.
         23    2    1    0    0    0  0.49962681849E+01  0.15953316477E+02 -0.27328333785E+02  0.92963944845E+02  0.87269617917E+02 0.  0.
         11    1    3    3    0    0 -0.34066965638E+02 -0.26109424500E+01  0.10247727743E+02  0.35670591422E+02  0.51100000000E-03 0.  1.
         22    1    1    0    0    0 -0.49962681849E+01 -0.15953316477E+02  0.27328333785E+02  0.32036055155E+02  0.00000000000E+00 0. -1.
</event>
<event>
 5    1  0.8752570E-005  0.9118800E+02  0.7818608E-02  0.1130116E+00
         25   -1    0    0    0    0  0.00000000000E+00  0.00000000000E+00  0.99999998245E-14  0.12500000000E+03  0.12500000000E+03 0.  0.
        -11    1    3    3    0    0  0.26769269651E+02  0.34126203291E+02  0.42381753819E+02  0.60641607876E+02  0.51100000000E-03 0.  1.
         23    2    1    0    0    0  0.25575612579E+01  0.14554796713E+02  0.24055986240E+02  0.96767506293E+02  0.92557423112E+02 0.  0.
         11    1    3    3    0    0 -0.24211708394E+02 -0.19571406578E+02 -0.18325767579E+02  0.36125898417E+02  0.51100000000E-03 0. -1.
         22    1    1    0    0    0 -0.25575612579E+01 -0.14554796713E+02 -0.24055986240E+02  0.28232493707E+02  0.00000000000E+00 0.  1.
</event>
<event>
 5    1  0.8752570E-005  0.9118800E+02  0.7818608E-02  0.1130116E+00
         25   -1    0    0    0    0  0.00000000000E+00  0.00000000000E+00  0.99999998245E-14  0.12500000000E+03  0.12500000000E+03 0.  0.
        -11    1    3    3    0    0 -0.92551161935E+01  0.46404403745E+02  0.19676348425E+02  0.51246312553E+02  0.51100000000E-03 0. -1.
         23    2    1    0    0    0 -0.25533235941E+02  0.13685469559E+02 -0.53523165649E+01  0.95540103407E+02  0.90884684363E+02 0.  0.
         11    1    3    3    0    0 -0.16278119747E+02 -0.32718934186E+02 -0.25028664990E+02  0.44293790854E+02  0.51100000000E-03 0.  1.
         22    1    1    0    0    0  0.25533235941E+02 -0.13685469559E+02  0.53523165649E+01  0.29459896593E+02  0.00000000000E+00 0. -1.
</event>
<event>
 5    1  0.8752570E-005  0.9118800E+02  0.7818608E-02  0.1130116E+00
         25   -1    0    0    0    0  0.00000000000E+00  0.00000000000E+00  0.99999998245E-14  0.12500000000E+03  0.12500000000E+03 0.  0.
        -11    1    3    3    0    0  0.42427682178E+02 -0.20118897260E+02  0.22701659488E+02  0.52155954461E+02  0.51100000000E-03 0. -1.
         23    2    1    0    0    0  0.80255294521E+01  0.10103162635E+02  0.23763005309E+02  0.97959965985E+02  0.94154083801E+02 0.  0.
         11    1    3    3    0    0 -0.34402152726E+02  0.30222059895E+02  0.10613458204E+01  0.45804011524E+02  0.51100000000E-03 0.  1.
         22    1    1    0    0    0 -0.80255294521E+01 -0.10103162635E+02 -0.23763005309E+02  0.27040034015E+02  0.00000000000E+00 0. -1.
</event>
<event>
 5    1  0.8752570E-005  0.9118800E+02  0.7818608E-02  0.1130116E+00
         25   -1    0    0    0    0  0.00000000000E+00  0.00000000000E+00  0.99999998245E-14  0.12500000000E+03  0.12500000000E+03 0.  0.
        -11    1    3    3    0    0  0.17326239726E+02  0.28770821650E+02  0.50035598398E+00  0.33588824300E+02  0.51100000000E-03 0.  1.
         23    2    1    0    0    0 -0.23330153381E+02 -0.17866152600E+02 -0.23181119981E+01  0.95523414229E+02  0.90861727681E+02 0.  0.
         11    1    3    3    0    0 -0.40656393107E+02 -0.46636974250E+02 -0.28184679820E+01  0.61934589929E+02  0.51100000000E-03 0. -1.
         22    1    1    0    0    0  0.23330153381E+02  0.17866152600E+02  0.23181119981E+01  0.29476585771E+02  0.00000000000E+00 0. -1.
</event>
<event>
 5    1  0.8752570E-005  0.9118800E+02  0.7818608E-02  0.1130116E+00
         25   -1    0    0    0    0  0.00000000000E+00  0.00000000000E+00  0.99999998245E-14  0.12500000000E+03  0.12500000000E+03 0.  0.
        -11    1    3    3    0    0  0.22621309198E+02  0.22117569435E+02  0.19753379648E+02  0.37297540338E+02  0.51100000000E-03 0. -1.
         23    2    1    0    0    0  0.10373471717E+02 -0.12571829811E+02 -0.24953762015E+02  0.95194798122E+02  0.90408514702E+02 0.  0.
         11    1    3    3    0    0 -0.12247837481E+02 -0.34689399246E+02 -0.44707141663E+02  0.57897257784E+02  0.51100000000E-03 0.  1.
         22    1    1    0    0    0 -0.10373471717E+02  0.12571829811E+02  0.24953762015E+02  0.29805201878E+02  0.00000000000E+00 0. -1.
</event>
<event>
 5    1  0.8752570E-005  0.9118800E+02  0.7818608E-02  0.1130116E+00
         25   -1    0    0    0    0  0.00000000000E+00  0.00000000000E+00  0.99999998245E-14  0.12500000000E+03  0.12500000000E+03 0.  0.
        -11    1    3    3    0    0 -0.75817823504E+01  0.37194730924E+02 -0.21234541411E+02  0.43495254699E+02  0.51100000000E-03 0. -1.
         23    2    1    0    0    0  0.25789467199E+02 -0.18254062911E+01 -0.14715425609E+02  0.95251513024E+02  0.90486895493E+02 0.  0.
         11    1    3    3    0    0  0.33371249549E+02 -0.39020137215E+02  0.65191158023E+01  0.51756258325E+02  0.51100000000E-03 0.  1.
         22    1    1    0    0    0 -0.25789467199E+02  0.18254062911E+01  0.14715425609E+02  0.29748486976E+02  0.00000000000E+00 0.  1.
</event>
<event>
 5    1  0.8752570E-005  0.9118800E+02  0.7818608E-02  0.1130116E+00
         25   -1    0    0    0    0  0.00000000000E+00  0.00000000000E+00  0.99999998245E-14  0.12500000000E+03  0.12500000000E+03 0.  0.
        -11    1    3    3    0    0 -0.19719940922E+02 -0.14548179916E+02 -0.37929689929E+02  0.45157358063E+02  0.51100000000E-03 0.  1.
         23    2    1    0    0    0 -0.28127245818E+02  0.39815238040E+01  0.80799561963E+01  0.95465610193E+02  0.90782170872E+02 0.  0.
         11    1    3    3    0    0 -0.84073048964E+01  0.18529703720E+02  0.46009646125E+02  0.50308252130E+02  0.51100000000E-03 0. -1.
         22    1    1    0    0    0  0.28127245818E+02 -0.39815238040E+01 -0.80799561963E+01  0.29534389807E+02  0.00000000000E+00 0. -1.
</event>
<event>
 5    1  0.8752570E-005  0.9118800E+02  0.7818608E-02  0.1130116E+00
         25   -1    0    0    0    0  0.00000000000E+00  0.00000000000E+00  0.99999998245E-14  0.12500000000E+03  0.12500000000E+03 0.  0.
        -11    1    3    3    0    0 -0.29374125311E+02 -0.17147059728E+01  0.16508496562E+02  0.33738848726E+02  0.51100000000E-03 0.  1.
         23    2    1    0    0    0  0.23286367154E+02 -0.12389173159E+02 -0.13591867346E+02  0.95327026358E+02  0.90591150724E+02 0.  0.
         11    1    3    3    0    0  0.52660492465E+02 -0.10674467186E+02 -0.30100363908E+02  0.61588177632E+02  0.51100000000E-03 0. -1.
         22    1    1    0    0    0 -0.23286367154E+02  0.12389173159E+02  0.13591867346E+02  0.29672973642E+02  0.00000000000E+00 0. -1.
</event>
<event>
 5    1  0.8752570E-005  0.9118800E+02  0.7818608E-02  0.1130116E+00
         25   -1    0    0    0    0  0.00000000000E+00  0.00000000000E+00  0.99999998245E-14  0.12500000000E+03  0.12500000000E+03 0.  0.
        -11    1    3    3    0    0  0.10771986469E+02 -0.33967510799E+02 -0.36899693928E+02  0.51297318591E+02  0.51100000000E-03 0.  1.
         23    2    1    0    0    0  0.24198268193E+02 -0.15316040528E+02  0.17990736316E+01  0.96305506679E+02  0.91931369346E+02 0.  0.
         11    1    3    3    0    0  0.13426281724E+02  0.18651470271E+02  0.38698767559E+02  0.45008188089E+02  0.51100000000E-03 0. -1.
         22    1    1    0    0    0 -0.24198268193E+02  0.15316040528E+02 -0.17990736316E+01  0.28694493321E+02  0.00000000000E+00 0.  1.
</event>
<event>
 5    1  0.8752570E-005  0.9118800E+02  0.7818608E-02  0.1130116E+00
         25   -1    0    0    0    0  0.00000000000E+00  0.00000000000E+00  0.99999998245E-14  0.12500000000E+03  0.12500000000E+03 0.  0.
        -11    1    3    3    0    0 -0.22655733432E+02  0.40774495329E+02  0.40851413171E+02  0.62005481089E+02  0.51100000000E-03 0.  1.
         23    2    1    0    0    0 -0.13354843861E+02  0.14958166376E+02  0.21607984421E+02  0.95521133220E+02  0.90858589604E+02 0.  0.
         11    1    3    3    0    0  0.93008895711E+01 -0.25816328953E+02 -0.19243428750E+02  0.33515652131E+02  0.51100000000E-03 0. -1.
         22    1    1    0    0    0  0.13354843861E+02 -0.14958166376E+02 -0.21607984421E+02  0.29478866780E+02  0.00000000000E+00 0.  1.
</event>
<event>
 5    1  0.8752570E-005  0.9118800E+02  0.7818608E-02  0.1130116E+00
         25   -1    0    0    0    0  0.00000000000E+00  0.00000000000E+00  0.99999998245E-14  0.12500000000E+03  0.12500000000E+03 0.  0.
        -11    1    3    3    0    0  0.43833309657E+01 -0.40607883631E+02 -0.30813089886E+02  0.51163075669E+02  0.51100000000E-03 0.  1.
         23    2    1    0    0    0  0.26045583600E+02 -0.73948435130E+01 -0.87199734280E+01  0.96555421039E+02  0.92270554674E+02 0.  0.
         11    1    3    3    0    0  0.21662252635E+02  0.33213040118E+02  0.22093116458E+02  0.45392345370E+02  0.51100000000E-03 0. -1.
         22    1    1    0    0    0 -0.26045583600E+02  0.73948435130E+01  0.87199734280E+01  0.28444578961E+02  0.00000000000E+00 0.  1.
</event>
<event>
 5    1  0.8752570E-005  0.9118800E+02  0.7818608E-02  0.1130116E+00
         25   -1    0    0    0    0  0.00000000000E+00  0.00000000000E+00  0.99999998245E-14  0.12500000000E+03  0.12500000000E+03 0.  0.
        -11    1    3    3    0    0 -0.44923325337E+02 -0.23819869196E+02  0.40303627179E+01  0.51007206861E+02  0.51100000000E-03 0.  1.
         23    2    1    0    0    0 -0.15933557827E+02 -0.52475345819E+01 -0.24216526093E+02  0.95540620845E+02  0.90885396028E+02 0.  0.
         11    1    3    3    0    0  0.28989767510E+02  0.18572334614E+02 -0.28246888810E+02  0.44533413984E+02  0.51100000000E-03 0. -1.
         22    1    1    0    0    0  0.15933557827E+02  0.52475345819E+01  0.24216526093E+02  0.29459379155E+02  0.00000000000E+00 0.  1.
</event>
<event>
 5    1  0.8752570E-005  0.9118800E+02  0.7818608E-02  0.1130116E+00
         25   -1    0    0    0    0  0.00000000000E+00  0.00000000000E+00  0.99999998245E-14  0.12500000000E+03  0.12500000000E+03 0.  0.
        -11    1    3    3    0    0  0.33526897503E+02 -0.32620464927E+02  0.21028820873E+02  0.51287024634E+02  0.51100000000E-03 0. -1.
         23    2    1    0    0    0  0.10603792732E+02  0.41920687754E+01  0.27589863009E+02  0.95146785738E+02  0.90342107760E+02 0.  0.
         11    1    3    3    0    0 -0.22923104771E+02  0.36812533703E+02  0.65610421358E+01  0.43859761104E+02  0.51100000000E-03 0.  1.
         22    1    1    0    0    0 -0.10603792732E+02 -0.41920687754E+01 -0.27589863009E+02  0.29853214262E+02  0.00000000000E+00 0. -1.
</event>
<event>
 5    1  0.8752570E-005  0.9118800E+02  0.7818608E-02  0.1130116E+00
         25   -1    0    0    0    0  0.00000000000E+00  0.00000000000E+00  0.99999998245E-14  0.12500000000E+03  0.12500000000E+03 0.  0.
        -11    1    3    3    0    0  0.16116259695E+02 -0.45042502903E+02  0.24637240118E+02  0.53810356765E+02  0.51100000000E-03 0.  1.
         23    2    1    0    0    0 -0.71903248050E+01 -0.28021443835E+02 -0.55163946388E+01  0.95549487353E+02  0.90897589837E+02 0.  0.
         11    1    3    3    0    0 -0.23306584500E+02  0.17021059068E+02 -0.30153634757E+02  0.41739130587E+02  0.51100000000E-03 0. -1.
         22    1    1    0    0    0  0.71903248050E+01  0.28021443835E+02  0.55163946388E+01  0.29450512647E+02  0.00000000000E+00 0.  1.
</event>
<event>
 5    1  0.8752570E-005  0.9118800E+02  0.7818608E-02  0.1130116E+00
         25   -1    0    0    0    0  0.00000000000E+00  0.00000000000E+00  0.99999998245E-14  0.12500000000E+03  0.12500000000E+03 0.  0.
        -11    1    3    3    0    0  0.43422603322E+02  0.28007660198E+02 -0.91913495267E+01  0.52482686816E+02  0.51100000000E-03 0.  1.
         23    2    1    0    0    0  0.26148996971E+02  0.12381512143E+00  0.16441676548E+02  0.94111262562E+02  0.88897781978E+02 0.  0.
         11    1    3    3    0    0 -0.17273606351E+02 -0.27883845077E+02  0.25633026075E+02  0.41628575746E+02  0.51100000000E-03 0. -1.
         22    1    1    0    0    0 -0.26148996971E+02 -0.12381512143E+00 -0.16441676548E+02  0.30888737438E+02  0.00000000000E+00 0.  1.
</event>
<event>
 5    1  0.8752570E-005  0.9118800E+02  0.7818608E-02  0.1130116E+00
         25   -1    0    0    0    0  0.00000000000E+00  0.00000000000E+00  0.99999998245E-14  0.12500000000E+03  0.12500000000E+03 0.  0.
        -11    1    3    3    0    0 -0.10620637150E+02 -0.15747299778E+02  0.38813173492E+02  0.43211547306E+02  0.51100000000E-03 0.  1.
         23    2    1    0    0    0 -0.67124453261E+00  0.27272324791E+02  0.99593103876E+01  0.95958337993E+02  0.91458102420E+02 0.  0.
         11    1    3    3    0    0  0.99493926173E+01  0.43019624569E+02 -0.28853863104E+02  0.52746790688E+02  0.51100000000E-03 0. -1.
         22    1    1    0    0    0  0.67124453261E+00 -0.27272324791E+02 -0.99593103876E+01  0.29041662007E+02  0.00000000000E+00 0. -1.
</event>
<event>
 5    1  0.8752570E-005  0.9118800E+02  0.7818608E-02  0.1130116E+00
         25   -1    0    0    0    0  0.00000000000E+00  0.00000000000E+00  0.99999998245E-14  0.12500000000E+03  0.12500000000E+03 0.  0.
        -11    1    3    3    0    0  0.17499834550E+02 -0.52288746639E+02  0.27389527985E+02  0.61567389727E+02  0.51100000000E-03 0.  1.
         23    2    1    0    0    0  0.89214898362E+01 -0.20838092204E+02  0.19478281182E+02  0.95113171707E+02  0.90295586420E+02 0.  0.
         11    1    3    3    0    0 -0.85783447139E+01  0.31450654435E+02 -0.79112468032E+01  0.33545781980E+02  0.51100000000E-03 0. -1.
         22    1    1    0    0    0 -0.89214898362E+01  0.20838092204E+02 -0.19478281182E+02  0.29886828293E+02  0.00000000000E+00 0.  1.
</event>
<event>
 5    1  0.8752570E-005  0.9118800E+02  0.7818608E-02  0.1130116E+00
         25   -1    0    0    0    0  0.00000000000E+00  0.00000000000E+00  0.99999998245E-14  0.12500000000E+03  0.12500000000E+03 0.  0.
        -11    1    3    3    0    0  0.52994692923E+02 -0.13471865786E+02 -0.29694751692E+01  0.54760811068E+02  0.51100000000E-03 0. -1.
         23    2    1    0    0    0  0.26077849112E+02  0.15210316871E+02  0.34445608714E+01  0.94614593088E+02  0.89602724691E+02 0.  0.
         11    1    3    3    0    0 -0.26916843811E+02  0.28682182657E+02  0.64140360406E+01  0.39853782020E+02  0.51100000000E-03 0.  1.
         22    1    1    0    0    0 -0.26077849112E+02 -0.15210316871E+02 -0.34445608714E+01  0.30385406912E+02  0.00000000000E+00 0. -1.
</event>
<event>
 5    1  0.8752570E-005  0.9118800E+02  0.7818608E-02  0.1130116E+00
         25   -1    0    0    0    0  0.00000000000E+00  0.00000000000E+00  0.99999998245E-14  0.12500000000E+03  0.12500000000E+03 0.  0.
        -11    1    3    3    0    0 -0.24640626455E+02 -0.77232380308E+01  0.36757843898E+02  0.44921575730E+02  0.51100000000E-03 0.  1.
         23    2    1    0    0    0 -0.51171996443E+01 -0.35393608616E+02  0.10636186396E+02  0.87690192655E+02  0.79357092713E+02 0.  0.
         11    1    3    3    0    0  0.19523426811E+02 -0.27670370585E+02 -0.26121657503E+02  0.42768616925E+02  0.51100000000E-03 0. -1.
         22    1    1    0    0    0  0.51171996443E+01  0.35393608616E+02 -0.10636186396E+02  0.37309807345E+02  0.00000000000E+00 0.  1.
</event>
<event>
 5    1  0.8752570E-005  0.9118800E+02  0.7818608E-02  0.1130116E+00
         25   -1    0    0    0    0  0.00000000000E+00  0.00000000000E+00  0.99999998245E-14  0.12500000000E+03  0.12500000000E+03 0.  0.
        -11    1    3    3    0    0 -0.14413504248E+02  0.41218991220E+02  0.41420206730E+02  0.60186276407E+02  0.51100000000E-03 0. -1.
         23    2    1    0    0    0  0.46622560420E+01  0.14622119604E+02  0.21775650171E+02  0.98359392772E+02  0.94682882260E+02 0.  0.
         11    1    3    3    0    0  0.19075760290E+02 -0.26596871616E+02 -0.19644556559E+02  0.38173116366E+02  0.51100000000E-03 0.  1.
         22    1    1    0    0    0 -0.46622560420E+01 -0.14622119604E+02 -0.21775650171E+02  0.26640607228E+02  0.00000000000E+00 0. -1.
</event>
<event>
 5    1  0.8752570E-005  0.9118800E+02  0.7818608E-02  0.1130116E+00
         25   -1    0    0    0    0  0.00000000000E+00  0.00000000000E+00  0.99999998245E-14  0.12500000000E+03  0.12500000000E+03 0.  0.
        -11    1    3    3    0    0  0.16839197233E+02  0.12975324636E+02 -0.27805945680E+02  0.35001260381E+02  0.51100000000E-03 0.  1.
         23    2    1    0    0    0 -0.83330138304E+01 -0.25585324065E+02  0.11684196974E+02  0.95664554103E+02  0.91055689146E+02 0.  0.
         11    1    3    3    0    0 -0.25172211063E+02 -0.38560648702E+02  0.39490142654E+02  0.60663293722E+02  0.51100000000E-03 0. -1.
         22    1    1    0    0    0  0.83330138304E+01  0.25585324065E+02 -0.11684196974E+02  0.29335445897E+02  0.00000000000E+00 0. -1.
</event>
<event>
 5    1  0.8752570E-005  0.9118800E+02  0.7818608E-02  0.1130116E+00
         25   -1    0    0    0    0  0.00000000000E+00  0.00000000000E+00  0.99999998245E-14  0.12500000000E+03  0.12500000000E+03 0.  0.
        -11    1    3    3    0    0  0.50853389565E+02  0.30957104600E+02  0.80948474612E+01  0.60082743872E+02  0.51100000000E-03 0.  1.
         23    2    1    0    0    0  0.18505483737E+02  0.10500946493E+02  0.14990688156E+02  0.98972254477E+02  0.95488552295E+02 0.  0.
         11    1    3    3    0    0 -0.32347905829E+02 -0.20456158107E+02  0.68958406952E+01  0.38889510605E+02  0.51100000000E-03 0. -1.
         22    1    1    0    0    0 -0.18505483737E+02 -0.10500946493E+02 -0.14990688156E+02  0.26027745523E+02  0.00000000000E+00 0.  1.
</event>
<event>
 5    1  0.8752570E-005  0.9118800E+02  0.7818608E-02  0.1130116E+00
         25   -1    0    0    0    0  0.00000000000E+00  0.00000000000E+00  0.99999998245E-14  0.12500000000E+03  0.12500000000E+03 0.  0.
        -11    1    3    3    0    0  0.20775888327E+01 -0.42161005425E+02  0.26285649064E+02  0.49727277231E+02  0.51100000000E-03 0. -1.
         23    2    1    0    0    0  0.20770647916E+02 -0.54323332947E+00  0.20665205788E+02  0.95695296494E+02  0.91097882102E+02 0.  0.
         11    1    3    3    0    0  0.18693059083E+02  0.41617772096E+02 -0.56204432758E+01  0.45968019263E+02  0.51100000000E-03 0.  1.
         22    1    1    0    0    0 -0.20770647916E+02  0.54323332947E+00 -0.20665205788E+02  0.29304703506E+02  0.00000000000E+00 0.  1.
</event>
<event>
 5    1  0.8752570E-005  0.9118800E+02  0.7818608E-02  0.1130116E+00
         25   -1    0    0    0    0  0.00000000000E+00  0.00000000000E+00  0.99999998245E-14  0.12500000000E+03  0.12500000000E+03 0.  0.
        -11    1    3    3    0    0  0.45736946335E+02 -0.33853730919E+02 -0.21998484693E+02  0.61007185530E+02  0.51100000000E-03 0. -1.
         23    2    1    0    0    0  0.27009909394E+02 -0.80015710821E+01 -0.10216385400E+02  0.95034438502E+02  0.90186526851E+02 0.  0.
         11    1    3    3    0    0 -0.18727036941E+02  0.25852159837E+02  0.11782099293E+02  0.34027252972E+02  0.51100000000E-03 0.  1.
         22    1    1    0    0    0 -0.27009909394E+02  0.80015710821E+01  0.10216385400E+02  0.29965561498E+02  0.00000000000E+00 0. -1.
</event>
<event>
 5    1  0.8752570E-005  0.9118800E+02  0.7818608E-02  0.1130116E+00
         25   -1    0    0    0    0  0.00000000000E+00  0.00000000000E+00  0.99999998245E-14  0.12500000000E+03  0.12500000000E+03 0.  0.
        -11    1    3    3    0    0  0.18249003325E+02 -0.28392648789E+02 -0.65169396754E+01  0.34374978263E+02  0.51100000000E-03 0.  1.
         23    2    1    0    0    0  0.58892882483E+01  0.26366229111E+02  0.14526777349E+02  0.94326085777E+02  0.89199335447E+02 0.  0.
         11    1    3    3    0    0 -0.12359715076E+02  0.54758877900E+02  0.21043717024E+02  0.59951107514E+02  0.51100000000E-03 0. -1.
         22    1    1    0    0    0 -0.58892882483E+01 -0.26366229111E+02 -0.14526777349E+02  0.30673914223E+02  0.00000000000E+00 0. -1.
</event>
<event>
 5    1  0.8752570E-005  0.9118800E+02  0.7818608E-02  0.1130116E+00
         25   -1    0    0    0    0  0.00000000000E+00  0.00000000000E+00  0.99999998245E-14  0.12500000000E+03  0.12500000000E+03 0.  0.
        -11    1    3    3    0    0  0.32508432113E+02 -0.90626778242E+01  0.41079863625E+02  0.53164701480E+02  0.51100000000E-03 0.  1.
         23    2    1    0    0    0 -0.26871767376E+01 -0.20971621168E+02  0.20064160324E+02  0.95852095397E+02  0.91312780317E+02 0.  0.
         11    1    3    3    0    0 -0.35195608850E+02 -0.11908943344E+02 -0.21015703301E+02  0.42687393917E+02  0.51100000000E-03 0. -1.
         22    1    1    0    0    0  0.26871767376E+01  0.20971621168E+02 -0.20064160324E+02  0.29147904603E+02  0.00000000000E+00 0.  1.
</event>
<event>
 5    1  0.8752570E-005  0.9118800E+02  0.7818608E-02  0.1130116E+00
         25   -1    0    0    0    0  0.00000000000E+00  0.00000000000E+00  0.99999998245E-14  0.12500000000E+03  0.12500000000E+03 0.  0.
        -11    1    3    3    0    0  0.29061656936E+02  0.31415490089E+02 -0.35299210416E+02  0.55475644905E+02  0.51100000000E-03 0.  1.
         23    2    1    0    0    0 -0.59357801269E+01  0.12669059091E+02 -0.24772960772E+02  0.96549373832E+02  0.92262362087E+02 0.  0.
         11    1    3    3    0    0 -0.34997437063E+02 -0.18746430997E+02  0.10526249644E+02  0.41073728927E+02  0.51100000000E-03 0. -1.
         22    1    1    0    0    0  0.59357801269E+01 -0.12669059091E+02  0.24772960772E+02  0.28450626168E+02  0.00000000000E+00 0.  1.
</event>
<event>
 5    1  0.8752570E-005  0.9118800E+02  0.7818608E-02  0.1130116E+00
         25   -1    0    0    0    0  0.00000000000E+00  0.00000000000E+00  0.99999998245E-14  0.12500000000E+03  0.12500000000E+03 0.  0.
        -11    1    3    3    0    0 -0.31850102685E+02 -0.77674835247E+00 -0.29408638476E+02  0.43357818168E+02  0.51100000000E-03 0.  1.
         23    2    1    0    0    0  0.19125779156E+02  0.52427605929E+01 -0.22266816720E+02  0.95182335876E+02  0.90391282594E+02 0.  0.
         11    1    3    3    0    0  0.50975881841E+02  0.60195089454E+01  0.71418217562E+01  0.51824517708E+02  0.51100000000E-03 0. -1.
         22    1    1    0    0    0 -0.19125779156E+02 -0.52427605929E+01  0.22266816720E+02  0.29817664124E+02  0.00000000000E+00 0. -1.
</event>
<event>
 5    1  0.8752570E-005  0.9118800E+02  0.7818608E-02  0.1130116E+00
         25   -1    0    0    0    0  0.00000000000E+00  0.00000000000E+00  0.99999998245E-14  0.12500000000E+03  0.12500000000E+03 0.  0.
        -11    1    3    3    0    0  0.46080083605E+02  0.12992396733E+02  0.95172707890E+01  0.48813470697E+02  0.51100000000E-03 0.  1.
         23    2    1    0    0    0  0.14198680119E+02  0.24438111085E+02 -0.17163745972E+02  0.91933128870E+02  0.85780430271E+02 0.  0.
         11    1    3    3    0    0 -0.31881403486E+02  0.11445714352E+02 -0.26681016761E+02  0.43119658173E+02  0.51100000000E-03 0. -1.
         22    1    1    0    0    0 -0.14198680119E+02 -0.24438111085E+02  0.17163745972E+02  0.33066871130E+02  0.00000000000E+00 0.  1.
</event>
<event>
 5    1  0.8752570E-005  0.9118800E+02  0.7818608E-02  0.1130116E+00
         25   -1    0    0    0    0  0.00000000000E+00  0.00000000000E+00  0.99999998245E-14  0.12500000000E+03  0.12500000000E+03 0.  0.
        -11    1    3    3    0    0 -0.47544128514E+02  0.12963711708E+02 -0.27438661966E+02  0.56403742324E+02  0.51100000000E-03 0.  1.
         23    2    1    0    0    0 -0.34895547697E+02 -0.24595156469E+01 -0.38490798531E+00  0.90015766116E+02  0.82939384668E+02 0.  0.
         11    1    3    3    0    0  0.12648580817E+02 -0.15423227355E+02  0.27053753981E+02  0.33612023792E+02  0.51100000000E-03 0. -1.
         22    1    1    0    0    0  0.34895547697E+02  0.24595156469E+01  0.38490798531E+00  0.34984233884E+02  0.00000000000E+00 0.  1.
</event>
<event>
 5    1  0.8752570E-005  0.9118800E+02  0.7818608E-02  0.1130116E+00
         25   -1    0    0    0    0  0.00000000000E+00  0.00000000000E+00  0.99999998245E-14  0.12500000000E+03  0.12500000000E+03 0.  0.
        -11    1    3    3    0    0 -0.92412282557E+01  0.45402335270E+02  0.18636146086E+02  0.49940747780E+02  0.51100000000E-03 0. -1.
         23    2    1    0    0    0 -0.20417417264E+02  0.35692124866E+01 -0.10134543109E+02  0.10192795697E+03  0.99282371259E+02 0.  0.
         11    1    3    3    0    0 -0.11176189008E+02 -0.41833122783E+02 -0.28770689195E+02  0.51987209192E+02  0.51100000000E-03 0.  1.
         22    1    1    0    0    0  0.20417417264E+02 -0.35692124866E+01  0.10134543109E+02  0.23072043029E+02  0.00000000000E+00 0. -1.
</event>
<event>
 5    1  0.8752570E-005  0.9118800E+02  0.7818608E-02  0.1130116E+00
         25   -1    0    0    0    0  0.00000000000E+00  0.00000000000E+00  0.99999998245E-14  0.12500000000E+03  0.12500000000E+03 0.  0.
        -11    1    3    3    0    0 -0.38011905491E+02  0.23940331926E+02  0.29693225081E+02  0.53849160326E+02  0.51100000000E-03 0.  1.
         23    2    1    0    0    0 -0.27280633445E+02 -0.74647321409E+01  0.27759541669E+01  0.96580620897E+02  0.92304686903E+02 0.  0.
         11    1    3    3    0    0  0.10731272046E+02 -0.31405064067E+02 -0.26917270915E+02  0.42731460571E+02  0.51100000000E-03 0. -1.
         22    1    1    0    0    0  0.27280633445E+02  0.74647321409E+01 -0.27759541669E+01  0.28419379103E+02  0.00000000000E+00 0.  1.
</event>
<event>
 5    1  0.8752570E-005  0.9118800E+02  0.7818608E-02  0.1130116E+00
         25   -1    0    0    0    0  0.00000000000E+00  0.00000000000E+00  0.99999998245E-14  0.12500000000E+03  0.12500000000E+03 0.  0.
        -11    1    3    3    0    0  0.20070071683E+02 -0.21298801119E+02  0.22436514782E+02  0.36876061371E+02  0.51100000000E-03 0. -1.
         23    2    1    0    0    0  0.31768508387E+01  0.14096380023E+02 -0.23583763610E+02  0.97341471170E+02  0.93329351184E+02 0.  0.
         11    1    3    3    0    0 -0.16893220844E+02  0.35395181142E+02 -0.46020278392E+02  0.60465409799E+02  0.51100000000E-03 0.  1.
         22    1    1    0    0    0 -0.31768508387E+01 -0.14096380023E+02  0.23583763610E+02  0.27658528830E+02  0.00000000000E+00 0.  1.
</event>
<event>
 5    1  0.8752570E-005  0.9118800E+02  0.7818608E-02  0.1130116E+00
         25   -1    0    0    0    0  0.00000000000E+00  0.00000000000E+00  0.99999998245E-14  0.12500000000E+03  0.12500000000E+03 0.  0.
        -11    1    3    3    0    0  0.44821543053E+02  0.32327502573E+02 -0.23307211390E+02  0.59977197728E+02  0.51100000000E-03 0. -1.
         23    2    1    0    0    0  0.22975652315E+02  0.17642314266E+02  0.12895279787E+01  0.96003539279E+02  0.91519860247E+02 0.  0.
         11    1    3    3    0    0 -0.21845890738E+02 -0.14685188307E+02  0.24596739369E+02  0.36026341551E+02  0.51100000000E-03 0.  1.
         22    1    1    0    0    0 -0.22975652315E+02 -0.17642314266E+02 -0.12895279787E+01  0.28996460721E+02  0.00000000000E+00 0. -1.
</event>
<event>
 5    1  0.8752570E-005  0.9118800E+02  0.7818608E-02  0.1130116E+00
         25   -1    0    0    0    0  0.00000000000E+00  0.00000000000E+00  0.99999998245E-14  0.12500000000E+03  0.12500000000E+03 0.  0.
        -11    1    3    3    0    0  0.27793942487E+02  0.28796683640E+02  0.44868265891E+01  0.40272618995E+02  0.51100000000E-03 0. -1.
         23    2    1    0    0    0  0.45545692960E+01 -0.23447911395E+02  0.12548557174E+02  0.98018248067E+02  0.94231427967E+02 0.  0.
         11    1    3    3    0    0 -0.23239373191E+02 -0.52244595035E+02  0.80617305846E+01  0.57745629072E+02  0.51100000000E-03 0.  1.
         22    1    1    0    0    0 -0.45545692960E+01  0.23447911395E+02 -0.12548557174E+02  0.26981751933E+02  0.00000000000E+00 0.  1.
</event>
<event>
 5    1  0.8752570E-005  0.9118800E+02  0.7818608E-02  0.1130116E+00
         25   -1    0    0    0    0  0.00000000000E+00  0.00000000000E+00  0.99999998245E-14  0.12500000000E+03  0.12500000000E+03 0.  0.
        -11    1    3    3    0    0 -0.16986294296E+02 -0.23302265873E+02  0.51825230108E+02  0.59307539696E+02  0.51100000000E-03 0.  1.
         23    2    1    0    0    0 -0.85658643615E+01  0.27919030205E+01  0.27845413438E+02  0.95733367050E+02  0.91150105663E+02 0.  0.
         11    1    3    3    0    0  0.84204299350E+01  0.26094168894E+02 -0.23979816671E+02  0.36425827354E+02  0.51100000000E-03 0. -1.
         22    1    1    0    0    0  0.85658643615E+01 -0.27919030205E+01 -0.27845413438E+02  0.29266632950E+02  0.00000000000E+00 0.  1.
</event>
<event>
 5    1  0.8752570E-005  0.9118800E+02  0.7818608E-02  0.1130116E+00
         25   -1    0    0    0    0  0.00000000000E+00  0.00000000000E+00  0.99999998245E-14  0.12500000000E+03  0.12500000000E+03 0.  0.
        -11    1    3    3    0    0 -0.21528004642E+02 -0.14078101452E+02  0.18294166842E+02  0.31564607792E+02  0.51100000000E-03 0. -1.
         23    2    1    0    0    0  0.19796575930E+02  0.25748438989E+02  0.15466243387E+02  0.89026520693E+02  0.81434821626E+02 0.  0.
         11    1    3    3    0    0  0.41324580572E+02  0.39826540441E+02 -0.28279234550E+01  0.57461912902E+02  0.51100000000E-03 0.  1.
         22    1    1    0    0    0 -0.19796575930E+02 -0.25748438989E+02 -0.15466243387E+02  0.35973479307E+02  0.00000000000E+00 0.  1.
</event>
<event>
 5    1  0.8752570E-005  0.9118800E+02  0.7818608E-02  0.1130116E+00
         25   -1    0    0    0    0  0.00000000000E+00  0.00000000000E+00  0.99999998245E-14  0.12500000000E+03  0.12500000000E+03 0.  0.
        -11    1    3    3    0    0 -0.53831714116E+02  0.22864046996E+01 -0.13793145967E+02  0.55617730689E+02  0.51100000000E-03 0.  1.
         23    2    1    0    0    0 -0.14933821250E+02  0.18779008484E+02 -0.12634680118E+02  0.97883486241E+02  0.94052493642E+02 0.  0.
         11    1    3    3    0    0  0.38897892866E+02  0.16492603784E+02  0.11584658488E+01  0.42265755552E+02  0.51100000000E-03 0. -1.
         22    1    1    0    0    0  0.14933821250E+02 -0.18779008484E+02  0.12634680118E+02  0.27116513759E+02  0.00000000000E+00 0. -1.
</event>
<event>
 5    1  0.8752570E-005  0.9118800E+02  0.7818608E-02  0.1130116E+00
         25   -1    0    0    0    0  0.00000000000E+00  0.00000000000E+00  0.99999998245E-14  0.12500000000E+03  0.12500000000E+03 0.  0.
        -11    1    3    3    0    0  0.48391952369E+02 -0.81588447683E+01 -0.58346857484E+01  0.49420556047E+02  0.51100000000E-03 0.  1.
         23    2    1    0    0    0  0.80316472555E+01 -0.18111537562E+00 -0.27802961395E+02  0.96059633335E+02  0.91596442800E+02 0.  0.
         11    1    3    3    0    0 -0.40360305113E+02  0.79777293927E+01 -0.21968275646E+02  0.46639077287E+02  0.51100000000E-03 0. -1.
         22    1    1    0    0    0 -0.80316472555E+01  0.18111537562E+00  0.27802961395E+02  0.28940366665E+02  0.00000000000E+00 0.  1.
</event>
<event>
 5    1  0.8752570E-005  0.9118800E+02  0.7818608E-02  0.1130116E+00
         25   -1    0    0    0    0  0.00000000000E+00  0.00000000000E+00  0.99999998245E-14  0.12500000000E+03  0.12500000000E+03 0.  0.
        -11    1    3    3    0    0 -0.19774029579E+02  0.15245734359E+02  0.15538363056E+02  0.29408933824E+02  0.51100000000E-03 0. -1.
         23    2    1    0    0    0  0.19883040958E+02 -0.28790509695E+02  0.75463576356E+01  0.89206477125E+02  0.81710582432E+02 0.  0.
         11    1    3    3    0    0  0.39657070537E+02 -0.44036244054E+02 -0.79920054204E+01  0.59797543301E+02  0.51100000000E-03 0.  1.
         22    1    1    0    0    0 -0.19883040958E+02  0.28790509695E+02 -0.75463576356E+01  0.35793522875E+02  0.00000000000E+00 0.  1.
</event>
<event>
 5    1  0.8752570E-005  0.9118800E+02  0.7818608E-02  0.1130116E+00
         25   -1    0    0    0    0  0.00000000000E+00  0.00000000000E+00  0.99999998245E-14  0.12500000000E+03  0.12500000000E+03 0.  0.
        -11    1    3    3    0    0  0.28728617567E+02  0.55141073597E+01  0.24547644308E+02  0.38188030698E+02  0.51100000000E-03 0.  1.
         23    2    1    0    0    0 -0.16234302162E+02 -0.23528218778E+02  0.17697450894E+01  0.96359789749E+02  0.92005148972E+02 0.  0.
         11    1    3    3    0    0 -0.44962919729E+02 -0.29042326137E+02 -0.22777899218E+02  0.58171759051E+02  0.51100000000E-03 0. -1.
         22    1    1    0    0    0  0.16234302162E+02  0.23528218778E+02 -0.17697450894E+01  0.28640210251E+02  0.00000000000E+00 0.  1.
</event>
<event>
 5    1  0.8752570E-005  0.9118800E+02  0.7818608E-02  0.1130116E+00
         25   -1    0    0    0    0  0.00000000000E+00  0.00000000000E+00  0.99999998245E-14  0.12500000000E+03  0.12500000000E+03 0.  0.
        -11    1    3    3    0    0 -0.56578837187E+02 -0.68550802327E+00 -0.17927727847E+02  0.59355186502E+02  0.51100000000E-03 0.  1.
         23    2    1    0    0    0 -0.28746071380E+02  0.91184416458E+01  0.16980695755E+01  0.94794602501E+02  0.89853495342E+02 0.  0.
         11    1    3    3    0    0  0.27832765807E+02  0.98039496691E+01  0.19625797422E+02  0.35439415999E+02  0.51100000000E-03 0. -1.
         22    1    1    0    0    0  0.28746071380E+02 -0.91184416458E+01 -0.16980695755E+01  0.30205397499E+02  0.00000000000E+00 0.  1.
</event>
<event>
 5    1  0.8752570E-005  0.9118800E+02  0.7818608E-02  0.1130116E+00
         25   -1    0    0    0    0  0.00000000000E+00  0.00000000000E+00  0.99999998245E-14  0.12500000000E+03  0.12500000000E+03 0.  0.
        -11    1    3    3    0    0 -0.32130203059E+02  0.52614222010E+01 -0.59332932295E+01  0.33094357238E+02  0.51100000000E-03 0. -1.
         23    2    1    0    0    0  0.29265045770E+02 -0.41871631430E+01 -0.76518485597E+00  0.95427026748E+02  0.90729028910E+02 0.  0.
         11    1    3    3    0    0  0.61395248829E+02 -0.94485853439E+01  0.51681083735E+01  0.62332669510E+02  0.51100000000E-03 0.  1.
         22    1    1    0    0    0 -0.29265045770E+02  0.41871631430E+01  0.76518485597E+00  0.29572973252E+02  0.00000000000E+00 0.  1.
</event>
<event>
 5    1  0.8752570E-005  0.9118800E+02  0.7818608E-02  0.1130116E+00
         25   -1    0    0    0    0  0.00000000000E+00  0.00000000000E+00  0.99999998245E-14  0.12500000000E+03  0.12500000000E+03 0.  0.
        -11    1    3    3    0    0 -0.41724372720E+02 -0.96175864761E+01 -0.83402344887E+01  0.43623167699E+02  0.51100000000E-03 0. -1.
         23    2    1    0    0    0  0.30902470521E+01 -0.84061328323E+00 -0.30465409542E+02  0.94366726651E+02  0.89256269599E+02 0.  0.
         11    1    3    3    0    0  0.44814619772E+02  0.87769731929E+01 -0.22125175053E+02  0.50743558952E+02  0.51100000000E-03 0.  1.
         22    1    1    0    0    0 -0.30902470521E+01  0.84061328323E+00  0.30465409542E+02  0.30633273349E+02  0.00000000000E+00 0.  1.
</event>
<event>
 5    1  0.8752570E-005  0.9118800E+02  0.7818608E-02  0.1130116E+00
         25   -1    0    0    0    0  0.00000000000E+00  0.00000000000E+00  0.99999998245E-14  0.12500000000E+03  0.12500000000E+03 0.  0.
        -11    1    3    3    0    0 -0.16339013860E+02 -0.24799942614E+02 -0.39921996313E+02  0.49757073039E+02  0.51100000000E-03 0.  1.
         23    2    1    0    0    0 -0.10490047123E+02 -0.14001576889E+02  0.12435447913E+02  0.10353548023E+03  0.10128608028E+03 0.  0.
         11    1    3    3    0    0  0.58489667372E+01  0.10798365725E+02  0.52357444226E+02  0.53778407194E+02  0.51100000000E-03 0. -1.
         22    1    1    0    0    0  0.10490047123E+02  0.14001576889E+02 -0.12435447913E+02  0.21464519766E+02  0.00000000000E+00 0.  1.
</event>
<event>
 5    1  0.8752570E-005  0.9118800E+02  0.7818608E-02  0.1130116E+00
         25   -1    0    0    0    0  0.00000000000E+00  0.00000000000E+00  0.99999998245E-14  0.12500000000E+03  0.12500000000E+03 0.  0.
        -11    1    3    3    0    0 -0.20432296246E+02 -0.50826483033E+01  0.30504722110E+02  0.37065484145E+02  0.51100000000E-03 0. -1.
         23    2    1    0    0    0  0.26270646151E+02  0.12060265613E+02 -0.12162628326E+01  0.96067731663E+02  0.91607493775E+02 0.  0.
         11    1    3    3    0    0  0.46702942397E+02  0.17142913917E+02 -0.31720984943E+02  0.59002247517E+02  0.51100000000E-03 0.  1.
         22    1    1    0    0    0 -0.26270646151E+02 -0.12060265613E+02  0.12162628326E+01  0.28932268337E+02  0.00000000000E+00 0.  1.
</event>
<event>
 5    1  0.8752570E-005  0.9118800E+02  0.7818608E-02  0.1130116E+00
         25   -1    0    0    0    0  0.00000000000E+00  0.00000000000E+00  0.99999998245E-14  0.12500000000E+03  0.12500000000E+03 0.  0.
        -11    1    3    3    0    0 -0.34414064666E+02 -0.14973589239E+02 -0.89860853242E+01  0.38591267810E+02  0.51100000000E-03 0.  1.
         23    2    1    0    0    0  0.69966986251E+01 -0.38796418408E+01  0.28412744573E+02  0.95482387180E+02  0.90805268542E+02 0.  0.
         11    1    3    3    0    0  0.41410763291E+02  0.11093947398E+02  0.37398829897E+02  0.56891119369E+02  0.51100000000E-03 0. -1.
         22    1    1    0    0    0 -0.69966986251E+01  0.38796418408E+01 -0.28412744573E+02  0.29517612820E+02  0.00000000000E+00 0. -1.
</event>
<event>
 5    1  0.8752570E-005  0.9118800E+02  0.7818608E-02  0.1130116E+00
         25   -1    0    0    0    0  0.00000000000E+00  0.00000000000E+00  0.99999998245E-14  0.12500000000E+03  0.12500000000E+03 0.  0.
        -11    1    3    3    0    0 -0.50361442880E+00 -0.26431033070E+02 -0.16470707389E+02  0.31147027768E+02  0.51100000000E-03 0.  1.
         23    2    1    0    0    0 -0.21738277975E+02  0.20117160989E+02  0.15593826706E+02  0.91527319693E+02  0.85187029079E+02 0.  0.
         11    1    3    3    0    0 -0.21234663546E+02  0.46548194058E+02  0.32064534095E+02  0.60380291926E+02  0.51100000000E-03 0. -1.
         22    1    1    0    0    0  0.21738277975E+02 -0.20117160989E+02 -0.15593826706E+02  0.33472680307E+02  0.00000000000E+00 0. -1.
</event>
<event>
 5    1  0.8752570E-005  0.9118800E+02  0.7818608E-02  0.1130116E+00
         25   -1    0    0    0    0  0.00000000000E+00  0.00000000000E+00  0.99999998245E-14  0.12500000000E+03  0.12500000000E+03 0.  0.
        -11    1    3    3    0    0 -0.21982392628E+02 -0.37281380316E+02  0.23116482429E+02  0.49066268088E+02  0.51100000000E-03 0.  1.
         23    2    1    0    0    0  0.11373132694E+02 -0.33226474385E+02 -0.52522672001E-01  0.89880923902E+02  0.82735911039E+02 0.  0.
         11    1    3    3    0    0  0.33355525321E+02  0.40549059310E+01 -0.23169005101E+02  0.40814655814E+02  0.51100000000E-03 0. -1.
         22    1    1    0    0    0 -0.11373132694E+02  0.33226474385E+02  0.52522672001E-01  0.35119076098E+02  0.00000000000E+00 0. -1.
</event>
<event>
 5    1  0.8752570E-005  0.9118800E+02  0.7818608E-02  0.1130116E+00
         25   -1    0    0    0    0  0.00000000000E+00  0.00000000000E+00  0.99999998245E-14  0.12500000000E+03  0.12500000000E+03 0.  0.
        -11    1    3    3    0    0  0.91603184072E+01  0.20620365167E+02 -0.27647110741E+02  0.35685762224E+02  0.51100000000E-03 0. -1.
         23    2    1    0    0    0 -0.25311695965E+02 -0.19271619025E+02 -0.14587021032E+02  0.90002022415E+02  0.82918668608E+02 0.  0.
         11    1    3    3    0    0 -0.34472014372E+02 -0.39891984192E+02  0.13060089709E+02  0.54316260191E+02  0.51100000000E-03 0.  1.
         22    1    1    0    0    0  0.25311695965E+02  0.19271619025E+02  0.14587021032E+02  0.34997977585E+02  0.00000000000E+00 0.  1.
</event>
<event>
 5    1  0.8752570E-005  0.9118800E+02  0.7818608E-02  0.1130116E+00
         25   -1    0    0    0    0  0.00000000000E+00  0.00000000000E+00  0.99999998245E-14  0.12500000000E+03  0.12500000000E+03 0.  0.
        -11    1    3    3    0    0 -0.50878890253E+02 -0.70234135688E+01 -0.49949046585E+01  0.51603671229E+02  0.51100000000E-03 0.  1.
         23    2    1    0    0    0 -0.10082325179E+02 -0.21193112536E+02 -0.16516779785E+02  0.96301475396E+02  0.91925887806E+02 0.  0.
         11    1    3    3    0    0  0.40796565074E+02 -0.14169698968E+02 -0.11521875126E+02  0.44697804167E+02  0.51100000000E-03 0. -1.
         22    1    1    0    0    0  0.10082325179E+02  0.21193112536E+02  0.16516779785E+02  0.28698524604E+02  0.00000000000E+00 0.  1.
</event>
<event>
 5    1  0.8752570E-005  0.9118800E+02  0.7818608E-02  0.1130116E+00
         25   -1    0    0    0    0  0.00000000000E+00  0.00000000000E+00  0.99999998245E-14  0.12500000000E+03  0.12500000000E+03 0.  0.
        -11    1    3    3    0    0 -0.29872969877E+02 -0.16085906793E+02  0.13513525324E+02  0.36520762500E+02  0.51100000000E-03 0.  1.
         23    2    1    0    0    0  0.15576043979E+02 -0.32615639471E+01 -0.23567266669E+02  0.96562929060E+02  0.92280725316E+02 0.  0.
         11    1    3    3    0    0  0.45449013857E+02  0.12824342846E+02 -0.37080791993E+02  0.60042166559E+02  0.51100000000E-03 0. -1.
         22    1    1    0    0    0 -0.15576043979E+02  0.32615639471E+01  0.23567266669E+02  0.28437070940E+02  0.00000000000E+00 0. -1.
</event>
<event>
 5    1  0.8752570E-005  0.9118800E+02  0.7818608E-02  0.1130116E+00
         25   -1    0    0    0    0  0.00000000000E+00  0.00000000000E+00  0.99999998245E-14  0.12500000000E+03  0.12500000000E+03 0.  0.
        -11    1    3    3    0    0  0.12613463711E+02 -0.56909534728E+02  0.22484695425E+02  0.62476844818E+02  0.51100000000E-03 0. -1.
         23    2    1    0    0    0  0.53872679172E+01 -0.28376517087E+02  0.10258203285E+02  0.94349060174E+02  0.89231524942E+02 0.  0.
         11    1    3    3    0    0 -0.72261957938E+01  0.28533017641E+02 -0.12226492140E+02  0.31872215356E+02  0.51100000000E-03 0.  1.
         22    1    1    0    0    0 -0.53872679172E+01  0.28376517087E+02 -0.10258203285E+02  0.30650939826E+02  0.00000000000E+00 0. -1.
</event>
<event>
 5    1  0.8752570E-005  0.9118800E+02  0.7818608E-02  0.1130116E+00
         25   -1    0    0    0    0  0.00000000000E+00  0.00000000000E+00  0.99999998245E-14  0.12500000000E+03  0.12500000000E+03 0.  0.
        -11    1    3    3    0    0 -0.32952541700E+01 -0.10657751885E+02 -0.54670880378E+02  0.55797415145E+02  0.51100000000E-03 0. -1.
         23    2    1    0    0    0  0.60664320885E+01  0.14425937906E+02 -0.19699781472E+02  0.99840694112E+02  0.96618701750E+02 0.  0.
         11    1    3    3    0    0  0.93616862585E+01  0.25083689791E+02  0.34971098907E+02  0.44043278967E+02  0.51100000000E-03 0.  1.
         22    1    1    0    0    0 -0.60664320885E+01 -0.14425937906E+02  0.19699781472E+02  0.25159305888E+02  0.00000000000E+00 0. -1.
</event>
<event>
 5    1  0.8752570E-005  0.9118800E+02  0.7818608E-02  0.1130116E+00
         25   -1    0    0    0    0  0.00000000000E+00  0.00000000000E+00  0.99999998245E-14  0.12500000000E+03  0.12500000000E+03 0.  0.
        -11    1    3    3    0    0 -0.28796732944E+02  0.45022366590E+02 -0.31912308036E+02  0.62246772816E+02  0.51100000000E-03 0. -1.
         23    2    1    0    0    0 -0.15725492001E+02  0.21438767370E+02 -0.11666744284E+02  0.95965111207E+02  0.91467359216E+02 0.  0.
         11    1    3    3    0    0  0.13071240943E+02 -0.23583599220E+02  0.20245563752E+02  0.33718338391E+02  0.51100000000E-03 0.  1.
         22    1    1    0    0    0  0.15725492001E+02 -0.21438767370E+02  0.11666744284E+02  0.29034888793E+02  0.00000000000E+00 0. -1.
</event>
<event>
 5    1  0.8752570E-005  0.9118800E+02  0.7818608E-02  0.1130116E+00
         25   -1    0    0    0    0  0.00000000000E+00  0.00000000000E+00  0.99999998245E-14  0.12500000000E+03  0.12500000000E+03 0.  0.
        -11    1    3    3    0    0  0.39851996623E+02  0.42845695519E+02  0.45535900811E+01  0.58691314879E+02  0.51100000000E-03 0. -1.
         23    2    1    0    0    0  0.17138300543E+02  0.19589518851E+02 -0.13290745901E+02  0.95774762261E+02  0.91206855911E+02 0.  0.
         11    1    3    3    0    0 -0.22713696080E+02 -0.23256176668E+02 -0.17844335982E+02  0.37083447382E+02  0.51100000000E-03 0.  1.
         22    1    1    0    0    0 -0.17138300543E+02 -0.19589518851E+02  0.13290745901E+02  0.29225237739E+02  0.00000000000E+00 0. -1.
</event>
<event>
 5    1  0.8752570E-005  0.9118800E+02  0.7818608E-02  0.1130116E+00
         25   -1    0    0    0    0  0.00000000000E+00  0.00000000000E+00  0.99999998245E-14  0.12500000000E+03  0.12500000000E+03 0.  0.
        -11    1    3    3    0    0  0.17318609879E+02  0.26587901059E+02  0.28094565149E+02  0.42381072686E+02  0.51100000000E-03 0.  1.
         23    2    1    0    0    0  0.21984227955E+02  0.45204630444E+01 -0.19639858984E+02  0.95176101431E+02  0.90382660714E+02 0.  0.
         11    1    3    3    0    0  0.46656180760E+01 -0.22067438014E+02 -0.47734424134E+02  0.52795028745E+02  0.51100000000E-03 0. -1.
         22    1    1    0    0    0 -0.21984227955E+02 -0.45204630444E+01  0.19639858984E+02  0.29823898569E+02  0.00000000000E+00 0. -1.
</event>
<event>
 5    1  0.8752570E-005  0.9118800E+02  0.7818608E-02  0.1130116E+00
         25   -1    0    0    0    0  0.00000000000E+00  0.00000000000E+00  0.99999998245E-14  0.12500000000E+03  0.12500000000E+03 0.  0.
        -11    1    3    3    0    0 -0.39322064071E+02  0.20292229773E+02 -0.24240382859E+02  0.50453894531E+02  0.51100000000E-03 0.  1.
         23    2    1    0    0    0  0.66200398979E+01  0.15157130414E+02 -0.22963947447E+02  0.96699710019E+02  0.92465818035E+02 0.  0.
         11    1    3    3    0    0  0.45942103969E+02 -0.51350993587E+01  0.12764354121E+01  0.46245815488E+02  0.51100000000E-03 0. -1.
         22    1    1    0    0    0 -0.66200398979E+01 -0.15157130414E+02  0.22963947447E+02  0.28300289981E+02  0.00000000000E+00 0.  1.
</event>
<event>
 5    1  0.8752570E-005  0.9118800E+02  0.7818608E-02  0.1130116E+00
         25   -1    0    0    0    0  0.00000000000E+00  0.00000000000E+00  0.99999998245E-14  0.12500000000E+03  0.12500000000E+03 0.  0.
        -11    1    3    3    0    0 -0.26560465023E+02 -0.73549600539E+01  0.25122426449E+02  0.37291956915E+02  0.51100000000E-03 0.  1.
         23    2    1    0    0    0  0.25612769845E+02  0.11828737526E+02  0.11562597747E+02  0.94510220118E+02  0.89457001009E+02 0.  0.
         11    1    3    3    0    0  0.52173234867E+02  0.19183697580E+02 -0.13559828701E+02  0.57218263203E+02  0.51100000000E-03 0. -1.
         22    1    1    0    0    0 -0.25612769845E+02 -0.11828737526E+02 -0.11562597747E+02  0.30489779882E+02  0.00000000000E+00 0. -1.
</event>
<event>
 5    1  0.8752570E-005  0.9118800E+02  0.7818608E-02  0.1130116E+00
         25   -1    0    0    0    0  0.00000000000E+00  0.00000000000E+00  0.99999998245E-14  0.12500000000E+03  0.12500000000E+03 0.  0.
        -11    1    3    3    0    0 -0.43423227058E+02  0.81688113430E+01 -0.34514787912E+02  0.56067608400E+02  0.51100000000E-03 0.  1.
         23    2    1    0    0    0 -0.28129978092E+02  0.64097557336E+01  0.23858211062E+01  0.96050513331E+02  0.91583996052E+02 0.  0.
         11    1    3    3    0    0  0.15293248965E+02 -0.17590556094E+01  0.36900609018E+02  0.39982904931E+02  0.51100000000E-03 0. -1.
         22    1    1    0    0    0  0.28129978092E+02 -0.64097557336E+01 -0.23858211062E+01  0.28949486669E+02  0.00000000000E+00 0.  1.
</event>
<event>
 5    1  0.8752570E-005  0.9118800E+02  0.7818608E-02  0.1130116E+00
         25   -1    0    0    0    0  0.00000000000E+00  0.00000000000E+00  0.99999998245E-14  0.12500000000E+03  0.12500000000E+03 0.  0.
        -11    1    3    3    0    0 -0.58025993156E+02  0.18248633128E+02  0.87705464019E+01  0.61456903414E+02  0.51100000000E-03 0. -1.
         23    2    1    0    0    0 -0.28926257302E+02  0.72868026972E+01 -0.36620794151E+01  0.94946103736E+02  0.90064010203E+02 0.  0.
         11    1    3    3    0    0  0.29099735854E+02 -0.10961830431E+02 -0.12432625817E+02  0.33489200321E+02  0.51100000000E-03 0.  1.
         22    1    1    0    0    0  0.28926257302E+02 -0.72868026972E+01  0.36620794151E+01  0.30053896264E+02  0.00000000000E+00 0. -1.
</event>
<event>
 5    1  0.8752570E-005  0.9118800E+02  0.7818608E-02  0.1130116E+00
         25   -1    0    0    0    0  0.00000000000E+00  0.00000000000E+00  0.99999998245E-14  0.12500000000E+03  0.12500000000E+03 0.  0.
        -11    1    3    3    0    0  0.34363583071E+02  0.37888824600E+01  0.11510559819E+02  0.36437679116E+02  0.51100000000E-03 0.  1.
         23    2    1    0    0    0 -0.87776094496E+01 -0.26245733147E+02 -0.12983907137E+02  0.94430950609E+02  0.89346167530E+02 0.  0.
         11    1    3    3    0    0 -0.43141192520E+02 -0.30034615607E+02 -0.24494466957E+02  0.57993271493E+02  0.51100000000E-03 0. -1.
         22    1    1    0    0    0  0.87776094496E+01  0.26245733147E+02  0.12983907137E+02  0.30569049391E+02  0.00000000000E+00 0. -1.
</event>
<event>
 5    1  0.8752570E-005  0.9118800E+02  0.7818608E-02  0.1130116E+00
         25   -1    0    0    0    0  0.00000000000E+00  0.00000000000E+00  0.99999998245E-14  0.12500000000E+03  0.12500000000E+03 0.  0.
        -11    1    3    3    0    0 -0.12943791486E+01  0.28929305740E+02 -0.43917687711E+02  0.52605545735E+02  0.51100000000E-03 0.  1.
         23    2    1    0    0    0 -0.12060960836E+02  0.28023454614E+02 -0.36781764540E+01  0.94270376396E+02  0.89121232593E+02 0.  0.
         11    1    3    3    0    0 -0.10766581688E+02 -0.90585112531E+00  0.40239511257E+02  0.41664830661E+02  0.51100000000E-03 0. -1.
         22    1    1    0    0    0  0.12060960836E+02 -0.28023454614E+02  0.36781764540E+01  0.30729623604E+02  0.00000000000E+00 0.  1.
</event>
<event>
 5    1  0.8752570E-005  0.9118800E+02  0.7818608E-02  0.1130116E+00
         25   -1    0    0    0    0  0.00000000000E+00  0.00000000000E+00  0.99999998245E-14  0.12500000000E+03  0.12500000000E+03 0.  0.
        -11    1    3    3    0    0 -0.85919851168E+01  0.69020136444E+01  0.48575005063E+02  0.49809548459E+02  0.51100000000E-03 0.  1.
         23    2    1    0    0    0  0.99858152370E+01 -0.21334093447E+02  0.18592751001E+02  0.94990827420E+02  0.90126060909E+02 0.  0.
         11    1    3    3    0    0  0.18577800354E+02 -0.28236107091E+02 -0.29982254062E+02  0.45181278961E+02  0.51100000000E-03 0. -1.
         22    1    1    0    0    0 -0.99858152370E+01  0.21334093447E+02 -0.18592751001E+02  0.30009172580E+02  0.00000000000E+00 0. -1.
</event>
<event>
 5    1  0.8752570E-005  0.9118800E+02  0.7818608E-02  0.1130116E+00
         25   -1    0    0    0    0  0.00000000000E+00  0.00000000000E+00  0.99999998245E-14  0.12500000000E+03  0.12500000000E+03 0.  0.
        -11    1    3    3    0    0  0.98699556799E+01  0.57651200965E+02  0.12944072083E+02  0.59905141684E+02  0.51100000000E-03 0. -1.
         23    2    1    0    0    0  0.20864257346E+01  0.22872669034E+02  0.17891947696E+02  0.95885846167E+02  0.91358970779E+02 0.  0.
         11    1    3    3    0    0 -0.77835299453E+01 -0.34778531932E+02  0.49478756124E+01  0.35980704483E+02  0.51100000000E-03 0.  1.
         22    1    1    0    0    0 -0.20864257346E+01 -0.22872669034E+02 -0.17891947696E+02  0.29114153833E+02  0.00000000000E+00 0. -1.
</event>
<event>
 5    1  0.8752570E-005  0.9118800E+02  0.7818608E-02  0.1130116E+00
         25   -1    0    0    0    0  0.00000000000E+00  0.00000000000E+00  0.99999998245E-14  0.12500000000E+03  0.12500000000E+03 0.  0.
        -11    1    3    3    0    0  0.28242294221E+02  0.97157509904E+01  0.24966931327E+02  0.38927762077E+02  0.51100000000E-03 0.  1.
         23    2    1    0    0    0 -0.19696463559E+02 -0.16393044573E+02  0.17371480726E+02  0.94041141337E+02  0.88799129130E+02 0.  0.
         11    1    3    3    0    0 -0.47938757781E+02 -0.26108795563E+02 -0.75954506018E+01  0.55113379260E+02  0.51100000000E-03 0. -1.
         22    1    1    0    0    0  0.19696463559E+02  0.16393044573E+02 -0.17371480726E+02  0.30958858663E+02  0.00000000000E+00 0. -1.
</event>
<event>
 5    1  0.8752570E-005  0.9118800E+02  0.7818608E-02  0.1130116E+00
         25   -1    0    0    0    0  0.00000000000E+00  0.00000000000E+00  0.99999998245E-14  0.12500000000E+03  0.12500000000E+03 0.  0.
        -11    1    3    3    0    0 -0.14296456680E+02 -0.27156806563E+02 -0.43259129988E+02  0.53039920285E+02  0.51100000000E-03 0. -1.
         23    2    1    0    0    0  0.13125934803E+02  0.91037764749E+00 -0.25903399643E+02  0.95946513720E+02  0.91441940214E+02 0.  0.
         11    1    3    3    0    0  0.27422391483E+02  0.28067184210E+02  0.17355730344E+02  0.42906593435E+02  0.51100000000E-03 0.  1.
         22    1    1    0    0    0 -0.13125934803E+02 -0.91037764749E+00  0.25903399643E+02  0.29053486280E+02  0.00000000000E+00 0. -1.
</event>
<event>
 5    1  0.8752570E-005  0.9118800E+02  0.7818608E-02  0.1130116E+00
         25   -1    0    0    0    0  0.00000000000E+00  0.00000000000E+00  0.99999998245E-14  0.12500000000E+03  0.12500000000E+03 0.  0.
        -11    1    3    3    0    0 -0.35065932506E+02 -0.86928950341E+01 -0.26963655792E+02  0.45080203865E+02  0.51100000000E-03 0.  1.
         23    2    1    0    0    0 -0.18075631129E+01  0.25603167111E+02 -0.17904208102E+02  0.93705429891E+02  0.88325293505E+02 0.  0.
         11    1    3    3    0    0  0.33258369393E+02  0.34296062146E+02  0.90594476900E+01  0.48625226026E+02  0.51100000000E-03 0. -1.
         22    1    1    0    0    0  0.18075631129E+01 -0.25603167111E+02  0.17904208102E+02  0.31294570109E+02  0.00000000000E+00 0. -1.
</event>
<event>
 5    1  0.8752570E-005  0.9118800E+02  0.7818608E-02  0.1130116E+00
         25   -1    0    0    0    0  0.00000000000E+00  0.00000000000E+00  0.99999998245E-14  0.12500000000E+03  0.12500000000E+03 0.  0.
        -11    1    3    3    0    0 -0.16561481353E+02  0.65507324929E+01 -0.36193283471E+02  0.40337929167E+02  0.51100000000E-03 0.  1.
         23    2    1    0    0    0 -0.28111643559E+01 -0.28501928554E+02  0.47565256068E+01  0.95967481815E+02  0.91470598849E+02 0.  0.
         11    1    3    3    0    0  0.13750316997E+02 -0.35052661047E+02  0.40949809078E+02  0.55629552648E+02  0.51100000000E-03 0. -1.
         22    1    1    0    0    0  0.28111643559E+01  0.28501928554E+02 -0.47565256068E+01  0.29032518185E+02  0.00000000000E+00 0. -1.
</event>
<event>
 5    1  0.8752570E-005  0.9118800E+02  0.7818608E-02  0.1130116E+00
         25   -1    0    0    0    0  0.00000000000E+00  0.00000000000E+00  0.99999998245E-14  0.12500000000E+03  0.12500000000E+03 0.  0.
        -11    1    3    3    0    0 -0.32489870789E+02  0.16612709844E+02 -0.24687301992E+02  0.44057198188E+02  0.51100000000E-03 0.  1.
         23    2    1    0    0    0 -0.50236910268E+01  0.21538225075E+02  0.18964690233E+02  0.95865963436E+02  0.91331762596E+02 0.  0.
         11    1    3    3    0    0  0.27466179762E+02  0.49255152310E+01  0.43651992225E+02  0.51808765248E+02  0.51100000000E-03 0. -1.
         22    1    1    0    0    0  0.50236910268E+01 -0.21538225075E+02 -0.18964690233E+02  0.29134036564E+02  0.00000000000E+00 0.  1.
</event>
<event>
 5    1  0.8752570E-005  0.9118800E+02  0.7818608E-02  0.1130116E+00
         25   -1    0    0    0    0  0.00000000000E+00  0.00000000000E+00  0.99999998245E-14  0.12500000000E+03  0.12500000000E+03 0.  0.
        -11    1    3    3    0    0  0.42256614090E+02 -0.88670251387E+01 -0.22997678097E+02  0.48919717572E+02  0.51100000000E-03 0. -1.
         23    2    1    0    0    0 -0.13763885564E+01 -0.25527071964E+02 -0.11186611290E+02  0.97095410401E+02  0.92999207525E+02 0.  0.
         11    1    3    3    0    0 -0.43633002647E+02 -0.16660046826E+02  0.11811066807E+02  0.48175692829E+02  0.51100000000E-03 0.  1.
         22    1    1    0    0    0  0.13763885564E+01  0.25527071964E+02  0.11186611290E+02  0.27904589599E+02  0.00000000000E+00 0.  1.
</event>
<event>
 5    1  0.8752570E-005  0.9118800E+02  0.7818608E-02  0.1130116E+00
         25   -1    0    0    0    0  0.00000000000E+00  0.00000000000E+00  0.99999998245E-14  0.12500000000E+03  0.12500000000E+03 0.  0.
        -11    1    3    3    0    0  0.21215928500E+02 -0.46559731043E+02 -0.25226954296E+02  0.57046677381E+02  0.51100000000E-03 0. -1.
         23    2    1    0    0    0  0.61710446356E+01 -0.28786855188E+02  0.49318843514E+01  0.95148897730E+02  0.90345029926E+02 0.  0.
         11    1    3    3    0    0 -0.15044883864E+02  0.17772875855E+02  0.30158838647E+02  0.38102220348E+02  0.51100000000E-03 0.  1.
         22    1    1    0    0    0 -0.61710446356E+01  0.28786855188E+02 -0.49318843514E+01  0.29851102270E+02  0.00000000000E+00 0. -1.
</event>
<event>
 5    1  0.8752570E-005  0.9118800E+02  0.7818608E-02  0.1130116E+00
         25   -1    0    0    0    0  0.00000000000E+00  0.00000000000E+00  0.99999998245E-14  0.12500000000E+03  0.12500000000E+03 0.  0.
        -11    1    3    3    0    0 -0.89369771154E+01 -0.20495820338E+02  0.54459508568E+02  0.58870929031E+02  0.51100000000E-03 0.  1.
         23    2    1    0    0    0  0.51508725290E+01  0.15371008733E+01  0.29473894918E+02  0.95039949123E+02  0.90194164339E+02 0.  0.
         11    1    3    3    0    0  0.14087849644E+02  0.22032921211E+02 -0.24985613650E+02  0.36169020092E+02  0.51100000000E-03 0. -1.
         22    1    1    0    0    0 -0.51508725290E+01 -0.15371008733E+01 -0.29473894918E+02  0.29960050877E+02  0.00000000000E+00 0.  1.
</event>
<event>
 5    1  0.8752570E-005  0.9118800E+02  0.7818608E-02  0.1130116E+00
         25   -1    0    0    0    0  0.00000000000E+00  0.00000000000E+00  0.99999998245E-14  0.12500000000E+03  0.12500000000E+03 0.  0.
        -11    1    3    3    0    0 -0.28617861522E+02 -0.10504908749E+02  0.44100053326E+02  0.53611097821E+02  0.51100000000E-03 0.  1.
         23    2    1    0    0    0  0.88390384918E+01 -0.21953759634E+01  0.28588908359E+02  0.94995434377E+02  0.90132450285E+02 0.  0.
         11    1    3    3    0    0  0.37456900014E+02  0.83095327855E+01 -0.15511144968E+02  0.41384336556E+02  0.51100000000E-03 0. -1.
         22    1    1    0    0    0 -0.88390384918E+01  0.21953759634E+01 -0.28588908359E+02  0.30004565623E+02  0.00000000000E+00 0.  1.
</event>
<event>
 5    1  0.8752570E-005  0.9118800E+02  0.7818608E-02  0.1130116E+00
         25   -1    0    0    0    0  0.00000000000E+00  0.00000000000E+00  0.99999998245E-14  0.12500000000E+03  0.12500000000E+03 0.  0.
        -11    1    3    3    0    0 -0.47054616775E+02  0.23028307043E+02  0.12403754676E+02  0.53835796785E+02  0.51100000000E-03 0.  1.
         23    2    1    0    0    0 -0.60156994495E+01  0.27659645341E+02  0.10201730092E+01  0.96675357492E+02  0.92432891186E+02 0.  0.
         11    1    3    3    0    0  0.41038917326E+02  0.46313382978E+01 -0.11383581667E+02  0.42839560707E+02  0.51100000000E-03 0. -1.
         22    1    1    0    0    0  0.60156994495E+01 -0.27659645341E+02 -0.10201730092E+01  0.28324642508E+02  0.00000000000E+00 0. -1.
</event>
<event>
 5    1  0.8752570E-005  0.9118800E+02  0.7818608E-02  0.1130116E+00
         25   -1    0    0    0    0  0.00000000000E+00  0.00000000000E+00  0.99999998245E-14  0.12500000000E+03  0.12500000000E+03 0.  0.
        -11    1    3    3    0    0 -0.44615690623E+00 -0.57642590751E+02  0.22630274206E+02  0.61927349655E+02  0.51100000000E-03 0.  1.
         23    2    1    0    0    0 -0.58393767176E+01 -0.24133338758E+02  0.11407201955E+02  0.97675274631E+02  0.93775362743E+02 0.  0.
         11    1    3    3    0    0 -0.53932198113E+01  0.33509251992E+02 -0.11223072251E+02  0.35747924975E+02  0.51100000000E-03 0. -1.
         22    1    1    0    0    0  0.58393767176E+01  0.24133338758E+02 -0.11407201955E+02  0.27324725369E+02  0.00000000000E+00 0.  1.
</event>
<event>
 5    1  0.8752570E-005  0.9118800E+02  0.7818608E-02  0.1130116E+00
         25   -1    0    0    0    0  0.00000000000E+00  0.00000000000E+00  0.99999998245E-14  0.12500000000E+03  0.12500000000E+03 0.  0.
        -11    1    3    3    0    0  0.24271036079E+02  0.33348051476E+02 -0.18690066798E+02  0.45282384287E+02  0.51100000000E-03 0.  1.
         23    2    1    0    0    0  0.66175656559E+01  0.41020927094E+01  0.23890709255E+02  0.99872617953E+02  0.96659994249E+02 0.  0.
         11    1    3    3    0    0 -0.17653470423E+02 -0.29245958766E+02  0.42580776053E+02  0.54590233666E+02  0.51100000000E-03 0. -1.
         22    1    1    0    0    0 -0.66175656559E+01 -0.41020927094E+01 -0.23890709255E+02  0.25127382047E+02  0.00000000000E+00 0. -1.
</event>
<event>
 5    1  0.8752570E-005  0.9118800E+02  0.7818608E-02  0.1130116E+00
         25   -1    0    0    0    0  0.00000000000E+00  0.00000000000E+00  0.99999998245E-14  0.12500000000E+03  0.12500000000E+03 0.  0.
        -11    1    3    3    0    0  0.26803217372E+02 -0.10154020182E+02  0.21486676012E+02  0.35821695013E+02  0.51100000000E-03 0.  1.
         23    2    1    0    0    0 -0.25446123214E+02  0.13806931292E+02  0.94137730261E+01  0.94557338144E+02  0.89522815728E+02 0.  0.
         11    1    3    3    0    0 -0.52249340585E+02  0.23960951474E+02 -0.12072902986E+02  0.58735643130E+02  0.51100000000E-03 0. -1.
         22    1    1    0    0    0  0.25446123214E+02 -0.13806931292E+02 -0.94137730261E+01  0.30442661856E+02  0.00000000000E+00 0. -1.
</event>
<event>
 5    1  0.8752570E-005  0.9118800E+02  0.7818608E-02  0.1130116E+00
         25   -1    0    0    0    0  0.00000000000E+00  0.00000000000E+00  0.99999998245E-14  0.12500000000E+03  0.12500000000E+03 0.  0.
        -11    1    3    3    0    0 -0.32470877992E+02  0.32783796474E+02 -0.38493429235E+02  0.60090592636E+02  0.51100000000E-03 0. -1.
         23    2    1    0    0    0 -0.83545872648E+01  0.25495422832E+02 -0.16736778932E+02  0.93378243522E+02  0.87861031638E+02 0.  0.
         11    1    3    3    0    0  0.24116290727E+02 -0.72883736420E+01  0.21756650304E+02  0.33287650885E+02  0.51100000000E-03 0.  1.
         22    1    1    0    0    0  0.83545872648E+01 -0.25495422832E+02  0.16736778932E+02  0.31621756478E+02  0.00000000000E+00 0. -1.
</event>
<event>
 5    1  0.8752570E-005  0.9118800E+02  0.7818608E-02  0.1130116E+00
         25   -1    0    0    0    0  0.00000000000E+00  0.00000000000E+00  0.99999998245E-14  0.12500000000E+03  0.12500000000E+03 0.  0.
        -11    1    3    3    0    0  0.79757580396E+01  0.29903882302E+02  0.27483623219E+02  0.41390873856E+02  0.51100000000E-03 0. -1.
         23    2    1    0    0    0 -0.29399691747E+02  0.14253205216E+02 -0.31336161454E+01  0.92177518621E+02  0.86135820976E+02 0.  0.
         11    1    3    3    0    0 -0.37375449786E+02 -0.15650677086E+02 -0.30617239364E+02  0.50786644765E+02  0.51100000000E-03 0.  1.
         22    1    1    0    0    0  0.29399691747E+02 -0.14253205216E+02  0.31336161454E+01  0.32822481379E+02  0.00000000000E+00 0.  1.
</event>
<event>
 5    1  0.8752570E-005  0.9118800E+02  0.7818608E-02  0.1130116E+00
         25   -1    0    0    0    0  0.00000000000E+00  0.00000000000E+00  0.99999998245E-14  0.12500000000E+03  0.12500000000E+03 0.  0.
        -11    1    3    3    0    0 -0.22041691914E+02  0.17834124298E+02  0.26489328605E+02  0.38801761585E+02  0.51100000000E-03 0.  1.
         23    2    1    0    0    0  0.21153025044E+02 -0.16046897734E+02  0.39033335354E+01  0.98163655091E+02  0.94424116478E+02 0.  0.
         11    1    3    3    0    0  0.43194716959E+02 -0.33881022032E+02 -0.22585995069E+02  0.59361893506E+02  0.51100000000E-03 0. -1.
         22    1    1    0    0    0 -0.21153025044E+02  0.16046897734E+02 -0.39033335354E+01  0.26836344909E+02  0.00000000000E+00 0. -1.
</event>
<event>
 5    1  0.8752570E-005  0.9118800E+02  0.7818608E-02  0.1130116E+00
         25   -1    0    0    0    0  0.00000000000E+00  0.00000000000E+00  0.99999998245E-14  0.12500000000E+03  0.12500000000E+03 0.  0.
        -11    1    3    3    0    0 -0.13791762109E+02  0.14216065863E+00  0.44414602936E+02  0.46506879771E+02  0.51100000000E-03 0.  1.
         23    2    1    0    0    0 -0.18214310711E+02  0.25871613310E+02  0.62469175120E+01  0.92749023761E+02  0.86961232398E+02 0.  0.
         11    1    3    3    0    0 -0.44225486022E+01  0.25729452652E+02 -0.38167685424E+02  0.46242143990E+02  0.51100000000E-03 0. -1.
         22    1    1    0    0    0  0.18214310711E+02 -0.25871613310E+02 -0.62469175120E+01  0.32250976239E+02  0.00000000000E+00 0.  1.
</event>
<event>
 5    1  0.8752570E-005  0.9118800E+02  0.7818608E-02  0.1130116E+00
         25   -1    0    0    0    0  0.00000000000E+00  0.00000000000E+00  0.99999998245E-14  0.12500000000E+03  0.12500000000E+03 0.  0.
        -11    1    3    3    0    0  0.11121116386E+02 -0.21219178252E+02  0.47978882647E+02  0.53627473702E+02  0.51100000000E-03 0.  1.
         23    2    1    0    0    0 -0.51253940837E+01  0.93385524839E+01  0.31087960753E+02  0.92137566573E+02  0.86077823179E+02 0.  0.
         11    1    3    3    0    0 -0.16246510470E+02  0.30557730736E+02 -0.16890921894E+02  0.38510092870E+02  0.51100000000E-03 0. -1.
         22    1    1    0    0    0  0.51253940837E+01 -0.93385524839E+01 -0.31087960753E+02  0.32862433427E+02  0.00000000000E+00 0.  1.
</event>
<event>
 5    1  0.8752570E-005  0.9118800E+02  0.7818608E-02  0.1130116E+00
         25   -1    0    0    0    0  0.00000000000E+00  0.00000000000E+00  0.99999998245E-14  0.12500000000E+03  0.12500000000E+03 0.  0.
        -11    1    3    3    0    0 -0.38350771025E+01  0.54130304579E+02 -0.17400335196E+02  0.56987449104E+02  0.51100000000E-03 0.  1.
         23    2    1    0    0    0  0.12312764229E+02  0.17978335682E+02 -0.18228378676E+02  0.96590520842E+02  0.92318092542E+02 0.  0.
         11    1    3    3    0    0  0.16147841332E+02 -0.36151968897E+02 -0.82804348015E+00  0.39603071738E+02  0.51100000000E-03 0. -1.
         22    1    1    0    0    0 -0.12312764229E+02 -0.17978335682E+02  0.18228378676E+02  0.28409479158E+02  0.00000000000E+00 0.  1.
</event>
<event>
 5    1  0.8752570E-005  0.9118800E+02  0.7818608E-02  0.1130116E+00
         25   -1    0    0    0    0  0.00000000000E+00  0.00000000000E+00  0.99999998245E-14  0.12500000000E+03  0.12500000000E+03 0.  0.
        -11    1    3    3    0    0  0.13932380097E+02 -0.30426148695E+02 -0.26514449496E+01  0.33569210598E+02  0.51100000000E-03 0. -1.
         23    2    1    0    0    0 -0.31211063602E+01  0.28911914363E+02 -0.56262713858E+01  0.95380833456E+02  0.90665364743E+02 0.  0.
         11    1    3    3    0    0 -0.17053486458E+02  0.59338063058E+02 -0.29748264362E+01  0.61811622858E+02  0.51100000000E-03 0.  1.
         22    1    1    0    0    0  0.31211063602E+01 -0.28911914363E+02  0.56262713858E+01  0.29619166544E+02  0.00000000000E+00 0.  1.
</event>
<event>
 5    1  0.8752570E-005  0.9118800E+02  0.7818608E-02  0.1130116E+00
         25   -1    0    0    0    0  0.00000000000E+00  0.00000000000E+00  0.99999998245E-14  0.12500000000E+03  0.12500000000E+03 0.  0.
        -11    1    3    3    0    0 -0.24769156759E+01 -0.10921639779E+02  0.43661913401E+02  0.45075270480E+02  0.51100000000E-03 0. -1.
         23    2    1    0    0    0  0.19045328595E+02 -0.21541525788E+02 -0.14886081824E+01  0.96208024922E+02  0.91798726737E+02 0.  0.
         11    1    3    3    0    0  0.21522244271E+02 -0.10619886009E+02 -0.45150521583E+02  0.51132754442E+02  0.51100000000E-03 0.  1.
         22    1    1    0    0    0 -0.19045328595E+02  0.21541525788E+02  0.14886081824E+01  0.28791975078E+02  0.00000000000E+00 0. -1.
</event>
<event>
 5    1  0.8752570E-005  0.9118800E+02  0.7818608E-02  0.1130116E+00
         25   -1    0    0    0    0  0.00000000000E+00  0.00000000000E+00  0.99999998245E-14  0.12500000000E+03  0.12500000000E+03 0.  0.
        -11    1    3    3    0    0 -0.20726033318E+02 -0.20377197127E+02 -0.30449342401E+02  0.42094667985E+02  0.51100000000E-03 0. -1.
         23    2    1    0    0    0  0.55188296655E+01  0.24495488542E+02 -0.10748361632E+02  0.97686748316E+02  0.93790655606E+02 0.  0.
         11    1    3    3    0    0  0.26244862984E+02  0.44872685668E+02  0.19700980769E+02  0.55592080332E+02  0.51100000000E-03 0.  1.
         22    1    1    0    0    0 -0.55188296655E+01 -0.24495488542E+02  0.10748361632E+02  0.27313251684E+02  0.00000000000E+00 0. -1.
</event>
<event>
 5    1  0.8752570E-005  0.9118800E+02  0.7818608E-02  0.1130116E+00
         25   -1    0    0    0    0  0.00000000000E+00  0.00000000000E+00  0.99999998245E-14  0.12500000000E+03  0.12500000000E+03 0.  0.
        -11    1    3    3    0    0  0.58924607319E+02  0.29236151476E+01  0.19346388835E+02  0.62088160179E+02  0.51100000000E-03 0. -1.
         23    2    1    0    0    0  0.29451832105E+02 -0.11108320010E+01  0.50315515359E+01  0.95100821534E+02  0.90278487934E+02 0.  0.
         11    1    3    3    0    0 -0.29472775214E+02 -0.40344471486E+01 -0.14314837299E+02  0.33012661355E+02  0.51100000000E-03 0.  1.
         22    1    1    0    0    0 -0.29451832105E+02  0.11108320010E+01 -0.50315515359E+01  0.29899178466E+02  0.00000000000E+00 0. -1.
</event>
<event>
 5    1  0.8752570E-005  0.9118800E+02  0.7818608E-02  0.1130116E+00
         25   -1    0    0    0    0  0.00000000000E+00  0.00000000000E+00  0.99999998245E-14  0.12500000000E+03  0.12500000000E+03 0.  0.
        -11    1    3    3    0    0  0.10329526449E+02 -0.22028509843E+02  0.25924200390E+02  0.35553038249E+02  0.51100000000E-03 0.  1.
         23    2    1    0    0    0 -0.19112268557E+02  0.15316881744E+02 -0.13238723220E+02  0.97158493786E+02  0.93083959126E+02 0.  0.
         11    1    3    3    0    0 -0.29441795007E+02  0.37345391587E+02 -0.39162923610E+02  0.61605455537E+02  0.51100000000E-03 0. -1.
         22    1    1    0    0    0  0.19112268557E+02 -0.15316881744E+02  0.13238723220E+02  0.27841506214E+02  0.00000000000E+00 0. -1.
</event>
<event>
 5    1  0.8752570E-005  0.9118800E+02  0.7818608E-02  0.1130116E+00
         25   -1    0    0    0    0  0.00000000000E+00  0.00000000000E+00  0.99999998245E-14  0.12500000000E+03  0.12500000000E+03 0.  0.
        -11    1    3    3    0    0  0.31054809024E+02 -0.14882698553E+02 -0.25126740990E+02  0.42629203521E+02  0.51100000000E-03 0.  1.
         23    2    1    0    0    0 -0.14226326363E+02  0.17299707466E+02 -0.11470700818E+02  0.99835635962E+02  0.96612157570E+02 0.  0.
         11    1    3    3    0    0 -0.45281135387E+02  0.32182406019E+02  0.13656040172E+02  0.57206432441E+02  0.51100000000E-03 0. -1.
         22    1    1    0    0    0  0.14226326363E+02 -0.17299707466E+02  0.11470700818E+02  0.25164364038E+02  0.00000000000E+00 0. -1.
</event>
<event>
 5    1  0.8752570E-005  0.9118800E+02  0.7818608E-02  0.1130116E+00
         25   -1    0    0    0    0  0.00000000000E+00  0.00000000000E+00  0.99999998245E-14  0.12500000000E+03  0.12500000000E+03 0.  0.
        -11    1    3    3    0    0  0.42206174533E+02 -0.13358721130E+02  0.22227693835E+02  0.49536723473E+02  0.51100000000E-03 0. -1.
         23    2    1    0    0    0  0.30720969890E+01 -0.29006831656E+02  0.36238528842E+01  0.95606695110E+02  0.90976226442E+02 0.  0.
         11    1    3    3    0    0 -0.39134077544E+02 -0.15648110526E+02 -0.18603840951E+02  0.46069971637E+02  0.51100000000E-03 0.  1.
         22    1    1    0    0    0 -0.30720969890E+01  0.29006831656E+02 -0.36238528842E+01  0.29393304890E+02  0.00000000000E+00 0.  1.
</event>
<event>
 5    1  0.8752570E-005  0.9118800E+02  0.7818608E-02  0.1130116E+00
         25   -1    0    0    0    0  0.00000000000E+00  0.00000000000E+00  0.99999998245E-14  0.12500000000E+03  0.12500000000E+03 0.  0.
        -11    1    3    3    0    0 -0.53509398805E+00  0.39604636409E+02 -0.14535996872E+02  0.42191335082E+02  0.51100000000E-03 0.  1.
         23    2    1    0    0    0 -0.23813712893E+02 -0.79357823875E+01 -0.16154312154E+02  0.95149851508E+02  0.90346349550E+02 0.  0.
         11    1    3    3    0    0 -0.23278618905E+02 -0.47540418796E+02 -0.16183152819E+01  0.52958516426E+02  0.51100000000E-03 0. -1.
         22    1    1    0    0    0  0.23813712893E+02  0.79357823875E+01  0.16154312154E+02  0.29850148492E+02  0.00000000000E+00 0. -1.
</event>
<event>
 5    1  0.8752570E-005  0.9118800E+02  0.7818608E-02  0.1130116E+00
         25   -1    0    0    0    0  0.00000000000E+00  0.00000000000E+00  0.99999998245E-14  0.12500000000E+03  0.12500000000E+03 0.  0.
        -11    1    3    3    0    0 -0.23868364775E+02 -0.19301989164E+02  0.15321527525E+02  0.34307649711E+02  0.51100000000E-03 0. -1.
         23    2    1    0    0    0  0.21980565502E+02  0.11272064102E+02 -0.13870304797E+02  0.96669979808E+02  0.92425618483E+02 0.  0.
         11    1    3    3    0    0  0.45848930277E+02  0.30574053267E+02 -0.29191832321E+02  0.62362330098E+02  0.51100000000E-03 0.  1.
         22    1    1    0    0    0 -0.21980565502E+02 -0.11272064102E+02  0.13870304797E+02  0.28330020192E+02  0.00000000000E+00 0.  1.
</event>
<event>
 5    1  0.8752570E-005  0.9118800E+02  0.7818608E-02  0.1130116E+00
         25   -1    0    0    0    0  0.00000000000E+00  0.00000000000E+00  0.99999998245E-14  0.12500000000E+03  0.12500000000E+03 0.  0.
        -11    1    3    3    0    0  0.44805454676E+02 -0.16265025422E+02  0.78091367298E+01  0.48301785033E+02  0.51100000000E-03 0.  1.
         23    2    1    0    0    0  0.15682579333E+02 -0.15413371649E+01 -0.25558328792E+02  0.94974224649E+02  0.90103030817E+02 0.  0.
         11    1    3    3    0    0 -0.29122875343E+02  0.14723688257E+02 -0.33367465521E+02  0.46672439616E+02  0.51100000000E-03 0. -1.
         22    1    1    0    0    0 -0.15682579333E+02  0.15413371649E+01  0.25558328792E+02  0.30025775351E+02  0.00000000000E+00 0. -1.
</event>
<event>
 5    1  0.8752570E-005  0.9118800E+02  0.7818608E-02  0.1130116E+00
         25   -1    0    0    0    0  0.00000000000E+00  0.00000000000E+00  0.99999998245E-14  0.12500000000E+03  0.12500000000E+03 0.  0.
        -11    1    3    3    0    0 -0.36513102842E+02  0.11921849590E+02 -0.79266160410E+01  0.39219490294E+02  0.51100000000E-03 0.  1.
         23    2    1    0    0    0  0.22060855111E+02  0.11507840975E+02  0.59507616923E+01  0.99416347077E+02  0.96068136077E+02 0.  0.
         11    1    3    3    0    0  0.58573957954E+02 -0.41400861438E+00  0.13877377733E+02  0.60196856783E+02  0.51100000000E-03 0. -1.
         22    1    1    0    0    0 -0.22060855111E+02 -0.11507840975E+02 -0.59507616923E+01  0.25583652923E+02  0.00000000000E+00 0. -1.
</event>
<event>
 5    1  0.8752570E-005  0.9118800E+02  0.7818608E-02  0.1130116E+00
         25   -1    0    0    0    0  0.00000000000E+00  0.00000000000E+00  0.99999998245E-14  0.12500000000E+03  0.12500000000E+03 0.  0.
        -11    1    3    3    0    0  0.29651906562E+02 -0.27648507388E+02 -0.24456058304E+02  0.47347379142E+02  0.51100000000E-03 0. -1.
         23    2    1    0    0    0  0.28924496407E+02  0.82431194856E+01  0.58882559875E+01  0.94352861963E+02  0.89236850521E+02 0.  0.
         11    1    3    3    0    0 -0.72741015505E+00  0.35891626874E+02  0.30344314292E+02  0.47005482822E+02  0.51100000000E-03 0.  1.
         22    1    1    0    0    0 -0.28924496407E+02 -0.82431194856E+01 -0.58882559875E+01  0.30647138037E+02  0.00000000000E+00 0. -1.
</event>
<event>
 5    1  0.8752570E-005  0.9118800E+02  0.7818608E-02  0.1130116E+00
         25   -1    0    0    0    0  0.00000000000E+00  0.00000000000E+00  0.99999998245E-14  0.12500000000E+03  0.12500000000E+03 0.  0.
        -11    1    3    3    0    0  0.29099702962E+02 -0.36306010464E+01  0.22370593668E+02  0.36883837080E+02  0.51100000000E-03 0. -1.
         23    2    1    0    0    0 -0.10107582934E+02  0.23770050527E+02 -0.12720035621E+02  0.96208024712E+02  0.91798726450E+02 0.  0.
         11    1    3    3    0    0 -0.39207285897E+02  0.27400651573E+02 -0.35090629288E+02  0.59324187631E+02  0.51100000000E-03 0.  1.
         22    1    1    0    0    0  0.10107582934E+02 -0.23770050527E+02  0.12720035621E+02  0.28791975288E+02  0.00000000000E+00 0.  1.
</event>
<event>
 5    1  0.8752570E-005  0.9118800E+02  0.7818608E-02  0.1130116E+00
         25   -1    0    0    0    0  0.00000000000E+00  0.00000000000E+00  0.99999998245E-14  0.12500000000E+03  0.12500000000E+03 0.  0.
        -11    1    3    3    0    0  0.33490526950E+02 -0.13011759245E+02  0.89446610043E+01  0.37026048058E+02  0.51100000000E-03 0. -1.
         23    2    1    0    0    0 -0.18897287998E+02 -0.39227376291E+01 -0.19699825282E+02  0.97421412648E+02  0.93436358886E+02 0.  0.
         11    1    3    3    0    0 -0.52387814949E+02  0.90890216164E+01 -0.28644486286E+02  0.60395364590E+02  0.51100000000E-03 0.  1.
         22    1    1    0    0    0  0.18897287998E+02  0.39227376291E+01  0.19699825282E+02  0.27578587352E+02  0.00000000000E+00 0.  1.
</event>
<event>
 5    1  0.8752570E-005  0.9118800E+02  0.7818608E-02  0.1130116E+00
         25   -1    0    0    0    0  0.00000000000E+00  0.00000000000E+00  0.99999998245E-14  0.12500000000E+03  0.12500000000E+03 0.  0.
        -11    1    3    3    0    0 -0.76196905923E+01  0.31999219734E+02  0.43309079546E+02  0.54384612895E+02  0.51100000000E-03 0.  1.
         23    2    1    0    0    0 -0.16697442011E+02  0.22894740615E+02  0.32247909038E+01  0.96480305158E+02  0.92168738135E+02 0.  0.
         11    1    3    3    0    0 -0.90777514184E+01 -0.91044791193E+01 -0.40084288643E+02  0.42095692263E+02  0.51100000000E-03 0. -1.
         22    1    1    0    0    0  0.16697442011E+02 -0.22894740615E+02 -0.32247909038E+01  0.28519694842E+02  0.00000000000E+00 0.  1.
</event>
<event>
 5    1  0.8752570E-005  0.9118800E+02  0.7818608E-02  0.1130116E+00
         25   -1    0    0    0    0  0.00000000000E+00  0.00000000000E+00  0.99999998245E-14  0.12500000000E+03  0.12500000000E+03 0.  0.
        -11    1    3    3    0    0  0.16172138845E+02  0.54328330728E+01  0.37194641083E+02  0.40920594761E+02  0.51100000000E-03 0. -1.
         23    2    1    0    0    0 -0.24736185792E+02  0.14675044256E+02  0.11591653128E+01  0.96214943535E+02  0.91808147154E+02 0.  0.
         11    1    3    3    0    0 -0.40908324638E+02  0.92422111830E+01 -0.36035475770E+02  0.55294348775E+02  0.51100000000E-03 0.  1.
         22    1    1    0    0    0  0.24736185792E+02 -0.14675044256E+02 -0.11591653128E+01  0.28785056465E+02  0.00000000000E+00 0.  1.
</event>
<event>
 5    1  0.8752570E-005  0.9118800E+02  0.7818608E-02  0.1130116E+00
         25   -1    0    0    0    0  0.00000000000E+00  0.00000000000E+00  0.99999998245E-14  0.12500000000E+03  0.12500000000E+03 0.  0.
        -11    1    3    3    0    0  0.31795009353E+02 -0.33054100948E+01  0.20899497918E+02  0.38192111347E+02  0.51100000000E-03 0. -1.
         23    2    1    0    0    0 -0.26722226143E+01  0.20022578030E+02 -0.20021201177E+02  0.96558957452E+02  0.92275345369E+02 0.  0.
         11    1    3    3    0    0 -0.34467231968E+02  0.23327988125E+02 -0.40920699095E+02  0.58366846104E+02  0.51100000000E-03 0.  1.
         22    1    1    0    0    0  0.26722226143E+01 -0.20022578030E+02  0.20021201177E+02  0.28441042548E+02  0.00000000000E+00 0.  1.
</event>
<event>
 5    1  0.8752570E-005  0.9118800E+02  0.7818608E-02  0.1130116E+00
         25   -1    0    0    0    0  0.00000000000E+00  0.00000000000E+00  0.99999998245E-14  0.12500000000E+03  0.12500000000E+03 0.  0.
        -11    1    3    3    0    0 -0.99380739476E+01 -0.17164397231E+02  0.42960771125E+02  0.47318175176E+02  0.51100000000E-03 0. -1.
         23    2    1    0    0    0  0.30549350842E+01 -0.28009660100E+02 -0.33510996884E+01  0.96625653198E+02  0.92365649998E+02 0.  0.
         11    1    3    3    0    0  0.12993009032E+02 -0.10845262869E+02 -0.46311870814E+02  0.49307478022E+02  0.51100000000E-03 0.  1.
         22    1    1    0    0    0 -0.30549350842E+01  0.28009660100E+02  0.33510996884E+01  0.28374346802E+02  0.00000000000E+00 0. -1.
</event>
<event>
 5    1  0.8752570E-005  0.9118800E+02  0.7818608E-02  0.1130116E+00
         25   -1    0    0    0    0  0.00000000000E+00  0.00000000000E+00  0.99999998245E-14  0.12500000000E+03  0.12500000000E+03 0.  0.
        -11    1    3    3    0    0 -0.30215376580E+02 -0.11086811017E+02  0.23632784514E+02  0.39929874337E+02  0.51100000000E-03 0. -1.
         23    2    1    0    0    0  0.19564153657E+02 -0.23063568577E+02  0.12183567070E+02  0.92394423631E+02  0.86450019709E+02 0.  0.
         11    1    3    3    0    0  0.49779530237E+02 -0.11976757560E+02 -0.11449217443E+02  0.52464549294E+02  0.51100000000E-03 0.  1.
         22    1    1    0    0    0 -0.19564153657E+02  0.23063568577E+02 -0.12183567070E+02  0.32605576369E+02  0.00000000000E+00 0.  1.
</event>
<event>
 5    1  0.8752570E-005  0.9118800E+02  0.7818608E-02  0.1130116E+00
         25   -1    0    0    0    0  0.00000000000E+00  0.00000000000E+00  0.99999998245E-14  0.12500000000E+03  0.12500000000E+03 0.  0.
        -11    1    3    3    0    0 -0.42881854150E+02  0.12727053297E+02  0.92584716519E+01  0.45678776237E+02  0.51100000000E-03 0. -1.
         23    2    1    0    0    0  0.33182750408E+01  0.29261865333E+02  0.36340005357E+00  0.95548348576E+02  0.90896023808E+02 0.  0.
         11    1    3    3    0    0  0.46200129190E+02  0.16534812036E+02 -0.88950715983E+01  0.49869572339E+02  0.51100000000E-03 0.  1.
         22    1    1    0    0    0 -0.33182750408E+01 -0.29261865333E+02 -0.36340005357E+00  0.29451651424E+02  0.00000000000E+00 0.  1.
</event>
<event>
 5    1  0.8752570E-005  0.9118800E+02  0.7818608E-02  0.1130116E+00
         25   -1    0    0    0    0  0.00000000000E+00  0.00000000000E+00  0.99999998245E-14  0.12500000000E+03  0.12500000000E+03 0.  0.
        -11    1    3    3    0    0 -0.17781430695E+02  0.22936237054E+02 -0.27586431327E+02  0.40040747263E+02  0.51100000000E-03 0.  1.
         23    2    1    0    0    0 -0.13168640639E+02 -0.26197296816E+02 -0.20457921432E+01  0.95607879930E+02  0.90977854351E+02 0.  0.
         11    1    3    3    0    0  0.46127900554E+01 -0.49133533869E+02  0.25540639184E+02  0.55567132667E+02  0.51100000000E-03 0. -1.
         22    1    1    0    0    0  0.13168640639E+02  0.26197296816E+02  0.20457921432E+01  0.29392120070E+02  0.00000000000E+00 0. -1.
</event>
<event>
 5    1  0.8752570E-005  0.9118800E+02  0.7818608E-02  0.1130116E+00
         25   -1    0    0    0    0  0.00000000000E+00  0.00000000000E+00  0.99999998245E-14  0.12500000000E+03  0.12500000000E+03 0.  0.
        -11    1    3    3    0    0 -0.57183503205E+01  0.42201668216E+01  0.43336530913E+02  0.43915421553E+02  0.51100000000E-03 0.  1.
         23    2    1    0    0    0  0.10841882551E+01 -0.16135228435E+02 -0.13031645321E+02  0.10423115697E+03  0.10214102625E+03 0.  0.
         11    1    3    3    0    0  0.68025385756E+01 -0.20355395257E+02 -0.56368176234E+02  0.60315735421E+02  0.51100000000E-03 0. -1.
         22    1    1    0    0    0 -0.10841882551E+01  0.16135228435E+02  0.13031645321E+02  0.20768843025E+02  0.00000000000E+00 0. -1.
</event>
<event>
 5    1  0.8752570E-005  0.9118800E+02  0.7818608E-02  0.1130116E+00
         25   -1    0    0    0    0  0.00000000000E+00  0.00000000000E+00  0.99999998245E-14  0.12500000000E+03  0.12500000000E+03 0.  0.
        -11    1    3    3    0    0 -0.27720806668E+02  0.15231689722E+02 -0.17321453240E+02  0.36062171825E+02  0.51100000000E-03 0.  1.
         23    2    1    0    0    0  0.27105357169E+02 -0.71143666925E+01 -0.60568174984E+01  0.96329463924E+02  0.91963938482E+02 0.  0.
         11    1    3    3    0    0  0.54826163837E+02 -0.22346056414E+02  0.11264635742E+02  0.60267292099E+02  0.51100000000E-03 0. -1.
         22    1    1    0    0    0 -0.27105357169E+02  0.71143666925E+01  0.60568174984E+01  0.28670536076E+02  0.00000000000E+00 0. -1.
</event>
<event>
 5    1  0.8752570E-005  0.9118800E+02  0.7818608E-02  0.1130116E+00
         25   -1    0    0    0    0  0.00000000000E+00  0.00000000000E+00  0.99999998245E-14  0.12500000000E+03  0.12500000000E+03 0.  0.
        -11    1    3    3    0    0  0.19182480722E+02 -0.26243321999E+02 -0.40248041696E+02  0.51735716646E+02  0.51100000000E-03 0.  1.
         23    2    1    0    0    0 -0.16123926148E+02 -0.19325673948E+02 -0.14821143313E+02  0.95791628647E+02  0.91229968551E+02 0.  0.
         11    1    3    3    0    0 -0.35306406870E+02  0.69176480512E+01  0.25426898383E+02  0.44055912001E+02  0.51100000000E-03 0. -1.
         22    1    1    0    0    0  0.16123926148E+02  0.19325673948E+02  0.14821143313E+02  0.29208371353E+02  0.00000000000E+00 0.  1.
</event>
<event>
 5    1  0.8752570E-005  0.9118800E+02  0.7818608E-02  0.1130116E+00
         25   -1    0    0    0    0  0.00000000000E+00  0.00000000000E+00  0.99999998245E-14  0.12500000000E+03  0.12500000000E+03 0.  0.
        -11    1    3    3    0    0  0.17550960957E+02 -0.42095234254E+02  0.11173802610E+02  0.46956350395E+02  0.51100000000E-03 0.  1.
         23    2    1    0    0    0  0.14725310422E+02  0.28225626194E+01  0.26543215186E+02  0.94514857731E+02  0.89463481001E+02 0.  0.
         11    1    3    3    0    0 -0.28256505348E+01  0.44917796873E+02  0.15369412576E+02  0.47558507336E+02  0.51100000000E-03 0. -1.
         22    1    1    0    0    0 -0.14725310422E+02 -0.28225626194E+01 -0.26543215186E+02  0.30485142269E+02  0.00000000000E+00 0. -1.
</event>
<event>
 5    1  0.8752570E-005  0.9118800E+02  0.7818608E-02  0.1130116E+00
         25   -1    0    0    0    0  0.00000000000E+00  0.00000000000E+00  0.99999998245E-14  0.12500000000E+03  0.12500000000E+03 0.  0.
        -11    1    3    3    0    0  0.54087228731E+02  0.59672109404E+01  0.19765019335E+02  0.57893798526E+02  0.51100000000E-03 0.  1.
         23    2    1    0    0    0  0.24405228437E+02 -0.14067409361E+02  0.10980940542E+02  0.94766107820E+02  0.89813846120E+02 0.  0.
         11    1    3    3    0    0 -0.29682000295E+02 -0.20034620301E+02 -0.87840787923E+01  0.36872309293E+02  0.51100000000E-03 0. -1.
         22    1    1    0    0    0 -0.24405228437E+02  0.14067409361E+02 -0.10980940542E+02  0.30233892180E+02  0.00000000000E+00 0.  1.
</event>
<event>
 5    1  0.8752570E-005  0.9118800E+02  0.7818608E-02  0.1130116E+00
         25   -1    0    0    0    0  0.00000000000E+00  0.00000000000E+00  0.99999998245E-14  0.12500000000E+03  0.12500000000E+03 0.  0.
        -11    1    3    3    0    0  0.90202867923E+01 -0.22603389617E+02 -0.30833122806E+02  0.39280532815E+02  0.51100000000E-03 0.  1.
         23    2    1    0    0    0  0.86824370972E+01  0.22405072149E+02 -0.32808316781E+02  0.84333581152E+02  0.73880953486E+02 0.  0.
         11    1    3    3    0    0 -0.33784969505E+00  0.45008461766E+02 -0.19751939746E+01  0.45053048337E+02  0.51100000000E-03 0. -1.
         22    1    1    0    0    0 -0.86824370972E+01 -0.22405072149E+02  0.32808316781E+02  0.40666418848E+02  0.00000000000E+00 0.  1.
</event>
<event>
 5    1  0.8752570E-005  0.9118800E+02  0.7818608E-02  0.1130116E+00
         25   -1    0    0    0    0  0.00000000000E+00  0.00000000000E+00  0.99999998245E-14  0.12500000000E+03  0.12500000000E+03 0.  0.
        -11    1    3    3    0    0 -0.13673339649E+02  0.22176065568E+02 -0.32066788383E+02  0.41316062478E+02  0.51100000000E-03 0.  1.
         23    2    1    0    0    0 -0.21791259429E+02  0.15220657908E+01  0.18395019615E+02  0.96442121606E+02  0.92116938732E+02 0.  0.
         11    1    3    3    0    0 -0.81179197799E+01 -0.20653999777E+02  0.50461807997E+02  0.55126059128E+02  0.51100000000E-03 0. -1.
         22    1    1    0    0    0  0.21791259429E+02 -0.15220657908E+01 -0.18395019615E+02  0.28557878394E+02  0.00000000000E+00 0. -1.
</event>
<event>
 5    1  0.8752570E-005  0.9118800E+02  0.7818608E-02  0.1130116E+00
         25   -1    0    0    0    0  0.00000000000E+00  0.00000000000E+00  0.99999998245E-14  0.12500000000E+03  0.12500000000E+03 0.  0.
        -11    1    3    3    0    0  0.33733345375E+02 -0.57750712070E+01  0.33943678154E+02  0.48202316588E+02  0.51100000000E-03 0.  1.
         23    2    1    0    0    0  0.17771985146E+01  0.24661563319E+02  0.13318875766E+02  0.96915420751E+02  0.92756968406E+02 0.  0.
         11    1    3    3    0    0 -0.31956146860E+02  0.30436634526E+02 -0.20624802388E+02  0.48713104163E+02  0.51100000000E-03 0. -1.
         22    1    1    0    0    0 -0.17771985146E+01 -0.24661563319E+02 -0.13318875766E+02  0.28084579249E+02  0.00000000000E+00 0.  1.
</event>
<event>
 5    1  0.8752570E-005  0.9118800E+02  0.7818608E-02  0.1130116E+00
         25   -1    0    0    0    0  0.00000000000E+00  0.00000000000E+00  0.99999998245E-14  0.12500000000E+03  0.12500000000E+03 0.  0.
        -11    1    3    3    0    0  0.31860347900E+02 -0.37547743808E+02  0.29562809769E+02  0.57435829889E+02  0.51100000000E-03 0.  1.
         23    2    1    0    0    0  0.11031089584E+02 -0.26219347716E+02 -0.15015274295E+01  0.96515026476E+02  0.92215815449E+02 0.  0.
         11    1    3    3    0    0 -0.20829258316E+02  0.11328396092E+02 -0.31064337199E+02  0.39079196587E+02  0.51100000000E-03 0. -1.
         22    1    1    0    0    0 -0.11031089584E+02  0.26219347716E+02  0.15015274295E+01  0.28484973524E+02  0.00000000000E+00 0.  1.
</event>
<event>
 5    1  0.8752570E-005  0.9118800E+02  0.7818608E-02  0.1130116E+00
         25   -1    0    0    0    0  0.00000000000E+00  0.00000000000E+00  0.99999998245E-14  0.12500000000E+03  0.12500000000E+03 0.  0.
        -11    1    3    3    0    0 -0.56417477708E+02 -0.21222218006E+02 -0.48571306733E+01  0.60472357707E+02  0.51100000000E-03 0. -1.
         23    2    1    0    0    0 -0.21070483298E+02 -0.17943537173E+02  0.39413797246E+01  0.97045210307E+02  0.92931709210E+02 0.  0.
         11    1    3    3    0    0  0.35346994410E+02  0.32786808333E+01  0.87985103979E+01  0.36572852600E+02  0.51100000000E-03 0.  1.
         22    1    1    0    0    0  0.21070483298E+02  0.17943537173E+02 -0.39413797246E+01  0.27954789693E+02  0.00000000000E+00 0. -1.
</event>
<event>
 5    1  0.8752570E-005  0.9118800E+02  0.7818608E-02  0.1130116E+00
         25   -1    0    0    0    0  0.00000000000E+00  0.00000000000E+00  0.99999998245E-14  0.12500000000E+03  0.12500000000E+03 0.  0.
        -11    1    3    3    0    0 -0.37838229809E+02  0.51894469524E+01  0.46275493202E+02  0.60000693880E+02  0.51100000000E-03 0. -1.
         23    2    1    0    0    0 -0.99074342826E+01  0.76761239538E+01  0.30151956436E+02  0.92346966299E+02  0.86381372845E+02 0.  0.
         11    1    3    3    0    0  0.27930795526E+02  0.24866770014E+01 -0.16123536767E+02  0.32346272418E+02  0.51100000000E-03 0.  1.
         22    1    1    0    0    0  0.99074342826E+01 -0.76761239538E+01 -0.30151956436E+02  0.32653033701E+02  0.00000000000E+00 0. -1.
</event>
<event>
 5    1  0.8752570E-005  0.9118800E+02  0.7818608E-02  0.1130116E+00
         25   -1    0    0    0    0  0.00000000000E+00  0.00000000000E+00  0.99999998245E-14  0.12500000000E+03  0.12500000000E+03 0.  0.
        -11    1    3    3    0    0 -0.40001570813E+02 -0.33936879807E+02 -0.87101111297E+01  0.53176155509E+02  0.51100000000E-03 0.  1.
         23    2    1    0    0    0  0.15023755229E+01 -0.28535471197E+02  0.19252495380E+01  0.96360222863E+02  0.92005737407E+02 0.  0.
         11    1    3    3    0    0  0.41503946336E+02  0.54014086103E+01  0.10635360668E+02  0.43184067354E+02  0.51100000000E-03 0. -1.
         22    1    1    0    0    0 -0.15023755229E+01  0.28535471197E+02 -0.19252495380E+01  0.28639777137E+02  0.00000000000E+00 0.  1.
</event>
<event>
 5    1  0.8752570E-005  0.9118800E+02  0.7818608E-02  0.1130116E+00
         25   -1    0    0    0    0  0.00000000000E+00  0.00000000000E+00  0.99999998245E-14  0.12500000000E+03  0.12500000000E+03 0.  0.
        -11    1    3    3    0    0  0.46569858365E+01  0.34128908564E+02 -0.35370754597E+01  0.34626302429E+02  0.51100000000E-03 0.  1.
         23    2    1    0    0    0  0.90869665493E+01 -0.24477644250E+02 -0.15543248410E+02  0.94613809054E+02  0.89601630920E+02 0.  0.
         11    1    3    3    0    0  0.44299807128E+01 -0.58606552814E+02 -0.12006172950E+02  0.59987506624E+02  0.51100000000E-03 0. -1.
         22    1    1    0    0    0 -0.90869665493E+01  0.24477644250E+02  0.15543248410E+02  0.30386190946E+02  0.00000000000E+00 0. -1.
</event>
<event>
 5    1  0.8752570E-005  0.9118800E+02  0.7818608E-02  0.1130116E+00
         25   -1    0    0    0    0  0.00000000000E+00  0.00000000000E+00  0.99999998245E-14  0.12500000000E+03  0.12500000000E+03 0.  0.
        -11    1    3    3    0    0 -0.56076571950E+02 -0.17962632643E+02  0.18860535023E+02  0.61830072576E+02  0.51100000000E-03 0. -1.
         23    2    1    0    0    0 -0.23947562744E+02 -0.14000652643E+02  0.11114572092E+02  0.95116262808E+02  0.90299865459E+02 0.  0.
         11    1    3    3    0    0  0.32129009207E+02  0.39619800002E+01 -0.77459629307E+01  0.33286190231E+02  0.51100000000E-03 0.  1.
         22    1    1    0    0    0  0.23947562744E+02  0.14000652643E+02 -0.11114572092E+02  0.29883737192E+02  0.00000000000E+00 0. -1.
</event>
<event>
 5    1  0.8752570E-005  0.9118800E+02  0.7818608E-02  0.1130116E+00
         25   -1    0    0    0    0  0.00000000000E+00  0.00000000000E+00  0.99999998245E-14  0.12500000000E+03  0.12500000000E+03 0.  0.
        -11    1    3    3    0    0  0.53028945489E+02 -0.13409709271E+02  0.13987772359E+02  0.56458366415E+02  0.51100000000E-03 0.  1.
         23    2    1    0    0    0  0.19536316891E+02 -0.21425991274E+02 -0.46770384970E+01  0.95629683883E+02  0.91007807196E+02 0.  0.
         11    1    3    3    0    0 -0.33492628599E+02 -0.80162820027E+01 -0.18664810856E+02  0.39171317468E+02  0.51100000000E-03 0. -1.
         22    1    1    0    0    0 -0.19536316891E+02  0.21425991274E+02  0.46770384970E+01  0.29370316117E+02  0.00000000000E+00 0.  1.
</event>
<event>
 5    1  0.8752570E-005  0.9118800E+02  0.7818608E-02  0.1130116E+00
         25   -1    0    0    0    0  0.00000000000E+00  0.00000000000E+00  0.99999998245E-14  0.12500000000E+03  0.12500000000E+03 0.  0.
        -11    1    3    3    0    0 -0.21499153986E+02 -0.26494088919E+01  0.32268225900E+02  0.38864783450E+02  0.51100000000E-03 0. -1.
         23    2    1    0    0    0  0.15107687894E+02 -0.23277458614E+02 -0.70044397216E+01  0.96379299645E+02  0.92031651681E+02 0.  0.
         11    1    3    3    0    0  0.36606841880E+02 -0.20628049722E+02 -0.39272665622E+02  0.57514516195E+02  0.51100000000E-03 0.  1.
         22    1    1    0    0    0 -0.15107687894E+02  0.23277458614E+02  0.70044397216E+01  0.28620700355E+02  0.00000000000E+00 0.  1.
</event>
<event>
 5    1  0.8752570E-005  0.9118800E+02  0.7818608E-02  0.1130116E+00
         25   -1    0    0    0    0  0.00000000000E+00  0.00000000000E+00  0.99999998245E-14  0.12500000000E+03  0.12500000000E+03 0.  0.
        -11    1    3    3    0    0 -0.18619939278E+02 -0.29489298590E+02 -0.32618771361E+02  0.47752540408E+02  0.51100000000E-03 0.  1.
         23    2    1    0    0    0  0.22142185569E+02 -0.88542192858E+01 -0.69317262009E+01  0.10016610363E+03  0.97038785580E+02 0.  0.
         11    1    3    3    0    0  0.40762124847E+02  0.20635079304E+02  0.25687045160E+02  0.52413563219E+02  0.51100000000E-03 0. -1.
         22    1    1    0    0    0 -0.22142185569E+02  0.88542192858E+01  0.69317262009E+01  0.24833896373E+02  0.00000000000E+00 0. -1.
</event>
<event>
 5    1  0.8752570E-005  0.9118800E+02  0.7818608E-02  0.1130116E+00
         25   -1    0    0    0    0  0.00000000000E+00  0.00000000000E+00  0.99999998245E-14  0.12500000000E+03  0.12500000000E+03 0.  0.
        -11    1    3    3    0    0  0.38405199842E+01  0.24011872536E+02 -0.37891960007E+02  0.45023552168E+02  0.51100000000E-03 0.  1.
         23    2    1    0    0    0  0.22703406995E+02  0.15366738311E+02  0.88727804949E+01  0.96184941971E+02  0.91767289885E+02 0.  0.
         11    1    3    3    0    0  0.18862887011E+02 -0.86451342252E+01  0.46764740502E+02  0.51161389803E+02  0.51100000000E-03 0. -1.
         22    1    1    0    0    0 -0.22703406995E+02 -0.15366738311E+02 -0.88727804949E+01  0.28815058029E+02  0.00000000000E+00 0.  1.
</event>
<event>
 5    1  0.8752570E-005  0.9118800E+02  0.7818608E-02  0.1130116E+00
         25   -1    0    0    0    0  0.00000000000E+00  0.00000000000E+00  0.99999998245E-14  0.12500000000E+03  0.12500000000E+03 0.  0.
        -11    1    3    3    0    0 -0.39193410340E+02  0.19917764149E+00  0.22281399923E+02  0.45084630071E+02  0.51100000000E-03 0. -1.
         23    2    1    0    0    0 -0.13454709527E+02 -0.19865608980E+02 -0.16582702974E+02  0.95833963819E+02  0.91287956242E+02 0.  0.
         11    1    3    3    0    0  0.25738700813E+02 -0.20064786621E+02 -0.38864102896E+02  0.50749333749E+02  0.51100000000E-03 0.  1.
         22    1    1    0    0    0  0.13454709527E+02  0.19865608980E+02  0.16582702974E+02  0.29166036181E+02  0.00000000000E+00 0.  1.
</event>
<event>
 5    1  0.8752570E-005  0.9118800E+02  0.7818608E-02  0.1130116E+00
         25   -1    0    0    0    0  0.00000000000E+00  0.00000000000E+00  0.99999998245E-14  0.12500000000E+03  0.12500000000E+03 0.  0.
        -11    1    3    3    0    0 -0.11266294802E+02  0.34835269917E+02 -0.74615471279E+01  0.37364423113E+02  0.51100000000E-03 0.  1.
         23    2    1    0    0    0 -0.19350557691E+02 -0.21253406238E+02  0.60638900546E+01  0.95624463882E+02  0.91000637198E+02 0.  0.
         11    1    3    3    0    0 -0.80842628886E+01 -0.56088676154E+02  0.13525437182E+02  0.58260040769E+02  0.51100000000E-03 0. -1.
         22    1    1    0    0    0  0.19350557691E+02  0.21253406238E+02 -0.60638900546E+01  0.29375536118E+02  0.00000000000E+00 0. -1.
</event>
<event>
 5    1  0.8752570E-005  0.9118800E+02  0.7818608E-02  0.1130116E+00
         25   -1    0    0    0    0  0.00000000000E+00  0.00000000000E+00  0.99999998245E-14  0.12500000000E+03  0.12500000000E+03 0.  0.
        -11    1    3    3    0    0 -0.42622378096E+02 -0.30079578568E+02  0.29760850714E+01  0.52252322858E+02  0.51100000000E-03 0.  1.
         23    2    1    0    0    0 -0.23815105027E+02  0.64671674371E+01  0.16259356649E+02  0.95447501616E+02  0.90757233342E+02 0.  0.
         11    1    3    3    0    0  0.18807273070E+02  0.36546746005E+02  0.13283271578E+02  0.43195178758E+02  0.51100000000E-03 0. -1.
         22    1    1    0    0    0  0.23815105027E+02 -0.64671674371E+01 -0.16259356649E+02  0.29552498384E+02  0.00000000000E+00 0.  1.
</event>
<event>
 5    1  0.8752570E-005  0.9118800E+02  0.7818608E-02  0.1130116E+00
         25   -1    0    0    0    0  0.00000000000E+00  0.00000000000E+00  0.99999998245E-14  0.12500000000E+03  0.12500000000E+03 0.  0.
        -11    1    3    3    0    0 -0.33423001087E+02 -0.48284576668E+01 -0.88144331220E+01  0.34901364395E+02  0.51100000000E-03 0. -1.
         23    2    1    0    0    0  0.27458802846E+02 -0.82510849182E+01 -0.36331939531E+01  0.96099025028E+02  0.91650184162E+02 0.  0.
         11    1    3    3    0    0  0.60881803932E+02 -0.34226272513E+01  0.51812391689E+01  0.61197660633E+02  0.51100000000E-03 0.  1.
         22    1    1    0    0    0 -0.27458802846E+02  0.82510849182E+01  0.36331939531E+01  0.28900974972E+02  0.00000000000E+00 0.  1.
</event>
<event>
 5    1  0.8752570E-005  0.9118800E+02  0.7818608E-02  0.1130116E+00
         25   -1    0    0    0    0  0.00000000000E+00  0.00000000000E+00  0.99999998245E-14  0.12500000000E+03  0.12500000000E+03 0.  0.
        -11    1    3    3    0    0 -0.58490846342E+01  0.10033984167E+02 -0.37748298802E+02  0.39494641308E+02  0.51100000000E-03 0.  1.
         23    2    1    0    0    0  0.22871920243E+02  0.13383364075E+02  0.11107761501E+02  0.96266369267E+02  0.91878138405E+02 0.  0.
         11    1    3    3    0    0  0.28721004877E+02  0.33493799075E+01  0.48856060303E+02  0.56771727959E+02  0.51100000000E-03 0. -1.
         22    1    1    0    0    0 -0.22871920243E+02 -0.13383364075E+02 -0.11107761501E+02  0.28733630733E+02  0.00000000000E+00 0. -1.
</event>
