<event>
 4    1  0.9925048E-003  0.9118800E+02  0.7818608E-02  0.1130116E+00
         25   -1    0    0    0    0  0.00000000000E+00  0.00000000000E+00  0.99999998245E-14  0.12500000000E+03  0.12500000000E+03 0.  0.
        -13    1    1    0    0    0  0.73647223834E+01 -0.28886684509E+02 -0.16243124791E+02  0.33948931423E+02  0.10566000000E+00 0. -1.
         13    1    1    0    0    0  0.59845489471E+01 -0.24379239045E+02 -0.13602033143E+02  0.28551507704E+02  0.10566000000E+00 0.  1.
         22    1    1    0    0    0 -0.13349271331E+02  0.53265923554E+02  0.29845157935E+02  0.62499560873E+02  0.00000000000E+00 0. -1.
</event>
<event>
 4    1  0.9925048E-003  0.9118800E+02  0.7818608E-02  0.1130116E+00
         25   -1    0    0    0    0  0.00000000000E+00  0.00000000000E+00  0.99999998245E-14  0.12500000000E+03  0.12500000000E+03 0.  0.
        -13    1    1    0    0    0  0.10381089010E+01  0.27882341107E+02  0.42350800169E+02  0.50715915202E+02  0.10566000000E+00 0. -1.
         13    1    1    0    0    0  0.32948335779E-01  0.67945561697E+01  0.96316705743E+01  0.11787591833E+02  0.10566000000E+00 0.  1.
         22    1    1    0    0    0 -0.10710572368E+01 -0.34676897277E+02 -0.51982470744E+02  0.62496492965E+02  0.00000000000E+00 0. -1.
</event>
<event>
 4    1  0.9925048E-003  0.9118800E+02  0.7818608E-02  0.1130116E+00
         25   -1    0    0    0    0  0.00000000000E+00  0.00000000000E+00  0.99999998245E-14  0.12500000000E+03  0.12500000000E+03 0.  0.
        -13    1    1    0    0    0 -0.14898930571E+01 -0.99686315894E+01 -0.23624953822E+01  0.10353064549E+02  0.10566000000E+00 0. -1.
         13    1    1    0    0    0  0.42967488433E+01 -0.51555118731E+02  0.96607901771E+01  0.52628265683E+02  0.10566000000E+00 0.  1.
         22    1    1    0    0    0 -0.28068557862E+01  0.61523750320E+02 -0.72982947949E+01  0.62018669768E+02  0.00000000000E+00 0.  1.
</event>
<event>
 4    1  0.9925048E-003  0.9118800E+02  0.7818608E-02  0.1130116E+00
         25   -1    0    0    0    0  0.00000000000E+00  0.00000000000E+00  0.99999998245E-14  0.12500000000E+03  0.12500000000E+03 0.  0.
        -13    1    1    0    0    0  0.35341892864E+01  0.55205132904E+00 -0.10880064198E+01  0.37403444476E+01  0.10566000000E+00 0.  1.
         13    1    1    0    0    0  0.58738619568E+02  0.27219913488E+01 -0.18604258001E+01  0.58831173827E+02  0.10566000000E+00 0. -1.
         22    1    1    0    0    0 -0.62272808854E+02 -0.32740426778E+01  0.29484322199E+01  0.62428481726E+02  0.00000000000E+00 0. -1.
</event>
<event>
 4    1  0.9925048E-003  0.9118800E+02  0.7818608E-02  0.1130116E+00
         25   -1    0    0    0    0  0.00000000000E+00  0.00000000000E+00  0.99999998245E-14  0.12500000000E+03  0.12500000000E+03 0.  0.
        -13    1    1    0    0    0 -0.34421560762E+02  0.18326374604E+02 -0.37804854735E+02  0.54313148104E+02  0.10566000000E+00 0. -1.
         13    1    1    0    0    0 -0.44452745704E+01  0.29125938854E+01 -0.62579781863E+01  0.82107931507E+01  0.10566000000E+00 0.  1.
         22    1    1    0    0    0  0.38866835332E+02 -0.21238968490E+02  0.44062832921E+02  0.62476058745E+02  0.00000000000E+00 0. -1.
</event>
<event>
 4    1  0.9925048E-003  0.9118800E+02  0.7818608E-02  0.1130116E+00
         25   -1    0    0    0    0  0.00000000000E+00  0.00000000000E+00  0.99999998245E-14  0.12500000000E+03  0.12500000000E+03 0.  0.
        -13    1    1    0    0    0  0.73331372545E+01  0.18303628012E+02  0.18792118824E+02  0.27238806771E+02  0.10566000000E+00 0.  1.
         13    1    1    0    0    0  0.76324126249E+01  0.24248411869E+02  0.24452789506E+02  0.35273067336E+02  0.10566000000E+00 0. -1.
         22    1    1    0    0    0 -0.14965549879E+02 -0.42552039881E+02 -0.43244908329E+02  0.62488125893E+02  0.00000000000E+00 0.  1.
</event>
<event>
 4    1  0.9925048E-003  0.9118800E+02  0.7818608E-02  0.1130116E+00
         25   -1    0    0    0    0  0.00000000000E+00  0.00000000000E+00  0.99999998245E-14  0.12500000000E+03  0.12500000000E+03 0.  0.
        -13    1    1    0    0    0  0.53018164506E+01 -0.75970392500E+00  0.22532429688E+02  0.23160482711E+02  0.10566000000E+00 0.  1.
         13    1    1    0    0    0  0.99482268341E+01  0.42360786443E+01  0.37901762303E+02  0.39414037210E+02  0.10566000000E+00 0. -1.
         22    1    1    0    0    0 -0.15250043285E+02 -0.34763747193E+01 -0.60434191992E+02  0.62425480079E+02  0.00000000000E+00 0. -1.
</event>
<event>
 4    1  0.9925048E-003  0.9118800E+02  0.7818608E-02  0.1130116E+00
         25   -1    0    0    0    0  0.00000000000E+00  0.00000000000E+00  0.99999998245E-14  0.12500000000E+03  0.12500000000E+03 0.  0.
        -13    1    1    0    0    0  0.97296649131E+01 -0.10592628464E+02  0.11027571848E+01  0.14425581255E+02  0.10566000000E+00 0. -1.
         13    1    1    0    0    0  0.28784672228E+02 -0.37458495363E+02  0.92244297171E+01  0.48133122668E+02  0.10566000000E+00 0.  1.
         22    1    1    0    0    0 -0.38514337141E+02  0.48051123828E+02 -0.10327186902E+02  0.62441296077E+02  0.00000000000E+00 0.  1.
</event>
<event>
 4    1  0.9925048E-003  0.9118800E+02  0.7818608E-02  0.1130116E+00
         25   -1    0    0    0    0  0.00000000000E+00  0.00000000000E+00  0.99999998245E-14  0.12500000000E+03  0.12500000000E+03 0.  0.
        -13    1    1    0    0    0 -0.26812363266E+01 -0.10059761398E+01  0.50387948519E+01  0.57966916279E+01  0.10566000000E+00 0. -1.
         13    1    1    0    0    0 -0.26057466388E+02 -0.17765885946E+02  0.47157413854E+02  0.56731394337E+02  0.10566000000E+00 0.  1.
         22    1    1    0    0    0  0.28738702715E+02  0.18771862086E+02 -0.52196208706E+02  0.62471914035E+02  0.00000000000E+00 0.  1.
</event>
<event>
 4    1  0.9925048E-003  0.9118800E+02  0.7818608E-02  0.1130116E+00
         25   -1    0    0    0    0  0.00000000000E+00  0.00000000000E+00  0.99999998245E-14  0.12500000000E+03  0.12500000000E+03 0.  0.
        -13    1    1    0    0    0  0.39822005934E+01 -0.38908055852E+01 -0.23026829352E+02  0.23690553470E+02  0.10566000000E+00 0. -1.
         13    1    1    0    0    0  0.67239120092E+01 -0.58103002079E+01 -0.37779287160E+02  0.38810517692E+02  0.10566000000E+00 0.  1.
         22    1    1    0    0    0 -0.10706112603E+02  0.97011057930E+01  0.60806116512E+02  0.62498928838E+02  0.00000000000E+00 0.  1.
</event>
<event>
 4    1  0.9925048E-003  0.9118800E+02  0.7818608E-02  0.1130116E+00
         25   -1    0    0    0    0  0.00000000000E+00  0.00000000000E+00  0.99999998245E-14  0.12500000000E+03  0.12500000000E+03 0.  0.
        -13    1    1    0    0    0  0.85025860270E+01  0.82041481237E+01 -0.17560379375E+01  0.11945578632E+02  0.10566000000E+00 0.  1.
         13    1    1    0    0    0 -0.41501038509E+02  0.98303776371E+01 -0.38863246188E+02  0.57700395060E+02  0.10566000000E+00 0. -1.
         22    1    1    0    0    0  0.32998452482E+02 -0.18034525761E+02  0.40619284125E+02  0.55354026308E+02  0.00000000000E+00 0. -1.
</event>
<event>
 4    1  0.9925048E-003  0.9118800E+02  0.7818608E-02  0.1130116E+00
         25   -1    0    0    0    0  0.00000000000E+00  0.00000000000E+00  0.99999998245E-14  0.12500000000E+03  0.12500000000E+03 0.  0.
        -13    1    1    0    0    0 -0.13870737636E+02  0.78400427428E+01 -0.34600144626E+02  0.38092582020E+02  0.10566000000E+00 0. -1.
         13    1    1    0    0    0 -0.17607144930E+02 -0.30325948519E+02  0.89904415248E-01  0.35066992357E+02  0.10566000000E+00 0.  1.
         22    1    1    0    0    0  0.31477882566E+02  0.22485905776E+02  0.34510240210E+02  0.51840425623E+02  0.00000000000E+00 0.  1.
</event>
<event>
 4    1  0.9925048E-003  0.9118800E+02  0.7818608E-02  0.1130116E+00
         25   -1    0    0    0    0  0.00000000000E+00  0.00000000000E+00  0.99999998245E-14  0.12500000000E+03  0.12500000000E+03 0.  0.
        -13    1    1    0    0    0  0.21328540339E+01  0.96409527290E+01  0.15947459942E+02  0.18757123407E+02  0.10566000000E+00 0. -1.
         13    1    1    0    0    0  0.50716070557E+01  0.22155988035E+02  0.37374594033E+02  0.43743347461E+02  0.10566000000E+00 0. -1.
         22    1    1    0    0    0 -0.72044610896E+01 -0.31796940764E+02 -0.53322053975E+02  0.62499529132E+02  0.00000000000E+00 0. -1.
</event>
<event>
 4    1  0.9925048E-003  0.9118800E+02  0.7818608E-02  0.1130116E+00
         25   -1    0    0    0    0  0.00000000000E+00  0.00000000000E+00  0.99999998245E-14  0.12500000000E+03  0.12500000000E+03 0.  0.
        -13    1    1    0    0    0  0.43249532349E+01 -0.21214295137E+01  0.67977580836E+01  0.83322483559E+01  0.10566000000E+00 0. -1.
         13    1    1    0    0    0  0.24914234264E+02 -0.14687498531E+02  0.45810982952E+02  0.54176554017E+02  0.10566000000E+00 0.  1.
         22    1    1    0    0    0 -0.29239187498E+02  0.16808928045E+02 -0.52608741036E+02  0.62491197628E+02  0.00000000000E+00 0.  1.
</event>
<event>
 4    1  0.9925048E-003  0.9118800E+02  0.7818608E-02  0.1130116E+00
         25   -1    0    0    0    0  0.00000000000E+00  0.00000000000E+00  0.99999998245E-14  0.12500000000E+03  0.12500000000E+03 0.  0.
        -13    1    1    0    0    0 -0.40473576405E+02 -0.16135771197E+02 -0.36452291085E+02  0.56808927014E+02  0.10566000000E+00 0. -1.
         13    1    1    0    0    0 -0.24243747764E+01 -0.41846403827E+01 -0.36431271399E+01  0.60557697762E+01  0.10566000000E+00 0.  1.
         22    1    1    0    0    0  0.42897951181E+02  0.20320411580E+02  0.40095418225E+02  0.62135303210E+02  0.00000000000E+00 0.  1.
</event>
<event>
 4    1  0.9925048E-003  0.9118800E+02  0.7818608E-02  0.1130116E+00
         25   -1    0    0    0    0  0.00000000000E+00  0.00000000000E+00  0.99999998245E-14  0.12500000000E+03  0.12500000000E+03 0.  0.
        -13    1    1    0    0    0 -0.39330948188E+01 -0.11371484719E+02  0.52927118260E+01  0.13145488278E+02  0.10566000000E+00 0. -1.
         13    1    1    0    0    0 -0.14063452230E+02 -0.43177624509E+02  0.19336544394E+02  0.49355861455E+02  0.10566000000E+00 0.  1.
         22    1    1    0    0    0  0.17996547048E+02  0.54549109228E+02 -0.24629256220E+02  0.62498650267E+02  0.00000000000E+00 0.  1.
</event>
<event>
 4    1  0.9925048E-003  0.9118800E+02  0.7818608E-02  0.1130116E+00
         25   -1    0    0    0    0  0.00000000000E+00  0.00000000000E+00  0.99999998245E-14  0.12500000000E+03  0.12500000000E+03 0.  0.
        -13    1    1    0    0    0 -0.60945560404E+01 -0.13524001986E+02 -0.23721911226E+02  0.27978250111E+02  0.10566000000E+00 0. -1.
         13    1    1    0    0    0 -0.54008052757E+01  0.43831763876E+02 -0.14891539113E+02  0.46606451520E+02  0.10566000000E+00 0.  1.
         22    1    1    0    0    0  0.11495361316E+02 -0.30307761890E+02  0.38613450339E+02  0.50415298369E+02  0.00000000000E+00 0.  1.
</event>
<event>
 4    1  0.9925048E-003  0.9118800E+02  0.7818608E-02  0.1130116E+00
         25   -1    0    0    0    0  0.00000000000E+00  0.00000000000E+00  0.99999998245E-14  0.12500000000E+03  0.12500000000E+03 0.  0.
        -13    1    1    0    0    0  0.31970262064E+02  0.60364609774E-02 -0.75629678921E+01  0.32852813278E+02  0.10566000000E+00 0. -1.
         13    1    1    0    0    0 -0.10624230764E+02 -0.41667461991E+02  0.13239265595E+02  0.44992677022E+02  0.10566000000E+00 0.  1.
         22    1    1    0    0    0 -0.21346031300E+02  0.41661425530E+02 -0.56762977034E+01  0.47154509700E+02  0.00000000000E+00 0.  1.
</event>
<event>
 4    1  0.9925048E-003  0.9118800E+02  0.7818608E-02  0.1130116E+00
         25   -1    0    0    0    0  0.00000000000E+00  0.00000000000E+00  0.99999998245E-14  0.12500000000E+03  0.12500000000E+03 0.  0.
        -13    1    1    0    0    0  0.31213348708E+00  0.15604440666E+01 -0.25484862227E+01  0.30063863793E+01  0.10566000000E+00 0.  1.
         13    1    1    0    0    0 -0.50530315262E+01  0.15974205901E+02 -0.57169583408E+02  0.59574162292E+02  0.10566000000E+00 0. -1.
         22    1    1    0    0    0  0.47408980391E+01 -0.17534649968E+02  0.59718069631E+02  0.62419451328E+02  0.00000000000E+00 0. -1.
</event>
<event>
 4    1  0.9925048E-003  0.9118800E+02  0.7818608E-02  0.1130116E+00
         25   -1    0    0    0    0  0.00000000000E+00  0.00000000000E+00  0.99999998245E-14  0.12500000000E+03  0.12500000000E+03 0.  0.
        -13    1    1    0    0    0 -0.61303525714E+01  0.15364317081E+01  0.22988556085E+02  0.23841701281E+02  0.10566000000E+00 0.  1.
         13    1    1    0    0    0 -0.98992623484E+01  0.26760547925E+01  0.37273552241E+02  0.38658576345E+02  0.10566000000E+00 0.  1.
         22    1    1    0    0    0  0.16029614920E+02 -0.42124865006E+01 -0.60262108326E+02  0.62499722375E+02  0.00000000000E+00 0.  1.
</event>
<event>
 4    1  0.9925048E-003  0.9118800E+02  0.7818608E-02  0.1130116E+00
         25   -1    0    0    0    0  0.00000000000E+00  0.00000000000E+00  0.99999998245E-14  0.12500000000E+03  0.12500000000E+03 0.  0.
        -13    1    1    0    0    0 -0.26272946937E+01 -0.15805323577E+02 -0.93902858230E+01  0.18571471742E+02  0.10566000000E+00 0.  1.
         13    1    1    0    0    0 -0.48591253971E+01 -0.38168306028E+02 -0.21208630064E+02  0.43934585896E+02  0.10566000000E+00 0. -1.
         22    1    1    0    0    0  0.74864200907E+01  0.53973629605E+02  0.30598915887E+02  0.62493942362E+02  0.00000000000E+00 0. -1.
</event>
<event>
 4    1  0.9925048E-003  0.9118800E+02  0.7818608E-02  0.1130116E+00
         25   -1    0    0    0    0  0.00000000000E+00  0.00000000000E+00  0.99999998245E-14  0.12500000000E+03  0.12500000000E+03 0.  0.
        -13    1    1    0    0    0  0.68793667333E+01 -0.50502413020E+01 -0.17512767501E+01  0.87125632366E+01  0.10566000000E+00 0.  1.
         13    1    1    0    0    0  0.38084957722E+02 -0.28931875612E+02 -0.24923730553E+02  0.53932559181E+02  0.10566000000E+00 0. -1.
         22    1    1    0    0    0 -0.44964324455E+02  0.33982116914E+02  0.26675007304E+02  0.62354877582E+02  0.00000000000E+00 0. -1.
</event>
<event>
 4    1  0.9925048E-003  0.9118800E+02  0.7818608E-02  0.1130116E+00
         25   -1    0    0    0    0  0.00000000000E+00  0.00000000000E+00  0.99999998245E-14  0.12500000000E+03  0.12500000000E+03 0.  0.
        -13    1    1    0    0    0  0.24601090278E+02 -0.64406261548E+01 -0.50207018622E+02  0.56280113638E+02  0.10566000000E+00 0. -1.
         13    1    1    0    0    0  0.27589437954E+01 -0.64792672776E+00 -0.55365214431E+01  0.62205959229E+01  0.10566000000E+00 0.  1.
         22    1    1    0    0    0 -0.27360034073E+02  0.70885528825E+01  0.55743540065E+02  0.62499290439E+02  0.00000000000E+00 0. -1.
</event>
<event>
 4    1  0.9925048E-003  0.9118800E+02  0.7818608E-02  0.1130116E+00
         25   -1    0    0    0    0  0.00000000000E+00  0.00000000000E+00  0.99999998245E-14  0.12500000000E+03  0.12500000000E+03 0.  0.
        -13    1    1    0    0    0  0.71496981414E+01  0.51232610647E+01  0.21747542815E+02  0.23459172406E+02  0.10566000000E+00 0. -1.
         13    1    1    0    0    0  0.14740419563E+02  0.15118525342E+01  0.36268306520E+02  0.39178653484E+02  0.10566000000E+00 0.  1.
         22    1    1    0    0    0 -0.21890117704E+02 -0.66351135990E+01 -0.58015849335E+02  0.62362174110E+02  0.00000000000E+00 0.  1.
</event>
<event>
 4    1  0.9925048E-003  0.9118800E+02  0.7818608E-02  0.1130116E+00
         25   -1    0    0    0    0  0.00000000000E+00  0.00000000000E+00  0.99999998245E-14  0.12500000000E+03  0.12500000000E+03 0.  0.
        -13    1    1    0    0    0  0.23769132884E+02 -0.45986326123E+00 -0.37437023297E+01  0.24066774263E+02  0.10566000000E+00 0.  1.
         13    1    1    0    0    0  0.10641555070E+02 -0.41103157360E+02 -0.13054141998E+02  0.44419973285E+02  0.10566000000E+00 0. -1.
         22    1    1    0    0    0 -0.34410687954E+02  0.41563020622E+02  0.16797844328E+02  0.56513252452E+02  0.00000000000E+00 0. -1.
</event>
<event>
 4    1  0.9925048E-003  0.9118800E+02  0.7818608E-02  0.1130116E+00
         25   -1    0    0    0    0  0.00000000000E+00  0.00000000000E+00  0.99999998245E-14  0.12500000000E+03  0.12500000000E+03 0.  0.
        -13    1    1    0    0    0  0.96218612554E+01 -0.49299079017E+01  0.26700733880E+02  0.28806675610E+02  0.10566000000E+00 0.  1.
         13    1    1    0    0    0  0.11726908790E+02 -0.56672772207E+01  0.31075101811E+02  0.33694384361E+02  0.10566000000E+00 0. -1.
         22    1    1    0    0    0 -0.21348770046E+02  0.10597185122E+02 -0.57775835691E+02  0.62498940029E+02  0.00000000000E+00 0.  1.
</event>
<event>
 4    1  0.9925048E-003  0.9118800E+02  0.7818608E-02  0.1130116E+00
         25   -1    0    0    0    0  0.00000000000E+00  0.00000000000E+00  0.99999998245E-14  0.12500000000E+03  0.12500000000E+03 0.  0.
        -13    1    1    0    0    0  0.26921848226E+02  0.30968352406E+00  0.27761033704E+02  0.38672573901E+02  0.10566000000E+00 0. -1.
         13    1    1    0    0    0  0.16026898494E+02  0.10244952130E+00  0.17636877463E+02  0.23831545940E+02  0.10566000000E+00 0.  1.
         22    1    1    0    0    0 -0.42948746720E+02 -0.41213304537E+00 -0.45397911167E+02  0.62495880158E+02  0.00000000000E+00 0. -1.
</event>
<event>
 4    1  0.9925048E-003  0.9118800E+02  0.7818608E-02  0.1130116E+00
         25   -1    0    0    0    0  0.00000000000E+00  0.00000000000E+00  0.99999998245E-14  0.12500000000E+03  0.12500000000E+03 0.  0.
        -13    1    1    0    0    0  0.88162661379E+01 -0.41488215003E+02  0.44608860111E+02  0.61554529461E+02  0.10566000000E+00 0.  1.
         13    1    1    0    0    0  0.19260600945E+01  0.55432302709E+00 -0.71869205444E-01  0.20083104153E+01  0.10566000000E+00 0. -1.
         22    1    1    0    0    0 -0.10742326232E+02  0.40933891975E+02 -0.44536990906E+02  0.61437160124E+02  0.00000000000E+00 0.  1.
</event>
<event>
 4    1  0.9925048E-003  0.9118800E+02  0.7818608E-02  0.1130116E+00
         25   -1    0    0    0    0  0.00000000000E+00  0.00000000000E+00  0.99999998245E-14  0.12500000000E+03  0.12500000000E+03 0.  0.
        -13    1    1    0    0    0 -0.12122125712E+02 -0.17674936123E+02  0.40823410666E+02  0.46107605893E+02  0.10566000000E+00 0.  1.
         13    1    1    0    0    0  0.12097622159E+02  0.89630835387E+01  0.15669939996E+02  0.21731256566E+02  0.10566000000E+00 0. -1.
         22    1    1    0    0    0  0.24503553490E-01  0.87118525843E+01 -0.56493350663E+02  0.57161137541E+02  0.00000000000E+00 0.  1.
</event>
<event>
 4    1  0.9925048E-003  0.9118800E+02  0.7818608E-02  0.1130116E+00
         25   -1    0    0    0    0  0.00000000000E+00  0.00000000000E+00  0.99999998245E-14  0.12500000000E+03  0.12500000000E+03 0.  0.
        -13    1    1    0    0    0  0.13141018209E+02 -0.29283841444E+02  0.15169604894E+02  0.35501518361E+02  0.10566000000E+00 0.  1.
         13    1    1    0    0    0  0.98075630253E+01 -0.22388467465E+02  0.11467347991E+02  0.26998944459E+02  0.10566000000E+00 0.  1.
         22    1    1    0    0    0 -0.22948581234E+02  0.51672308909E+02 -0.26636952885E+02  0.62499537179E+02  0.00000000000E+00 0.  1.
</event>
<event>
 4    1  0.9925048E-003  0.9118800E+02  0.7818608E-02  0.1130116E+00
         25   -1    0    0    0    0  0.00000000000E+00  0.00000000000E+00  0.99999998245E-14  0.12500000000E+03  0.12500000000E+03 0.  0.
        -13    1    1    0    0    0 -0.15610153225E+02  0.34040539173E+01 -0.21341938763E+02  0.26659969636E+02  0.10566000000E+00 0. -1.
         13    1    1    0    0    0 -0.20687156644E+02  0.45019126811E+01 -0.28919116328E+02  0.35840649004E+02  0.10566000000E+00 0.  1.
         22    1    1    0    0    0  0.36297309869E+02 -0.79059665984E+01  0.50261055091E+02  0.62499381360E+02  0.00000000000E+00 0.  1.
</event>
<event>
 4    1  0.9925048E-003  0.9118800E+02  0.7818608E-02  0.1130116E+00
         25   -1    0    0    0    0  0.00000000000E+00  0.00000000000E+00  0.99999998245E-14  0.12500000000E+03  0.12500000000E+03 0.  0.
        -13    1    1    0    0    0  0.45660225945E+02 -0.33302985412E+02 -0.18384305605E+02  0.59430118016E+02  0.10566000000E+00 0.  1.
         13    1    1    0    0    0  0.23548395649E+01 -0.17605332418E+01 -0.88154325519E+00  0.30713236915E+01  0.10566000000E+00 0.  1.
         22    1    1    0    0    0 -0.48015065510E+02  0.35063518654E+02  0.19265848861E+02  0.62498558293E+02  0.00000000000E+00 0.  1.
</event>
<event>
 4    1  0.9925048E-003  0.9118800E+02  0.7818608E-02  0.1130116E+00
         25   -1    0    0    0    0  0.00000000000E+00  0.00000000000E+00  0.99999998245E-14  0.12500000000E+03  0.12500000000E+03 0.  0.
        -13    1    1    0    0    0  0.14599790270E+01  0.27736395196E+01 -0.42121429144E+01  0.52514690241E+01  0.10566000000E+00 0.  1.
         13    1    1    0    0    0  0.20351994266E+02  0.31939437823E+02 -0.42946919246E+02  0.57260635657E+02  0.10566000000E+00 0. -1.
         22    1    1    0    0    0 -0.21811973293E+02 -0.34713077343E+02  0.47159062161E+02  0.62487895319E+02  0.00000000000E+00 0. -1.
</event>
<event>
 4    1  0.9925048E-003  0.9118800E+02  0.7818608E-02  0.1130116E+00
         25   -1    0    0    0    0  0.00000000000E+00  0.00000000000E+00  0.99999998245E-14  0.12500000000E+03  0.12500000000E+03 0.  0.
        -13    1    1    0    0    0 -0.34474021928E+02 -0.39564584622E+02 -0.24543423669E+01  0.52534269812E+02  0.10566000000E+00 0.  1.
         13    1    1    0    0    0 -0.65878044639E+01 -0.74709596654E+01 -0.32630241380E+00  0.99665462061E+01  0.10566000000E+00 0. -1.
         22    1    1    0    0    0  0.41061826392E+02  0.47035544287E+02  0.27806447807E+01  0.62499183982E+02  0.00000000000E+00 0.  1.
</event>
<event>
 4    1  0.9925048E-003  0.9118800E+02  0.7818608E-02  0.1130116E+00
         25   -1    0    0    0    0  0.00000000000E+00  0.00000000000E+00  0.99999998245E-14  0.12500000000E+03  0.12500000000E+03 0.  0.
        -13    1    1    0    0    0  0.18523317520E+02 -0.15392200754E+02 -0.41688895978E+02  0.48145699163E+02  0.10566000000E+00 0. -1.
         13    1    1    0    0    0 -0.84615023848E+01 -0.12886332986E+01 -0.14802053967E+02  0.17098817622E+02  0.10566000000E+00 0.  1.
         22    1    1    0    0    0 -0.10061815135E+02  0.16680834052E+02  0.56490949946E+02  0.59755483215E+02  0.00000000000E+00 0. -1.
</event>
<event>
 4    1  0.9925048E-003  0.9118800E+02  0.7818608E-02  0.1130116E+00
         25   -1    0    0    0    0  0.00000000000E+00  0.00000000000E+00  0.99999998245E-14  0.12500000000E+03  0.12500000000E+03 0.  0.
        -13    1    1    0    0    0 -0.47408198505E+01 -0.26701096187E+02  0.10997447184E+02  0.29263952553E+02  0.10566000000E+00 0. -1.
         13    1    1    0    0    0 -0.28193916070E+02  0.41842572142E+01  0.27993595891E+02  0.39950688189E+02  0.10566000000E+00 0.  1.
         22    1    1    0    0    0  0.32934735920E+02  0.22516838973E+02 -0.38991043075E+02  0.55785359258E+02  0.00000000000E+00 0. -1.
</event>
<event>
 4    1  0.9925048E-003  0.9118800E+02  0.7818608E-02  0.1130116E+00
         25   -1    0    0    0    0  0.00000000000E+00  0.00000000000E+00  0.99999998245E-14  0.12500000000E+03  0.12500000000E+03 0.  0.
        -13    1    1    0    0    0  0.20290733518E+01  0.22986388940E+00 -0.40041357202E+01  0.44960252419E+01  0.10566000000E+00 0.  1.
         13    1    1    0    0    0  0.12988542589E+02  0.20984643433E+01 -0.56555918336E+02  0.58066245393E+02  0.10566000000E+00 0. -1.
         22    1    1    0    0    0 -0.15017615941E+02 -0.23283282327E+01  0.60560054057E+02  0.62437729365E+02  0.00000000000E+00 0. -1.
</event>
<event>
 4    1  0.9925048E-003  0.9118800E+02  0.7818608E-02  0.1130116E+00
         25   -1    0    0    0    0  0.00000000000E+00  0.00000000000E+00  0.99999998245E-14  0.12500000000E+03  0.12500000000E+03 0.  0.
        -13    1    1    0    0    0 -0.11491190879E+02 -0.23079778836E+01  0.29269759175E+01  0.12081083635E+02  0.10566000000E+00 0. -1.
         13    1    1    0    0    0 -0.48887021777E+02 -0.38438563355E+01  0.11861847629E+02  0.50452261822E+02  0.10566000000E+00 0.  1.
         22    1    1    0    0    0  0.60378212657E+02  0.61518342191E+01 -0.14788823546E+02  0.62466654543E+02  0.00000000000E+00 0.  1.
</event>
<event>
 4    1  0.9925048E-003  0.9118800E+02  0.7818608E-02  0.1130116E+00
         25   -1    0    0    0    0  0.00000000000E+00  0.00000000000E+00  0.99999998245E-14  0.12500000000E+03  0.12500000000E+03 0.  0.
        -13    1    1    0    0    0 -0.19434825695E+02 -0.10950895109E+02 -0.41001461577E+02  0.46677248944E+02  0.10566000000E+00 0.  1.
         13    1    1    0    0    0 -0.10301814664E+02 -0.12485715716E+02 -0.66159706490E+01  0.17487215729E+02  0.10566000000E+00 0. -1.
         22    1    1    0    0    0  0.29736640358E+02  0.23436610825E+02  0.47617432226E+02  0.60835535327E+02  0.00000000000E+00 0.  1.
</event>
<event>
 4    1  0.9925048E-003  0.9118800E+02  0.7818608E-02  0.1130116E+00
         25   -1    0    0    0    0  0.00000000000E+00  0.00000000000E+00  0.99999998245E-14  0.12500000000E+03  0.12500000000E+03 0.  0.
        -13    1    1    0    0    0 -0.72886674524E+01  0.30173996905E+01  0.46968604250E+02  0.47626571611E+02  0.10566000000E+00 0.  1.
         13    1    1    0    0    0 -0.34201122315E+01  0.79050124495E+00  0.14471187654E+02  0.14891222114E+02  0.10566000000E+00 0. -1.
         22    1    1    0    0    0  0.10708779684E+02 -0.38079009354E+01 -0.61439791904E+02  0.62482206276E+02  0.00000000000E+00 0.  1.
</event>
<event>
 4    1  0.9925048E-003  0.9118800E+02  0.7818608E-02  0.1130116E+00
         25   -1    0    0    0    0  0.00000000000E+00  0.00000000000E+00  0.99999998245E-14  0.12500000000E+03  0.12500000000E+03 0.  0.
        -13    1    1    0    0    0 -0.19936014812E+02 -0.54761750962E+01  0.27044210639E+02  0.34041646161E+02  0.10566000000E+00 0.  1.
         13    1    1    0    0    0 -0.16375119051E+02 -0.19858056670E+01  0.23232497596E+02  0.28492947490E+02  0.10566000000E+00 0. -1.
         22    1    1    0    0    0  0.36311133863E+02  0.74619807632E+01 -0.50276708235E+02  0.62465406348E+02  0.00000000000E+00 0.  1.
</event>
<event>
 4    1  0.9925048E-003  0.9118800E+02  0.7818608E-02  0.1130116E+00
         25   -1    0    0    0    0  0.00000000000E+00  0.00000000000E+00  0.99999998245E-14  0.12500000000E+03  0.12500000000E+03 0.  0.
        -13    1    1    0    0    0  0.39992576640E+02  0.35757335840E+02  0.14129340066E+01  0.53665638906E+02  0.10566000000E+00 0. -1.
         13    1    1    0    0    0 -0.27820203819E+02 -0.15510019812E+02 -0.23035381334E+02  0.39308579373E+02  0.10566000000E+00 0.  1.
         22    1    1    0    0    0 -0.12172372821E+02 -0.20247316028E+02  0.21622447327E+02  0.32025781721E+02  0.00000000000E+00 0. -1.
</event>
<event>
 4    1  0.9925048E-003  0.9118800E+02  0.7818608E-02  0.1130116E+00
         25   -1    0    0    0    0  0.00000000000E+00  0.00000000000E+00  0.99999998245E-14  0.12500000000E+03  0.12500000000E+03 0.  0.
        -13    1    1    0    0    0  0.27437739731E+02  0.49694840331E+01  0.87266722435E+01  0.29217996263E+02  0.10566000000E+00 0. -1.
         13    1    1    0    0    0  0.31059918491E+02 -0.13724869865E+02  0.67940430584E+01  0.34630344708E+02  0.10566000000E+00 0.  1.
         22    1    1    0    0    0 -0.58497658222E+02  0.87553858315E+01 -0.15520715302E+02  0.61151659029E+02  0.00000000000E+00 0.  1.
</event>
<event>
 4    1  0.9925048E-003  0.9118800E+02  0.7818608E-02  0.1130116E+00
         25   -1    0    0    0    0  0.00000000000E+00  0.00000000000E+00  0.99999998245E-14  0.12500000000E+03  0.12500000000E+03 0.  0.
        -13    1    1    0    0    0  0.73253572649E+01  0.20314365695E+02 -0.90312901745E+01  0.23407470579E+02  0.10566000000E+00 0.  1.
         13    1    1    0    0    0  0.25431933356E+02  0.20524001252E+02 -0.23231928355E+02  0.40096776937E+02  0.10566000000E+00 0. -1.
         22    1    1    0    0    0 -0.32757290620E+02 -0.40838366947E+02  0.32263218529E+02  0.61495752484E+02  0.00000000000E+00 0. -1.
</event>
<event>
 4    1  0.9925048E-003  0.9118800E+02  0.7818608E-02  0.1130116E+00
         25   -1    0    0    0    0  0.00000000000E+00  0.00000000000E+00  0.99999998245E-14  0.12500000000E+03  0.12500000000E+03 0.  0.
        -13    1    1    0    0    0  0.30284865275E+01  0.48075167509E+01  0.16177003773E+02  0.17146153011E+02  0.10566000000E+00 0.  1.
         13    1    1    0    0    0  0.86438025127E+01  0.13438362162E+02  0.42447829835E+02  0.45355642661E+02  0.10566000000E+00 0.  1.
         22    1    1    0    0    0 -0.11672289040E+02 -0.18245878913E+02 -0.58624833608E+02  0.62498204328E+02  0.00000000000E+00 0.  1.
</event>
<event>
 4    1  0.9925048E-003  0.9118800E+02  0.7818608E-02  0.1130116E+00
         25   -1    0    0    0    0  0.00000000000E+00  0.00000000000E+00  0.99999998245E-14  0.12500000000E+03  0.12500000000E+03 0.  0.
        -13    1    1    0    0    0 -0.10913257556E+02 -0.28982713032E+02  0.29016668631E+01  0.31105106973E+02  0.10566000000E+00 0.  1.
         13    1    1    0    0    0 -0.11952814543E+02 -0.28908064573E+02  0.27117451801E+01  0.31399214939E+02  0.10566000000E+00 0. -1.
         22    1    1    0    0    0  0.22866072099E+02  0.57890777605E+02 -0.56134120432E+01  0.62495678088E+02  0.00000000000E+00 0.  1.
</event>
<event>
 4    1  0.9925048E-003  0.9118800E+02  0.7818608E-02  0.1130116E+00
         25   -1    0    0    0    0  0.00000000000E+00  0.00000000000E+00  0.99999998245E-14  0.12500000000E+03  0.12500000000E+03 0.  0.
        -13    1    1    0    0    0  0.18135212558E+02  0.15197024079E+02 -0.67272079308E+01  0.24598820419E+02  0.10566000000E+00 0. -1.
         13    1    1    0    0    0  0.31461667776E+02  0.18688435284E+02 -0.10210472347E+02  0.37991565672E+02  0.10566000000E+00 0.  1.
         22    1    1    0    0    0 -0.49596880335E+02 -0.33885459363E+02  0.16937680278E+02  0.62409613910E+02  0.00000000000E+00 0.  1.
</event>
<event>
 4    1  0.9925048E-003  0.9118800E+02  0.7818608E-02  0.1130116E+00
         25   -1    0    0    0    0  0.00000000000E+00  0.00000000000E+00  0.99999998245E-14  0.12500000000E+03  0.12500000000E+03 0.  0.
        -13    1    1    0    0    0 -0.63316891439E+01 -0.33298115790E+01  0.35128505282E+01  0.79705216539E+01  0.10566000000E+00 0.  1.
         13    1    1    0    0    0 -0.37340432283E+02 -0.32806975366E+02  0.22621064815E+02  0.54610706396E+02  0.10566000000E+00 0. -1.
         22    1    1    0    0    0  0.43672121426E+02  0.36136786945E+02 -0.26133915343E+02  0.62418771950E+02  0.00000000000E+00 0. -1.
</event>
<event>
 4    1  0.9925048E-003  0.9118800E+02  0.7818608E-02  0.1130116E+00
         25   -1    0    0    0    0  0.00000000000E+00  0.00000000000E+00  0.99999998245E-14  0.12500000000E+03  0.12500000000E+03 0.  0.
        -13    1    1    0    0    0 -0.48092090475E+02 -0.10716556369E+02  0.26300731533E+02  0.55851887971E+02  0.10566000000E+00 0. -1.
         13    1    1    0    0    0 -0.56942276180E+01 -0.14318345217E+01  0.31192099734E+01  0.66494370556E+01  0.10566000000E+00 0.  1.
         22    1    1    0    0    0  0.53786318093E+02  0.12148390891E+02 -0.29419941507E+02  0.62498674974E+02  0.00000000000E+00 0. -1.
</event>
<event>
 4    1  0.9925048E-003  0.9118800E+02  0.7818608E-02  0.1130116E+00
         25   -1    0    0    0    0  0.00000000000E+00  0.00000000000E+00  0.99999998245E-14  0.12500000000E+03  0.12500000000E+03 0.  0.
        -13    1    1    0    0    0 -0.13211064506E+02  0.51860212208E+02  0.43188898302E+00  0.53518328896E+02  0.10566000000E+00 0. -1.
         13    1    1    0    0    0  0.28328650860E+02 -0.21092140487E+02  0.79240533974E+01  0.36196583211E+02  0.10566000000E+00 0.  1.
         22    1    1    0    0    0 -0.15117586354E+02 -0.30768071721E+02 -0.83559423804E+01  0.35285087894E+02  0.00000000000E+00 0. -1.
</event>
<event>
 4    1  0.9925048E-003  0.9118800E+02  0.7818608E-02  0.1130116E+00
         25   -1    0    0    0    0  0.00000000000E+00  0.00000000000E+00  0.99999998245E-14  0.12500000000E+03  0.12500000000E+03 0.  0.
        -13    1    1    0    0    0  0.23447556478E+01  0.37106493046E+01 -0.18642245711E+01  0.47700413622E+01  0.10566000000E+00 0. -1.
         13    1    1    0    0    0  0.28108173286E+02  0.45879215626E+02 -0.20927945151E+02  0.57731809985E+02  0.10566000000E+00 0.  1.
         22    1    1    0    0    0 -0.30452928933E+02 -0.49589864930E+02  0.22792169722E+02  0.62498148653E+02  0.00000000000E+00 0.  1.
</event>
<event>
 4    1  0.9925048E-003  0.9118800E+02  0.7818608E-02  0.1130116E+00
         25   -1    0    0    0    0  0.00000000000E+00  0.00000000000E+00  0.99999998245E-14  0.12500000000E+03  0.12500000000E+03 0.  0.
        -13    1    1    0    0    0 -0.42634560670E+01  0.15637348856E+02  0.19933920734E+02  0.25691946146E+02  0.10566000000E+00 0.  1.
         13    1    1    0    0    0 -0.63144452570E+01  0.22376882070E+02  0.28535016741E+02  0.36808360661E+02  0.10566000000E+00 0.  1.
         22    1    1    0    0    0  0.10577901324E+02 -0.38014230926E+02 -0.48468937475E+02  0.62499693194E+02  0.00000000000E+00 0.  1.
</event>
<event>
 4    1  0.9925048E-003  0.9118800E+02  0.7818608E-02  0.1130116E+00
         25   -1    0    0    0    0  0.00000000000E+00  0.00000000000E+00  0.99999998245E-14  0.12500000000E+03  0.12500000000E+03 0.  0.
        -13    1    1    0    0    0 -0.17884086396E+02  0.15130906057E+02  0.15697750620E+02  0.28199563878E+02  0.10566000000E+00 0. -1.
         13    1    1    0    0    0 -0.18689771630E+02  0.20897280703E+02  0.19853684353E+02  0.34353804022E+02  0.10566000000E+00 0.  1.
         22    1    1    0    0    0  0.36573858027E+02 -0.36028186759E+02 -0.35551434972E+02  0.62446632101E+02  0.00000000000E+00 0. -1.
</event>
<event>
 4    1  0.9925048E-003  0.9118800E+02  0.7818608E-02  0.1130116E+00
         25   -1    0    0    0    0  0.00000000000E+00  0.00000000000E+00  0.99999998245E-14  0.12500000000E+03  0.12500000000E+03 0.  0.
        -13    1    1    0    0    0 -0.36078782471E+01 -0.17983742852E+01 -0.13658618846E+02  0.14241487575E+02  0.10566000000E+00 0. -1.
         13    1    1    0    0    0 -0.54223444366E+01 -0.14531635291E+02 -0.45844855541E+02  0.48397646503E+02  0.10566000000E+00 0.  1.
         22    1    1    0    0    0  0.90302226838E+01  0.16330009576E+02  0.59503474387E+02  0.62360865923E+02  0.00000000000E+00 0.  1.
</event>
<event>
 4    1  0.9925048E-003  0.9118800E+02  0.7818608E-02  0.1130116E+00
         25   -1    0    0    0    0  0.00000000000E+00  0.00000000000E+00  0.99999998245E-14  0.12500000000E+03  0.12500000000E+03 0.  0.
        -13    1    1    0    0    0 -0.29485117966E+00  0.39091450380E+00  0.17380832648E+01  0.18088252648E+01  0.10566000000E+00 0.  1.
         13    1    1    0    0    0 -0.11602054309E+02 -0.21447504647E+00  0.59595173565E+02  0.60714492010E+02  0.10566000000E+00 0. -1.
         22    1    1    0    0    0  0.11896905489E+02 -0.17643945733E+00 -0.61333256829E+02  0.62476682726E+02  0.00000000000E+00 0. -1.
</event>
<event>
 4    1  0.9925048E-003  0.9118800E+02  0.7818608E-02  0.1130116E+00
         25   -1    0    0    0    0  0.00000000000E+00  0.00000000000E+00  0.99999998245E-14  0.12500000000E+03  0.12500000000E+03 0.  0.
        -13    1    1    0    0    0  0.11305341826E+02  0.38147999232E+02  0.40690824357E+02  0.56910763043E+02  0.10566000000E+00 0. -1.
         13    1    1    0    0    0  0.12657599455E+01  0.34946052135E+01  0.41803670447E+01  0.55947338187E+01  0.10566000000E+00 0.  1.
         22    1    1    0    0    0 -0.12571101772E+02 -0.41642604445E+02 -0.44871191402E+02  0.62494503139E+02  0.00000000000E+00 0. -1.
</event>
<event>
 4    1  0.9925048E-003  0.9118800E+02  0.7818608E-02  0.1130116E+00
         25   -1    0    0    0    0  0.00000000000E+00  0.00000000000E+00  0.99999998245E-14  0.12500000000E+03  0.12500000000E+03 0.  0.
        -13    1    1    0    0    0 -0.22792907974E+02 -0.15656753971E+02 -0.10778574350E+01  0.27673516935E+02  0.10566000000E+00 0. -1.
         13    1    1    0    0    0 -0.22423667243E+02 -0.25469396421E+02 -0.96290323780E+01  0.35273792471E+02  0.10566000000E+00 0.  1.
         22    1    1    0    0    0  0.45216575218E+02  0.41126150393E+02  0.10706889813E+02  0.62052690594E+02  0.00000000000E+00 0. -1.
</event>
<event>
 4    1  0.9925048E-003  0.9118800E+02  0.7818608E-02  0.1130116E+00
         25   -1    0    0    0    0  0.00000000000E+00  0.00000000000E+00  0.99999998245E-14  0.12500000000E+03  0.12500000000E+03 0.  0.
        -13    1    1    0    0    0  0.67633456565E+00 -0.45233592310E+00 -0.90156130916E+00  0.12190213541E+01  0.10566000000E+00 0.  1.
         13    1    1    0    0    0  0.16601068062E+02 -0.59261574023E+02 -0.16551663078E+01  0.61565252830E+02  0.10566000000E+00 0. -1.
         22    1    1    0    0    0 -0.17277402628E+02  0.59713909946E+02  0.25567276170E+01  0.62215725816E+02  0.00000000000E+00 0. -1.
</event>
<event>
 4    1  0.9925048E-003  0.9118800E+02  0.7818608E-02  0.1130116E+00
         25   -1    0    0    0    0  0.00000000000E+00  0.00000000000E+00  0.99999998245E-14  0.12500000000E+03  0.12500000000E+03 0.  0.
        -13    1    1    0    0    0 -0.18519361683E+02 -0.29953842348E+02 -0.50078404151E+01  0.35570901847E+02  0.10566000000E+00 0. -1.
         13    1    1    0    0    0  0.37998142638E+02 -0.12113605030E+02  0.13881404740E+02  0.42229170396E+02  0.10566000000E+00 0.  1.
         22    1    1    0    0    0 -0.19478780955E+02  0.42067447378E+02 -0.88735643251E+01  0.47199927757E+02  0.00000000000E+00 0.  1.
</event>
<event>
 4    1  0.9925048E-003  0.9118800E+02  0.7818608E-02  0.1130116E+00
         25   -1    0    0    0    0  0.00000000000E+00  0.00000000000E+00  0.99999998245E-14  0.12500000000E+03  0.12500000000E+03 0.  0.
        -13    1    1    0    0    0  0.21766980188E+02  0.21159235458E+01 -0.10707562339E+02  0.24350392486E+02  0.10566000000E+00 0. -1.
         13    1    1    0    0    0  0.27624651669E+02  0.57405583942E+01 -0.26191801614E+02  0.38498013278E+02  0.10566000000E+00 0.  1.
         22    1    1    0    0    0 -0.49391631857E+02 -0.78564819401E+01  0.36899363953E+02  0.62151594236E+02  0.00000000000E+00 0.  1.
</event>
<event>
 4    1  0.9925048E-003  0.9118800E+02  0.7818608E-02  0.1130116E+00
         25   -1    0    0    0    0  0.00000000000E+00  0.00000000000E+00  0.99999998245E-14  0.12500000000E+03  0.12500000000E+03 0.  0.
        -13    1    1    0    0    0  0.12222247076E+02 -0.99073059833E+01  0.79637380943E+01  0.17634350680E+02  0.10566000000E+00 0.  1.
         13    1    1    0    0    0  0.30369348112E+02 -0.23684201119E+02  0.23047627544E+02  0.44882546573E+02  0.10566000000E+00 0. -1.
         22    1    1    0    0    0 -0.42591595188E+02  0.33591507103E+02 -0.31011365638E+02  0.62483102747E+02  0.00000000000E+00 0.  1.
</event>
<event>
 4    1  0.9925048E-003  0.9118800E+02  0.7818608E-02  0.1130116E+00
         25   -1    0    0    0    0  0.00000000000E+00  0.00000000000E+00  0.99999998245E-14  0.12500000000E+03  0.12500000000E+03 0.  0.
        -13    1    1    0    0    0  0.18272227348E+02 -0.28745963642E+02  0.80108364473E+01  0.34991275807E+02  0.10566000000E+00 0. -1.
         13    1    1    0    0    0  0.14307505753E+02 -0.22632995579E+02  0.63065657613E+01  0.27508928469E+02  0.10566000000E+00 0. -1.
         22    1    1    0    0    0 -0.32579733101E+02  0.51378959221E+02 -0.14317402209E+02  0.62499795724E+02  0.00000000000E+00 0. -1.
</event>
<event>
 4    1  0.9925048E-003  0.9118800E+02  0.7818608E-02  0.1130116E+00
         25   -1    0    0    0    0  0.00000000000E+00  0.00000000000E+00  0.99999998245E-14  0.12500000000E+03  0.12500000000E+03 0.  0.
        -13    1    1    0    0    0 -0.16301766905E+02  0.71912776473E+01  0.47994242727E+01  0.18452851156E+02  0.10566000000E+00 0.  1.
         13    1    1    0    0    0 -0.32620550713E+02  0.29767850893E+02  0.50429921748E+01  0.44448489397E+02  0.10566000000E+00 0. -1.
         22    1    1    0    0    0  0.48922317617E+02 -0.36959128540E+02 -0.98424164475E+01  0.62098659446E+02  0.00000000000E+00 0. -1.
</event>
<event>
 4    1  0.9925048E-003  0.9118800E+02  0.7818608E-02  0.1130116E+00
         25   -1    0    0    0    0  0.00000000000E+00  0.00000000000E+00  0.99999998245E-14  0.12500000000E+03  0.12500000000E+03 0.  0.
        -13    1    1    0    0    0  0.20937773082E+02  0.98210055859E+01 -0.35164321041E+02  0.42087802636E+02  0.10566000000E+00 0.  1.
         13    1    1    0    0    0  0.10024800607E+02  0.48214623365E+01 -0.17114901577E+02  0.20412597735E+02  0.10566000000E+00 0. -1.
         22    1    1    0    0    0 -0.30962573689E+02 -0.14642467922E+02  0.52279222618E+02  0.62499599630E+02  0.00000000000E+00 0. -1.
</event>
<event>
 4    1  0.9925048E-003  0.9118800E+02  0.7818608E-02  0.1130116E+00
         25   -1    0    0    0    0  0.00000000000E+00  0.00000000000E+00  0.99999998245E-14  0.12500000000E+03  0.12500000000E+03 0.  0.
        -13    1    1    0    0    0  0.31687115650E+02 -0.14805501294E+02 -0.18840385670E+02  0.39727162786E+02  0.10566000000E+00 0. -1.
         13    1    1    0    0    0  0.18960484526E+02 -0.15302914680E+01 -0.13201228682E+02  0.23154381188E+02  0.10566000000E+00 0.  1.
         22    1    1    0    0    0 -0.50647600176E+02  0.16335792762E+02  0.32041614352E+02  0.62118456026E+02  0.00000000000E+00 0. -1.
</event>
<event>
 4    1  0.9925048E-003  0.9118800E+02  0.7818608E-02  0.1130116E+00
         25   -1    0    0    0    0  0.00000000000E+00  0.00000000000E+00  0.99999998245E-14  0.12500000000E+03  0.12500000000E+03 0.  0.
        -13    1    1    0    0    0  0.65317728403E-01 -0.12674006235E+01  0.53103062460E+00  0.13797566112E+01  0.10566000000E+00 0.  1.
         13    1    1    0    0    0  0.14289857840E+02 -0.56013360070E+02  0.19894940163E+02  0.61135230035E+02  0.10566000000E+00 0. -1.
         22    1    1    0    0    0 -0.14355175568E+02  0.57280760693E+02 -0.20425970787E+02  0.62485013353E+02  0.00000000000E+00 0. -1.
</event>
<event>
 4    1  0.9925048E-003  0.9118800E+02  0.7818608E-02  0.1130116E+00
         25   -1    0    0    0    0  0.00000000000E+00  0.00000000000E+00  0.99999998245E-14  0.12500000000E+03  0.12500000000E+03 0.  0.
        -13    1    1    0    0    0  0.23604515883E+02 -0.15115368855E+02  0.42663937454E+02  0.51047725403E+02  0.10566000000E+00 0. -1.
         13    1    1    0    0    0 -0.28809518508E+01  0.59845195512E+01  0.12591496655E+02  0.14236267414E+02  0.10566000000E+00 0.  1.
         22    1    1    0    0    0 -0.20723564032E+02  0.91308493040E+01 -0.55255434110E+02  0.59716007183E+02  0.00000000000E+00 0. -1.
</event>
<event>
 4    1  0.9925048E-003  0.9118800E+02  0.7818608E-02  0.1130116E+00
         25   -1    0    0    0    0  0.00000000000E+00  0.00000000000E+00  0.99999998245E-14  0.12500000000E+03  0.12500000000E+03 0.  0.
        -13    1    1    0    0    0  0.54539644794E+01  0.86480376708E+00  0.20748698727E+02  0.21471219737E+02  0.10566000000E+00 0.  1.
         13    1    1    0    0    0 -0.18198125493E+02  0.32012511792E+02 -0.46899885863E+02  0.59628710708E+02  0.10566000000E+00 0. -1.
         22    1    1    0    0    0  0.12744161013E+02 -0.32877315559E+02  0.26151187136E+02  0.43900069555E+02  0.00000000000E+00 0. -1.
</event>
<event>
 4    1  0.9925048E-003  0.9118800E+02  0.7818608E-02  0.1130116E+00
         25   -1    0    0    0    0  0.00000000000E+00  0.00000000000E+00  0.99999998245E-14  0.12500000000E+03  0.12500000000E+03 0.  0.
        -13    1    1    0    0    0 -0.80677615344E+01  0.97643693256E+01 -0.60231276115E+01  0.14025723324E+02  0.10566000000E+00 0.  1.
         13    1    1    0    0    0 -0.28207112933E+02  0.32754161539E+02 -0.21944428748E+02  0.48477267201E+02  0.10566000000E+00 0.  1.
         22    1    1    0    0    0  0.36274874468E+02 -0.42518530865E+02  0.27967556360E+02  0.62497009475E+02  0.00000000000E+00 0.  1.
</event>
<event>
 4    1  0.9925048E-003  0.9118800E+02  0.7818608E-02  0.1130116E+00
         25   -1    0    0    0    0  0.00000000000E+00  0.00000000000E+00  0.99999998245E-14  0.12500000000E+03  0.12500000000E+03 0.  0.
        -13    1    1    0    0    0 -0.18039752788E+01 -0.51672826901E+00 -0.13481153702E+01  0.23129881101E+01  0.10566000000E+00 0.  1.
         13    1    1    0    0    0 -0.12603884720E+01 -0.36172065766E+02 -0.48624641400E+02  0.60616613533E+02  0.10566000000E+00 0. -1.
         22    1    1    0    0    0  0.30643637507E+01  0.36688794035E+02  0.49972756770E+02  0.62070398357E+02  0.00000000000E+00 0. -1.
</event>
<event>
 4    1  0.9925048E-003  0.9118800E+02  0.7818608E-02  0.1130116E+00
         25   -1    0    0    0    0  0.00000000000E+00  0.00000000000E+00  0.99999998245E-14  0.12500000000E+03  0.12500000000E+03 0.  0.
        -13    1    1    0    0    0  0.78524300778E+01 -0.90542610291E+01 -0.10900551600E+02  0.16201033613E+02  0.10566000000E+00 0.  1.
         13    1    1    0    0    0  0.39292717264E+01 -0.48892145390E+02  0.68852373649E+01  0.49530785525E+02  0.10566000000E+00 0. -1.
         22    1    1    0    0    0 -0.11781701804E+02  0.57946406419E+02  0.40153142349E+01  0.59268180862E+02  0.00000000000E+00 0. -1.
</event>
<event>
 4    1  0.9925048E-003  0.9118800E+02  0.7818608E-02  0.1130116E+00
         25   -1    0    0    0    0  0.00000000000E+00  0.00000000000E+00  0.99999998245E-14  0.12500000000E+03  0.12500000000E+03 0.  0.
        -13    1    1    0    0    0 -0.40394533495E+02  0.85709118786E+01  0.30788316472E+02  0.51508353321E+02  0.10566000000E+00 0.  1.
         13    1    1    0    0    0 -0.33546697312E+00  0.98750145867E+01  0.92038052101E+01  0.13503690072E+02  0.10566000000E+00 0. -1.
         22    1    1    0    0    0  0.40730000468E+02 -0.18445926465E+02 -0.39992121682E+02  0.59987956607E+02  0.00000000000E+00 0.  1.
</event>
<event>
 4    1  0.9925048E-003  0.9118800E+02  0.7818608E-02  0.1130116E+00
         25   -1    0    0    0    0  0.00000000000E+00  0.00000000000E+00  0.99999998245E-14  0.12500000000E+03  0.12500000000E+03 0.  0.
        -13    1    1    0    0    0  0.24643914102E+01 -0.56763204151E+01 -0.14220379041E+02  0.15508842077E+02  0.10566000000E+00 0. -1.
         13    1    1    0    0    0  0.73922202769E+01 -0.17771350238E+02 -0.42869122669E+02  0.46991899859E+02  0.10566000000E+00 0.  1.
         22    1    1    0    0    0 -0.98566116871E+01  0.23447670653E+02  0.57089501710E+02  0.62499258064E+02  0.00000000000E+00 0.  1.
</event>
<event>
 4    1  0.9925048E-003  0.9118800E+02  0.7818608E-02  0.1130116E+00
         25   -1    0    0    0    0  0.00000000000E+00  0.00000000000E+00  0.99999998245E-14  0.12500000000E+03  0.12500000000E+03 0.  0.
        -13    1    1    0    0    0 -0.40065066701E+02  0.34950639541E+01 -0.30982193838E+02  0.50767435831E+02  0.10566000000E+00 0.  1.
         13    1    1    0    0    0 -0.93279179367E+01  0.76505090223E+00 -0.70752383171E+01  0.11733094954E+02  0.10566000000E+00 0. -1.
         22    1    1    0    0    0  0.49392984638E+02 -0.42601148563E+01  0.38057432155E+02  0.62499469215E+02  0.00000000000E+00 0.  1.
</event>
<event>
 4    1  0.9925048E-003  0.9118800E+02  0.7818608E-02  0.1130116E+00
         25   -1    0    0    0    0  0.00000000000E+00  0.00000000000E+00  0.99999998245E-14  0.12500000000E+03  0.12500000000E+03 0.  0.
        -13    1    1    0    0    0  0.22124449363E+02  0.64723775432E+01 -0.13143056739E+02  0.26535524023E+02  0.10566000000E+00 0. -1.
         13    1    1    0    0    0 -0.54046062235E+02 -0.25261902004E+02  0.14511636836E+02  0.61398202772E+02  0.10566000000E+00 0.  1.
         22    1    1    0    0    0  0.31921612872E+02  0.18789524461E+02 -0.13685800973E+01  0.37066273205E+02  0.00000000000E+00 0.  1.
</event>
<event>
 4    1  0.9925048E-003  0.9118800E+02  0.7818608E-02  0.1130116E+00
         25   -1    0    0    0    0  0.00000000000E+00  0.00000000000E+00  0.99999998245E-14  0.12500000000E+03  0.12500000000E+03 0.  0.
        -13    1    1    0    0    0 -0.27925558045E+02  0.26069974260E+02 -0.42636211192E+02  0.57248039432E+02  0.10566000000E+00 0.  1.
         13    1    1    0    0    0 -0.31530996098E+01  0.41068716326E+01 -0.19998209082E+01  0.55514754306E+01  0.10566000000E+00 0. -1.
         22    1    1    0    0    0  0.31078657655E+02 -0.30176845893E+02  0.44636032100E+02  0.62200485137E+02  0.00000000000E+00 0.  1.
</event>
<event>
 4    1  0.9925048E-003  0.9118800E+02  0.7818608E-02  0.1130116E+00
         25   -1    0    0    0    0  0.00000000000E+00  0.00000000000E+00  0.99999998245E-14  0.12500000000E+03  0.12500000000E+03 0.  0.
        -13    1    1    0    0    0  0.32801909479E+00  0.46722934312E+00 -0.22196112329E-01  0.58099611757E+00  0.10566000000E+00 0.  1.
         13    1    1    0    0    0  0.26007419217E+02  0.53954745867E+02 -0.15758766186E+02  0.61934241996E+02  0.10566000000E+00 0.  1.
         22    1    1    0    0    0 -0.26335438312E+02 -0.54421975211E+02  0.15780962298E+02  0.62484761886E+02  0.00000000000E+00 0.  1.
</event>
<event>
 4    1  0.9925048E-003  0.9118800E+02  0.7818608E-02  0.1130116E+00
         25   -1    0    0    0    0  0.00000000000E+00  0.00000000000E+00  0.99999998245E-14  0.12500000000E+03  0.12500000000E+03 0.  0.
        -13    1    1    0    0    0 -0.22893351013E+01  0.77339970691E+01 -0.27677223933E+02  0.28828729673E+02  0.10566000000E+00 0. -1.
         13    1    1    0    0    0 -0.74926908156E+01 -0.75330384146E+00 -0.33238721553E+02  0.34081250811E+02  0.10566000000E+00 0.  1.
         22    1    1    0    0    0  0.97820259169E+01 -0.69806932277E+01  0.60915945486E+02  0.62090019516E+02  0.00000000000E+00 0. -1.
</event>
<event>
 4    1  0.9925048E-003  0.9118800E+02  0.7818608E-02  0.1130116E+00
         25   -1    0    0    0    0  0.00000000000E+00  0.00000000000E+00  0.99999998245E-14  0.12500000000E+03  0.12500000000E+03 0.  0.
        -13    1    1    0    0    0  0.85061269007E+01 -0.42348142881E+01 -0.50663815363E+01  0.10768808328E+02  0.10566000000E+00 0. -1.
         13    1    1    0    0    0  0.45712015024E+02 -0.17352957175E+02 -0.17109272496E+02  0.51802044454E+02  0.10566000000E+00 0.  1.
         22    1    1    0    0    0 -0.54218141925E+02  0.21587771463E+02  0.22175654032E+02  0.62429147217E+02  0.00000000000E+00 0.  1.
</event>
<event>
 4    1  0.9925048E-003  0.9118800E+02  0.7818608E-02  0.1130116E+00
         25   -1    0    0    0    0  0.00000000000E+00  0.00000000000E+00  0.99999998245E-14  0.12500000000E+03  0.12500000000E+03 0.  0.
        -13    1    1    0    0    0  0.88138521271E+01  0.36935776199E+02 -0.15034865582E+02  0.40841081032E+02  0.10566000000E+00 0.  1.
         13    1    1    0    0    0  0.47252032246E+01  0.19728113774E+02 -0.75917702405E+01  0.21660382222E+02  0.10566000000E+00 0. -1.
         22    1    1    0    0    0 -0.13539055352E+02 -0.56663889973E+02  0.22626635823E+02  0.62498536746E+02  0.00000000000E+00 0.  1.
</event>
<event>
 4    1  0.9925048E-003  0.9118800E+02  0.7818608E-02  0.1130116E+00
         25   -1    0    0    0    0  0.00000000000E+00  0.00000000000E+00  0.99999998245E-14  0.12500000000E+03  0.12500000000E+03 0.  0.
        -13    1    1    0    0    0  0.15501316367E+02 -0.32847721503E+02  0.30465788284E+01  0.36449367946E+02  0.10566000000E+00 0. -1.
         13    1    1    0    0    0  0.11252159940E+02 -0.23382992540E+02  0.22964824723E+01  0.26051112053E+02  0.10566000000E+00 0.  1.
         22    1    1    0    0    0 -0.26753476307E+02  0.56230714043E+02 -0.53430613007E+01  0.62499520001E+02  0.00000000000E+00 0.  1.
</event>
<event>
 4    1  0.9925048E-003  0.9118800E+02  0.7818608E-02  0.1130116E+00
         25   -1    0    0    0    0  0.00000000000E+00  0.00000000000E+00  0.99999998245E-14  0.12500000000E+03  0.12500000000E+03 0.  0.
        -13    1    1    0    0    0 -0.28186173693E+02  0.21589383295E+02 -0.21493395507E+02  0.41503482661E+02  0.10566000000E+00 0. -1.
         13    1    1    0    0    0 -0.17531091487E+02  0.12832800701E+02 -0.16006794305E+01  0.21785161951E+02  0.10566000000E+00 0.  1.
         22    1    1    0    0    0  0.45717265180E+02 -0.34422183997E+02  0.23094074937E+02  0.61711355388E+02  0.00000000000E+00 0. -1.
</event>
<event>
 4    1  0.9925048E-003  0.9118800E+02  0.7818608E-02  0.1130116E+00
         25   -1    0    0    0    0  0.00000000000E+00  0.00000000000E+00  0.99999998245E-14  0.12500000000E+03  0.12500000000E+03 0.  0.
        -13    1    1    0    0    0 -0.88828855010E+00  0.17769878896E+02  0.33274262359E+02  0.37732550299E+02  0.10566000000E+00 0. -1.
         13    1    1    0    0    0 -0.14450617555E+02  0.35540823807E+01  0.21715821992E+02  0.26325651713E+02  0.10566000000E+00 0.  1.
         22    1    1    0    0    0  0.15338906105E+02 -0.21323961277E+02 -0.54990084351E+02  0.60941797988E+02  0.00000000000E+00 0.  1.
</event>
<event>
 4    1  0.9925048E-003  0.9118800E+02  0.7818608E-02  0.1130116E+00
         25   -1    0    0    0    0  0.00000000000E+00  0.00000000000E+00  0.99999998245E-14  0.12500000000E+03  0.12500000000E+03 0.  0.
        -13    1    1    0    0    0  0.87456646974E+01  0.87356901555E+00 -0.75184305703E+00  0.88219162228E+01  0.10566000000E+00 0.  1.
         13    1    1    0    0    0  0.53168935078E+02  0.56707428595E+01 -0.47204487748E+01  0.53678550489E+02  0.10566000000E+00 0.  1.
         22    1    1    0    0    0 -0.61914599776E+02 -0.65443118750E+01  0.54722918318E+01  0.62499533288E+02  0.00000000000E+00 0.  1.
</event>
<event>
 4    1  0.9925048E-003  0.9118800E+02  0.7818608E-02  0.1130116E+00
         25   -1    0    0    0    0  0.00000000000E+00  0.00000000000E+00  0.99999998245E-14  0.12500000000E+03  0.12500000000E+03 0.  0.
        -13    1    1    0    0    0  0.39041840708E+01 -0.57042893678E+00  0.14764789560E+01  0.42141661778E+01  0.10566000000E+00 0.  1.
         13    1    1    0    0    0  0.48338459833E+02 -0.28522452238E+02  0.16223986709E+02  0.58424018087E+02  0.10566000000E+00 0. -1.
         22    1    1    0    0    0 -0.52242643903E+02  0.29092881175E+02 -0.17700465665E+02  0.62361815735E+02  0.00000000000E+00 0. -1.
</event>
<event>
 4    1  0.9925048E-003  0.9118800E+02  0.7818608E-02  0.1130116E+00
         25   -1    0    0    0    0  0.00000000000E+00  0.00000000000E+00  0.99999998245E-14  0.12500000000E+03  0.12500000000E+03 0.  0.
        -13    1    1    0    0    0 -0.40867255549E+02  0.12135115546E+02 -0.13669107707E+01  0.42652939108E+02  0.10566000000E+00 0.  1.
         13    1    1    0    0    0 -0.14354505796E+02 -0.19023504397E+02 -0.94834464438E+01  0.25649414744E+02  0.10566000000E+00 0. -1.
         22    1    1    0    0    0  0.55221761346E+02  0.68883888517E+01  0.10850357215E+02  0.56697646149E+02  0.00000000000E+00 0. -1.
</event>
<event>
 4    1  0.9925048E-003  0.9118800E+02  0.7818608E-02  0.1130116E+00
         25   -1    0    0    0    0  0.00000000000E+00  0.00000000000E+00  0.99999998245E-14  0.12500000000E+03  0.12500000000E+03 0.  0.
        -13    1    1    0    0    0 -0.19050360520E+02 -0.13879450792E+02  0.72097387703E+01  0.24648466228E+02  0.10566000000E+00 0. -1.
         13    1    1    0    0    0 -0.29087514191E+02 -0.21161080349E+02  0.11788908684E+02  0.37853194519E+02  0.10566000000E+00 0. -1.
         22    1    1    0    0    0  0.48137874710E+02  0.35040531141E+02 -0.18998647454E+02  0.62498339253E+02  0.00000000000E+00 0. -1.
</event>
<event>
 4    1  0.9925048E-003  0.9118800E+02  0.7818608E-02  0.1130116E+00
         25   -1    0    0    0    0  0.00000000000E+00  0.00000000000E+00  0.99999998245E-14  0.12500000000E+03  0.12500000000E+03 0.  0.
        -13    1    1    0    0    0 -0.52551366316E+01  0.17318525304E+01  0.13024082406E+00  0.55356933542E+01  0.10566000000E+00 0. -1.
         13    1    1    0    0    0 -0.54136886861E+02  0.17629177735E+02  0.18457451708E+01  0.56964974904E+02  0.10566000000E+00 0. -1.
         22    1    1    0    0    0  0.59392023492E+02 -0.19361030266E+02 -0.19759859948E+01  0.62499331741E+02  0.00000000000E+00 0. -1.
</event>
<event>
 4    1  0.9925048E-003  0.9118800E+02  0.7818608E-02  0.1130116E+00
         25   -1    0    0    0    0  0.00000000000E+00  0.00000000000E+00  0.99999998245E-14  0.12500000000E+03  0.12500000000E+03 0.  0.
        -13    1    1    0    0    0 -0.56573288819E+01  0.68465212192E+01 -0.81677811497E+00  0.89195579154E+01  0.10566000000E+00 0. -1.
         13    1    1    0    0    0 -0.33916692569E+02  0.40847353590E+02 -0.72414350852E+01  0.53584492871E+02  0.10566000000E+00 0.  1.
         22    1    1    0    0    0  0.39574021451E+02 -0.47693874809E+02  0.80582132001E+01  0.62495949213E+02  0.00000000000E+00 0.  1.
</event>
<event>
 4    1  0.9925048E-003  0.9118800E+02  0.7818608E-02  0.1130116E+00
         25   -1    0    0    0    0  0.00000000000E+00  0.00000000000E+00  0.99999998245E-14  0.12500000000E+03  0.12500000000E+03 0.  0.
        -13    1    1    0    0    0  0.13265732055E+02 -0.42987952849E+01 -0.10306328623E+02  0.17340440063E+02  0.10566000000E+00 0. -1.
         13    1    1    0    0    0  0.36141160554E+02 -0.11089200220E+02 -0.24722803987E+02  0.45170588315E+02  0.10566000000E+00 0.  1.
         22    1    1    0    0    0 -0.49406892609E+02  0.15387995505E+02  0.35029132610E+02  0.62488971622E+02  0.00000000000E+00 0.  1.
</event>
<event>
 4    1  0.9925048E-003  0.9118800E+02  0.7818608E-02  0.1130116E+00
         25   -1    0    0    0    0  0.00000000000E+00  0.00000000000E+00  0.99999998245E-14  0.12500000000E+03  0.12500000000E+03 0.  0.
        -13    1    1    0    0    0 -0.38650981951E+02 -0.69927555161E+01  0.24192642310E+02  0.46131249078E+02  0.10566000000E+00 0. -1.
         13    1    1    0    0    0 -0.10772625663E+02  0.49579733123E-01  0.12810824358E+02  0.16738587354E+02  0.10566000000E+00 0.  1.
         22    1    1    0    0    0  0.49423607614E+02  0.69431757830E+01 -0.37003466668E+02  0.62130163568E+02  0.00000000000E+00 0. -1.
</event>
<event>
 4    1  0.9925048E-003  0.9118800E+02  0.7818608E-02  0.1130116E+00
         25   -1    0    0    0    0  0.00000000000E+00  0.00000000000E+00  0.99999998245E-14  0.12500000000E+03  0.12500000000E+03 0.  0.
        -13    1    1    0    0    0  0.20635350736E+01 -0.45351617190E+02  0.88858549152E+01  0.46260100955E+02  0.10566000000E+00 0. -1.
         13    1    1    0    0    0  0.22918591304E+02 -0.36747439701E+01 -0.24653235635E+01  0.23342119760E+02  0.10566000000E+00 0.  1.
         22    1    1    0    0    0 -0.24982126377E+02  0.49026361160E+02 -0.64205313517E+01  0.55397779285E+02  0.00000000000E+00 0. -1.
</event>
<event>
 4    1  0.9925048E-003  0.9118800E+02  0.7818608E-02  0.1130116E+00
         25   -1    0    0    0    0  0.00000000000E+00  0.00000000000E+00  0.99999998245E-14  0.12500000000E+03  0.12500000000E+03 0.  0.
        -13    1    1    0    0    0  0.57297758862E+01  0.72806289507E+01 -0.61733173053E+01  0.11133683138E+02  0.10566000000E+00 0. -1.
         13    1    1    0    0    0  0.33177492780E+02  0.39253001459E+02  0.12461527900E+02  0.52885205798E+02  0.10566000000E+00 0.  1.
         22    1    1    0    0    0 -0.38907268666E+02 -0.46533630410E+02 -0.62882105945E+01  0.60981111064E+02  0.00000000000E+00 0.  1.
</event>
<event>
 4    1  0.9925048E-003  0.9118800E+02  0.7818608E-02  0.1130116E+00
         25   -1    0    0    0    0  0.00000000000E+00  0.00000000000E+00  0.99999998245E-14  0.12500000000E+03  0.12500000000E+03 0.  0.
        -13    1    1    0    0    0 -0.47170681015E+02  0.18716032952E+02  0.24046849605E+02  0.56157147157E+02  0.10566000000E+00 0.  1.
         13    1    1    0    0    0 -0.52734982510E+01  0.23350473804E+01  0.26439047264E+01  0.63453625830E+01  0.10566000000E+00 0. -1.
         22    1    1    0    0    0  0.52444179266E+02 -0.21051080332E+02 -0.26690754331E+02  0.62497490260E+02  0.00000000000E+00 0.  1.
</event>
<event>
 4    1  0.9925048E-003  0.9118800E+02  0.7818608E-02  0.1130116E+00
         25   -1    0    0    0    0  0.00000000000E+00  0.00000000000E+00  0.99999998245E-14  0.12500000000E+03  0.12500000000E+03 0.  0.
        -13    1    1    0    0    0  0.32889263746E+01 -0.17455616765E+00 -0.34240078880E+01  0.47521048606E+01  0.10566000000E+00 0.  1.
         13    1    1    0    0    0 -0.81783246314E+00 -0.30725023496E+02  0.53298086298E+02  0.61525548237E+02  0.10566000000E+00 0. -1.
         22    1    1    0    0    0 -0.24710939114E+01  0.30899579663E+02 -0.49874078410E+02  0.58722346903E+02  0.00000000000E+00 0. -1.
</event>
<event>
 4    1  0.9925048E-003  0.9118800E+02  0.7818608E-02  0.1130116E+00
         25   -1    0    0    0    0  0.00000000000E+00  0.00000000000E+00  0.99999998245E-14  0.12500000000E+03  0.12500000000E+03 0.  0.
        -13    1    1    0    0    0 -0.11156406722E+02  0.14388787384E+02 -0.12813891330E+02  0.22264536564E+02  0.10566000000E+00 0.  1.
         13    1    1    0    0    0  0.41175893542E+02 -0.36567504005E+01 -0.28750315665E+02  0.50352932857E+02  0.10566000000E+00 0. -1.
         22    1    1    0    0    0 -0.30019486820E+02 -0.10732036983E+02  0.41564206995E+02  0.52382530579E+02  0.00000000000E+00 0. -1.
</event>
<event>
 4    1  0.9925048E-003  0.9118800E+02  0.7818608E-02  0.1130116E+00
         25   -1    0    0    0    0  0.00000000000E+00  0.00000000000E+00  0.99999998245E-14  0.12500000000E+03  0.12500000000E+03 0.  0.
        -13    1    1    0    0    0  0.10582550967E+00 -0.78125620463E+01  0.20129865545E+01  0.80691141812E+01  0.10566000000E+00 0. -1.
         13    1    1    0    0    0 -0.18326036569E+00 -0.52624406263E+02  0.13908667632E+02  0.54431828173E+02  0.10566000000E+00 0. -1.
         22    1    1    0    0    0  0.77434856016E-01  0.60436968310E+02 -0.15921654186E+02  0.62499057646E+02  0.00000000000E+00 0. -1.
</event>
<event>
 4    1  0.9925048E-003  0.9118800E+02  0.7818608E-02  0.1130116E+00
         25   -1    0    0    0    0  0.00000000000E+00  0.00000000000E+00  0.99999998245E-14  0.12500000000E+03  0.12500000000E+03 0.  0.
        -13    1    1    0    0    0  0.84348418080E+01  0.19536821868E+02  0.10503412633E+02  0.23731135792E+02  0.10566000000E+00 0. -1.
         13    1    1    0    0    0  0.13476236638E+02  0.31566397869E+02  0.18032401962E+02  0.38771447135E+02  0.10566000000E+00 0.  1.
         22    1    1    0    0    0 -0.21911078446E+02 -0.51103219737E+02 -0.28535814595E+02  0.62497417073E+02  0.00000000000E+00 0. -1.
</event>
<event>
 4    1  0.9925048E-003  0.9118800E+02  0.7818608E-02  0.1130116E+00
         25   -1    0    0    0    0  0.00000000000E+00  0.00000000000E+00  0.99999998245E-14  0.12500000000E+03  0.12500000000E+03 0.  0.
        -13    1    1    0    0    0  0.68370006376E+00 -0.18299009883E+02 -0.24195602616E+02  0.30344020143E+02  0.10566000000E+00 0.  1.
         13    1    1    0    0    0  0.82419795860E+01 -0.15700762746E+02 -0.27151417031E+02  0.32429227390E+02  0.10566000000E+00 0. -1.
         22    1    1    0    0    0 -0.89256796497E+01  0.33999772628E+02  0.51347019647E+02  0.62226752467E+02  0.00000000000E+00 0. -1.
</event>
<event>
 4    1  0.9925048E-003  0.9118800E+02  0.7818608E-02  0.1130116E+00
         25   -1    0    0    0    0  0.00000000000E+00  0.00000000000E+00  0.99999998245E-14  0.12500000000E+03  0.12500000000E+03 0.  0.
        -13    1    1    0    0    0  0.18007892613E+01  0.26848629194E+02 -0.85117094564E+01  0.28223254480E+02  0.10566000000E+00 0.  1.
         13    1    1    0    0    0  0.17644505484E+01  0.30210296196E+02 -0.16393777819E+02  0.34417181715E+02  0.10566000000E+00 0. -1.
         22    1    1    0    0    0 -0.35652398096E+01 -0.57058925390E+02  0.24905487275E+02  0.62359563805E+02  0.00000000000E+00 0. -1.
</event>
<event>
 4    1  0.9925048E-003  0.9118800E+02  0.7818608E-02  0.1130116E+00
         25   -1    0    0    0    0  0.00000000000E+00  0.00000000000E+00  0.99999998245E-14  0.12500000000E+03  0.12500000000E+03 0.  0.
        -13    1    1    0    0    0 -0.12076096527E+02  0.98501568592E+01 -0.56663982162E+02  0.58767982235E+02  0.10566000000E+00 0. -1.
         13    1    1    0    0    0 -0.71694196692E+00  0.44301060585E+00 -0.36373088770E+01  0.37351631937E+01  0.10566000000E+00 0.  1.
         22    1    1    0    0    0  0.12793038494E+02 -0.10293167465E+02  0.60301291039E+02  0.62496854571E+02  0.00000000000E+00 0. -1.
</event>
<event>
 4    1  0.9925048E-003  0.9118800E+02  0.7818608E-02  0.1130116E+00
         25   -1    0    0    0    0  0.00000000000E+00  0.00000000000E+00  0.99999998245E-14  0.12500000000E+03  0.12500000000E+03 0.  0.
        -13    1    1    0    0    0 -0.30403721365E+02  0.30378646049E+02 -0.18591733066E+02  0.46828539492E+02  0.10566000000E+00 0.  1.
         13    1    1    0    0    0 -0.16287447416E+02  0.19269845010E+01 -0.42950564081E+01  0.16954435590E+02  0.10566000000E+00 0. -1.
         22    1    1    0    0    0  0.46691168781E+02 -0.32305630550E+02  0.22886789474E+02  0.61217024917E+02  0.00000000000E+00 0. -1.
</event>
<event>
 4    1  0.9925048E-003  0.9118800E+02  0.7818608E-02  0.1130116E+00
         25   -1    0    0    0    0  0.00000000000E+00  0.00000000000E+00  0.99999998245E-14  0.12500000000E+03  0.12500000000E+03 0.  0.
        -13    1    1    0    0    0 -0.18670795453E+02  0.21470598613E+02  0.40031481915E+01  0.28733631290E+02  0.10566000000E+00 0.  1.
         13    1    1    0    0    0 -0.22625228992E+02  0.25050718214E+02  0.17062351596E+01  0.33798844247E+02  0.10566000000E+00 0. -1.
         22    1    1    0    0    0  0.41296024445E+02 -0.46521316827E+02 -0.57093833511E+01  0.62467524463E+02  0.00000000000E+00 0.  1.
</event>
<event>
 4    1  0.9925048E-003  0.9118800E+02  0.7818608E-02  0.1130116E+00
         25   -1    0    0    0    0  0.00000000000E+00  0.00000000000E+00  0.99999998245E-14  0.12500000000E+03  0.12500000000E+03 0.  0.
        -13    1    1    0    0    0  0.27609017415E+02  0.14034838785E+02  0.20520212422E+02  0.37152722972E+02  0.10566000000E+00 0. -1.
         13    1    1    0    0    0  0.18933749852E+02  0.93483629202E+01  0.14022203187E+02  0.25347822766E+02  0.10566000000E+00 0. -1.
         22    1    1    0    0    0 -0.46542767267E+02 -0.23383201705E+02 -0.34542415610E+02  0.62499454262E+02  0.00000000000E+00 0. -1.
</event>
<event>
 4    1  0.9925048E-003  0.9118800E+02  0.7818608E-02  0.1130116E+00
         25   -1    0    0    0    0  0.00000000000E+00  0.00000000000E+00  0.99999998245E-14  0.12500000000E+03  0.12500000000E+03 0.  0.
        -13    1    1    0    0    0  0.27536225865E+01 -0.89308545737E+01 -0.78977941894E+01  0.12236376827E+02  0.10566000000E+00 0.  1.
         13    1    1    0    0    0 -0.46943475528E+02 -0.61569738662E+01 -0.26968807325E+02  0.54487851439E+02  0.10566000000E+00 0. -1.
         22    1    1    0    0    0  0.44189852941E+02  0.15087828440E+02  0.34866601515E+02  0.58275771734E+02  0.00000000000E+00 0. -1.
</event>
<event>
 4    1  0.9925048E-003  0.9118800E+02  0.7818608E-02  0.1130116E+00
         25   -1    0    0    0    0  0.00000000000E+00  0.00000000000E+00  0.99999998245E-14  0.12500000000E+03  0.12500000000E+03 0.  0.
        -13    1    1    0    0    0 -0.73107227611E+01 -0.54341700305E+02  0.13906987928E+02  0.56567504246E+02  0.10566000000E+00 0. -1.
         13    1    1    0    0    0 -0.15571362429E+00 -0.57586298539E+01  0.14745265205E+01  0.59473907743E+01  0.10566000000E+00 0.  1.
         22    1    1    0    0    0  0.74664363854E+01  0.60100330159E+02 -0.15381514448E+02  0.62485104979E+02  0.00000000000E+00 0. -1.
</event>
<event>
 4    1  0.9925048E-003  0.9118800E+02  0.7818608E-02  0.1130116E+00
         25   -1    0    0    0    0  0.00000000000E+00  0.00000000000E+00  0.99999998245E-14  0.12500000000E+03  0.12500000000E+03 0.  0.
        -13    1    1    0    0    0 -0.25336418674E+02 -0.21872057063E+02 -0.19219013743E+02  0.38596666237E+02  0.10566000000E+00 0.  1.
         13    1    1    0    0    0 -0.16031186976E+02 -0.13079536785E+02 -0.11974907167E+02  0.23905706517E+02  0.10566000000E+00 0. -1.
         22    1    1    0    0    0  0.41367605649E+02  0.34951593848E+02  0.31193920910E+02  0.62497627246E+02  0.00000000000E+00 0.  1.
</event>
<event>
 4    1  0.9925048E-003  0.9118800E+02  0.7818608E-02  0.1130116E+00
         25   -1    0    0    0    0  0.00000000000E+00  0.00000000000E+00  0.99999998245E-14  0.12500000000E+03  0.12500000000E+03 0.  0.
        -13    1    1    0    0    0  0.25209767378E+02  0.33166840899E+02 -0.25472131684E+01  0.41738126041E+02  0.10566000000E+00 0. -1.
         13    1    1    0    0    0  0.13081839657E+02  0.16029343012E+02 -0.18013862819E+01  0.20768498327E+02  0.10566000000E+00 0.  1.
         22    1    1    0    0    0 -0.38291607035E+02 -0.49196183910E+02  0.43485994503E+01  0.62493375632E+02  0.00000000000E+00 0. -1.
</event>
<event>
 4    1  0.9925048E-003  0.9118800E+02  0.7818608E-02  0.1130116E+00
         25   -1    0    0    0    0  0.00000000000E+00  0.00000000000E+00  0.99999998245E-14  0.12500000000E+03  0.12500000000E+03 0.  0.
        -13    1    1    0    0    0  0.42194726266E+02 -0.33245263020E+01  0.12028533606E+02  0.44001638430E+02  0.10566000000E+00 0.  1.
         13    1    1    0    0    0  0.17169819207E+02 -0.80857581860E+00  0.69441071834E+01  0.18538831545E+02  0.10566000000E+00 0. -1.
         22    1    1    0    0    0 -0.59364545473E+02  0.41331021206E+01 -0.18972640790E+02  0.62459530024E+02  0.00000000000E+00 0.  1.
</event>
<event>
 4    1  0.9925048E-003  0.9118800E+02  0.7818608E-02  0.1130116E+00
         25   -1    0    0    0    0  0.00000000000E+00  0.00000000000E+00  0.99999998245E-14  0.12500000000E+03  0.12500000000E+03 0.  0.
        -13    1    1    0    0    0 -0.36450859053E+02 -0.26434370492E+01  0.96800902799E+01  0.37806986087E+02  0.10566000000E+00 0.  1.
         13    1    1    0    0    0 -0.23796398779E+02 -0.83775846394E+00  0.65596150846E+01  0.24698383514E+02  0.10566000000E+00 0. -1.
         22    1    1    0    0    0  0.60247257832E+02  0.34811955131E+01 -0.16239705364E+02  0.62494630399E+02  0.00000000000E+00 0.  1.
</event>
<event>
 4    1  0.9925048E-003  0.9118800E+02  0.7818608E-02  0.1130116E+00
         25   -1    0    0    0    0  0.00000000000E+00  0.00000000000E+00  0.99999998245E-14  0.12500000000E+03  0.12500000000E+03 0.  0.
        -13    1    1    0    0    0  0.23677811619E+01  0.80489225327E+01 -0.10216910997E+02  0.13220740370E+02  0.10566000000E+00 0.  1.
         13    1    1    0    0    0  0.10671638748E+02  0.25118657371E+02 -0.41078739916E+02  0.49318402841E+02  0.10566000000E+00 0. -1.
         22    1    1    0    0    0 -0.13039419910E+02 -0.33167579904E+02  0.51295650913E+02  0.62460856789E+02  0.00000000000E+00 0. -1.
</event>
<event>
 4    1  0.9925048E-003  0.9118800E+02  0.7818608E-02  0.1130116E+00
         25   -1    0    0    0    0  0.00000000000E+00  0.00000000000E+00  0.99999998245E-14  0.12500000000E+03  0.12500000000E+03 0.  0.
        -13    1    1    0    0    0 -0.28809418939E+02 -0.28927550455E+02 -0.40157990285E+02  0.57266579631E+02  0.10566000000E+00 0. -1.
         13    1    1    0    0    0 -0.27183654384E+01 -0.18455154889E+01 -0.41203204016E+01  0.52710190972E+01  0.10566000000E+00 0.  1.
         22    1    1    0    0    0  0.31527784377E+02  0.30773065944E+02  0.44278310687E+02  0.62462401271E+02  0.00000000000E+00 0. -1.
</event>
<event>
 4    1  0.9925048E-003  0.9118800E+02  0.7818608E-02  0.1130116E+00
         25   -1    0    0    0    0  0.00000000000E+00  0.00000000000E+00  0.99999998245E-14  0.12500000000E+03  0.12500000000E+03 0.  0.
        -13    1    1    0    0    0  0.23510122089E+01  0.73067093289E+01  0.42146239859E+01  0.87572529369E+01  0.10566000000E+00 0. -1.
         13    1    1    0    0    0 -0.15501940101E+02  0.42787726488E+02  0.29692123445E+02  0.54339056337E+02  0.10566000000E+00 0.  1.
         22    1    1    0    0    0  0.13150927892E+02 -0.50094435817E+02 -0.33906747431E+02  0.61903690726E+02  0.00000000000E+00 0.  1.
</event>
<event>
 4    1  0.9925048E-003  0.9118800E+02  0.7818608E-02  0.1130116E+00
         25   -1    0    0    0    0  0.00000000000E+00  0.00000000000E+00  0.99999998245E-14  0.12500000000E+03  0.12500000000E+03 0.  0.
        -13    1    1    0    0    0 -0.29479284205E+02  0.20099050546E+02 -0.30306698674E+02  0.46813536276E+02  0.10566000000E+00 0. -1.
         13    1    1    0    0    0 -0.91466085301E+01  0.27363597934E+01 -0.12797028795E+02  0.15966315246E+02  0.10566000000E+00 0.  1.
         22    1    1    0    0    0  0.38625892735E+02 -0.22835410340E+02  0.43103727468E+02  0.62220148478E+02  0.00000000000E+00 0.  1.
</event>
<event>
 4    1  0.9925048E-003  0.9118800E+02  0.7818608E-02  0.1130116E+00
         25   -1    0    0    0    0  0.00000000000E+00  0.00000000000E+00  0.99999998245E-14  0.12500000000E+03  0.12500000000E+03 0.  0.
        -13    1    1    0    0    0 -0.29761299562E+01 -0.22682677195E+01 -0.15983750126E+01  0.40704243857E+01  0.10566000000E+00 0. -1.
         13    1    1    0    0    0 -0.40910090640E+02 -0.35440967572E+02 -0.22018109764E+02  0.58433774654E+02  0.10566000000E+00 0.  1.
         22    1    1    0    0    0  0.43886220597E+02  0.37709235291E+02  0.23616484777E+02  0.62495800961E+02  0.00000000000E+00 0.  1.
</event>
<event>
 4    1  0.9925048E-003  0.9118800E+02  0.7818608E-02  0.1130116E+00
         25   -1    0    0    0    0  0.00000000000E+00  0.00000000000E+00  0.99999998245E-14  0.12500000000E+03  0.12500000000E+03 0.  0.
        -13    1    1    0    0    0  0.16409616004E+01 -0.18028470172E+02  0.20551909790E+02  0.27388148016E+02  0.10566000000E+00 0.  1.
         13    1    1    0    0    0  0.67457985609E+00 -0.22260774772E+02  0.27158742594E+02  0.35122722200E+02  0.10566000000E+00 0. -1.
         22    1    1    0    0    0 -0.23155414564E+01  0.40289244944E+02 -0.47710652383E+02  0.62489129784E+02  0.00000000000E+00 0. -1.
</event>
<event>
 4    1  0.9925048E-003  0.9118800E+02  0.7818608E-02  0.1130116E+00
         25   -1    0    0    0    0  0.00000000000E+00  0.00000000000E+00  0.99999998245E-14  0.12500000000E+03  0.12500000000E+03 0.  0.
        -13    1    1    0    0    0  0.12464377193E+01 -0.10935531724E+01  0.12654240965E+02  0.12762854068E+02  0.10566000000E+00 0.  1.
         13    1    1    0    0    0 -0.82227924785E+01 -0.77539220125E+01  0.48629787458E+02  0.49925995383E+02  0.10566000000E+00 0. -1.
         22    1    1    0    0    0  0.69763547593E+01  0.88474751849E+01 -0.61284028423E+02  0.62311150549E+02  0.00000000000E+00 0. -1.
</event>
<event>
 4    1  0.9925048E-003  0.9118800E+02  0.7818608E-02  0.1130116E+00
         25   -1    0    0    0    0  0.00000000000E+00  0.00000000000E+00  0.99999998245E-14  0.12500000000E+03  0.12500000000E+03 0.  0.
        -13    1    1    0    0    0  0.70550462506E+01 -0.12218324840E+02  0.97422976494E+00  0.14142893168E+02  0.10566000000E+00 0. -1.
         13    1    1    0    0    0  0.25026345733E+02 -0.41308304787E+02  0.24366043906E+01  0.48359510234E+02  0.10566000000E+00 0.  1.
         22    1    1    0    0    0 -0.32081391984E+02  0.53526629627E+02 -0.34108341555E+01  0.62497596597E+02  0.00000000000E+00 0. -1.
</event>
<event>
 4    1  0.9925048E-003  0.9118800E+02  0.7818608E-02  0.1130116E+00
         25   -1    0    0    0    0  0.00000000000E+00  0.00000000000E+00  0.99999998245E-14  0.12500000000E+03  0.12500000000E+03 0.  0.
        -13    1    1    0    0    0 -0.19735576809E+02 -0.34741163969E+02  0.26460635797E+02  0.47923041188E+02  0.10566000000E+00 0.  1.
         13    1    1    0    0    0 -0.69919387630E+01 -0.10426839043E+02  0.74431775856E+01  0.14595144285E+02  0.10566000000E+00 0. -1.
         22    1    1    0    0    0  0.26727515572E+02  0.45168003012E+02 -0.33903813382E+02  0.62481814527E+02  0.00000000000E+00 0.  1.
</event>
<event>
 4    1  0.9925048E-003  0.9118800E+02  0.7818608E-02  0.1130116E+00
         25   -1    0    0    0    0  0.00000000000E+00  0.00000000000E+00  0.99999998245E-14  0.12500000000E+03  0.12500000000E+03 0.  0.
        -13    1    1    0    0    0  0.26521522796E+01  0.15229576350E+01 -0.19116902697E+02  0.19360280071E+02  0.10566000000E+00 0.  1.
         13    1    1    0    0    0  0.33847193743E+02  0.11198731073E+02 -0.27541183407E+02  0.45050771907E+02  0.10566000000E+00 0. -1.
         22    1    1    0    0    0 -0.36499346022E+02 -0.12721688708E+02  0.46658086103E+02  0.60588948022E+02  0.00000000000E+00 0. -1.
</event>
<event>
 4    1  0.9925048E-003  0.9118800E+02  0.7818608E-02  0.1130116E+00
         25   -1    0    0    0    0  0.00000000000E+00  0.00000000000E+00  0.99999998245E-14  0.12500000000E+03  0.12500000000E+03 0.  0.
        -13    1    1    0    0    0  0.35469457406E+01 -0.23955737038E+02  0.15921798600E+02  0.28982287622E+02  0.10566000000E+00 0.  1.
         13    1    1    0    0    0  0.40919106028E+01 -0.27869938197E+02  0.18165388931E+02  0.33518199632E+02  0.10566000000E+00 0. -1.
         22    1    1    0    0    0 -0.76388563433E+01  0.51825675235E+02 -0.34087187531E+02  0.62499512747E+02  0.00000000000E+00 0. -1.
</event>
<event>
 4    1  0.9925048E-003  0.9118800E+02  0.7818608E-02  0.1130116E+00
         25   -1    0    0    0    0  0.00000000000E+00  0.00000000000E+00  0.99999998245E-14  0.12500000000E+03  0.12500000000E+03 0.  0.
        -13    1    1    0    0    0 -0.54701832388E+01  0.12100019284E+02  0.13583593484E+02  0.18996277196E+02  0.10566000000E+00 0. -1.
         13    1    1    0    0    0 -0.12346229934E+02  0.27927211098E+02  0.30987689684E+02  0.43504098535E+02  0.10566000000E+00 0. -1.
         22    1    1    0    0    0  0.17816413173E+02 -0.40027230382E+02 -0.44571283169E+02  0.62499624269E+02  0.00000000000E+00 0. -1.
</event>
<event>
 4    1  0.9925048E-003  0.9118800E+02  0.7818608E-02  0.1130116E+00
         25   -1    0    0    0    0  0.00000000000E+00  0.00000000000E+00  0.99999998245E-14  0.12500000000E+03  0.12500000000E+03 0.  0.
        -13    1    1    0    0    0 -0.19582197154E+02 -0.17485532665E+02 -0.44405373598E+02  0.51585411371E+02  0.10566000000E+00 0.  1.
         13    1    1    0    0    0 -0.41525103171E+01 -0.43969704683E+01 -0.90985876707E+01  0.10925756398E+02  0.10566000000E+00 0. -1.
         22    1    1    0    0    0  0.23734707471E+02  0.21882503133E+02  0.53503961269E+02  0.62488832231E+02  0.00000000000E+00 0.  1.
</event>
<event>
 4    1  0.9925048E-003  0.9118800E+02  0.7818608E-02  0.1130116E+00
         25   -1    0    0    0    0  0.00000000000E+00  0.00000000000E+00  0.99999998245E-14  0.12500000000E+03  0.12500000000E+03 0.  0.
        -13    1    1    0    0    0 -0.16604344987E+02  0.24858449871E+02  0.18428871470E+02  0.35118104592E+02  0.10566000000E+00 0.  1.
         13    1    1    0    0    0 -0.13239758453E+02  0.19096653583E+02  0.14486010706E+02  0.27383006631E+02  0.10566000000E+00 0. -1.
         22    1    1    0    0    0  0.29844103440E+02 -0.43955103454E+02 -0.32914882175E+02  0.62498888777E+02  0.00000000000E+00 0. -1.
</event>
<event>
 4    1  0.9925048E-003  0.9118800E+02  0.7818608E-02  0.1130116E+00
         25   -1    0    0    0    0  0.00000000000E+00  0.00000000000E+00  0.99999998245E-14  0.12500000000E+03  0.12500000000E+03 0.  0.
        -13    1    1    0    0    0  0.33451713826E+02 -0.15480977804E+02  0.39674012396E+02  0.54154558952E+02  0.10566000000E+00 0. -1.
         13    1    1    0    0    0  0.48103225362E+01 -0.29590816614E+01  0.61596437433E+01  0.83574961718E+01  0.10566000000E+00 0. -1.
         22    1    1    0    0    0 -0.38262036362E+02  0.18440059465E+02 -0.45833656140E+02  0.62487944876E+02  0.00000000000E+00 0. -1.
</event>
<event>
 4    1  0.9925048E-003  0.9118800E+02  0.7818608E-02  0.1130116E+00
         25   -1    0    0    0    0  0.00000000000E+00  0.00000000000E+00  0.99999998245E-14  0.12500000000E+03  0.12500000000E+03 0.  0.
        -13    1    1    0    0    0  0.40048232754E+02 -0.15150860622E+02 -0.23571756743E+02  0.48877892798E+02  0.10566000000E+00 0. -1.
         13    1    1    0    0    0  0.12235096731E+02 -0.81622691277E+01  0.15608127317E+01  0.14790792060E+02  0.10566000000E+00 0.  1.
         22    1    1    0    0    0 -0.52283329486E+02  0.23313129750E+02  0.22010944011E+02  0.61331315143E+02  0.00000000000E+00 0. -1.
</event>
<event>
 4    1  0.9925048E-003  0.9118800E+02  0.7818608E-02  0.1130116E+00
         25   -1    0    0    0    0  0.00000000000E+00  0.00000000000E+00  0.99999998245E-14  0.12500000000E+03  0.12500000000E+03 0.  0.
        -13    1    1    0    0    0 -0.30745228434E+02  0.34445452312E+01 -0.46106709505E+02  0.55524533215E+02  0.10566000000E+00 0. -1.
         13    1    1    0    0    0 -0.39961940099E+01  0.48418352898E+00 -0.56974880052E+01  0.69768570187E+01  0.10566000000E+00 0. -1.
         22    1    1    0    0    0  0.34741422444E+02 -0.39287287602E+01  0.51804197510E+02  0.62498609767E+02  0.00000000000E+00 0. -1.
</event>
<event>
 4    1  0.9925048E-003  0.9118800E+02  0.7818608E-02  0.1130116E+00
         25   -1    0    0    0    0  0.00000000000E+00  0.00000000000E+00  0.99999998245E-14  0.12500000000E+03  0.12500000000E+03 0.  0.
        -13    1    1    0    0    0 -0.21465283793E+02 -0.37500374118E+01 -0.16527114387E+02  0.27349183953E+02  0.10566000000E+00 0.  1.
         13    1    1    0    0    0 -0.27940083881E+02 -0.28482247564E+01 -0.21158920412E+02  0.35163500233E+02  0.10566000000E+00 0. -1.
         22    1    1    0    0    0  0.49405367675E+02  0.65982621681E+01  0.37686034800E+02  0.62487315814E+02  0.00000000000E+00 0. -1.
</event>
<event>
 4    1  0.9925048E-003  0.9118800E+02  0.7818608E-02  0.1130116E+00
         25   -1    0    0    0    0  0.00000000000E+00  0.00000000000E+00  0.99999998245E-14  0.12500000000E+03  0.12500000000E+03 0.  0.
        -13    1    1    0    0    0 -0.10403361980E+02  0.57726044983E+00 -0.13559634458E+02  0.17100819302E+02  0.10566000000E+00 0.  1.
         13    1    1    0    0    0 -0.25151251118E+02  0.25415581188E+01 -0.37728397671E+02  0.45414624355E+02  0.10566000000E+00 0. -1.
         22    1    1    0    0    0  0.35554613098E+02 -0.31188185686E+01  0.51288032128E+02  0.62484556343E+02  0.00000000000E+00 0. -1.
</event>
<event>
 4    1  0.9925048E-003  0.9118800E+02  0.7818608E-02  0.1130116E+00
         25   -1    0    0    0    0  0.00000000000E+00  0.00000000000E+00  0.99999998245E-14  0.12500000000E+03  0.12500000000E+03 0.  0.
        -13    1    1    0    0    0  0.19528094744E+02  0.41416349570E+01 -0.63769186160E+00  0.19972917648E+02  0.10566000000E+00 0. -1.
         13    1    1    0    0    0  0.41589346162E+02  0.87787943256E+01 -0.13484706156E+01  0.42527291015E+02  0.10566000000E+00 0. -1.
         22    1    1    0    0    0 -0.61117440906E+02 -0.12920429283E+02  0.19861624772E+01  0.62499791337E+02  0.00000000000E+00 0. -1.
</event>
<event>
 4    1  0.9925048E-003  0.9118800E+02  0.7818608E-02  0.1130116E+00
         25   -1    0    0    0    0  0.00000000000E+00  0.00000000000E+00  0.99999998245E-14  0.12500000000E+03  0.12500000000E+03 0.  0.
        -13    1    1    0    0    0  0.34900163477E+02  0.35810382853E+02  0.11780165747E+02  0.51373031834E+02  0.10566000000E+00 0. -1.
         13    1    1    0    0    0  0.85122376055E+01  0.63135989265E+01  0.36329313468E+01  0.11203975842E+02  0.10566000000E+00 0.  1.
         22    1    1    0    0    0 -0.43412401082E+02 -0.42123981779E+02 -0.15413097094E+02  0.62422992324E+02  0.00000000000E+00 0. -1.
</event>
<event>
 4    1  0.9925048E-003  0.9118800E+02  0.7818608E-02  0.1130116E+00
         25   -1    0    0    0    0  0.00000000000E+00  0.00000000000E+00  0.99999998245E-14  0.12500000000E+03  0.12500000000E+03 0.  0.
        -13    1    1    0    0    0 -0.10876028840E+02  0.31382650914E+01 -0.46500447508E+02  0.47858536267E+02  0.10566000000E+00 0.  1.
         13    1    1    0    0    0 -0.32884824397E+01  0.10400193378E+01 -0.14229401142E+02  0.14641816072E+02  0.10566000000E+00 0.  1.
         22    1    1    0    0    0  0.14164511280E+02 -0.41782844293E+01  0.60729848651E+02  0.62499647661E+02  0.00000000000E+00 0.  1.
</event>
<event>
 4    1  0.9925048E-003  0.9118800E+02  0.7818608E-02  0.1130116E+00
         25   -1    0    0    0    0  0.00000000000E+00  0.00000000000E+00  0.99999998245E-14  0.12500000000E+03  0.12500000000E+03 0.  0.
        -13    1    1    0    0    0 -0.55884672589E+01  0.16843271159E+01  0.55316593233E+00  0.58638793236E+01  0.10566000000E+00 0. -1.
         13    1    1    0    0    0 -0.53407333565E+02  0.17570623780E+02  0.68431558528E+01  0.56638414920E+02  0.10566000000E+00 0.  1.
         22    1    1    0    0    0  0.58995800824E+02 -0.19254950896E+02 -0.73963217851E+01  0.62497705757E+02  0.00000000000E+00 0.  1.
</event>
<event>
 4    1  0.9925048E-003  0.9118800E+02  0.7818608E-02  0.1130116E+00
         25   -1    0    0    0    0  0.00000000000E+00  0.00000000000E+00  0.99999998245E-14  0.12500000000E+03  0.12500000000E+03 0.  0.
        -13    1    1    0    0    0 -0.71678584589E+01 -0.50829881437E+02  0.14492863069E+02  0.53339565857E+02  0.10566000000E+00 0. -1.
         13    1    1    0    0    0 -0.22763128006E+01 -0.86823021020E+01  0.19806605615E+01  0.91922875310E+01  0.10566000000E+00 0.  1.
         22    1    1    0    0    0  0.94441712595E+01  0.59512183539E+02 -0.16473523631E+02  0.62468146612E+02  0.00000000000E+00 0. -1.
</event>
<event>
 4    1  0.9925048E-003  0.9118800E+02  0.7818608E-02  0.1130116E+00
         25   -1    0    0    0    0  0.00000000000E+00  0.00000000000E+00  0.99999998245E-14  0.12500000000E+03  0.12500000000E+03 0.  0.
        -13    1    1    0    0    0  0.10171711659E+02  0.56394111901E+02 -0.16612314738E+02  0.59663554538E+02  0.10566000000E+00 0. -1.
         13    1    1    0    0    0  0.29918353216E+00  0.25700825974E+01 -0.12039278937E+01  0.28557734070E+01  0.10566000000E+00 0.  1.
         22    1    1    0    0    0 -0.10470895191E+02 -0.58964194498E+02  0.17816242631E+02  0.62480672055E+02  0.00000000000E+00 0. -1.
</event>
<event>
 4    1  0.9925048E-003  0.9118800E+02  0.7818608E-02  0.1130116E+00
         25   -1    0    0    0    0  0.00000000000E+00  0.00000000000E+00  0.99999998245E-14  0.12500000000E+03  0.12500000000E+03 0.  0.
        -13    1    1    0    0    0  0.31344205171E+01  0.27528207806E+02 -0.23820073428E+02  0.36538115430E+02  0.10566000000E+00 0.  1.
         13    1    1    0    0    0  0.24595319423E+01  0.19410931363E+02 -0.17064942719E+02  0.25962607492E+02  0.10566000000E+00 0.  1.
         22    1    1    0    0    0 -0.55939524595E+01 -0.46939139169E+02  0.40885016147E+02  0.62499277079E+02  0.00000000000E+00 0.  1.
</event>
<event>
 4    1  0.9925048E-003  0.9118800E+02  0.7818608E-02  0.1130116E+00
         25   -1    0    0    0    0  0.00000000000E+00  0.00000000000E+00  0.99999998245E-14  0.12500000000E+03  0.12500000000E+03 0.  0.
        -13    1    1    0    0    0  0.32602857739E+01 -0.20969180593E+02 -0.29402730224E+01  0.21424107158E+02  0.10566000000E+00 0. -1.
         13    1    1    0    0    0  0.14626111078E+02 -0.37581620323E+02 -0.87047760744E+01  0.41256340142E+02  0.10566000000E+00 0.  1.
         22    1    1    0    0    0 -0.17886396852E+02  0.58550800916E+02  0.11645049097E+02  0.62319552700E+02  0.00000000000E+00 0.  1.
</event>
<event>
 4    1  0.9925048E-003  0.9118800E+02  0.7818608E-02  0.1130116E+00
         25   -1    0    0    0    0  0.00000000000E+00  0.00000000000E+00  0.99999998245E-14  0.12500000000E+03  0.12500000000E+03 0.  0.
        -13    1    1    0    0    0 -0.41560199142E+01 -0.21270016614E+01 -0.80768042944E+01  0.93296607248E+01  0.10566000000E+00 0. -1.
         13    1    1    0    0    0 -0.19130374250E+02  0.30693611823E+02 -0.40756611181E+02  0.54490196776E+02  0.10566000000E+00 0.  1.
         22    1    1    0    0    0  0.23286394164E+02 -0.28566610161E+02  0.48833415475E+02  0.61180142500E+02  0.00000000000E+00 0.  1.
</event>
<event>
 4    1  0.9925048E-003  0.9118800E+02  0.7818608E-02  0.1130116E+00
         25   -1    0    0    0    0  0.00000000000E+00  0.00000000000E+00  0.99999998245E-14  0.12500000000E+03  0.12500000000E+03 0.  0.
        -13    1    1    0    0    0  0.32267785493E+01 -0.46606865965E+02  0.21590276940E+01  0.46768414764E+02  0.10566000000E+00 0. -1.
         13    1    1    0    0    0 -0.86352951012E+01 -0.14099901185E+02 -0.48313318359E+01  0.17225808145E+02  0.10566000000E+00 0.  1.
         22    1    1    0    0    0  0.54085165519E+01  0.60706767150E+02  0.26723041419E+01  0.61005777091E+02  0.00000000000E+00 0. -1.
</event>
<event>
 4    1  0.9925048E-003  0.9118800E+02  0.7818608E-02  0.1130116E+00
         25   -1    0    0    0    0  0.00000000000E+00  0.00000000000E+00  0.99999998245E-14  0.12500000000E+03  0.12500000000E+03 0.  0.
        -13    1    1    0    0    0  0.88465030048E+01 -0.19384961088E+02 -0.32953047264E+02  0.39242219863E+02  0.10566000000E+00 0.  1.
         13    1    1    0    0    0  0.57053395939E+01 -0.11265787230E+02 -0.19532944533E+02  0.23259749525E+02  0.10566000000E+00 0. -1.
         22    1    1    0    0    0 -0.14551842599E+02  0.30650748318E+02  0.52485991797E+02  0.62498030612E+02  0.00000000000E+00 0. -1.
</event>
<event>
 4    1  0.9925048E-003  0.9118800E+02  0.7818608E-02  0.1130116E+00
         25   -1    0    0    0    0  0.00000000000E+00  0.00000000000E+00  0.99999998245E-14  0.12500000000E+03  0.12500000000E+03 0.  0.
        -13    1    1    0    0    0  0.13519947269E+02 -0.42269689155E+02 -0.13971965626E+02  0.46526794247E+02  0.10566000000E+00 0.  1.
         13    1    1    0    0    0  0.16298793792E+01 -0.15467101515E+02 -0.41397628725E+01  0.16094612041E+02  0.10566000000E+00 0. -1.
         22    1    1    0    0    0 -0.15149826648E+02  0.57736790670E+02  0.18111728498E+02  0.62378593712E+02  0.00000000000E+00 0.  1.
</event>
<event>
 4    1  0.9925048E-003  0.9118800E+02  0.7818608E-02  0.1130116E+00
         25   -1    0    0    0    0  0.00000000000E+00  0.00000000000E+00  0.99999998245E-14  0.12500000000E+03  0.12500000000E+03 0.  0.
        -13    1    1    0    0    0 -0.65535184974E+00 -0.16140457498E+01  0.55744056048E+00  0.18320845350E+01  0.10566000000E+00 0.  1.
         13    1    1    0    0    0 -0.32635337856E+02 -0.49179920864E+02  0.14118818552E+02  0.60688401647E+02  0.10566000000E+00 0. -1.
         22    1    1    0    0    0  0.33290689706E+02  0.50793966613E+02 -0.14676259112E+02  0.62479513818E+02  0.00000000000E+00 0. -1.
</event>
<event>
 4    1  0.9925048E-003  0.9118800E+02  0.7818608E-02  0.1130116E+00
         25   -1    0    0    0    0  0.00000000000E+00  0.00000000000E+00  0.99999998245E-14  0.12500000000E+03  0.12500000000E+03 0.  0.
        -13    1    1    0    0    0 -0.17409759378E+01 -0.64361430699E+01 -0.11195649008E+02  0.13031065021E+02  0.10566000000E+00 0.  1.
         13    1    1    0    0    0 -0.10296459000E+01 -0.21596059878E+02 -0.44545066191E+02  0.49514887245E+02  0.10566000000E+00 0. -1.
         22    1    1    0    0    0  0.27706218378E+01  0.28032202948E+02  0.55740715199E+02  0.62454047734E+02  0.00000000000E+00 0. -1.
</event>
<event>
 4    1  0.9925048E-003  0.9118800E+02  0.7818608E-02  0.1130116E+00
         25   -1    0    0    0    0  0.00000000000E+00  0.00000000000E+00  0.99999998245E-14  0.12500000000E+03  0.12500000000E+03 0.  0.
        -13    1    1    0    0    0 -0.28943452876E+02 -0.16679673446E+01 -0.16610606478E+01  0.29039212558E+02  0.10566000000E+00 0. -1.
         13    1    1    0    0    0 -0.29140939121E+02 -0.13137655445E+02 -0.12577715371E+02  0.34351163175E+02  0.10566000000E+00 0.  1.
         22    1    1    0    0    0  0.58084391998E+02  0.14805622789E+02  0.14238776019E+02  0.61609624268E+02  0.00000000000E+00 0.  1.
</event>
<event>
 4    1  0.9925048E-003  0.9118800E+02  0.7818608E-02  0.1130116E+00
         25   -1    0    0    0    0  0.00000000000E+00  0.00000000000E+00  0.99999998245E-14  0.12500000000E+03  0.12500000000E+03 0.  0.
        -13    1    1    0    0    0  0.38959831101E+02 -0.18749728817E+02 -0.39676508454E+01  0.43418592647E+02  0.10566000000E+00 0.  1.
         13    1    1    0    0    0  0.17119292016E+02 -0.82724145459E+01 -0.16125494568E+01  0.19081784019E+02  0.10566000000E+00 0. -1.
         22    1    1    0    0    0 -0.56079123117E+02  0.27022143363E+02  0.55802003022E+01  0.62499623335E+02  0.00000000000E+00 0.  1.
</event>
<event>
 4    1  0.9925048E-003  0.9118800E+02  0.7818608E-02  0.1130116E+00
         25   -1    0    0    0    0  0.00000000000E+00  0.00000000000E+00  0.99999998245E-14  0.12500000000E+03  0.12500000000E+03 0.  0.
        -13    1    1    0    0    0 -0.52570248414E+02 -0.96737923380E+00  0.15800637254E+02  0.54902077762E+02  0.10566000000E+00 0. -1.
         13    1    1    0    0    0 -0.72354331476E+01 -0.61094467305E+00  0.22587242593E+01  0.76051131183E+01  0.10566000000E+00 0.  1.
         22    1    1    0    0    0  0.59805681562E+02  0.15783239069E+01 -0.18059361513E+02  0.62492809120E+02  0.00000000000E+00 0. -1.
</event>
<event>
 4    1  0.9925048E-003  0.9118800E+02  0.7818608E-02  0.1130116E+00
         25   -1    0    0    0    0  0.00000000000E+00  0.00000000000E+00  0.99999998245E-14  0.12500000000E+03  0.12500000000E+03 0.  0.
        -13    1    1    0    0    0 -0.60989182652E+01 -0.58825199484E+02  0.16822405351E+02  0.61486627686E+02  0.10566000000E+00 0.  1.
         13    1    1    0    0    0  0.19861558842E-01 -0.92689235974E+00  0.42516613813E+00  0.10254044123E+01  0.10566000000E+00 0. -1.
         22    1    1    0    0    0  0.60790567064E+01  0.59752091844E+02 -0.17247571489E+02  0.62487967902E+02  0.00000000000E+00 0.  1.
</event>
<event>
 4    1  0.9925048E-003  0.9118800E+02  0.7818608E-02  0.1130116E+00
         25   -1    0    0    0    0  0.00000000000E+00  0.00000000000E+00  0.99999998245E-14  0.12500000000E+03  0.12500000000E+03 0.  0.
        -13    1    1    0    0    0 -0.22075159541E+00  0.72793331630E+00  0.51666092250E+00  0.92559209390E+00  0.10566000000E+00 0.  1.
         13    1    1    0    0    0  0.93918360991E+00  0.58435051760E+02  0.19504449490E+02  0.61611460411E+02  0.10566000000E+00 0. -1.
         22    1    1    0    0    0 -0.71843201450E+00 -0.59162985076E+02 -0.20021110412E+02  0.62462947495E+02  0.00000000000E+00 0. -1.
</event>
<event>
 4    1  0.9925048E-003  0.9118800E+02  0.7818608E-02  0.1130116E+00
         25   -1    0    0    0    0  0.00000000000E+00  0.00000000000E+00  0.99999998245E-14  0.12500000000E+03  0.12500000000E+03 0.  0.
        -13    1    1    0    0    0 -0.22853020401E+02  0.15001953189E+02  0.11906970835E+02  0.29817884892E+02  0.10566000000E+00 0. -1.
         13    1    1    0    0    0 -0.25004834871E+02  0.18236300891E+02  0.10607057024E+02  0.32715825832E+02  0.10566000000E+00 0.  1.
         22    1    1    0    0    0  0.47857855272E+02 -0.33238254080E+02 -0.22514027859E+02  0.62466289276E+02  0.00000000000E+00 0. -1.
</event>
<event>
 4    1  0.9925048E-003  0.9118800E+02  0.7818608E-02  0.1130116E+00
         25   -1    0    0    0    0  0.00000000000E+00  0.00000000000E+00  0.99999998245E-14  0.12500000000E+03  0.12500000000E+03 0.  0.
        -13    1    1    0    0    0  0.32590714536E+02 -0.14724408661E+02 -0.22417884065E+01  0.35832941041E+02  0.10566000000E+00 0. -1.
         13    1    1    0    0    0  0.24377611467E+02 -0.10663499078E+02 -0.17848159383E+01  0.26667862408E+02  0.10566000000E+00 0.  1.
         22    1    1    0    0    0 -0.56968326003E+02  0.25387907739E+02  0.40266043448E+01  0.62499196551E+02  0.00000000000E+00 0. -1.
</event>
<event>
 4    1  0.9925048E-003  0.9118800E+02  0.7818608E-02  0.1130116E+00
         25   -1    0    0    0    0  0.00000000000E+00  0.00000000000E+00  0.99999998245E-14  0.12500000000E+03  0.12500000000E+03 0.  0.
        -13    1    1    0    0    0  0.27839130108E+02  0.27861068579E+02 -0.56094298175E+01  0.39783579206E+02  0.10566000000E+00 0. -1.
         13    1    1    0    0    0  0.13882595751E+02  0.16697859667E+02 -0.71352571670E+01  0.22857559824E+02  0.10566000000E+00 0.  1.
         22    1    1    0    0    0 -0.41721725859E+02 -0.44558928246E+02  0.12744686984E+02  0.62358860970E+02  0.00000000000E+00 0. -1.
</event>
<event>
 4    1  0.9925048E-003  0.9118800E+02  0.7818608E-02  0.1130116E+00
         25   -1    0    0    0    0  0.00000000000E+00  0.00000000000E+00  0.99999998245E-14  0.12500000000E+03  0.12500000000E+03 0.  0.
        -13    1    1    0    0    0  0.31466058871E+02 -0.22135514543E+02  0.47229453279E+01  0.38760949956E+02  0.10566000000E+00 0. -1.
         13    1    1    0    0    0  0.20674293712E+02 -0.11888752535E+02 -0.14786518032E+01  0.23894903903E+02  0.10566000000E+00 0.  1.
         22    1    1    0    0    0 -0.52140352582E+02  0.34024267078E+02 -0.32442935247E+01  0.62344146141E+02  0.00000000000E+00 0. -1.
</event>
<event>
 4    1  0.9925048E-003  0.9118800E+02  0.7818608E-02  0.1130116E+00
         25   -1    0    0    0    0  0.00000000000E+00  0.00000000000E+00  0.99999998245E-14  0.12500000000E+03  0.12500000000E+03 0.  0.
        -13    1    1    0    0    0 -0.16367737263E+02  0.20177286420E+02  0.41030423947E+02  0.48564725508E+02  0.10566000000E+00 0. -1.
         13    1    1    0    0    0  0.48097349776E-01  0.19505861915E+01  0.14415043550E+02  0.14546880918E+02  0.10566000000E+00 0.  1.
         22    1    1    0    0    0  0.16319639913E+02 -0.22127872611E+02 -0.55445467497E+02  0.61888393574E+02  0.00000000000E+00 0. -1.
</event>
<event>
 4    1  0.9925048E-003  0.9118800E+02  0.7818608E-02  0.1130116E+00
         25   -1    0    0    0    0  0.00000000000E+00  0.00000000000E+00  0.99999998245E-14  0.12500000000E+03  0.12500000000E+03 0.  0.
        -13    1    1    0    0    0 -0.17231247952E+02 -0.14976537950E+02  0.49344667258E+02  0.54370211934E+02  0.10566000000E+00 0. -1.
         13    1    1    0    0    0 -0.45381287849E+01  0.15662438120E+01  0.71532871247E+01  0.86155912897E+01  0.10566000000E+00 0.  1.
         22    1    1    0    0    0  0.21769376737E+02  0.13410294138E+02 -0.56497954383E+02  0.62014196776E+02  0.00000000000E+00 0. -1.
</event>
<event>
 4    1  0.9925048E-003  0.9118800E+02  0.7818608E-02  0.1130116E+00
         25   -1    0    0    0    0  0.00000000000E+00  0.00000000000E+00  0.99999998245E-14  0.12500000000E+03  0.12500000000E+03 0.  0.
        -13    1    1    0    0    0  0.18753273749E+02  0.38574362253E+02 -0.14783342845E+02  0.45367665680E+02  0.10566000000E+00 0.  1.
         13    1    1    0    0    0  0.75083694898E+01  0.14346917904E+02 -0.56024532184E+01  0.17135002534E+02  0.10566000000E+00 0. -1.
         22    1    1    0    0    0 -0.26261643239E+02 -0.52921280158E+02  0.20385796064E+02  0.62497331785E+02  0.00000000000E+00 0.  1.
</event>
<event>
 4    1  0.9925048E-003  0.9118800E+02  0.7818608E-02  0.1130116E+00
         25   -1    0    0    0    0  0.00000000000E+00  0.00000000000E+00  0.99999998245E-14  0.12500000000E+03  0.12500000000E+03 0.  0.
        -13    1    1    0    0    0 -0.30086763860E+02  0.10714423721E+02 -0.36694326543E+02  0.48646654559E+02  0.10566000000E+00 0. -1.
         13    1    1    0    0    0 -0.10886674648E+02  0.98370107723E+00 -0.87903218988E+01  0.14027411587E+02  0.10566000000E+00 0.  1.
         22    1    1    0    0    0  0.40973438508E+02 -0.11698124799E+02  0.45484648442E+02  0.62325933855E+02  0.00000000000E+00 0. -1.
</event>
<event>
 4    1  0.9925048E-003  0.9118800E+02  0.7818608E-02  0.1130116E+00
         25   -1    0    0    0    0  0.00000000000E+00  0.00000000000E+00  0.99999998245E-14  0.12500000000E+03  0.12500000000E+03 0.  0.
        -13    1    1    0    0    0  0.10151906697E+02  0.69991716800E+01  0.22806931935E+01  0.12540428193E+02  0.10566000000E+00 0.  1.
         13    1    1    0    0    0  0.40475293149E+02  0.27963720125E+02  0.87046997351E+01  0.49960003605E+02  0.10566000000E+00 0.  1.
         22    1    1    0    0    0 -0.50627199846E+02 -0.34962891805E+02 -0.10985392929E+02  0.62499568202E+02  0.00000000000E+00 0.  1.
</event>
<event>
 4    1  0.9925048E-003  0.9118800E+02  0.7818608E-02  0.1130116E+00
         25   -1    0    0    0    0  0.00000000000E+00  0.00000000000E+00  0.99999998245E-14  0.12500000000E+03  0.12500000000E+03 0.  0.
        -13    1    1    0    0    0 -0.27400060059E+01  0.37469386074E+02 -0.11360558168E+02  0.39249662057E+02  0.10566000000E+00 0.  1.
         13    1    1    0    0    0 -0.17457645770E+01  0.22180899730E+02 -0.67483951103E+01  0.23250634559E+02  0.10566000000E+00 0. -1.
         22    1    1    0    0    0  0.44857705829E+01 -0.59650285804E+02  0.18108953278E+02  0.62499703384E+02  0.00000000000E+00 0.  1.
</event>
<event>
 4    1  0.9925048E-003  0.9118800E+02  0.7818608E-02  0.1130116E+00
         25   -1    0    0    0    0  0.00000000000E+00  0.00000000000E+00  0.99999998245E-14  0.12500000000E+03  0.12500000000E+03 0.  0.
        -13    1    1    0    0    0 -0.77065016417E+01  0.55150785815E+02 -0.16981235180E+01  0.55712602982E+02  0.10566000000E+00 0. -1.
         13    1    1    0    0    0 -0.10524386422E+01  0.66997213562E+01 -0.27971612011E+00  0.67884680518E+01  0.10566000000E+00 0.  1.
         22    1    1    0    0    0  0.87589402839E+01 -0.61850507171E+02  0.19778396381E+01  0.62498928966E+02  0.00000000000E+00 0. -1.
</event>
<event>
 4    1  0.9925048E-003  0.9118800E+02  0.7818608E-02  0.1130116E+00
         25   -1    0    0    0    0  0.00000000000E+00  0.00000000000E+00  0.99999998245E-14  0.12500000000E+03  0.12500000000E+03 0.  0.
        -13    1    1    0    0    0  0.74575205140E-01  0.68966627856E+01 -0.15444136171E+01  0.70686559187E+01  0.10566000000E+00 0.  1.
         13    1    1    0    0    0  0.64379576911E+00  0.54039536118E+02 -0.12328387317E+02  0.55431816087E+02  0.10566000000E+00 0.  1.
         22    1    1    0    0    0 -0.71837097425E+00 -0.60936198904E+02  0.13872800934E+02  0.62499527994E+02  0.00000000000E+00 0.  1.
</event>
<event>
 4    1  0.9925048E-003  0.9118800E+02  0.7818608E-02  0.1130116E+00
         25   -1    0    0    0    0  0.00000000000E+00  0.00000000000E+00  0.99999998245E-14  0.12500000000E+03  0.12500000000E+03 0.  0.
        -13    1    1    0    0    0 -0.59649221871E+01  0.37540487834E+01  0.80840838066E+00  0.70949184006E+01  0.10566000000E+00 0.  1.
         13    1    1    0    0    0  0.57882042232E+02 -0.18012279800E+02  0.13692231851E+02  0.62147094973E+02  0.10566000000E+00 0. -1.
         22    1    1    0    0    0 -0.51917120045E+02  0.14258231017E+02 -0.14500640232E+02  0.55757986626E+02  0.00000000000E+00 0. -1.
</event>
<event>
 4    1  0.9925048E-003  0.9118800E+02  0.7818608E-02  0.1130116E+00
         25   -1    0    0    0    0  0.00000000000E+00  0.00000000000E+00  0.99999998245E-14  0.12500000000E+03  0.12500000000E+03 0.  0.
        -13    1    1    0    0    0  0.12028224654E+01  0.10042913827E+02 -0.75511514750E+01  0.12622913794E+02  0.10566000000E+00 0. -1.
         13    1    1    0    0    0  0.58763322202E+01  0.39060720196E+02 -0.30457750038E+02  0.49879423052E+02  0.10566000000E+00 0. -1.
         22    1    1    0    0    0 -0.70791546856E+01 -0.49103634024E+02  0.38008901513E+02  0.62497663153E+02  0.00000000000E+00 0. -1.
</event>
<event>
 4    1  0.9925048E-003  0.9118800E+02  0.7818608E-02  0.1130116E+00
         25   -1    0    0    0    0  0.00000000000E+00  0.00000000000E+00  0.99999998245E-14  0.12500000000E+03  0.12500000000E+03 0.  0.
        -13    1    1    0    0    0 -0.12516261234E+02  0.14302983889E+02 -0.55823038618E+01  0.19809225726E+02  0.10566000000E+00 0. -1.
         13    1    1    0    0    0 -0.26151297281E+02  0.32008328810E+02 -0.10709395190E+02  0.42698076913E+02  0.10566000000E+00 0.  1.
         22    1    1    0    0    0  0.38667558515E+02 -0.46311312699E+02  0.16291699051E+02  0.62492697361E+02  0.00000000000E+00 0.  1.
</event>
<event>
 4    1  0.9925048E-003  0.9118800E+02  0.7818608E-02  0.1130116E+00
         25   -1    0    0    0    0  0.00000000000E+00  0.00000000000E+00  0.99999998245E-14  0.12500000000E+03  0.12500000000E+03 0.  0.
        -13    1    1    0    0    0  0.29210008760E+02  0.97862081768E+00  0.10973755568E+02  0.31218853050E+02  0.10566000000E+00 0. -1.
         13    1    1    0    0    0  0.29437823786E+02 -0.87426146835E-01  0.10594775165E+02  0.31286635124E+02  0.10566000000E+00 0.  1.
         22    1    1    0    0    0 -0.58647832546E+02 -0.89119467084E+00 -0.21568530733E+02  0.62494511825E+02  0.00000000000E+00 0.  1.
</event>
<event>
 4    1  0.9925048E-003  0.9118800E+02  0.7818608E-02  0.1130116E+00
         25   -1    0    0    0    0  0.00000000000E+00  0.00000000000E+00  0.99999998245E-14  0.12500000000E+03  0.12500000000E+03 0.  0.
        -13    1    1    0    0    0 -0.25955299897E+02 -0.34817931942E+02 -0.17559535617E+02  0.46843510037E+02  0.10566000000E+00 0.  1.
         13    1    1    0    0    0  0.36191057642E+02 -0.35323290803E+01  0.63719414755E+01  0.36917242641E+02  0.10566000000E+00 0. -1.
         22    1    1    0    0    0 -0.10235757745E+02  0.38350261022E+02  0.11187594142E+02  0.41239247323E+02  0.00000000000E+00 0.  1.
</event>
<event>
 4    1  0.9925048E-003  0.9118800E+02  0.7818608E-02  0.1130116E+00
         25   -1    0    0    0    0  0.00000000000E+00  0.00000000000E+00  0.99999998245E-14  0.12500000000E+03  0.12500000000E+03 0.  0.
        -13    1    1    0    0    0  0.16585841843E+02  0.31185592796E+02 -0.10319097493E+02  0.36798454924E+02  0.10566000000E+00 0.  1.
         13    1    1    0    0    0  0.59520882060E+01  0.23951986817E+02 -0.78955086165E+01  0.25912839421E+02  0.10566000000E+00 0. -1.
         22    1    1    0    0    0 -0.22537930049E+02 -0.55137579613E+02  0.18214606110E+02  0.62288705655E+02  0.00000000000E+00 0.  1.
</event>
<event>
 4    1  0.9925048E-003  0.9118800E+02  0.7818608E-02  0.1130116E+00
         25   -1    0    0    0    0  0.00000000000E+00  0.00000000000E+00  0.99999998245E-14  0.12500000000E+03  0.12500000000E+03 0.  0.
        -13    1    1    0    0    0  0.45586314727E+02  0.10028532448E+02  0.12329306333E+02  0.48277391315E+02  0.10566000000E+00 0.  1.
         13    1    1    0    0    0 -0.38056727305E+02 -0.32944986720E+02 -0.14821120206E+02  0.52472501478E+02  0.10566000000E+00 0. -1.
         22    1    1    0    0    0 -0.75295874227E+01  0.22916454273E+02  0.24918138726E+01  0.24250107207E+02  0.00000000000E+00 0.  1.
</event>
<event>
 4    1  0.9925048E-003  0.9118800E+02  0.7818608E-02  0.1130116E+00
         25   -1    0    0    0    0  0.00000000000E+00  0.00000000000E+00  0.99999998245E-14  0.12500000000E+03  0.12500000000E+03 0.  0.
        -13    1    1    0    0    0 -0.23044160416E+02  0.91473474219E+01  0.40378868822E+02  0.47383240766E+02  0.10566000000E+00 0.  1.
         13    1    1    0    0    0 -0.15871838101E+02 -0.93879994697E+01  0.37087946989E+01  0.18810000024E+02  0.10566000000E+00 0. -1.
         22    1    1    0    0    0  0.38915998517E+02  0.24065204786E+00 -0.44087663521E+02  0.58806759210E+02  0.00000000000E+00 0.  1.
</event>
<event>
 4    1  0.9925048E-003  0.9118800E+02  0.7818608E-02  0.1130116E+00
         25   -1    0    0    0    0  0.00000000000E+00  0.00000000000E+00  0.99999998245E-14  0.12500000000E+03  0.12500000000E+03 0.  0.
        -13    1    1    0    0    0  0.40223596218E+02 -0.44420275739E+01 -0.36415026606E+02  0.54440193133E+02  0.10566000000E+00 0.  1.
         13    1    1    0    0    0  0.60224309147E+01  0.43948514552E+01 -0.45874689785E+01  0.87544519589E+01  0.10566000000E+00 0. -1.
         22    1    1    0    0    0 -0.46246027133E+02  0.47176118740E-01  0.41002495584E+02  0.61805354908E+02  0.00000000000E+00 0.  1.
</event>
<event>
 4    1  0.9925048E-003  0.9118800E+02  0.7818608E-02  0.1130116E+00
         25   -1    0    0    0    0  0.00000000000E+00  0.00000000000E+00  0.99999998245E-14  0.12500000000E+03  0.12500000000E+03 0.  0.
        -13    1    1    0    0    0 -0.20877255212E+02  0.13621634190E+02  0.39796257008E+02  0.46959151814E+02  0.10566000000E+00 0. -1.
         13    1    1    0    0    0 -0.10066696099E+02 -0.15178911042E+01  0.12475446942E+02  0.16102493725E+02  0.10566000000E+00 0.  1.
         22    1    1    0    0    0  0.30943951311E+02 -0.12103743086E+02 -0.52271703950E+02  0.61938354460E+02  0.00000000000E+00 0.  1.
</event>
<event>
 4    1  0.9925048E-003  0.9118800E+02  0.7818608E-02  0.1130116E+00
         25   -1    0    0    0    0  0.00000000000E+00  0.00000000000E+00  0.99999998245E-14  0.12500000000E+03  0.12500000000E+03 0.  0.
        -13    1    1    0    0    0  0.29539643302E+02  0.10821495072E+02  0.20260141576E+02  0.37418976238E+02  0.10566000000E+00 0. -1.
         13    1    1    0    0    0  0.19776749038E+02  0.64755807146E+01  0.14008541918E+02  0.25085919533E+02  0.10566000000E+00 0.  1.
         22    1    1    0    0    0 -0.49316392340E+02 -0.17297075786E+02 -0.34268683494E+02  0.62495104229E+02  0.00000000000E+00 0.  1.
</event>
<event>
 4    1  0.9925048E-003  0.9118800E+02  0.7818608E-02  0.1130116E+00
         25   -1    0    0    0    0  0.00000000000E+00  0.00000000000E+00  0.99999998245E-14  0.12500000000E+03  0.12500000000E+03 0.  0.
        -13    1    1    0    0    0 -0.26706286887E+01  0.92195588449E+01 -0.45189463716E+02  0.46197741480E+02  0.10566000000E+00 0. -1.
         13    1    1    0    0    0 -0.21829934629E+02  0.91670493811E+01 -0.63128407868E+00  0.23685238523E+02  0.10566000000E+00 0.  1.
         22    1    1    0    0    0  0.24500563318E+02 -0.18386608226E+02  0.45820747794E+02  0.55117019997E+02  0.00000000000E+00 0. -1.
</event>
<event>
 4    1  0.9925048E-003  0.9118800E+02  0.7818608E-02  0.1130116E+00
         25   -1    0    0    0    0  0.00000000000E+00  0.00000000000E+00  0.99999998245E-14  0.12500000000E+03  0.12500000000E+03 0.  0.
        -13    1    1    0    0    0  0.16213258361E+02  0.96809805443E+01 -0.25233659764E+02  0.31517294936E+02  0.10566000000E+00 0. -1.
         13    1    1    0    0    0  0.15951557069E+01  0.90686617634E+01 -0.30597848433E+02  0.31953476190E+02  0.10566000000E+00 0.  1.
         22    1    1    0    0    0 -0.17808414068E+02 -0.18749642308E+02  0.55831508197E+02  0.61529228874E+02  0.00000000000E+00 0.  1.
</event>
<event>
 4    1  0.9925048E-003  0.9118800E+02  0.7818608E-02  0.1130116E+00
         25   -1    0    0    0    0  0.00000000000E+00  0.00000000000E+00  0.99999998245E-14  0.12500000000E+03  0.12500000000E+03 0.  0.
        -13    1    1    0    0    0  0.76689995909E+00 -0.89022303144E-01  0.38795601407E+00  0.87047942087E+00  0.10566000000E+00 0. -1.
         13    1    1    0    0    0  0.45507223061E+02  0.40891888379E+02  0.86071296567E+01  0.61783069938E+02  0.10566000000E+00 0.  1.
         22    1    1    0    0    0 -0.46274123020E+02 -0.40802866076E+02 -0.89950856708E+01  0.62346450641E+02  0.00000000000E+00 0.  1.
</event>
<event>
 4    1  0.9925048E-003  0.9118800E+02  0.7818608E-02  0.1130116E+00
         25   -1    0    0    0    0  0.00000000000E+00  0.00000000000E+00  0.99999998245E-14  0.12500000000E+03  0.12500000000E+03 0.  0.
        -13    1    1    0    0    0  0.55266825342E+01 -0.15786030989E+02  0.21688747290E-01  0.16725867053E+02  0.10566000000E+00 0.  1.
         13    1    1    0    0    0  0.15943863480E+02 -0.42902184173E+02  0.80844973070E+00  0.45776292385E+02  0.10566000000E+00 0. -1.
         22    1    1    0    0    0 -0.21470546014E+02  0.58688215162E+02 -0.83013847799E+00  0.62497840563E+02  0.00000000000E+00 0. -1.
</event>
<event>
 4    1  0.9925048E-003  0.9118800E+02  0.7818608E-02  0.1130116E+00
         25   -1    0    0    0    0  0.00000000000E+00  0.00000000000E+00  0.99999998245E-14  0.12500000000E+03  0.12500000000E+03 0.  0.
        -13    1    1    0    0    0  0.42538069760E+02 -0.13158592689E+02 -0.39434279182E+01  0.44701204998E+02  0.10566000000E+00 0. -1.
         13    1    1    0    0    0  0.15261734101E+02 -0.94956145749E+01 -0.11339682179E+01  0.18010671056E+02  0.10566000000E+00 0.  1.
         22    1    1    0    0    0 -0.57799803862E+02  0.22654207264E+02  0.50773961360E+01  0.62288123946E+02  0.00000000000E+00 0. -1.
</event>
<event>
 4    1  0.9925048E-003  0.9118800E+02  0.7818608E-02  0.1130116E+00
         25   -1    0    0    0    0  0.00000000000E+00  0.00000000000E+00  0.99999998245E-14  0.12500000000E+03  0.12500000000E+03 0.  0.
        -13    1    1    0    0    0  0.27108518966E+02 -0.81815490437E+01  0.51695628338E+02  0.58942842641E+02  0.10566000000E+00 0.  1.
         13    1    1    0    0    0  0.13019137325E+01 -0.81268017392E+00  0.32246861264E+01  0.35728410378E+01  0.10566000000E+00 0. -1.
         22    1    1    0    0    0 -0.28410432699E+02  0.89942292177E+01 -0.54920314464E+02  0.62484316322E+02  0.00000000000E+00 0.  1.
</event>
<event>
 4    1  0.9925048E-003  0.9118800E+02  0.7818608E-02  0.1130116E+00
         25   -1    0    0    0    0  0.00000000000E+00  0.00000000000E+00  0.99999998245E-14  0.12500000000E+03  0.12500000000E+03 0.  0.
        -13    1    1    0    0    0  0.34150498601E+02 -0.25008144515E+02  0.79457826428E+01  0.43067510639E+02  0.10566000000E+00 0.  1.
         13    1    1    0    0    0  0.15486110206E+02 -0.11165967412E+02  0.36231862755E+01  0.19432886568E+02  0.10566000000E+00 0.  1.
         22    1    1    0    0    0 -0.49636608806E+02  0.36174111927E+02 -0.11568968918E+02  0.62499602793E+02  0.00000000000E+00 0.  1.
</event>
<event>
 4    1  0.9925048E-003  0.9118800E+02  0.7818608E-02  0.1130116E+00
         25   -1    0    0    0    0  0.00000000000E+00  0.00000000000E+00  0.99999998245E-14  0.12500000000E+03  0.12500000000E+03 0.  0.
        -13    1    1    0    0    0 -0.44518807975E+00 -0.25142451398E+01 -0.12830103114E+01  0.28595280282E+01  0.10566000000E+00 0. -1.
         13    1    1    0    0    0 -0.41818325576E+01 -0.54738131682E+02 -0.23330916357E+02  0.59649757800E+02  0.10566000000E+00 0.  1.
         22    1    1    0    0    0  0.46270206374E+01  0.57252376821E+02  0.24613926668E+02  0.62490714172E+02  0.00000000000E+00 0.  1.
</event>
<event>
 4    1  0.9925048E-003  0.9118800E+02  0.7818608E-02  0.1130116E+00
         25   -1    0    0    0    0  0.00000000000E+00  0.00000000000E+00  0.99999998245E-14  0.12500000000E+03  0.12500000000E+03 0.  0.
        -13    1    1    0    0    0  0.15497381852E+02  0.46931813160E+01 -0.13220068478E+02  0.20903974974E+02  0.10566000000E+00 0. -1.
         13    1    1    0    0    0  0.30953175745E+02  0.91796263723E+01 -0.26227422631E+02  0.41596315834E+02  0.10566000000E+00 0. -1.
         22    1    1    0    0    0 -0.46450557597E+02 -0.13872807688E+02  0.39447491109E+02  0.62499709192E+02  0.00000000000E+00 0. -1.
</event>
<event>
 4    1  0.9925048E-003  0.9118800E+02  0.7818608E-02  0.1130116E+00
         25   -1    0    0    0    0  0.00000000000E+00  0.00000000000E+00  0.99999998245E-14  0.12500000000E+03  0.12500000000E+03 0.  0.
        -13    1    1    0    0    0  0.20243180331E+02 -0.27857419463E+02  0.38825892208E+02  0.51896851917E+02  0.10566000000E+00 0.  1.
         13    1    1    0    0    0 -0.51371285413E+00 -0.85618443680E+01  0.71889953205E+01  0.11192046177E+02  0.10566000000E+00 0. -1.
         22    1    1    0    0    0 -0.19729467477E+02  0.36419263831E+02 -0.46014887528E+02  0.61911101906E+02  0.00000000000E+00 0.  1.
</event>
<event>
 4    1  0.9925048E-003  0.9118800E+02  0.7818608E-02  0.1130116E+00
         25   -1    0    0    0    0  0.00000000000E+00  0.00000000000E+00  0.99999998245E-14  0.12500000000E+03  0.12500000000E+03 0.  0.
        -13    1    1    0    0    0 -0.32689119987E+02  0.96607899636E+01 -0.87398278554E+01  0.35189560713E+02  0.10566000000E+00 0. -1.
         13    1    1    0    0    0 -0.26258922025E+02 -0.28200681095E+01 -0.89514524289E+01  0.27885900285E+02  0.10566000000E+00 0.  1.
         22    1    1    0    0    0  0.58948042012E+02 -0.68407218541E+01  0.17691280284E+02  0.61924539002E+02  0.00000000000E+00 0. -1.
</event>
<event>
 4    1  0.9925048E-003  0.9118800E+02  0.7818608E-02  0.1130116E+00
         25   -1    0    0    0    0  0.00000000000E+00  0.00000000000E+00  0.99999998245E-14  0.12500000000E+03  0.12500000000E+03 0.  0.
        -13    1    1    0    0    0  0.16017967635E+01  0.21306849062E+02 -0.12235769533E+02  0.24622607294E+02  0.10566000000E+00 0.  1.
         13    1    1    0    0    0  0.54767530024E+01  0.34920338949E+02 -0.13884489768E+02  0.37976507421E+02  0.10566000000E+00 0. -1.
         22    1    1    0    0    0 -0.70785497659E+01 -0.56227188011E+02  0.26120259302E+02  0.62400885285E+02  0.00000000000E+00 0. -1.
</event>
<event>
 4    1  0.9925048E-003  0.9118800E+02  0.7818608E-02  0.1130116E+00
         25   -1    0    0    0    0  0.00000000000E+00  0.00000000000E+00  0.99999998245E-14  0.12500000000E+03  0.12500000000E+03 0.  0.
        -13    1    1    0    0    0 -0.33443210301E+02  0.13123400235E+02  0.16111761849E+01  0.35962188500E+02  0.10566000000E+00 0. -1.
         13    1    1    0    0    0 -0.24036083589E+02  0.11129530366E+02  0.18732287893E+01  0.26554094046E+02  0.10566000000E+00 0.  1.
         22    1    1    0    0    0  0.57479293890E+02 -0.24252930601E+02 -0.34844049742E+01  0.62483717454E+02  0.00000000000E+00 0.  1.
</event>
<event>
 4    1  0.9925048E-003  0.9118800E+02  0.7818608E-02  0.1130116E+00
         25   -1    0    0    0    0  0.00000000000E+00  0.00000000000E+00  0.99999998245E-14  0.12500000000E+03  0.12500000000E+03 0.  0.
        -13    1    1    0    0    0 -0.79949418911E+01  0.18730643561E+01 -0.75694591348E+01  0.11168497730E+02  0.10566000000E+00 0. -1.
         13    1    1    0    0    0 -0.36785419741E+02  0.13609770454E+02 -0.33151551285E+02  0.51355909825E+02  0.10566000000E+00 0.  1.
         22    1    1    0    0    0  0.44780361632E+02 -0.15482834810E+02  0.40721010420E+02  0.62475592444E+02  0.00000000000E+00 0.  1.
</event>
<event>
 4    1  0.9925048E-003  0.9118800E+02  0.7818608E-02  0.1130116E+00
         25   -1    0    0    0    0  0.00000000000E+00  0.00000000000E+00  0.99999998245E-14  0.12500000000E+03  0.12500000000E+03 0.  0.
        -13    1    1    0    0    0 -0.39935922536E-01  0.16575694178E+01 -0.21842668439E+01  0.27443244950E+01  0.10566000000E+00 0. -1.
         13    1    1    0    0    0  0.12890847948E+01  0.29460837594E+02 -0.51988001707E+02  0.59769274522E+02  0.10566000000E+00 0.  1.
         22    1    1    0    0    0 -0.12491488723E+01 -0.31118407011E+02  0.54172268551E+02  0.62486400983E+02  0.00000000000E+00 0.  1.
</event>
<event>
 4    1  0.9925048E-003  0.9118800E+02  0.7818608E-02  0.1130116E+00
         25   -1    0    0    0    0  0.00000000000E+00  0.00000000000E+00  0.99999998245E-14  0.12500000000E+03  0.12500000000E+03 0.  0.
        -13    1    1    0    0    0  0.84498427587E+01  0.15134060717E+02  0.21716776068E+02  0.27786132571E+02  0.10566000000E+00 0.  1.
         13    1    1    0    0    0  0.10326073127E+02  0.18987400918E+02  0.27164651443E+02  0.34714242494E+02  0.10566000000E+00 0. -1.
         22    1    1    0    0    0 -0.18775915886E+02 -0.34121461635E+02 -0.48881427511E+02  0.62499624935E+02  0.00000000000E+00 0. -1.
</event>
<event>
 4    1  0.9925048E-003  0.9118800E+02  0.7818608E-02  0.1130116E+00
         25   -1    0    0    0    0  0.00000000000E+00  0.00000000000E+00  0.99999998245E-14  0.12500000000E+03  0.12500000000E+03 0.  0.
        -13    1    1    0    0    0  0.28542185994E+01  0.48685622296E+02  0.17628610051E+02  0.51857645902E+02  0.10566000000E+00 0. -1.
         13    1    1    0    0    0 -0.35953707350E+01  0.87422542705E+01  0.58267305129E+01  0.11104758122E+02  0.10566000000E+00 0.  1.
         22    1    1    0    0    0  0.74115213555E+00 -0.57427876566E+02 -0.23455340564E+02  0.62037595975E+02  0.00000000000E+00 0. -1.
</event>
<event>
 4    1  0.9925048E-003  0.9118800E+02  0.7818608E-02  0.1130116E+00
         25   -1    0    0    0    0  0.00000000000E+00  0.00000000000E+00  0.99999998245E-14  0.12500000000E+03  0.12500000000E+03 0.  0.
        -13    1    1    0    0    0 -0.24279717602E+02 -0.37819662157E+01 -0.12423215009E+02  0.27534621669E+02  0.10566000000E+00 0. -1.
         13    1    1    0    0    0 -0.31702711781E+02 -0.14467525126E+02 -0.68393339260E+01  0.35512798681E+02  0.10566000000E+00 0.  1.
         22    1    1    0    0    0  0.55982429383E+02  0.18249491342E+02  0.19262548935E+02  0.61952579650E+02  0.00000000000E+00 0.  1.
</event>
<event>
 4    1  0.9925048E-003  0.9118800E+02  0.7818608E-02  0.1130116E+00
         25   -1    0    0    0    0  0.00000000000E+00  0.00000000000E+00  0.99999998245E-14  0.12500000000E+03  0.12500000000E+03 0.  0.
        -13    1    1    0    0    0 -0.11479725947E+02 -0.22710349782E+01  0.57427388008E+02  0.58607659612E+02  0.10566000000E+00 0. -1.
         13    1    1    0    0    0 -0.33032526521E+01 -0.35375224851E+01  0.17291074084E+01  0.51406730962E+01  0.10566000000E+00 0.  1.
         22    1    1    0    0    0  0.14782978599E+02  0.58085574634E+01 -0.59156495417E+02  0.61251667292E+02  0.00000000000E+00 0. -1.
</event>
<event>
 4    1  0.9925048E-003  0.9118800E+02  0.7818608E-02  0.1130116E+00
         25   -1    0    0    0    0  0.00000000000E+00  0.00000000000E+00  0.99999998245E-14  0.12500000000E+03  0.12500000000E+03 0.  0.
        -13    1    1    0    0    0  0.15905725645E+01 -0.57824768984E+02 -0.65510852330E+01  0.58216507203E+02  0.10566000000E+00 0. -1.
         13    1    1    0    0    0 -0.15985784476E+00 -0.42673684844E+01 -0.38396173198E+00  0.42888901780E+01  0.10566000000E+00 0.  1.
         22    1    1    0    0    0 -0.14307147198E+01  0.62092137469E+02  0.69350469650E+01  0.62494602619E+02  0.00000000000E+00 0. -1.
</event>
<event>
 4    1  0.9925048E-003  0.9118800E+02  0.7818608E-02  0.1130116E+00
         25   -1    0    0    0    0  0.00000000000E+00  0.00000000000E+00  0.99999998245E-14  0.12500000000E+03  0.12500000000E+03 0.  0.
        -13    1    1    0    0    0 -0.88122115151E+01  0.39510684081E+01  0.84053834022E+00  0.96945181463E+01  0.10566000000E+00 0. -1.
         13    1    1    0    0    0 -0.30115101205E+02  0.41675150167E+02 -0.15234194293E+02  0.53626759196E+02  0.10566000000E+00 0.  1.
         22    1    1    0    0    0  0.38927312720E+02 -0.45626218575E+02  0.14393655953E+02  0.61678722658E+02  0.00000000000E+00 0.  1.
</event>
<event>
 4    1  0.9925048E-003  0.9118800E+02  0.7818608E-02  0.1130116E+00
         25   -1    0    0    0    0  0.00000000000E+00  0.00000000000E+00  0.99999998245E-14  0.12500000000E+03  0.12500000000E+03 0.  0.
        -13    1    1    0    0    0 -0.55739477573E+01 -0.12564830235E+02  0.12692810535E+02  0.18709956060E+02  0.10566000000E+00 0.  1.
         13    1    1    0    0    0 -0.15864014269E+02 -0.27316109245E+02  0.30358627699E+02  0.43812032740E+02  0.10566000000E+00 0. -1.
         22    1    1    0    0    0  0.21437962026E+02  0.39880939480E+02 -0.43051438233E+02  0.62478011201E+02  0.00000000000E+00 0. -1.
</event>
<event>
 4    1  0.9925048E-003  0.9118800E+02  0.7818608E-02  0.1130116E+00
         25   -1    0    0    0    0  0.00000000000E+00  0.00000000000E+00  0.99999998245E-14  0.12500000000E+03  0.12500000000E+03 0.  0.
        -13    1    1    0    0    0 -0.24978433208E+00  0.41182291647E+02  0.14308280511E+01  0.41208032839E+02  0.10566000000E+00 0. -1.
         13    1    1    0    0    0  0.31785077902E+02 -0.32649263097E+02  0.13990666685E+02  0.47665663494E+02  0.10566000000E+00 0.  1.
         22    1    1    0    0    0 -0.31535293570E+02 -0.85330285503E+01 -0.15421494736E+02  0.36126303667E+02  0.00000000000E+00 0.  1.
</event>
<event>
 4    1  0.9925048E-003  0.9118800E+02  0.7818608E-02  0.1130116E+00
         25   -1    0    0    0    0  0.00000000000E+00  0.00000000000E+00  0.99999998245E-14  0.12500000000E+03  0.12500000000E+03 0.  0.
        -13    1    1    0    0    0  0.31960582098E+02 -0.34633081643E+01 -0.48100500657E+02  0.57854495409E+02  0.10566000000E+00 0.  1.
         13    1    1    0    0    0  0.47536457143E+01 -0.19439498042E+01 -0.13572510739E+01  0.53131330617E+01  0.10566000000E+00 0. -1.
         22    1    1    0    0    0 -0.36714227813E+02  0.54072579685E+01  0.49457751731E+02  0.61832371529E+02  0.00000000000E+00 0.  1.
</event>
<event>
 4    1  0.9925048E-003  0.9118800E+02  0.7818608E-02  0.1130116E+00
         25   -1    0    0    0    0  0.00000000000E+00  0.00000000000E+00  0.99999998245E-14  0.12500000000E+03  0.12500000000E+03 0.  0.
        -13    1    1    0    0    0 -0.43909033748E-01 -0.95388139875E+00  0.43790498258E+00  0.10558136841E+01  0.10566000000E+00 0.  1.
         13    1    1    0    0    0  0.11208881017E+01 -0.61172761473E+02  0.59948560024E+01  0.61476114052E+02  0.10566000000E+00 0. -1.
         22    1    1    0    0    0 -0.10769790679E+01  0.62126642872E+02 -0.64327609850E+01  0.62468072264E+02  0.00000000000E+00 0. -1.
</event>
<event>
 4    1  0.9925048E-003  0.9118800E+02  0.7818608E-02  0.1130116E+00
         25   -1    0    0    0    0  0.00000000000E+00  0.00000000000E+00  0.99999998245E-14  0.12500000000E+03  0.12500000000E+03 0.  0.
        -13    1    1    0    0    0  0.21567273209E+02 -0.46810170297E+02 -0.11778280745E+02  0.52868500813E+02  0.10566000000E+00 0. -1.
         13    1    1    0    0    0  0.37160088449E+01 -0.85452773917E+01 -0.24471374942E+01  0.96348395621E+01  0.10566000000E+00 0.  1.
         22    1    1    0    0    0 -0.25283282054E+02  0.55355447688E+02  0.14225418240E+02  0.62496659625E+02  0.00000000000E+00 0. -1.
</event>
<event>
 4    1  0.9925048E-003  0.9118800E+02  0.7818608E-02  0.1130116E+00
         25   -1    0    0    0    0  0.00000000000E+00  0.00000000000E+00  0.99999998245E-14  0.12500000000E+03  0.12500000000E+03 0.  0.
        -13    1    1    0    0    0 -0.26095166152E+01  0.58546373385E+00 -0.93150007160E+01  0.96918907920E+01  0.10566000000E+00 0. -1.
         13    1    1    0    0    0 -0.42407641525E+02 -0.14822799188E+02 -0.29872682528E+02  0.53949159038E+02  0.10566000000E+00 0.  1.
         22    1    1    0    0    0  0.45017158140E+02  0.14237335455E+02  0.39187683244E+02  0.61358950170E+02  0.00000000000E+00 0.  1.
</event>
<event>
 4    1  0.9925048E-003  0.9118800E+02  0.7818608E-02  0.1130116E+00
         25   -1    0    0    0    0  0.00000000000E+00  0.00000000000E+00  0.99999998245E-14  0.12500000000E+03  0.12500000000E+03 0.  0.
        -13    1    1    0    0    0  0.10875167592E+02 -0.14747093113E+02 -0.11651767050E+02  0.21714531192E+02  0.10566000000E+00 0. -1.
         13    1    1    0    0    0  0.41617184099E+02  0.17571639035E+02 -0.10273214487E+02  0.46328205346E+02  0.10566000000E+00 0.  1.
         22    1    1    0    0    0 -0.52492351691E+02 -0.28245459217E+01  0.21924981537E+02  0.56957263462E+02  0.00000000000E+00 0. -1.
</event>
<event>
 4    1  0.9925048E-003  0.9118800E+02  0.7818608E-02  0.1130116E+00
         25   -1    0    0    0    0  0.00000000000E+00  0.00000000000E+00  0.99999998245E-14  0.12500000000E+03  0.12500000000E+03 0.  0.
        -13    1    1    0    0    0  0.32250974910E+01 -0.14963423939E+02 -0.41507004661E+00  0.15313025729E+02  0.10566000000E+00 0.  1.
         13    1    1    0    0    0  0.10792119363E+02 -0.45907436470E+02 -0.16649933128E+01  0.47188408856E+02  0.10566000000E+00 0.  1.
         22    1    1    0    0    0 -0.14017216854E+02  0.60870860409E+02  0.20800633594E+01  0.62498565415E+02  0.00000000000E+00 0.  1.
</event>
<event>
 4    1  0.9925048E-003  0.9118800E+02  0.7818608E-02  0.1130116E+00
         25   -1    0    0    0    0  0.00000000000E+00  0.00000000000E+00  0.99999998245E-14  0.12500000000E+03  0.12500000000E+03 0.  0.
        -13    1    1    0    0    0  0.44914225556E+01  0.36320983641E+01 -0.83956898156E+01  0.10191358428E+02  0.10566000000E+00 0. -1.
         13    1    1    0    0    0  0.24874147331E+02  0.16999976780E+02 -0.42766735084E+02  0.52313738251E+02  0.10566000000E+00 0.  1.
         22    1    1    0    0    0 -0.29365569887E+02 -0.20632075144E+02  0.51162424900E+02  0.62494903321E+02  0.00000000000E+00 0.  1.
</event>
<event>
 4    1  0.9925048E-003  0.9118800E+02  0.7818608E-02  0.1130116E+00
         25   -1    0    0    0    0  0.00000000000E+00  0.00000000000E+00  0.99999998245E-14  0.12500000000E+03  0.12500000000E+03 0.  0.
        -13    1    1    0    0    0  0.31447361536E+02  0.20408360710E+01  0.21212917294E+02  0.37988163731E+02  0.10566000000E+00 0.  1.
         13    1    1    0    0    0  0.20392312117E+02  0.18656187225E+01  0.13476253483E+02  0.24514230534E+02  0.10566000000E+00 0. -1.
         22    1    1    0    0    0 -0.51839673653E+02 -0.39064547935E+01 -0.34689170777E+02  0.62497605736E+02  0.00000000000E+00 0. -1.
</event>
<event>
 4    1  0.9925048E-003  0.9118800E+02  0.7818608E-02  0.1130116E+00
         25   -1    0    0    0    0  0.00000000000E+00  0.00000000000E+00  0.99999998245E-14  0.12500000000E+03  0.12500000000E+03 0.  0.
        -13    1    1    0    0    0  0.13508754801E+02 -0.13813388557E+02 -0.24736680591E+02  0.31388066051E+02  0.10566000000E+00 0.  1.
         13    1    1    0    0    0  0.14364417679E+02 -0.13548928939E+02 -0.24048733309E+02  0.31116919970E+02  0.10566000000E+00 0. -1.
         22    1    1    0    0    0 -0.27873172480E+02  0.27362317496E+02  0.48785413900E+02  0.62495013979E+02  0.00000000000E+00 0.  1.
</event>
<event>
 4    1  0.9925048E-003  0.9118800E+02  0.7818608E-02  0.1130116E+00
         25   -1    0    0    0    0  0.00000000000E+00  0.00000000000E+00  0.99999998245E-14  0.12500000000E+03  0.12500000000E+03 0.  0.
        -13    1    1    0    0    0  0.21338434303E+02  0.37150097362E+00  0.49096561386E+01  0.21899376222E+02  0.10566000000E+00 0.  1.
         13    1    1    0    0    0  0.39138534388E+02 -0.46476478849E+00  0.10823965954E+02  0.40610470120E+02  0.10566000000E+00 0. -1.
         22    1    1    0    0    0 -0.60476968690E+02  0.93263814864E-01 -0.15733622093E+02  0.62490153659E+02  0.00000000000E+00 0.  1.
</event>
<event>
 4    1  0.9925048E-003  0.9118800E+02  0.7818608E-02  0.1130116E+00
         25   -1    0    0    0    0  0.00000000000E+00  0.00000000000E+00  0.99999998245E-14  0.12500000000E+03  0.12500000000E+03 0.  0.
        -13    1    1    0    0    0 -0.34406606290E+01 -0.26691921128E+02 -0.39988343615E+02  0.48201406496E+02  0.10566000000E+00 0.  1.
         13    1    1    0    0    0 -0.64431050699E+01  0.44279944088E+01 -0.14856062266E+02  0.16787926838E+02  0.10566000000E+00 0. -1.
         22    1    1    0    0    0  0.98837656988E+01  0.22263926719E+02  0.54844405881E+02  0.60010666667E+02  0.00000000000E+00 0.  1.
</event>
<event>
 4    1  0.9925048E-003  0.9118800E+02  0.7818608E-02  0.1130116E+00
         25   -1    0    0    0    0  0.00000000000E+00  0.00000000000E+00  0.99999998245E-14  0.12500000000E+03  0.12500000000E+03 0.  0.
        -13    1    1    0    0    0  0.20527530866E+02  0.18413037459E+02 -0.25991993286E+02  0.37894779996E+02  0.10566000000E+00 0. -1.
         13    1    1    0    0    0  0.13819646512E+02  0.11288558780E+02 -0.16947278184E+02  0.24609664584E+02  0.10566000000E+00 0.  1.
         22    1    1    0    0    0 -0.34347177378E+02 -0.29701596238E+02  0.42939271470E+02  0.62495555421E+02  0.00000000000E+00 0. -1.
</event>
<event>
 4    1  0.9925048E-003  0.9118800E+02  0.7818608E-02  0.1130116E+00
         25   -1    0    0    0    0  0.00000000000E+00  0.00000000000E+00  0.99999998245E-14  0.12500000000E+03  0.12500000000E+03 0.  0.
        -13    1    1    0    0    0  0.36175195151E+02 -0.87074351027E+01 -0.27811042157E+02  0.46453518706E+02  0.10566000000E+00 0.  1.
         13    1    1    0    0    0  0.12369845373E+02  0.16902658185E+02 -0.19202719741E+01  0.21033581168E+02  0.10566000000E+00 0. -1.
         22    1    1    0    0    0 -0.48545040524E+02 -0.81952230820E+01  0.29731314131E+02  0.57512900126E+02  0.00000000000E+00 0.  1.
</event>
<event>
 4    1  0.9925048E-003  0.9118800E+02  0.7818608E-02  0.1130116E+00
         25   -1    0    0    0    0  0.00000000000E+00  0.00000000000E+00  0.99999998245E-14  0.12500000000E+03  0.12500000000E+03 0.  0.
        -13    1    1    0    0    0 -0.50606452692E+02  0.25575192009E+02  0.11169932261E+02  0.57791712651E+02  0.10566000000E+00 0. -1.
         13    1    1    0    0    0 -0.40584056547E+01  0.22341929258E+01  0.84551799358E+00  0.47104499999E+01  0.10566000000E+00 0.  1.
         22    1    1    0    0    0  0.54664858347E+02 -0.27809384935E+02 -0.12015450254E+02  0.62497837349E+02  0.00000000000E+00 0. -1.
</event>
<event>
 4    1  0.9925048E-003  0.9118800E+02  0.7818608E-02  0.1130116E+00
         25   -1    0    0    0    0  0.00000000000E+00  0.00000000000E+00  0.99999998245E-14  0.12500000000E+03  0.12500000000E+03 0.  0.
        -13    1    1    0    0    0 -0.10577324436E+02  0.12151717855E+02 -0.38209083981E+01  0.16557612874E+02  0.10566000000E+00 0.  1.
         13    1    1    0    0    0 -0.30133343678E+02  0.32677066508E+02 -0.11630511561E+02  0.45946588992E+02  0.10566000000E+00 0. -1.
         22    1    1    0    0    0  0.40710668115E+02 -0.44828784362E+02  0.15451419959E+02  0.62495798135E+02  0.00000000000E+00 0. -1.
</event>
<event>
 4    1  0.9925048E-003  0.9118800E+02  0.7818608E-02  0.1130116E+00
         25   -1    0    0    0    0  0.00000000000E+00  0.00000000000E+00  0.99999998245E-14  0.12500000000E+03  0.12500000000E+03 0.  0.
        -13    1    1    0    0    0  0.19697810781E+02 -0.37165787441E+02 -0.66348926347E+01  0.42583241656E+02  0.10566000000E+00 0. -1.
         13    1    1    0    0    0  0.88822855833E+01 -0.17589022682E+02 -0.29103208092E+01  0.19918580455E+02  0.10566000000E+00 0.  1.
         22    1    1    0    0    0 -0.28580096364E+02  0.54754810123E+02  0.95452134438E+01  0.62498177889E+02  0.00000000000E+00 0. -1.
</event>
<event>
 4    1  0.9925048E-003  0.9118800E+02  0.7818608E-02  0.1130116E+00
         25   -1    0    0    0    0  0.00000000000E+00  0.00000000000E+00  0.99999998245E-14  0.12500000000E+03  0.12500000000E+03 0.  0.
        -13    1    1    0    0    0 -0.52634469838E+01  0.41387962430E+01 -0.76674353582E+01  0.10180090250E+02  0.10566000000E+00 0.  1.
         13    1    1    0    0    0 -0.24855534990E+02  0.20005691114E+02 -0.41475807921E+02  0.52328568711E+02  0.10566000000E+00 0. -1.
         22    1    1    0    0    0  0.30118981973E+02 -0.24144487357E+02  0.49143243279E+02  0.62491341039E+02  0.00000000000E+00 0. -1.
</event>
<event>
 4    1  0.9925048E-003  0.9118800E+02  0.7818608E-02  0.1130116E+00
         25   -1    0    0    0    0  0.00000000000E+00  0.00000000000E+00  0.99999998245E-14  0.12500000000E+03  0.12500000000E+03 0.  0.
        -13    1    1    0    0    0  0.20357235917E+02  0.20671036458E+02 -0.24406070129E+02  0.37912744897E+02  0.10566000000E+00 0.  1.
         13    1    1    0    0    0  0.19133296626E+02  0.42010145426E+01 -0.16048660905E+02  0.25323946056E+02  0.10566000000E+00 0. -1.
         22    1    1    0    0    0 -0.39490532543E+02 -0.24872051000E+02  0.40454731034E+02  0.61763309048E+02  0.00000000000E+00 0. -1.
</event>
<event>
 4    1  0.9925048E-003  0.9118800E+02  0.7818608E-02  0.1130116E+00
         25   -1    0    0    0    0  0.00000000000E+00  0.00000000000E+00  0.99999998245E-14  0.12500000000E+03  0.12500000000E+03 0.  0.
        -13    1    1    0    0    0  0.92373965699E+01 -0.13631672327E+02 -0.38036077882E+01  0.16900608926E+02  0.10566000000E+00 0. -1.
         13    1    1    0    0    0  0.27934877172E+02 -0.35681298320E+02  0.87307863743E+01  0.46149216756E+02  0.10566000000E+00 0.  1.
         22    1    1    0    0    0 -0.37172273742E+02  0.49312970648E+02 -0.49271785860E+01  0.61950174318E+02  0.00000000000E+00 0.  1.
</event>
<event>
 4    1  0.9925048E-003  0.9118800E+02  0.7818608E-02  0.1130116E+00
         25   -1    0    0    0    0  0.00000000000E+00  0.00000000000E+00  0.99999998245E-14  0.12500000000E+03  0.12500000000E+03 0.  0.
        -13    1    1    0    0    0  0.75507801559E+01 -0.38114059942E+02  0.39108366011E+02  0.55128679490E+02  0.10566000000E+00 0.  1.
         13    1    1    0    0    0 -0.88376674754E+01 -0.49854931506E+01  0.19479103617E+01  0.10332716350E+02  0.10566000000E+00 0. -1.
         22    1    1    0    0    0  0.12868873195E+01  0.43099553093E+02 -0.41056276372E+02  0.59538604160E+02  0.00000000000E+00 0.  1.
</event>
<event>
 4    1  0.9925048E-003  0.9118800E+02  0.7818608E-02  0.1130116E+00
         25   -1    0    0    0    0  0.00000000000E+00  0.00000000000E+00  0.99999998245E-14  0.12500000000E+03  0.12500000000E+03 0.  0.
        -13    1    1    0    0    0 -0.32326927339E+02  0.12147507953E+01  0.41834119735E+02  0.52882989597E+02  0.10566000000E+00 0. -1.
         13    1    1    0    0    0 -0.62039247357E+01  0.91262981107E+00  0.73106338894E+01  0.96321392846E+01  0.10566000000E+00 0.  1.
         22    1    1    0    0    0  0.38530852075E+02 -0.21273806064E+01 -0.49144753625E+02  0.62484871118E+02  0.00000000000E+00 0. -1.
</event>
<event>
 4    1  0.9925048E-003  0.9118800E+02  0.7818608E-02  0.1130116E+00
         25   -1    0    0    0    0  0.00000000000E+00  0.00000000000E+00  0.99999998245E-14  0.12500000000E+03  0.12500000000E+03 0.  0.
        -13    1    1    0    0    0  0.28356201651E+02 -0.13868421490E+02  0.24917076250E+02  0.40215409230E+02  0.10566000000E+00 0.  1.
         13    1    1    0    0    0  0.16066143155E+02 -0.63501026961E+01  0.14099527977E+02  0.22299161718E+02  0.10566000000E+00 0. -1.
         22    1    1    0    0    0 -0.44422344806E+02  0.20218524187E+02 -0.39016604227E+02  0.62485429051E+02  0.00000000000E+00 0.  1.
</event>
<event>
 4    1  0.9925048E-003  0.9118800E+02  0.7818608E-02  0.1130116E+00
         25   -1    0    0    0    0  0.00000000000E+00  0.00000000000E+00  0.99999998245E-14  0.12500000000E+03  0.12500000000E+03 0.  0.
        -13    1    1    0    0    0  0.11342534406E+02 -0.42716257534E+01 -0.38129787189E+01  0.12706291516E+02  0.10566000000E+00 0.  1.
         13    1    1    0    0    0  0.12384323654E+02 -0.14391922860E+02 -0.48395028626E+02  0.51986429726E+02  0.10566000000E+00 0. -1.
         22    1    1    0    0    0 -0.23726858061E+02  0.18663548613E+02  0.52208007345E+02  0.60307278758E+02  0.00000000000E+00 0. -1.
</event>
<event>
 4    1  0.9925048E-003  0.9118800E+02  0.7818608E-02  0.1130116E+00
         25   -1    0    0    0    0  0.00000000000E+00  0.00000000000E+00  0.99999998245E-14  0.12500000000E+03  0.12500000000E+03 0.  0.
        -13    1    1    0    0    0 -0.88497607330E+01  0.30895583006E+02 -0.46032708456E+02  0.56141577518E+02  0.10566000000E+00 0. -1.
         13    1    1    0    0    0  0.19305333209E+01  0.29639397122E+01 -0.56612959619E+01  0.66763263495E+01  0.10566000000E+00 0.  1.
         22    1    1    0    0    0  0.69192274121E+01 -0.33859522718E+02  0.51694004418E+02  0.62182096133E+02  0.00000000000E+00 0. -1.
</event>
<event>
 4    1  0.9925048E-003  0.9118800E+02  0.7818608E-02  0.1130116E+00
         25   -1    0    0    0    0  0.00000000000E+00  0.00000000000E+00  0.99999998245E-14  0.12500000000E+03  0.12500000000E+03 0.  0.
        -13    1    1    0    0    0  0.70034816566E+01  0.19249874810E+01  0.28087599487E+01  0.77881081529E+01  0.10566000000E+00 0. -1.
         13    1    1    0    0    0  0.44173015064E+02  0.23081366646E+02  0.22743273008E+02  0.54783869681E+02  0.10566000000E+00 0.  1.
         22    1    1    0    0    0 -0.51176496721E+02 -0.25006354127E+02 -0.25552032957E+02  0.62428022166E+02  0.00000000000E+00 0.  1.
</event>
<event>
 4    1  0.9925048E-003  0.9118800E+02  0.7818608E-02  0.1130116E+00
         25   -1    0    0    0    0  0.00000000000E+00  0.00000000000E+00  0.99999998245E-14  0.12500000000E+03  0.12500000000E+03 0.  0.
        -13    1    1    0    0    0 -0.16100677688E+02  0.27674739044E+02 -0.47983713369E+02  0.57685101334E+02  0.10566000000E+00 0. -1.
         13    1    1    0    0    0 -0.17254075644E+01  0.36352918973E+01 -0.29042565938E+01  0.49636930646E+01  0.10566000000E+00 0.  1.
         22    1    1    0    0    0  0.17826085253E+02 -0.31310030942E+02  0.50887969963E+02  0.62351205601E+02  0.00000000000E+00 0. -1.
</event>
<event>
 4    1  0.9925048E-003  0.9118800E+02  0.7818608E-02  0.1130116E+00
         25   -1    0    0    0    0  0.00000000000E+00  0.00000000000E+00  0.99999998245E-14  0.12500000000E+03  0.12500000000E+03 0.  0.
        -13    1    1    0    0    0 -0.61567381946E+01  0.21210594623E+02  0.22650726731E+02  0.31636392571E+02  0.10566000000E+00 0.  1.
         13    1    1    0    0    0 -0.55000260552E+01  0.20700720398E+02  0.22222981479E+02  0.30864902097E+02  0.10566000000E+00 0. -1.
         22    1    1    0    0    0  0.11656764250E+02 -0.41911315021E+02 -0.44873708210E+02  0.62498705331E+02  0.00000000000E+00 0.  1.
</event>
<event>
 4    1  0.9925048E-003  0.9118800E+02  0.7818608E-02  0.1130116E+00
         25   -1    0    0    0    0  0.00000000000E+00  0.00000000000E+00  0.99999998245E-14  0.12500000000E+03  0.12500000000E+03 0.  0.
        -13    1    1    0    0    0  0.61091462424E+00 -0.48616344841E-01  0.11643364387E-01  0.62199664841E+00  0.10566000000E+00 0.  1.
         13    1    1    0    0    0  0.29387859559E+02  0.30853065324E+02 -0.45119942106E+02  0.62059473645E+02  0.10566000000E+00 0. -1.
         22    1    1    0    0    0 -0.29998774183E+02 -0.30804448980E+02  0.45108298742E+02  0.62318529707E+02  0.00000000000E+00 0. -1.
</event>
<event>
 4    1  0.9925048E-003  0.9118800E+02  0.7818608E-02  0.1130116E+00
         25   -1    0    0    0    0  0.00000000000E+00  0.00000000000E+00  0.99999998245E-14  0.12500000000E+03  0.12500000000E+03 0.  0.
        -13    1    1    0    0    0 -0.17645904913E+02 -0.11132896990E+02 -0.53732960957E+02  0.57641665597E+02  0.10566000000E+00 0. -1.
         13    1    1    0    0    0 -0.47518395172E+01 -0.65117857144E+01  0.20287315160E+01  0.83132573392E+01  0.10566000000E+00 0.  1.
         22    1    1    0    0    0  0.22397744431E+02  0.17644682704E+02  0.51704229441E+02  0.59045077063E+02  0.00000000000E+00 0. -1.
</event>
<event>
 4    1  0.9925048E-003  0.9118800E+02  0.7818608E-02  0.1130116E+00
         25   -1    0    0    0    0  0.00000000000E+00  0.00000000000E+00  0.99999998245E-14  0.12500000000E+03  0.12500000000E+03 0.  0.
        -13    1    1    0    0    0  0.15190569034E+02  0.24931945305E+02  0.85346618342E+01  0.30417213892E+02  0.10566000000E+00 0.  1.
         13    1    1    0    0    0  0.16285634429E+02  0.26048108403E+02  0.92534847114E+01  0.32083702770E+02  0.10566000000E+00 0.  1.
         22    1    1    0    0    0 -0.31476203462E+02 -0.50980053709E+02 -0.17788146546E+02  0.62499083338E+02  0.00000000000E+00 0.  1.
</event>
<event>
 4    1  0.9925048E-003  0.9118800E+02  0.7818608E-02  0.1130116E+00
         25   -1    0    0    0    0  0.00000000000E+00  0.00000000000E+00  0.99999998245E-14  0.12500000000E+03  0.12500000000E+03 0.  0.
        -13    1    1    0    0    0 -0.81903482370E-01  0.11306497507E+02 -0.38867476119E+01  0.11956653590E+02  0.10566000000E+00 0. -1.
         13    1    1    0    0    0  0.19422875654E+01  0.44773609311E+02 -0.23502363979E+02  0.50604553633E+02  0.10566000000E+00 0.  1.
         22    1    1    0    0    0 -0.18603840830E+01 -0.56080106818E+02  0.27389111591E+02  0.62438792777E+02  0.00000000000E+00 0.  1.
</event>
<event>
 4    1  0.9925048E-003  0.9118800E+02  0.7818608E-02  0.1130116E+00
         25   -1    0    0    0    0  0.00000000000E+00  0.00000000000E+00  0.99999998245E-14  0.12500000000E+03  0.12500000000E+03 0.  0.
        -13    1    1    0    0    0  0.13177992250E+02 -0.28743261943E+02  0.10105243590E+02  0.33195808454E+02  0.10566000000E+00 0. -1.
         13    1    1    0    0    0  0.10812670107E+02 -0.25734803091E+02  0.89305374960E+01  0.29308012368E+02  0.10566000000E+00 0.  1.
         22    1    1    0    0    0 -0.23990662357E+02  0.54478065035E+02 -0.19035781086E+02  0.62496179177E+02  0.00000000000E+00 0. -1.
</event>
<event>
 4    1  0.9925048E-003  0.9118800E+02  0.7818608E-02  0.1130116E+00
         25   -1    0    0    0    0  0.00000000000E+00  0.00000000000E+00  0.99999998245E-14  0.12500000000E+03  0.12500000000E+03 0.  0.
        -13    1    1    0    0    0 -0.32395538606E-01  0.51216271633E+01  0.58466670495E+01  0.77734673020E+01  0.10566000000E+00 0. -1.
         13    1    1    0    0    0 -0.34304280497E+00  0.30087083992E+02  0.45751560301E+02  0.54759170333E+02  0.10566000000E+00 0.  1.
         22    1    1    0    0    0  0.37543834358E+00 -0.35208711156E+02 -0.51598227350E+02  0.62467362365E+02  0.00000000000E+00 0.  1.
</event>
<event>
 4    1  0.9925048E-003  0.9118800E+02  0.7818608E-02  0.1130116E+00
         25   -1    0    0    0    0  0.00000000000E+00  0.00000000000E+00  0.99999998245E-14  0.12500000000E+03  0.12500000000E+03 0.  0.
        -13    1    1    0    0    0 -0.20405029329E+01  0.16315174588E+00 -0.91235491500E+00  0.22436190046E+01  0.10566000000E+00 0. -1.
         13    1    1    0    0    0 -0.27029463292E+02  0.43081473613E+02 -0.32962104727E+02  0.60606243628E+02  0.10566000000E+00 0.  1.
         22    1    1    0    0    0  0.29069966225E+02 -0.43244625359E+02  0.33874459642E+02  0.62150137368E+02  0.00000000000E+00 0.  1.
</event>
<event>
 4    1  0.9925048E-003  0.9118800E+02  0.7818608E-02  0.1130116E+00
         25   -1    0    0    0    0  0.00000000000E+00  0.00000000000E+00  0.99999998245E-14  0.12500000000E+03  0.12500000000E+03 0.  0.
        -13    1    1    0    0    0  0.43270588472E+02  0.71616215502E+01  0.10725559653E+02  0.45151760141E+02  0.10566000000E+00 0. -1.
         13    1    1    0    0    0 -0.37059765153E+02 -0.28956153293E+02 -0.24802248015E+02  0.53169988502E+02  0.10566000000E+00 0.  1.
         22    1    1    0    0    0 -0.62108233196E+01  0.21794531743E+02  0.14076688362E+02  0.26678251356E+02  0.00000000000E+00 0.  1.
</event>
<event>
 4    1  0.9925048E-003  0.9118800E+02  0.7818608E-02  0.1130116E+00
         25   -1    0    0    0    0  0.00000000000E+00  0.00000000000E+00  0.99999998245E-14  0.12500000000E+03  0.12500000000E+03 0.  0.
        -13    1    1    0    0    0 -0.88863960652E+01 -0.49814799137E+02 -0.11150886473E+01  0.50613603259E+02  0.10566000000E+00 0. -1.
         13    1    1    0    0    0 -0.96948117779E+01 -0.79412990069E+01 -0.48152585650E+01  0.13425776864E+02  0.10566000000E+00 0.  1.
         22    1    1    0    0    0  0.18581207843E+02  0.57756098144E+02  0.59303472123E+01  0.60960619877E+02  0.00000000000E+00 0. -1.
</event>
<event>
 4    1  0.9925048E-003  0.9118800E+02  0.7818608E-02  0.1130116E+00
         25   -1    0    0    0    0  0.00000000000E+00  0.00000000000E+00  0.99999998245E-14  0.12500000000E+03  0.12500000000E+03 0.  0.
        -13    1    1    0    0    0 -0.85447928887E+01  0.13781081012E+02 -0.12791532838E+02  0.20653478054E+02  0.10566000000E+00 0.  1.
         13    1    1    0    0    0 -0.17348511799E+02  0.27802885348E+02 -0.26022494582E+02  0.41846776263E+02  0.10566000000E+00 0.  1.
         22    1    1    0    0    0  0.25893304687E+02 -0.41583966360E+02  0.38814027420E+02  0.62499745683E+02  0.00000000000E+00 0.  1.
</event>
<event>
 4    1  0.9925048E-003  0.9118800E+02  0.7818608E-02  0.1130116E+00
         25   -1    0    0    0    0  0.00000000000E+00  0.00000000000E+00  0.99999998245E-14  0.12500000000E+03  0.12500000000E+03 0.  0.
        -13    1    1    0    0    0 -0.61506964909E+01  0.16222685828E+02 -0.91901668257E+01  0.19633566490E+02  0.10566000000E+00 0. -1.
         13    1    1    0    0    0 -0.23056783888E+02  0.31054474845E+02 -0.18955829036E+02  0.43073545357E+02  0.10566000000E+00 0.  1.
         22    1    1    0    0    0  0.29207480379E+02 -0.47277160673E+02  0.28145995862E+02  0.62292888153E+02  0.00000000000E+00 0.  1.
</event>
<event>
 4    1  0.9925048E-003  0.9118800E+02  0.7818608E-02  0.1130116E+00
         25   -1    0    0    0    0  0.00000000000E+00  0.00000000000E+00  0.99999998245E-14  0.12500000000E+03  0.12500000000E+03 0.  0.
        -13    1    1    0    0    0 -0.20570060636E+02  0.13271439260E+02 -0.10197101535E+02  0.26518871363E+02  0.10566000000E+00 0. -1.
         13    1    1    0    0    0 -0.29482658343E+02  0.13730771721E+02 -0.15553666500E+02  0.36051198880E+02  0.10566000000E+00 0.  1.
         22    1    1    0    0    0  0.50052718979E+02 -0.27002210981E+02  0.25750768036E+02  0.62429929757E+02  0.00000000000E+00 0.  1.
</event>
<event>
 4    1  0.9925048E-003  0.9118800E+02  0.7818608E-02  0.1130116E+00
         25   -1    0    0    0    0  0.00000000000E+00  0.00000000000E+00  0.99999998245E-14  0.12500000000E+03  0.12500000000E+03 0.  0.
        -13    1    1    0    0    0  0.11526496683E+02 -0.10982235512E+02 -0.22321358610E+02  0.27417582622E+02  0.10566000000E+00 0.  1.
         13    1    1    0    0    0  0.12598711646E+02 -0.15533104775E+02 -0.28849369884E+02  0.35104161944E+02  0.10566000000E+00 0. -1.
         22    1    1    0    0    0 -0.24125208329E+02  0.26515340287E+02  0.51170728494E+02  0.62478255433E+02  0.00000000000E+00 0.  1.
</event>
<event>
 4    1  0.9925048E-003  0.9118800E+02  0.7818608E-02  0.1130116E+00
         25   -1    0    0    0    0  0.00000000000E+00  0.00000000000E+00  0.99999998245E-14  0.12500000000E+03  0.12500000000E+03 0.  0.
        -13    1    1    0    0    0 -0.30941537268E+02 -0.43318779125E+02 -0.91946700328E+01  0.54022666302E+02  0.10566000000E+00 0.  1.
         13    1    1    0    0    0 -0.41403148846E+01 -0.70818753941E+01 -0.22607358101E+01  0.85098329526E+01  0.10566000000E+00 0. -1.
         22    1    1    0    0    0  0.35081852152E+02  0.50400654519E+02  0.11455405843E+02  0.62467500745E+02  0.00000000000E+00 0.  1.
</event>
<event>
 4    1  0.9925048E-003  0.9118800E+02  0.7818608E-02  0.1130116E+00
         25   -1    0    0    0    0  0.00000000000E+00  0.00000000000E+00  0.99999998245E-14  0.12500000000E+03  0.12500000000E+03 0.  0.
        -13    1    1    0    0    0 -0.22314875667E+02  0.18405463351E+02 -0.12940411309E+02  0.31688801903E+02  0.10566000000E+00 0. -1.
         13    1    1    0    0    0 -0.21476122853E+02  0.17809412014E+02 -0.13076968659E+02  0.30812615637E+02  0.10566000000E+00 0.  1.
         22    1    1    0    0    0  0.43790998520E+02 -0.36214875364E+02  0.26017379968E+02  0.62498582459E+02  0.00000000000E+00 0.  1.
</event>
<event>
 4    1  0.9925048E-003  0.9118800E+02  0.7818608E-02  0.1130116E+00
         25   -1    0    0    0    0  0.00000000000E+00  0.00000000000E+00  0.99999998245E-14  0.12500000000E+03  0.12500000000E+03 0.  0.
        -13    1    1    0    0    0  0.19216411325E+02  0.27333132364E+02 -0.31087497038E+02  0.45637859559E+02  0.10566000000E+00 0. -1.
         13    1    1    0    0    0  0.71397958246E+01  0.10154708611E+02 -0.11412150492E+02  0.16862477110E+02  0.10566000000E+00 0. -1.
         22    1    1    0    0    0 -0.26356207149E+02 -0.37487840975E+02  0.42499647530E+02  0.62499663331E+02  0.00000000000E+00 0. -1.
</event>
<event>
 4    1  0.9925048E-003  0.9118800E+02  0.7818608E-02  0.1130116E+00
         25   -1    0    0    0    0  0.00000000000E+00  0.00000000000E+00  0.99999998245E-14  0.12500000000E+03  0.12500000000E+03 0.  0.
        -13    1    1    0    0    0 -0.31065165610E+02  0.28610001894E+01  0.46568197491E+02  0.56052100925E+02  0.10566000000E+00 0.  1.
         13    1    1    0    0    0 -0.35662219933E+01  0.13679711632E+00  0.53712673212E+01  0.64496766918E+01  0.10566000000E+00 0. -1.
         22    1    1    0    0    0  0.34631387604E+02 -0.29977973057E+01 -0.51939464812E+02  0.62498222383E+02  0.00000000000E+00 0.  1.
</event>
<event>
 4    1  0.9925048E-003  0.9118800E+02  0.7818608E-02  0.1130116E+00
         25   -1    0    0    0    0  0.00000000000E+00  0.00000000000E+00  0.99999998245E-14  0.12500000000E+03  0.12500000000E+03 0.  0.
        -13    1    1    0    0    0 -0.13144086477E+02  0.14024489983E+02  0.43288765449E+01  0.19702884681E+02  0.10566000000E+00 0.  1.
         13    1    1    0    0    0 -0.27322466936E+02  0.31721843970E+02  0.89069292376E+01  0.42803471083E+02  0.10566000000E+00 0. -1.
         22    1    1    0    0    0  0.40466553412E+02 -0.45746333952E+02 -0.13235805782E+02  0.62493644236E+02  0.00000000000E+00 0. -1.
</event>
<event>
 4    1  0.9925048E-003  0.9118800E+02  0.7818608E-02  0.1130116E+00
         25   -1    0    0    0    0  0.00000000000E+00  0.00000000000E+00  0.99999998245E-14  0.12500000000E+03  0.12500000000E+03 0.  0.
        -13    1    1    0    0    0  0.26678641207E+02  0.94608371240E+00  0.23174238033E+02  0.35351116581E+02  0.10566000000E+00 0.  1.
         13    1    1    0    0    0  0.22914956216E+02  0.20196457575E+01  0.14592306856E+02  0.27241893671E+02  0.10566000000E+00 0. -1.
         22    1    1    0    0    0 -0.49593597423E+02 -0.29657294699E+01 -0.37766544889E+02  0.62406989749E+02  0.00000000000E+00 0. -1.
</event>
<event>
 4    1  0.9925048E-003  0.9118800E+02  0.7818608E-02  0.1130116E+00
         25   -1    0    0    0    0  0.00000000000E+00  0.00000000000E+00  0.99999998245E-14  0.12500000000E+03  0.12500000000E+03 0.  0.
        -13    1    1    0    0    0  0.21954875766E+01  0.40526356740E-01  0.56686233622E+01  0.60799887288E+01  0.10566000000E+00 0. -1.
         13    1    1    0    0    0  0.44689170896E+02  0.28004565849E+02  0.22635191628E+02  0.57391120984E+02  0.10566000000E+00 0.  1.
         22    1    1    0    0    0 -0.46884658473E+02 -0.28045092206E+02 -0.28303814990E+02  0.61528890287E+02  0.00000000000E+00 0.  1.
</event>
<event>
 4    1  0.9925048E-003  0.9118800E+02  0.7818608E-02  0.1130116E+00
         25   -1    0    0    0    0  0.00000000000E+00  0.00000000000E+00  0.99999998245E-14  0.12500000000E+03  0.12500000000E+03 0.  0.
        -13    1    1    0    0    0  0.69369566577E+01 -0.41735374678E+01  0.11634143857E+02  0.14174069634E+02  0.10566000000E+00 0. -1.
         13    1    1    0    0    0  0.16174261142E+02 -0.49100681928E+02 -0.50939891995E+00  0.51698687996E+02  0.10566000000E+00 0.  1.
         22    1    1    0    0    0 -0.23111217800E+02  0.53274219395E+02 -0.11124744937E+02  0.59127242370E+02  0.00000000000E+00 0.  1.
</event>
<event>
 4    1  0.9925048E-003  0.9118800E+02  0.7818608E-02  0.1130116E+00
         25   -1    0    0    0    0  0.00000000000E+00  0.00000000000E+00  0.99999998245E-14  0.12500000000E+03  0.12500000000E+03 0.  0.
        -13    1    1    0    0    0 -0.42326150439E+02 -0.25978101997E+02 -0.16079835815E+02  0.52200929860E+02  0.10566000000E+00 0.  1.
         13    1    1    0    0    0 -0.82410568008E+01 -0.46925458992E+01 -0.40681550641E+01  0.10319692528E+02  0.10566000000E+00 0. -1.
         22    1    1    0    0    0  0.50567207239E+02  0.30670647897E+02  0.20147990879E+02  0.62479377612E+02  0.00000000000E+00 0.  1.
</event>
<event>
 4    1  0.9925048E-003  0.9118800E+02  0.7818608E-02  0.1130116E+00
         25   -1    0    0    0    0  0.00000000000E+00  0.00000000000E+00  0.99999998245E-14  0.12500000000E+03  0.12500000000E+03 0.  0.
        -13    1    1    0    0    0  0.86254581931E+01  0.14679087333E+02  0.47507631042E+01  0.17676398051E+02  0.10566000000E+00 0. -1.
         13    1    1    0    0    0  0.14887362731E+02  0.16518129219E+02 -0.45641969662E+02  0.50770884577E+02  0.10566000000E+00 0.  1.
         22    1    1    0    0    0 -0.23512820924E+02 -0.31197216552E+02  0.40891206558E+02  0.56552717372E+02  0.00000000000E+00 0.  1.
</event>
<event>
 4    1  0.9925048E-003  0.9118800E+02  0.7818608E-02  0.1130116E+00
         25   -1    0    0    0    0  0.00000000000E+00  0.00000000000E+00  0.99999998245E-14  0.12500000000E+03  0.12500000000E+03 0.  0.
        -13    1    1    0    0    0 -0.59825074844E+01 -0.40829102672E+02  0.43483661969E+02  0.59947026975E+02  0.10566000000E+00 0.  1.
         13    1    1    0    0    0  0.33615850028E+01 -0.27835993122E+01 -0.19896486974E+01  0.47977645666E+01  0.10566000000E+00 0. -1.
         22    1    1    0    0    0  0.26209224816E+01  0.43612701984E+02 -0.41494013272E+02  0.60255208459E+02  0.00000000000E+00 0.  1.
</event>
<event>
 4    1  0.9925048E-003  0.9118800E+02  0.7818608E-02  0.1130116E+00
         25   -1    0    0    0    0  0.00000000000E+00  0.00000000000E+00  0.99999998245E-14  0.12500000000E+03  0.12500000000E+03 0.  0.
        -13    1    1    0    0    0  0.28042105812E+02 -0.32802205222E+02  0.12108588950E+02  0.44821573558E+02  0.10566000000E+00 0. -1.
         13    1    1    0    0    0  0.16373569161E+01 -0.19154997610E+02 -0.53366400577E+00  0.19232546176E+02  0.10566000000E+00 0.  1.
         22    1    1    0    0    0 -0.29679462728E+02  0.51957202832E+02 -0.11574924945E+02  0.60945880266E+02  0.00000000000E+00 0. -1.
</event>
<event>
 4    1  0.9925048E-003  0.9118800E+02  0.7818608E-02  0.1130116E+00
         25   -1    0    0    0    0  0.00000000000E+00  0.00000000000E+00  0.99999998245E-14  0.12500000000E+03  0.12500000000E+03 0.  0.
        -13    1    1    0    0    0  0.30434371864E+02 -0.10760098919E+02 -0.45785865155E+02  0.56021311405E+02  0.10566000000E+00 0. -1.
         13    1    1    0    0    0  0.37748907510E+01 -0.18943962502E+01 -0.49401603923E+01  0.65003758409E+01  0.10566000000E+00 0.  1.
         22    1    1    0    0    0 -0.34209262615E+02  0.12654495169E+02  0.50726025548E+02  0.62478312754E+02  0.00000000000E+00 0. -1.
</event>
<event>
 4    1  0.9925048E-003  0.9118800E+02  0.7818608E-02  0.1130116E+00
         25   -1    0    0    0    0  0.00000000000E+00  0.00000000000E+00  0.99999998245E-14  0.12500000000E+03  0.12500000000E+03 0.  0.
        -13    1    1    0    0    0  0.13669082723E+02  0.24680779832E+01 -0.16986038244E+02  0.21942467743E+02  0.10566000000E+00 0.  1.
         13    1    1    0    0    0  0.26347363636E+02  0.52732860681E+01 -0.30387498350E+02  0.40563559220E+02  0.10566000000E+00 0. -1.
         22    1    1    0    0    0 -0.40016446359E+02 -0.77413640513E+01  0.47373536594E+02  0.62493973037E+02  0.00000000000E+00 0. -1.
</event>
<event>
 4    1  0.9925048E-003  0.9118800E+02  0.7818608E-02  0.1130116E+00
         25   -1    0    0    0    0  0.00000000000E+00  0.00000000000E+00  0.99999998245E-14  0.12500000000E+03  0.12500000000E+03 0.  0.
        -13    1    1    0    0    0  0.15895368656E+02  0.25207910680E+02 -0.56569853819E+01  0.30333383478E+02  0.10566000000E+00 0.  1.
         13    1    1    0    0    0  0.16800248315E+02  0.26807683201E+02 -0.58139316766E+01  0.32166958010E+02  0.10566000000E+00 0.  1.
         22    1    1    0    0    0 -0.32695616971E+02 -0.52015593881E+02  0.11470917059E+02  0.62499658512E+02  0.00000000000E+00 0.  1.
</event>
<event>
 4    1  0.9925048E-003  0.9118800E+02  0.7818608E-02  0.1130116E+00
         25   -1    0    0    0    0  0.00000000000E+00  0.00000000000E+00  0.99999998245E-14  0.12500000000E+03  0.12500000000E+03 0.  0.
        -13    1    1    0    0    0  0.13967713576E+02  0.55021968731E+01  0.47916636657E+01  0.15758883136E+02  0.10566000000E+00 0.  1.
         13    1    1    0    0    0  0.43035547603E+02  0.33839786341E+01 -0.22779596460E+02  0.48810151073E+02  0.10566000000E+00 0. -1.
         22    1    1    0    0    0 -0.57003261179E+02 -0.88861755071E+01  0.17987932794E+02  0.60430965791E+02  0.00000000000E+00 0. -1.
</event>
<event>
 4    1  0.9925048E-003  0.9118800E+02  0.7818608E-02  0.1130116E+00
         25   -1    0    0    0    0  0.00000000000E+00  0.00000000000E+00  0.99999998245E-14  0.12500000000E+03  0.12500000000E+03 0.  0.
        -13    1    1    0    0    0 -0.21645866921E+02  0.70121153748E-01 -0.23155335048E+02  0.31697463257E+02  0.10566000000E+00 0.  1.
         13    1    1    0    0    0 -0.20797666900E+02 -0.28142591122E+02 -0.46709913035E+01  0.35304074939E+02  0.10566000000E+00 0. -1.
         22    1    1    0    0    0  0.42443533821E+02  0.28072469968E+02  0.27826326351E+02  0.57998461803E+02  0.00000000000E+00 0.  1.
</event>
<event>
 4    1  0.9925048E-003  0.9118800E+02  0.7818608E-02  0.1130116E+00
         25   -1    0    0    0    0  0.00000000000E+00  0.00000000000E+00  0.99999998245E-14  0.12500000000E+03  0.12500000000E+03 0.  0.
        -13    1    1    0    0    0  0.97724300345E+01  0.11113273477E+02  0.27364068407E+02  0.31109622948E+02  0.10566000000E+00 0. -1.
         13    1    1    0    0    0  0.92044137172E+01  0.11283061736E+02  0.27810886787E+02  0.31392440203E+02  0.10566000000E+00 0. -1.
         22    1    1    0    0    0 -0.18976843752E+02 -0.22396335213E+02 -0.55174955194E+02  0.62497936849E+02  0.00000000000E+00 0. -1.
</event>
<event>
 4    1  0.9925048E-003  0.9118800E+02  0.7818608E-02  0.1130116E+00
         25   -1    0    0    0    0  0.00000000000E+00  0.00000000000E+00  0.99999998245E-14  0.12500000000E+03  0.12500000000E+03 0.  0.
        -13    1    1    0    0    0 -0.27552416199E+02  0.14459756641E+02 -0.11649493781E+02  0.33225623695E+02  0.10566000000E+00 0.  1.
         13    1    1    0    0    0 -0.24316607294E+02  0.13031731090E+02 -0.97952292080E+01  0.29275947206E+02  0.10566000000E+00 0. -1.
         22    1    1    0    0    0  0.51869023493E+02 -0.27491487732E+02  0.21444722989E+02  0.62498429100E+02  0.00000000000E+00 0. -1.
</event>
<event>
 4    1  0.9925048E-003  0.9118800E+02  0.7818608E-02  0.1130116E+00
         25   -1    0    0    0    0  0.00000000000E+00  0.00000000000E+00  0.99999998245E-14  0.12500000000E+03  0.12500000000E+03 0.  0.
        -13    1    1    0    0    0  0.65166152453E+01  0.47193415162E+01 -0.53202419916E+01  0.96464810934E+01  0.10566000000E+00 0. -1.
         13    1    1    0    0    0  0.32408506784E+02  0.29221681269E+02 -0.29850487235E+02  0.52870414414E+02  0.10566000000E+00 0. -1.
         22    1    1    0    0    0 -0.38925122029E+02 -0.33941022785E+02  0.35170729226E+02  0.62483104492E+02  0.00000000000E+00 0. -1.
</event>
<event>
 4    1  0.9925048E-003  0.9118800E+02  0.7818608E-02  0.1130116E+00
         25   -1    0    0    0    0  0.00000000000E+00  0.00000000000E+00  0.99999998245E-14  0.12500000000E+03  0.12500000000E+03 0.  0.
        -13    1    1    0    0    0  0.19167345325E+01 -0.36300257856E+01 -0.79682258694E+01  0.89640808794E+01  0.10566000000E+00 0. -1.
         13    1    1    0    0    0  0.27343267347E+02 -0.14815136564E+02 -0.43835268790E+02  0.53746483555E+02  0.10566000000E+00 0.  1.
         22    1    1    0    0    0 -0.29260001880E+02  0.18445162350E+02  0.51803494659E+02  0.62289435565E+02  0.00000000000E+00 0.  1.
</event>
<event>
 4    1  0.9925048E-003  0.9118800E+02  0.7818608E-02  0.1130116E+00
         25   -1    0    0    0    0  0.00000000000E+00  0.00000000000E+00  0.99999998245E-14  0.12500000000E+03  0.12500000000E+03 0.  0.
        -13    1    1    0    0    0  0.20359552561E+02 -0.64572599536E+01  0.23899604996E+02  0.32053234932E+02  0.10566000000E+00 0. -1.
         13    1    1    0    0    0  0.19195736084E+02  0.99385382167E+01  0.22954024771E+02  0.31530132301E+02  0.10566000000E+00 0.  1.
         22    1    1    0    0    0 -0.39555288645E+02 -0.34812782631E+01 -0.46853629767E+02  0.61416632767E+02  0.00000000000E+00 0. -1.
</event>
<event>
 4    1  0.9925048E-003  0.9118800E+02  0.7818608E-02  0.1130116E+00
         25   -1    0    0    0    0  0.00000000000E+00  0.00000000000E+00  0.99999998245E-14  0.12500000000E+03  0.12500000000E+03 0.  0.
        -13    1    1    0    0    0 -0.85478064626E+01 -0.10467462067E+02  0.17196558944E+02  0.21871569697E+02  0.10566000000E+00 0.  1.
         13    1    1    0    0    0 -0.15917114981E+02 -0.19576537322E+02  0.31844682912E+02  0.40628688837E+02  0.10566000000E+00 0. -1.
         22    1    1    0    0    0  0.24464921444E+02  0.30043999389E+02 -0.49041241856E+02  0.62499741466E+02  0.00000000000E+00 0.  1.
</event>
<event>
 4    1  0.9925048E-003  0.9118800E+02  0.7818608E-02  0.1130116E+00
         25   -1    0    0    0    0  0.00000000000E+00  0.00000000000E+00  0.99999998245E-14  0.12500000000E+03  0.12500000000E+03 0.  0.
        -13    1    1    0    0    0 -0.31072270111E+01 -0.52074324969E+01  0.44091156100E+01  0.74982449550E+01  0.10566000000E+00 0.  1.
         13    1    1    0    0    0 -0.21775540203E+02 -0.38634305668E+02  0.32534910035E+02  0.55002865931E+02  0.10566000000E+00 0.  1.
         22    1    1    0    0    0  0.24882767214E+02  0.43841738165E+02 -0.36944025645E+02  0.62498889114E+02  0.00000000000E+00 0.  1.
</event>
<event>
 4    1  0.9925048E-003  0.9118800E+02  0.7818608E-02  0.1130116E+00
         25   -1    0    0    0    0  0.00000000000E+00  0.00000000000E+00  0.99999998245E-14  0.12500000000E+03  0.12500000000E+03 0.  0.
        -13    1    1    0    0    0  0.34585558221E+02 -0.13097846186E+02 -0.39664336449E+02  0.54230850649E+02  0.10566000000E+00 0. -1.
         13    1    1    0    0    0  0.92669401012E+01  0.30309797974E+01 -0.14040953499E+01  0.98511758262E+01  0.10566000000E+00 0.  1.
         22    1    1    0    0    0 -0.43852498322E+02  0.10066866389E+02  0.41068431799E+02  0.60917973525E+02  0.00000000000E+00 0. -1.
</event>
<event>
 4    1  0.9925048E-003  0.9118800E+02  0.7818608E-02  0.1130116E+00
         25   -1    0    0    0    0  0.00000000000E+00  0.00000000000E+00  0.99999998245E-14  0.12500000000E+03  0.12500000000E+03 0.  0.
        -13    1    1    0    0    0  0.21801228816E+01 -0.94611852523E+01 -0.49379034034E+02  0.50324617518E+02  0.10566000000E+00 0.  1.
         13    1    1    0    0    0 -0.20935326357E+02  0.45020510208E+01 -0.22218786367E+00  0.21415342270E+02  0.10566000000E+00 0. -1.
         22    1    1    0    0    0  0.18755203475E+02  0.49591342315E+01  0.49601221897E+02  0.53260040212E+02  0.00000000000E+00 0.  1.
</event>
<event>
 4    1  0.9925048E-003  0.9118800E+02  0.7818608E-02  0.1130116E+00
         25   -1    0    0    0    0  0.00000000000E+00  0.00000000000E+00  0.99999998245E-14  0.12500000000E+03  0.12500000000E+03 0.  0.
        -13    1    1    0    0    0  0.30253109492E+02  0.32909834747E+02 -0.33790182711E+01  0.44830087949E+02  0.10566000000E+00 0. -1.
         13    1    1    0    0    0  0.40400787422E+01  0.18117809481E+02  0.20406002070E+01  0.18674915525E+02  0.10566000000E+00 0.  1.
         22    1    1    0    0    0 -0.34293188235E+02 -0.51027644228E+02  0.13384180641E+01  0.61494996525E+02  0.00000000000E+00 0. -1.
</event>
<event>
 4    1  0.9925048E-003  0.9118800E+02  0.7818608E-02  0.1130116E+00
         25   -1    0    0    0    0  0.00000000000E+00  0.00000000000E+00  0.99999998245E-14  0.12500000000E+03  0.12500000000E+03 0.  0.
        -13    1    1    0    0    0  0.12158315234E+02 -0.11929280797E+01 -0.90393997271E+01  0.15197684633E+02  0.10566000000E+00 0. -1.
         13    1    1    0    0    0  0.37568711999E+02 -0.33426947636E+01 -0.28547953052E+02  0.47303049764E+02  0.10566000000E+00 0. -1.
         22    1    1    0    0    0 -0.49727027233E+02  0.45356228432E+01  0.37587352779E+02  0.62499265603E+02  0.00000000000E+00 0. -1.
</event>
<event>
 4    1  0.9925048E-003  0.9118800E+02  0.7818608E-02  0.1130116E+00
         25   -1    0    0    0    0  0.00000000000E+00  0.00000000000E+00  0.99999998245E-14  0.12500000000E+03  0.12500000000E+03 0.  0.
        -13    1    1    0    0    0  0.16275097669E+02  0.93027403379E+01 -0.91637707514E+01  0.20866375832E+02  0.10566000000E+00 0.  1.
         13    1    1    0    0    0  0.42611901118E+02  0.56041131273E+01  0.43572050401E+01  0.43199266205E+02  0.10566000000E+00 0. -1.
         22    1    1    0    0    0 -0.58886998788E+02 -0.14906853465E+02  0.48065657112E+01  0.60934357963E+02  0.00000000000E+00 0. -1.
</event>
<event>
 4    1  0.9925048E-003  0.9118800E+02  0.7818608E-02  0.1130116E+00
         25   -1    0    0    0    0  0.00000000000E+00  0.00000000000E+00  0.99999998245E-14  0.12500000000E+03  0.12500000000E+03 0.  0.
        -13    1    1    0    0    0  0.21142569456E+02  0.30513345887E+02  0.12472063372E+02  0.39161665558E+02  0.10566000000E+00 0.  1.
         13    1    1    0    0    0  0.10721460911E+02  0.21105080228E+02  0.10215943488E+01  0.23694492072E+02  0.10566000000E+00 0. -1.
         22    1    1    0    0    0 -0.31864030368E+02 -0.51618426115E+02 -0.13493657721E+02  0.62143842370E+02  0.00000000000E+00 0.  1.
</event>
<event>
 4    1  0.9925048E-003  0.9118800E+02  0.7818608E-02  0.1130116E+00
         25   -1    0    0    0    0  0.00000000000E+00  0.00000000000E+00  0.99999998245E-14  0.12500000000E+03  0.12500000000E+03 0.  0.
        -13    1    1    0    0    0  0.48722258295E+01 -0.39012760026E+01  0.42234359085E+01  0.75370494155E+01  0.10566000000E+00 0. -1.
         13    1    1    0    0    0  0.37661280620E+02 -0.26487979322E+02  0.30025288306E+02  0.54968301851E+02  0.10566000000E+00 0.  1.
         22    1    1    0    0    0 -0.42533506449E+02  0.30389255324E+02 -0.34248724214E+02  0.62494648734E+02  0.00000000000E+00 0.  1.
</event>
<event>
 4    1  0.9925048E-003  0.9118800E+02  0.7818608E-02  0.1130116E+00
         25   -1    0    0    0    0  0.00000000000E+00  0.00000000000E+00  0.99999998245E-14  0.12500000000E+03  0.12500000000E+03 0.  0.
        -13    1    1    0    0    0 -0.29157660462E+00  0.95787322465E+01  0.10430067550E+02  0.14164554406E+02  0.10566000000E+00 0. -1.
         13    1    1    0    0    0 -0.79282788718E+00  0.32743021848E+02  0.35547150767E+02  0.48335754339E+02  0.10566000000E+00 0. -1.
         22    1    1    0    0    0  0.10844044918E+01 -0.42321754095E+02 -0.45977218318E+02  0.62499691255E+02  0.00000000000E+00 0. -1.
</event>
<event>
 4    1  0.9925048E-003  0.9118800E+02  0.7818608E-02  0.1130116E+00
         25   -1    0    0    0    0  0.00000000000E+00  0.00000000000E+00  0.99999998245E-14  0.12500000000E+03  0.12500000000E+03 0.  0.
        -13    1    1    0    0    0  0.10701586753E+02 -0.13529914116E+02  0.53585870948E+01  0.18064001625E+02  0.10566000000E+00 0. -1.
         13    1    1    0    0    0  0.25455056585E+02 -0.34594695346E+02  0.11428718331E+02  0.44445242924E+02  0.10566000000E+00 0.  1.
         22    1    1    0    0    0 -0.36156643338E+02  0.48124609462E+02 -0.16787305425E+02  0.62490755451E+02  0.00000000000E+00 0.  1.
</event>
<event>
 4    1  0.9925048E-003  0.9118800E+02  0.7818608E-02  0.1130116E+00
         25   -1    0    0    0    0  0.00000000000E+00  0.00000000000E+00  0.99999998245E-14  0.12500000000E+03  0.12500000000E+03 0.  0.
        -13    1    1    0    0    0 -0.29668546735E+02  0.24766248886E+02  0.25708994229E+02  0.46417165980E+02  0.10566000000E+00 0.  1.
         13    1    1    0    0    0 -0.10176417772E+02  0.84367484308E+01  0.91625049784E+01  0.16084180560E+02  0.10566000000E+00 0. -1.
         22    1    1    0    0    0  0.39844964508E+02 -0.33202997317E+02 -0.34871499207E+02  0.62498653461E+02  0.00000000000E+00 0.  1.
</event>
<event>
 4    1  0.9925048E-003  0.9118800E+02  0.7818608E-02  0.1130116E+00
         25   -1    0    0    0    0  0.00000000000E+00  0.00000000000E+00  0.99999998245E-14  0.12500000000E+03  0.12500000000E+03 0.  0.
        -13    1    1    0    0    0  0.22967631742E+02 -0.10896136832E+02 -0.55941363015E+02  0.61446604184E+02  0.10566000000E+00 0. -1.
         13    1    1    0    0    0  0.50958833854E+00  0.11495116176E+01 -0.71884268364E+00  0.14522245258E+01  0.10566000000E+00 0.  1.
         22    1    1    0    0    0 -0.23477220080E+02  0.97466252139E+01  0.56660205699E+02  0.62101171290E+02  0.00000000000E+00 0. -1.
</event>
<event>
 4    1  0.9925048E-003  0.9118800E+02  0.7818608E-02  0.1130116E+00
         25   -1    0    0    0    0  0.00000000000E+00  0.00000000000E+00  0.99999998245E-14  0.12500000000E+03  0.12500000000E+03 0.  0.
        -13    1    1    0    0    0 -0.68536892956E+01 -0.35246851328E+01  0.28003728477E+01  0.82005923181E+01  0.10566000000E+00 0. -1.
         13    1    1    0    0    0  0.51197839676E+02 -0.27755949683E+02 -0.17070163604E+02  0.60687833870E+02  0.10566000000E+00 0.  1.
         22    1    1    0    0    0 -0.44344150380E+02  0.31280634816E+02  0.14269790756E+02  0.56111573812E+02  0.00000000000E+00 0.  1.
</event>
<event>
 4    1  0.9925048E-003  0.9118800E+02  0.7818608E-02  0.1130116E+00
         25   -1    0    0    0    0  0.00000000000E+00  0.00000000000E+00  0.99999998245E-14  0.12500000000E+03  0.12500000000E+03 0.  0.
        -13    1    1    0    0    0 -0.86876875900E+01  0.46100111709E+01  0.78817127799E+01  0.12603994567E+02  0.10566000000E+00 0.  1.
         13    1    1    0    0    0 -0.30717167692E+02  0.22696018911E+02  0.32162456083E+02  0.49930836271E+02  0.10566000000E+00 0. -1.
         22    1    1    0    0    0  0.39404855281E+02 -0.27306030082E+02 -0.40044168862E+02  0.62465169162E+02  0.00000000000E+00 0. -1.
</event>
<event>
 4    1  0.9925048E-003  0.9118800E+02  0.7818608E-02  0.1130116E+00
         25   -1    0    0    0    0  0.00000000000E+00  0.00000000000E+00  0.99999998245E-14  0.12500000000E+03  0.12500000000E+03 0.  0.
        -13    1    1    0    0    0 -0.21587174721E+02  0.16424706789E+02 -0.37857169418E+02  0.46572025358E+02  0.10566000000E+00 0. -1.
         13    1    1    0    0    0 -0.10270284152E+02  0.85811802992E+01 -0.92768355817E+01  0.16284539734E+02  0.10566000000E+00 0.  1.
         22    1    1    0    0    0  0.31857458873E+02 -0.25005887089E+02  0.47134004999E+02  0.62143434909E+02  0.00000000000E+00 0. -1.
</event>
<event>
 4    1  0.9925048E-003  0.9118800E+02  0.7818608E-02  0.1130116E+00
         25   -1    0    0    0    0  0.00000000000E+00  0.00000000000E+00  0.99999998245E-14  0.12500000000E+03  0.12500000000E+03 0.  0.
        -13    1    1    0    0    0 -0.20790218711E+02 -0.53911588291E+01 -0.17046904582E+02  0.27420902747E+02  0.10566000000E+00 0. -1.
         13    1    1    0    0    0 -0.18916300134E+02  0.35209019887E+02  0.25212042435E+02  0.47256319577E+02  0.10566000000E+00 0.  1.
         22    1    1    0    0    0  0.39706518846E+02 -0.29817861058E+02 -0.81651378527E+01  0.50322777676E+02  0.00000000000E+00 0.  1.
</event>
<event>
 4    1  0.9925048E-003  0.9118800E+02  0.7818608E-02  0.1130116E+00
         25   -1    0    0    0    0  0.00000000000E+00  0.00000000000E+00  0.99999998245E-14  0.12500000000E+03  0.12500000000E+03 0.  0.
        -13    1    1    0    0    0  0.35098006571E+01 -0.17821225236E+02 -0.12177950608E+02  0.21868434206E+02  0.10566000000E+00 0.  1.
         13    1    1    0    0    0  0.15959829142E+02  0.41734038099E+02 -0.27814078140E+02  0.52631551270E+02  0.10566000000E+00 0. -1.
         22    1    1    0    0    0 -0.19469629799E+02 -0.23912812863E+02  0.39992028748E+02  0.50500014524E+02  0.00000000000E+00 0. -1.
</event>
<event>
 4    1  0.9925048E-003  0.9118800E+02  0.7818608E-02  0.1130116E+00
         25   -1    0    0    0    0  0.00000000000E+00  0.00000000000E+00  0.99999998245E-14  0.12500000000E+03  0.12500000000E+03 0.  0.
        -13    1    1    0    0    0  0.53984111312E+00  0.33671465876E+01 -0.20373903360E+01  0.39738178100E+01  0.10566000000E+00 0.  1.
         13    1    1    0    0    0  0.31221595977E+01  0.56418697120E+02 -0.15538867505E+02  0.58602771544E+02  0.10566000000E+00 0. -1.
         22    1    1    0    0    0 -0.36620007108E+01 -0.59785843707E+02  0.17576257841E+02  0.62423410646E+02  0.00000000000E+00 0. -1.
</event>
<event>
 4    1  0.9925048E-003  0.9118800E+02  0.7818608E-02  0.1130116E+00
         25   -1    0    0    0    0  0.00000000000E+00  0.00000000000E+00  0.99999998245E-14  0.12500000000E+03  0.12500000000E+03 0.  0.
        -13    1    1    0    0    0  0.31479178237E+00 -0.20341714673E+01 -0.19226723292E+01  0.28186486737E+01  0.10566000000E+00 0.  1.
         13    1    1    0    0    0  0.23526303148E+02 -0.44009817102E+02 -0.32855007339E+02  0.59747917223E+02  0.10566000000E+00 0. -1.
         22    1    1    0    0    0 -0.23841094930E+02  0.46043988569E+02  0.34777679668E+02  0.62433434104E+02  0.00000000000E+00 0. -1.
</event>
<event>
 4    1  0.9925048E-003  0.9118800E+02  0.7818608E-02  0.1130116E+00
         25   -1    0    0    0    0  0.00000000000E+00  0.00000000000E+00  0.99999998245E-14  0.12500000000E+03  0.12500000000E+03 0.  0.
        -13    1    1    0    0    0 -0.14330346333E+02 -0.12230949403E+02  0.11300634296E+02  0.21969762148E+02  0.10566000000E+00 0. -1.
         13    1    1    0    0    0 -0.35979598251E+02 -0.18496735530E+02  0.75169648722E+01  0.41148227672E+02  0.10566000000E+00 0.  1.
         22    1    1    0    0    0  0.50309944584E+02  0.30727684933E+02 -0.18817599168E+02  0.61882010180E+02  0.00000000000E+00 0.  1.
</event>
<event>
 4    1  0.9925048E-003  0.9118800E+02  0.7818608E-02  0.1130116E+00
         25   -1    0    0    0    0  0.00000000000E+00  0.00000000000E+00  0.99999998245E-14  0.12500000000E+03  0.12500000000E+03 0.  0.
        -13    1    1    0    0    0  0.66190140275E+01 -0.48940223377E+01 -0.15258922626E+02  0.17338070396E+02  0.10566000000E+00 0. -1.
         13    1    1    0    0    0  0.24627268866E+02  0.14567455104E+02 -0.36533774967E+02  0.46405182872E+02  0.10566000000E+00 0.  1.
         22    1    1    0    0    0 -0.31246282893E+02 -0.96734327664E+01  0.51792697593E+02  0.61256746731E+02  0.00000000000E+00 0. -1.
</event>
<event>
 4    1  0.9925048E-003  0.9118800E+02  0.7818608E-02  0.1130116E+00
         25   -1    0    0    0    0  0.00000000000E+00  0.00000000000E+00  0.99999998245E-14  0.12500000000E+03  0.12500000000E+03 0.  0.
        -13    1    1    0    0    0  0.26399606735E+02  0.33717420886E+02 -0.38026067124E+02  0.57269508920E+02  0.10566000000E+00 0.  1.
         13    1    1    0    0    0 -0.27426052122E+01  0.53209457171E+01 -0.26895098833E+01  0.65634574823E+01  0.10566000000E+00 0. -1.
         22    1    1    0    0    0 -0.23657001523E+02 -0.39038366603E+02  0.40715577007E+02  0.61167033598E+02  0.00000000000E+00 0.  1.
</event>
<event>
 4    1  0.9925048E-003  0.9118800E+02  0.7818608E-02  0.1130116E+00
         25   -1    0    0    0    0  0.00000000000E+00  0.00000000000E+00  0.99999998245E-14  0.12500000000E+03  0.12500000000E+03 0.  0.
        -13    1    1    0    0    0  0.35577412551E+01 -0.74576679171E+01  0.59472492136E+02  0.60043840804E+02  0.10566000000E+00 0.  1.
         13    1    1    0    0    0  0.98516056369E+00 -0.35573350225E+01  0.57562261801E+00  0.37373358469E+01  0.10566000000E+00 0. -1.
         22    1    1    0    0    0 -0.45429018188E+01  0.11015002940E+02 -0.60048114754E+02  0.61218823349E+02  0.00000000000E+00 0.  1.
</event>
<event>
 4    1  0.9925048E-003  0.9118800E+02  0.7818608E-02  0.1130116E+00
         25   -1    0    0    0    0  0.00000000000E+00  0.00000000000E+00  0.99999998245E-14  0.12500000000E+03  0.12500000000E+03 0.  0.
        -13    1    1    0    0    0  0.22841283988E+02 -0.46378640218E+02 -0.29221309990E+02  0.59385171922E+02  0.10566000000E+00 0.  1.
         13    1    1    0    0    0 -0.38435603503E+01  0.34417437723E+00 -0.41493816987E+01  0.56674460461E+01  0.10566000000E+00 0. -1.
         22    1    1    0    0    0 -0.18997723637E+02  0.46034465841E+02  0.33370691689E+02  0.59947382032E+02  0.00000000000E+00 0.  1.
</event>
<event>
 4    1  0.9925048E-003  0.9118800E+02  0.7818608E-02  0.1130116E+00
         25   -1    0    0    0    0  0.00000000000E+00  0.00000000000E+00  0.99999998245E-14  0.12500000000E+03  0.12500000000E+03 0.  0.
        -13    1    1    0    0    0  0.34581692782E+02 -0.22049901438E+00 -0.35468912490E+02  0.49537834154E+02  0.10566000000E+00 0.  1.
         13    1    1    0    0    0  0.92685231501E+01 -0.34526918388E-01 -0.90633886862E+01  0.12963907282E+02  0.10566000000E+00 0. -1.
         22    1    1    0    0    0 -0.43850215932E+02  0.25502593277E+00  0.44532301176E+02  0.62498258564E+02  0.00000000000E+00 0.  1.
</event>
<event>
 4    1  0.9925048E-003  0.9118800E+02  0.7818608E-02  0.1130116E+00
         25   -1    0    0    0    0  0.00000000000E+00  0.00000000000E+00  0.99999998245E-14  0.12500000000E+03  0.12500000000E+03 0.  0.
        -13    1    1    0    0    0  0.13857997640E+02  0.24199719402E+02  0.25766737118E+01  0.28005730292E+02  0.10566000000E+00 0. -1.
         13    1    1    0    0    0  0.18935763831E+02 -0.43891265634E+02 -0.23638744989E+02  0.53327364265E+02  0.10566000000E+00 0.  1.
         22    1    1    0    0    0 -0.32793761472E+02  0.19691546231E+02  0.21062071277E+02  0.43666905442E+02  0.00000000000E+00 0.  1.
</event>
<event>
 4    1  0.9925048E-003  0.9118800E+02  0.7818608E-02  0.1130116E+00
         25   -1    0    0    0    0  0.00000000000E+00  0.00000000000E+00  0.99999998245E-14  0.12500000000E+03  0.12500000000E+03 0.  0.
        -13    1    1    0    0    0 -0.70410285404E+01  0.42821824051E+02 -0.20368512919E+02  0.47939255110E+02  0.10566000000E+00 0.  1.
         13    1    1    0    0    0 -0.11010075339E+02  0.70509484322E+01 -0.95261497321E+01  0.16177030800E+02  0.10566000000E+00 0. -1.
         22    1    1    0    0    0  0.18051103879E+02 -0.49872772483E+02  0.29894662651E+02  0.60883714090E+02  0.00000000000E+00 0.  1.
</event>
<event>
 4    1  0.9925048E-003  0.9118800E+02  0.7818608E-02  0.1130116E+00
         25   -1    0    0    0    0  0.00000000000E+00  0.00000000000E+00  0.99999998245E-14  0.12500000000E+03  0.12500000000E+03 0.  0.
        -13    1    1    0    0    0 -0.50904714960E+00 -0.47150747641E+01  0.44286810385E+01  0.64896408844E+01  0.10566000000E+00 0.  1.
         13    1    1    0    0    0 -0.75725840625E+01 -0.40976701225E+02  0.37434342588E+02  0.56015848130E+02  0.10566000000E+00 0. -1.
         22    1    1    0    0    0  0.80816312121E+01  0.45691775989E+02 -0.41863023627E+02  0.62494510985E+02  0.00000000000E+00 0. -1.
</event>
<event>
 4    1  0.9925048E-003  0.9118800E+02  0.7818608E-02  0.1130116E+00
         25   -1    0    0    0    0  0.00000000000E+00  0.00000000000E+00  0.99999998245E-14  0.12500000000E+03  0.12500000000E+03 0.  0.
        -13    1    1    0    0    0  0.37059845908E+01  0.65860994751E-01 -0.60513480662E+00  0.37571281090E+01  0.10566000000E+00 0. -1.
         13    1    1    0    0    0  0.57958761535E+02 -0.92727555870E+01  0.37475658876E+01  0.58815452467E+02  0.10566000000E+00 0.  1.
         22    1    1    0    0    0 -0.61664746126E+02  0.92068945923E+01 -0.31424310810E+01  0.62427419424E+02  0.00000000000E+00 0.  1.
</event>
<event>
 4    1  0.9925048E-003  0.9118800E+02  0.7818608E-02  0.1130116E+00
         25   -1    0    0    0    0  0.00000000000E+00  0.00000000000E+00  0.99999998245E-14  0.12500000000E+03  0.12500000000E+03 0.  0.
        -13    1    1    0    0    0 -0.53096763877E+02  0.28876637208E+01 -0.58524070008E+01  0.53496418270E+02  0.10566000000E+00 0. -1.
         13    1    1    0    0    0 -0.87725153207E+01  0.42713348808E+00 -0.21172009983E+01  0.90351077565E+01  0.10566000000E+00 0.  1.
         22    1    1    0    0    0  0.61869279197E+02 -0.33147972089E+01  0.79696079991E+01  0.62468473974E+02  0.00000000000E+00 0. -1.
</event>
<event>
 4    1  0.9925048E-003  0.9118800E+02  0.7818608E-02  0.1130116E+00
         25   -1    0    0    0    0  0.00000000000E+00  0.00000000000E+00  0.99999998245E-14  0.12500000000E+03  0.12500000000E+03 0.  0.
        -13    1    1    0    0    0 -0.26333458853E+02 -0.18109701802E+02 -0.33180319600E+02  0.46069047389E+02  0.10566000000E+00 0.  1.
         13    1    1    0    0    0 -0.91658460031E+01 -0.72729673273E+01 -0.11548033601E+02  0.16440104342E+02  0.10566000000E+00 0. -1.
         22    1    1    0    0    0  0.35499304856E+02  0.25382669129E+02  0.44728353200E+02  0.62490848269E+02  0.00000000000E+00 0.  1.
</event>
<event>
 4    1  0.9925048E-003  0.9118800E+02  0.7818608E-02  0.1130116E+00
         25   -1    0    0    0    0  0.00000000000E+00  0.00000000000E+00  0.99999998245E-14  0.12500000000E+03  0.12500000000E+03 0.  0.
        -13    1    1    0    0    0  0.25071571835E+02  0.20115829558E+02  0.37726106270E+01  0.32364704047E+02  0.10566000000E+00 0.  1.
         13    1    1    0    0    0  0.22683004053E+02  0.19540274001E+02 -0.59459540295E+01  0.30523867944E+02  0.10566000000E+00 0. -1.
         22    1    1    0    0    0 -0.47754575888E+02 -0.39656103560E+02  0.21733434025E+01  0.62111428009E+02  0.00000000000E+00 0. -1.
</event>
<event>
 4    1  0.9925048E-003  0.9118800E+02  0.7818608E-02  0.1130116E+00
         25   -1    0    0    0    0  0.00000000000E+00  0.00000000000E+00  0.99999998245E-14  0.12500000000E+03  0.12500000000E+03 0.  0.
        -13    1    1    0    0    0  0.13840284348E+02 -0.22325862667E+02 -0.55621408272E+01  0.26850441137E+02  0.10566000000E+00 0.  1.
         13    1    1    0    0    0  0.29567172428E+02 -0.18447643659E+02 -0.10626503511E+02  0.36434420303E+02  0.10566000000E+00 0. -1.
         22    1    1    0    0    0 -0.43407456776E+02  0.40773506326E+02  0.16188644338E+02  0.61715138559E+02  0.00000000000E+00 0. -1.
</event>
<event>
 4    1  0.9925048E-003  0.9118800E+02  0.7818608E-02  0.1130116E+00
         25   -1    0    0    0    0  0.00000000000E+00  0.00000000000E+00  0.99999998245E-14  0.12500000000E+03  0.12500000000E+03 0.  0.
        -13    1    1    0    0    0 -0.34573348199E+02 -0.45340837008E+02  0.24501077104E+01  0.57071202003E+02  0.10566000000E+00 0. -1.
         13    1    1    0    0    0 -0.30604179989E+01 -0.44927438719E+01 -0.21332469013E+00  0.54412845253E+01  0.10566000000E+00 0.  1.
         22    1    1    0    0    0  0.37633766198E+02  0.49833580880E+02 -0.22367830202E+01  0.62487513471E+02  0.00000000000E+00 0. -1.
</event>
<event>
 4    1  0.9925048E-003  0.9118800E+02  0.7818608E-02  0.1130116E+00
         25   -1    0    0    0    0  0.00000000000E+00  0.00000000000E+00  0.99999998245E-14  0.12500000000E+03  0.12500000000E+03 0.  0.
        -13    1    1    0    0    0 -0.10964466371E+02  0.20338321105E+02  0.10922012709E+02  0.25557158563E+02  0.10566000000E+00 0. -1.
         13    1    1    0    0    0 -0.15835028128E+02  0.29363954623E+02  0.15867818878E+02  0.36943047883E+02  0.10566000000E+00 0. -1.
         22    1    1    0    0    0  0.26799494500E+02 -0.49702275727E+02 -0.26789831586E+02  0.62499793554E+02  0.00000000000E+00 0. -1.
</event>
<event>
 4    1  0.9925048E-003  0.9118800E+02  0.7818608E-02  0.1130116E+00
         25   -1    0    0    0    0  0.00000000000E+00  0.00000000000E+00  0.99999998245E-14  0.12500000000E+03  0.12500000000E+03 0.  0.
        -13    1    1    0    0    0 -0.23365346039E+02  0.55106702809E+02 -0.68457691230E+01  0.60245861342E+02  0.10566000000E+00 0. -1.
         13    1    1    0    0    0 -0.11739601501E+01  0.18043149599E+01 -0.81955874423E+00  0.23057700404E+01  0.10566000000E+00 0.  1.
         22    1    1    0    0    0  0.24539306189E+02 -0.56911017768E+02  0.76653278672E+01  0.62448368617E+02  0.00000000000E+00 0. -1.
</event>
<event>
 4    1  0.9925048E-003  0.9118800E+02  0.7818608E-02  0.1130116E+00
         25   -1    0    0    0    0  0.00000000000E+00  0.00000000000E+00  0.99999998245E-14  0.12500000000E+03  0.12500000000E+03 0.  0.
        -13    1    1    0    0    0 -0.94902106243E+01  0.10224265376E+02 -0.26512777355E+01  0.14200004854E+02  0.10566000000E+00 0.  1.
         13    1    1    0    0    0 -0.33530998987E+02  0.33267778457E+02 -0.10119500196E+02  0.48306194476E+02  0.10566000000E+00 0. -1.
         22    1    1    0    0    0  0.43021209611E+02 -0.43492043833E+02  0.12770777932E+02  0.62493800670E+02  0.00000000000E+00 0.  1.
</event>
<event>
 4    1  0.9925048E-003  0.9118800E+02  0.7818608E-02  0.1130116E+00
         25   -1    0    0    0    0  0.00000000000E+00  0.00000000000E+00  0.99999998245E-14  0.12500000000E+03  0.12500000000E+03 0.  0.
        -13    1    1    0    0    0  0.30161068991E+02 -0.14501224797E+02 -0.34144746225E+02  0.47810568519E+02  0.10566000000E+00 0.  1.
         13    1    1    0    0    0  0.10740670153E+02 -0.10889846876E+02 -0.39508184943E+01  0.15797812859E+02  0.10566000000E+00 0. -1.
         22    1    1    0    0    0 -0.40901739144E+02  0.25391071673E+02  0.38095564720E+02  0.61391618622E+02  0.00000000000E+00 0.  1.
</event>
<event>
 4    1  0.9925048E-003  0.9118800E+02  0.7818608E-02  0.1130116E+00
         25   -1    0    0    0    0  0.00000000000E+00  0.00000000000E+00  0.99999998245E-14  0.12500000000E+03  0.12500000000E+03 0.  0.
        -13    1    1    0    0    0  0.15980047126E+02 -0.14432568181E+02  0.13204335378E+02  0.25259187779E+02  0.10566000000E+00 0. -1.
         13    1    1    0    0    0  0.25428933409E+02 -0.23003290380E+02  0.14729151767E+02  0.37319446653E+02  0.10566000000E+00 0.  1.
         22    1    1    0    0    0 -0.41408980535E+02  0.37435858561E+02 -0.27933487146E+02  0.62421365568E+02  0.00000000000E+00 0.  1.
</event>
<event>
 4    1  0.9925048E-003  0.9118800E+02  0.7818608E-02  0.1130116E+00
         25   -1    0    0    0    0  0.00000000000E+00  0.00000000000E+00  0.99999998245E-14  0.12500000000E+03  0.12500000000E+03 0.  0.
        -13    1    1    0    0    0 -0.86662228132E+01 -0.42217062770E+01  0.14741236912E+02  0.17613672288E+02  0.10566000000E+00 0. -1.
         13    1    1    0    0    0 -0.21745490353E+02 -0.10721886764E+02  0.37775500467E+02  0.44886799909E+02  0.10566000000E+00 0. -1.
         22    1    1    0    0    0  0.30411713166E+02  0.14943593041E+02 -0.52516737379E+02  0.62499527803E+02  0.00000000000E+00 0. -1.
</event>
<event>
 4    1  0.9925048E-003  0.9118800E+02  0.7818608E-02  0.1130116E+00
         25   -1    0    0    0    0  0.00000000000E+00  0.00000000000E+00  0.99999998245E-14  0.12500000000E+03  0.12500000000E+03 0.  0.
        -13    1    1    0    0    0 -0.10195871774E+02  0.20999349075E+02 -0.15775553956E+02  0.28174593688E+02  0.10566000000E+00 0. -1.
         13    1    1    0    0    0 -0.12432208206E+02  0.25571554574E+02 -0.19229420508E+02  0.34325587851E+02  0.10566000000E+00 0. -1.
         22    1    1    0    0    0  0.22628079980E+02 -0.46570903650E+02  0.35004974465E+02  0.62499818461E+02  0.00000000000E+00 0. -1.
</event>
<event>
 4    1  0.9925048E-003  0.9118800E+02  0.7818608E-02  0.1130116E+00
         25   -1    0    0    0    0  0.00000000000E+00  0.00000000000E+00  0.99999998245E-14  0.12500000000E+03  0.12500000000E+03 0.  0.
        -13    1    1    0    0    0 -0.50014253912E+01 -0.61742233831E+01 -0.77992667924E+01  0.11134406893E+02  0.10566000000E+00 0.  1.
         13    1    1    0    0    0 -0.23505827143E+02 -0.17863777690E+02 -0.42193874201E+02  0.51497307183E+02  0.10566000000E+00 0. -1.
         22    1    1    0    0    0  0.28507252534E+02  0.24038001074E+02  0.49993140993E+02  0.62368285923E+02  0.00000000000E+00 0. -1.
</event>
<event>
 4    1  0.9925048E-003  0.9118800E+02  0.7818608E-02  0.1130116E+00
         25   -1    0    0    0    0  0.00000000000E+00  0.00000000000E+00  0.99999998245E-14  0.12500000000E+03  0.12500000000E+03 0.  0.
        -13    1    1    0    0    0  0.25386071170E+02  0.27253794389E+02  0.64706263713E+01  0.37803466610E+02  0.10566000000E+00 0. -1.
         13    1    1    0    0    0  0.16259314530E+02  0.17414361043E+02  0.66435169356E+01  0.24734040528E+02  0.10566000000E+00 0.  1.
         22    1    1    0    0    0 -0.41645385700E+02 -0.44668155433E+02 -0.13114143307E+02  0.62462492862E+02  0.00000000000E+00 0.  1.
</event>
<event>
 4    1  0.9925048E-003  0.9118800E+02  0.7818608E-02  0.1130116E+00
         25   -1    0    0    0    0  0.00000000000E+00  0.00000000000E+00  0.99999998245E-14  0.12500000000E+03  0.12500000000E+03 0.  0.
        -13    1    1    0    0    0 -0.19808033083E+02 -0.10304253680E+02  0.21544085090E+02  0.31027319976E+02  0.10566000000E+00 0. -1.
         13    1    1    0    0    0 -0.17189482495E+02 -0.92202618576E+01  0.24792225087E+02  0.31546111107E+02  0.10566000000E+00 0.  1.
         22    1    1    0    0    0  0.36997515578E+02  0.19524515537E+02 -0.46336310177E+02  0.62426568917E+02  0.00000000000E+00 0.  1.
</event>
<event>
 4    1  0.9925048E-003  0.9118800E+02  0.7818608E-02  0.1130116E+00
         25   -1    0    0    0    0  0.00000000000E+00  0.00000000000E+00  0.99999998245E-14  0.12500000000E+03  0.12500000000E+03 0.  0.
        -13    1    1    0    0    0  0.39087416194E+02  0.27403526510E+02 -0.49420233755E+01  0.47991813145E+02  0.10566000000E+00 0.  1.
         13    1    1    0    0    0  0.11160279576E+02  0.83736874234E+01 -0.43804778043E+01  0.14624302756E+02  0.10566000000E+00 0. -1.
         22    1    1    0    0    0 -0.50247695770E+02 -0.35777213933E+02  0.93225011798E+01  0.62383884099E+02  0.00000000000E+00 0.  1.
</event>
<event>
 4    1  0.9925048E-003  0.9118800E+02  0.7818608E-02  0.1130116E+00
         25   -1    0    0    0    0  0.00000000000E+00  0.00000000000E+00  0.99999998245E-14  0.12500000000E+03  0.12500000000E+03 0.  0.
        -13    1    1    0    0    0 -0.51676298121E+01 -0.31608051130E+02 -0.12323114753E+02  0.34316812430E+02  0.10566000000E+00 0.  1.
         13    1    1    0    0    0 -0.77093688803E+01 -0.27364283934E+02 -0.24645582512E+01  0.28536356025E+02  0.10566000000E+00 0. -1.
         22    1    1    0    0    0  0.12876998692E+02  0.58972335064E+02  0.14787673004E+02  0.62146831545E+02  0.00000000000E+00 0.  1.
</event>
<event>
 4    1  0.9925048E-003  0.9118800E+02  0.7818608E-02  0.1130116E+00
         25   -1    0    0    0    0  0.00000000000E+00  0.00000000000E+00  0.99999998245E-14  0.12500000000E+03  0.12500000000E+03 0.  0.
        -13    1    1    0    0    0  0.29057913344E+02 -0.35928843583E+02  0.29059384327E+02  0.54586656892E+02  0.10566000000E+00 0. -1.
         13    1    1    0    0    0  0.41874332144E+01 -0.51147851537E+01  0.43512177503E+01  0.79145362492E+01  0.10566000000E+00 0.  1.
         22    1    1    0    0    0 -0.33245346559E+02  0.41043628736E+02 -0.33410602077E+02  0.62498806859E+02  0.00000000000E+00 0. -1.
</event>
<event>
 4    1  0.9925048E-003  0.9118800E+02  0.7818608E-02  0.1130116E+00
         25   -1    0    0    0    0  0.00000000000E+00  0.00000000000E+00  0.99999998245E-14  0.12500000000E+03  0.12500000000E+03 0.  0.
        -13    1    1    0    0    0 -0.37745741893E+02  0.12732749495E+02  0.35182980255E+02  0.53148068680E+02  0.10566000000E+00 0.  1.
         13    1    1    0    0    0 -0.19739925290E+01  0.30693452023E+01  0.94012808179E+01  0.10085274985E+02  0.10566000000E+00 0. -1.
         22    1    1    0    0    0  0.39719734422E+02 -0.15802094697E+02 -0.44584261073E+02  0.61766656335E+02  0.00000000000E+00 0.  1.
</event>
<event>
 4    1  0.9925048E-003  0.9118800E+02  0.7818608E-02  0.1130116E+00
         25   -1    0    0    0    0  0.00000000000E+00  0.00000000000E+00  0.99999998245E-14  0.12500000000E+03  0.12500000000E+03 0.  0.
        -13    1    1    0    0    0 -0.34333391557E+02  0.16861153354E+02 -0.59918033302E+01  0.38716832766E+02  0.10566000000E+00 0. -1.
         13    1    1    0    0    0 -0.19363075105E+02  0.13408907991E+02 -0.38379181911E+01  0.23863534338E+02  0.10566000000E+00 0.  1.
         22    1    1    0    0    0  0.53696466662E+02 -0.30270061344E+02  0.98297215212E+01  0.62419632896E+02  0.00000000000E+00 0. -1.
</event>
<event>
 4    1  0.9925048E-003  0.9118800E+02  0.7818608E-02  0.1130116E+00
         25   -1    0    0    0    0  0.00000000000E+00  0.00000000000E+00  0.99999998245E-14  0.12500000000E+03  0.12500000000E+03 0.  0.
        -13    1    1    0    0    0  0.36426620073E+01  0.13963936322E+02 -0.91095996769E+01  0.17066237852E+02  0.10566000000E+00 0.  1.
         13    1    1    0    0    0 -0.44411342273E+02 -0.56545783643E+01  0.36801269698E+02  0.57954173226E+02  0.10566000000E+00 0. -1.
         22    1    1    0    0    0  0.40768680266E+02 -0.83093579575E+01 -0.27691670021E+02  0.49979588922E+02  0.00000000000E+00 0. -1.
</event>
<event>
 4    1  0.9925048E-003  0.9118800E+02  0.7818608E-02  0.1130116E+00
         25   -1    0    0    0    0  0.00000000000E+00  0.00000000000E+00  0.99999998245E-14  0.12500000000E+03  0.12500000000E+03 0.  0.
        -13    1    1    0    0    0 -0.38500411233E+02  0.33114751431E+02  0.26646762348E+02  0.57349189489E+02  0.10566000000E+00 0. -1.
         13    1    1    0    0    0 -0.27446051046E+00  0.38840623323E+01  0.42685704840E+01  0.57786786366E+01  0.10566000000E+00 0.  1.
         22    1    1    0    0    0  0.38774871743E+02 -0.36998813763E+02 -0.30915332832E+02  0.61872131874E+02  0.00000000000E+00 0. -1.
</event>
<event>
 4    1  0.9925048E-003  0.9118800E+02  0.7818608E-02  0.1130116E+00
         25   -1    0    0    0    0  0.00000000000E+00  0.00000000000E+00  0.99999998245E-14  0.12500000000E+03  0.12500000000E+03 0.  0.
        -13    1    1    0    0    0 -0.24049081244E+01 -0.32442024180E+02  0.34707382348E+01  0.32715832619E+02  0.10566000000E+00 0.  1.
         13    1    1    0    0    0 -0.19899050723E+01 -0.29688033682E+02  0.15625019163E+01  0.29795832634E+02  0.10566000000E+00 0. -1.
         22    1    1    0    0    0  0.43948131967E+01  0.62130057862E+02 -0.50332401510E+01  0.62488334747E+02  0.00000000000E+00 0.  1.
</event>
<event>
 4    1  0.9925048E-003  0.9118800E+02  0.7818608E-02  0.1130116E+00
         25   -1    0    0    0    0  0.00000000000E+00  0.00000000000E+00  0.99999998245E-14  0.12500000000E+03  0.12500000000E+03 0.  0.
        -13    1    1    0    0    0  0.26088442418E+01 -0.16299475389E+02  0.48129926687E+00  0.16514290153E+02  0.10566000000E+00 0.  1.
         13    1    1    0    0    0  0.78719990313E+01 -0.45274854954E+02  0.17276764350E+01  0.45986703402E+02  0.10566000000E+00 0. -1.
         22    1    1    0    0    0 -0.10480843273E+02  0.61574330343E+02 -0.22089757019E+01  0.62499006445E+02  0.00000000000E+00 0. -1.
</event>
<event>
 4    1  0.9925048E-003  0.9118800E+02  0.7818608E-02  0.1130116E+00
         25   -1    0    0    0    0  0.00000000000E+00  0.00000000000E+00  0.99999998245E-14  0.12500000000E+03  0.12500000000E+03 0.  0.
        -13    1    1    0    0    0  0.29594505027E+01  0.33204917048E+01 -0.10945317670E+02  0.11815039372E+02  0.10566000000E+00 0.  1.
         13    1    1    0    0    0  0.58381930095E+01 -0.13372561480E+01 -0.50614655698E+02  0.50967904480E+02  0.10566000000E+00 0. -1.
         22    1    1    0    0    0 -0.87976435122E+01 -0.19832355569E+01  0.61559973368E+02  0.62217056148E+02  0.00000000000E+00 0. -1.
</event>
<event>
 4    1  0.9925048E-003  0.9118800E+02  0.7818608E-02  0.1130116E+00
         25   -1    0    0    0    0  0.00000000000E+00  0.00000000000E+00  0.99999998245E-14  0.12500000000E+03  0.12500000000E+03 0.  0.
        -13    1    1    0    0    0 -0.24401291769E+00 -0.78324747069E+00 -0.69249208513E+01  0.69741459504E+01  0.10566000000E+00 0. -1.
         13    1    1    0    0    0 -0.22897030806E+01 -0.77435316913E+01 -0.54937145811E+02  0.55527526301E+02  0.10566000000E+00 0.  1.
         22    1    1    0    0    0  0.25337159983E+01  0.85267791620E+01  0.61862066662E+02  0.62498327748E+02  0.00000000000E+00 0.  1.
</event>
<event>
 4    1  0.9925048E-003  0.9118800E+02  0.7818608E-02  0.1130116E+00
         25   -1    0    0    0    0  0.00000000000E+00  0.00000000000E+00  0.99999998245E-14  0.12500000000E+03  0.12500000000E+03 0.  0.
        -13    1    1    0    0    0  0.91153537817E+01  0.85177037226E+01  0.12033151450E+02  0.17333460391E+02  0.10566000000E+00 0. -1.
         13    1    1    0    0    0  0.17780232572E+02  0.25314982870E+02  0.33010915691E+02  0.45240653696E+02  0.10566000000E+00 0.  1.
         22    1    1    0    0    0 -0.26895586354E+02 -0.33832686593E+02 -0.45044067141E+02  0.62425885913E+02  0.00000000000E+00 0.  1.
</event>
<event>
 4    1  0.9925048E-003  0.9118800E+02  0.7818608E-02  0.1130116E+00
         25   -1    0    0    0    0  0.00000000000E+00  0.00000000000E+00  0.99999998245E-14  0.12500000000E+03  0.12500000000E+03 0.  0.
        -13    1    1    0    0    0 -0.51028649758E+00 -0.19527761190E+02 -0.20475395529E+02  0.28299237366E+02  0.10566000000E+00 0.  1.
         13    1    1    0    0    0 -0.13473211861E+01 -0.24307142608E+02 -0.24028963973E+02  0.34206062763E+02  0.10566000000E+00 0.  1.
         22    1    1    0    0    0  0.18576076837E+01  0.43834903798E+02  0.44504359501E+02  0.62494699871E+02  0.00000000000E+00 0.  1.
</event>
<event>
 4    1  0.9925048E-003  0.9118800E+02  0.7818608E-02  0.1130116E+00
         25   -1    0    0    0    0  0.00000000000E+00  0.00000000000E+00  0.99999998245E-14  0.12500000000E+03  0.12500000000E+03 0.  0.
        -13    1    1    0    0    0  0.67211922452E+01  0.54767408795E+02  0.11109016892E+02  0.56285565749E+02  0.10566000000E+00 0. -1.
         13    1    1    0    0    0  0.65529512422E+00  0.61547645573E+01  0.67161701226E+00  0.62267786136E+01  0.10566000000E+00 0.  1.
         22    1    1    0    0    0 -0.73764873694E+01 -0.60922173352E+02 -0.11780633904E+02  0.62487655638E+02  0.00000000000E+00 0. -1.
</event>
<event>
 4    1  0.9925048E-003  0.9118800E+02  0.7818608E-02  0.1130116E+00
         25   -1    0    0    0    0  0.00000000000E+00  0.00000000000E+00  0.99999998245E-14  0.12500000000E+03  0.12500000000E+03 0.  0.
        -13    1    1    0    0    0 -0.30434515193E+02  0.19480898704E+02 -0.51737941354E+01  0.36504033190E+02  0.10566000000E+00 0.  1.
         13    1    1    0    0    0 -0.21740608781E+02  0.13865924675E+02 -0.33036967690E+01  0.25996990473E+02  0.10566000000E+00 0. -1.
         22    1    1    0    0    0  0.52175123974E+02 -0.33346823379E+02  0.84774909044E+01  0.62498976337E+02  0.00000000000E+00 0. -1.
</event>
<event>
 4    1  0.9925048E-003  0.9118800E+02  0.7818608E-02  0.1130116E+00
         25   -1    0    0    0    0  0.00000000000E+00  0.00000000000E+00  0.99999998245E-14  0.12500000000E+03  0.12500000000E+03 0.  0.
        -13    1    1    0    0    0  0.11909156955E+02 -0.77324498545E+01 -0.66709491150E+01  0.15688579485E+02  0.10566000000E+00 0.  1.
         13    1    1    0    0    0  0.37411030976E+02 -0.12266690757E+02 -0.25702432543E+02  0.47017902372E+02  0.10566000000E+00 0. -1.
         22    1    1    0    0    0 -0.49320187930E+02  0.19999140612E+02  0.32373381658E+02  0.62293518143E+02  0.00000000000E+00 0. -1.
</event>
<event>
 4    1  0.9925048E-003  0.9118800E+02  0.7818608E-02  0.1130116E+00
         25   -1    0    0    0    0  0.00000000000E+00  0.00000000000E+00  0.99999998245E-14  0.12500000000E+03  0.12500000000E+03 0.  0.
        -13    1    1    0    0    0  0.18664830376E+01  0.23150191178E+02 -0.46685740976E+02  0.52143884446E+02  0.10566000000E+00 0. -1.
         13    1    1    0    0    0  0.11327957167E+01  0.13048477361E+01 -0.10472052883E+02  0.10614184348E+02  0.10566000000E+00 0.  1.
         22    1    1    0    0    0 -0.29992787543E+01 -0.24455038914E+02  0.57157793860E+02  0.62241931206E+02  0.00000000000E+00 0.  1.
</event>
<event>
 4    1  0.9925048E-003  0.9118800E+02  0.7818608E-02  0.1130116E+00
         25   -1    0    0    0    0  0.00000000000E+00  0.00000000000E+00  0.99999998245E-14  0.12500000000E+03  0.12500000000E+03 0.  0.
        -13    1    1    0    0    0 -0.78452827577E+01 -0.12220754373E+01  0.36834310436E+01  0.87533284076E+01  0.10566000000E+00 0. -1.
         13    1    1    0    0    0 -0.48270134944E+02 -0.55416121804E+01  0.22984729134E+02  0.53749644933E+02  0.10566000000E+00 0.  1.
         22    1    1    0    0    0  0.56115417701E+02  0.67636876178E+01 -0.26668160177E+02  0.62497026659E+02  0.00000000000E+00 0.  1.
</event>
<event>
 4    1  0.9925048E-003  0.9118800E+02  0.7818608E-02  0.1130116E+00
         25   -1    0    0    0    0  0.00000000000E+00  0.00000000000E+00  0.99999998245E-14  0.12500000000E+03  0.12500000000E+03 0.  0.
        -13    1    1    0    0    0 -0.17293478862E+02 -0.22990806497E+01 -0.16488615915E+01  0.17523700853E+02  0.10566000000E+00 0.  1.
         13    1    1    0    0    0 -0.44542280306E+02 -0.47802641227E+01 -0.40244364855E+01  0.44978582826E+02  0.10566000000E+00 0. -1.
         22    1    1    0    0    0  0.61835759168E+02  0.70793447724E+01  0.56732980771E+01  0.62497716322E+02  0.00000000000E+00 0. -1.
</event>
<event>
 4    1  0.9925048E-003  0.9118800E+02  0.7818608E-02  0.1130116E+00
         25   -1    0    0    0    0  0.00000000000E+00  0.00000000000E+00  0.99999998245E-14  0.12500000000E+03  0.12500000000E+03 0.  0.
        -13    1    1    0    0    0  0.46872891375E+01 -0.15315603761E+02 -0.81458550055E+00  0.16037864933E+02  0.10566000000E+00 0.  1.
         13    1    1    0    0    0 -0.23104498139E+02 -0.42445552953E+02 -0.22004406096E+00  0.48327035737E+02  0.10566000000E+00 0. -1.
         22    1    1    0    0    0  0.18417209002E+02  0.57761156714E+02  0.10346295615E+01  0.60635099330E+02  0.00000000000E+00 0. -1.
</event>
<event>
 4    1  0.9925048E-003  0.9118800E+02  0.7818608E-02  0.1130116E+00
         25   -1    0    0    0    0  0.00000000000E+00  0.00000000000E+00  0.99999998245E-14  0.12500000000E+03  0.12500000000E+03 0.  0.
        -13    1    1    0    0    0 -0.14087611207E+00  0.50246450651E+00 -0.47562423696E+01  0.47859504984E+01  0.10566000000E+00 0.  1.
         13    1    1    0    0    0  0.44634601697E+02  0.36937095394E+02 -0.13071776304E+02  0.59392585266E+02  0.10566000000E+00 0. -1.
         22    1    1    0    0    0 -0.44493725585E+02 -0.37439559900E+02  0.17828018674E+02  0.60821464236E+02  0.00000000000E+00 0. -1.
</event>
<event>
 4    1  0.9925048E-003  0.9118800E+02  0.7818608E-02  0.1130116E+00
         25   -1    0    0    0    0  0.00000000000E+00  0.00000000000E+00  0.99999998245E-14  0.12500000000E+03  0.12500000000E+03 0.  0.
        -13    1    1    0    0    0 -0.22631183570E+01 -0.70876846036E+01  0.90767734076E+01  0.11736948380E+02  0.10566000000E+00 0.  1.
         13    1    1    0    0    0 -0.11222902546E+02 -0.30854961202E+02  0.38718834147E+02  0.50765553814E+02  0.10566000000E+00 0. -1.
         22    1    1    0    0    0  0.13486020903E+02  0.37942645805E+02 -0.47795607555E+02  0.62497497806E+02  0.00000000000E+00 0. -1.
</event>
<event>
 4    1  0.9925048E-003  0.9118800E+02  0.7818608E-02  0.1130116E+00
         25   -1    0    0    0    0  0.00000000000E+00  0.00000000000E+00  0.99999998245E-14  0.12500000000E+03  0.12500000000E+03 0.  0.
        -13    1    1    0    0    0  0.18005090833E+02 -0.12304328575E+02  0.17284815362E+00  0.21808733070E+02  0.10566000000E+00 0.  1.
         13    1    1    0    0    0  0.33575046405E+02 -0.22979077994E+02  0.69785087058E+00  0.40691767305E+02  0.10566000000E+00 0. -1.
         22    1    1    0    0    0 -0.51580137238E+02  0.35283406569E+02 -0.87069902420E+00  0.62499499625E+02  0.00000000000E+00 0.  1.
</event>
<event>
 4    1  0.9925048E-003  0.9118800E+02  0.7818608E-02  0.1130116E+00
         25   -1    0    0    0    0  0.00000000000E+00  0.00000000000E+00  0.99999998245E-14  0.12500000000E+03  0.12500000000E+03 0.  0.
        -13    1    1    0    0    0  0.41037534469E+01  0.51027840685E+01  0.16463733666E+01  0.67528443563E+01  0.10566000000E+00 0.  1.
         13    1    1    0    0    0  0.41366042915E+02  0.35834323091E+02  0.10867749149E+02  0.55797556877E+02  0.10566000000E+00 0. -1.
         22    1    1    0    0    0 -0.45469796362E+02 -0.40937107160E+02 -0.12514122515E+02  0.62449598767E+02  0.00000000000E+00 0. -1.
</event>
<event>
 4    1  0.9925048E-003  0.9118800E+02  0.7818608E-02  0.1130116E+00
         25   -1    0    0    0    0  0.00000000000E+00  0.00000000000E+00  0.99999998245E-14  0.12500000000E+03  0.12500000000E+03 0.  0.
        -13    1    1    0    0    0  0.47939231037E+02  0.11392799704E+01  0.60217328660E+01  0.48329496811E+02  0.10566000000E+00 0. -1.
         13    1    1    0    0    0  0.14049570547E+02  0.60512643693E-01  0.18539371165E+01  0.14171885591E+02  0.10566000000E+00 0.  1.
         22    1    1    0    0    0 -0.61988801583E+02 -0.11997926141E+01 -0.78756699825E+01  0.62498617599E+02  0.00000000000E+00 0. -1.
</event>
<event>
 4    1  0.9925048E-003  0.9118800E+02  0.7818608E-02  0.1130116E+00
         25   -1    0    0    0    0  0.00000000000E+00  0.00000000000E+00  0.99999998245E-14  0.12500000000E+03  0.12500000000E+03 0.  0.
        -13    1    1    0    0    0  0.12135293040E+00 -0.42152953260E+02 -0.19087088182E+02  0.46273256795E+02  0.10566000000E+00 0. -1.
         13    1    1    0    0    0  0.50298980260E+01 -0.14647949970E+02 -0.57481030990E+01  0.16520113975E+02  0.10566000000E+00 0.  1.
         22    1    1    0    0    0 -0.51512509564E+01  0.56800903230E+02  0.24835191282E+02  0.62206629230E+02  0.00000000000E+00 0. -1.
</event>
<event>
 4    1  0.9925048E-003  0.9118800E+02  0.7818608E-02  0.1130116E+00
         25   -1    0    0    0    0  0.00000000000E+00  0.00000000000E+00  0.99999998245E-14  0.12500000000E+03  0.12500000000E+03 0.  0.
        -13    1    1    0    0    0  0.78445164321E+00 -0.58708752041E+02 -0.23473959589E+01  0.58760993545E+02  0.10566000000E+00 0. -1.
         13    1    1    0    0    0 -0.62289404055E+00 -0.35512591553E+01 -0.13926961563E+01  0.38665495203E+01  0.10566000000E+00 0.  1.
         22    1    1    0    0    0 -0.16155760265E+00  0.62260011196E+02  0.37400921152E+01  0.62372456935E+02  0.00000000000E+00 0. -1.
</event>
<event>
 4    1  0.9925048E-003  0.9118800E+02  0.7818608E-02  0.1130116E+00
         25   -1    0    0    0    0  0.00000000000E+00  0.00000000000E+00  0.99999998245E-14  0.12500000000E+03  0.12500000000E+03 0.  0.
        -13    1    1    0    0    0 -0.26162153777E+02 -0.10968997292E+02 -0.23048883626E+02  0.36551872623E+02  0.10566000000E+00 0. -1.
         13    1    1    0    0    0 -0.26001730116E+02  0.33361041578E+01 -0.78195435901E+01  0.27356461504E+02  0.10566000000E+00 0.  1.
         22    1    1    0    0    0  0.52163883893E+02  0.76328931337E+01  0.30868427216E+02  0.61091665873E+02  0.00000000000E+00 0. -1.
</event>
<event>
 4    1  0.9925048E-003  0.9118800E+02  0.7818608E-02  0.1130116E+00
         25   -1    0    0    0    0  0.00000000000E+00  0.00000000000E+00  0.99999998245E-14  0.12500000000E+03  0.12500000000E+03 0.  0.
        -13    1    1    0    0    0  0.17606465043E+00  0.26371083352E+01  0.13873591068E+01  0.29868492529E+01  0.10566000000E+00 0. -1.
         13    1    1    0    0    0  0.79106218903E+01  0.58251066956E+02  0.97495423161E+01  0.59588836871E+02  0.10566000000E+00 0.  1.
         22    1    1    0    0    0 -0.80866865408E+01 -0.60888175292E+02 -0.11136901423E+02  0.62424313876E+02  0.00000000000E+00 0.  1.
</event>
<event>
 4    1  0.9925048E-003  0.9118800E+02  0.7818608E-02  0.1130116E+00
         25   -1    0    0    0    0  0.00000000000E+00  0.00000000000E+00  0.99999998245E-14  0.12500000000E+03  0.12500000000E+03 0.  0.
        -13    1    1    0    0    0  0.99459243995E+01  0.31922429977E+02  0.21285214457E+01  0.33503801506E+02  0.10566000000E+00 0.  1.
         13    1    1    0    0    0  0.10432702372E+02  0.26899675917E+02  0.31349687216E+01  0.29021940599E+02  0.10566000000E+00 0. -1.
         22    1    1    0    0    0 -0.20378626771E+02 -0.58822105893E+02 -0.52634901673E+01  0.62474257895E+02  0.00000000000E+00 0. -1.
</event>
<event>
 4    1  0.9925048E-003  0.9118800E+02  0.7818608E-02  0.1130116E+00
         25   -1    0    0    0    0  0.00000000000E+00  0.00000000000E+00  0.99999998245E-14  0.12500000000E+03  0.12500000000E+03 0.  0.
        -13    1    1    0    0    0  0.71591246025E+00 -0.51571383836E-01 -0.40815157042E+00  0.83243137760E+00  0.10566000000E+00 0.  1.
         13    1    1    0    0    0  0.58876673873E+02 -0.79344304571E+01 -0.16596930633E+02  0.61683767585E+02  0.10566000000E+00 0. -1.
         22    1    1    0    0    0 -0.59592586333E+02  0.79860018409E+01  0.17005082204E+02  0.62483801037E+02  0.00000000000E+00 0. -1.
</event>
<event>
 4    1  0.9925048E-003  0.9118800E+02  0.7818608E-02  0.1130116E+00
         25   -1    0    0    0    0  0.00000000000E+00  0.00000000000E+00  0.99999998245E-14  0.12500000000E+03  0.12500000000E+03 0.  0.
        -13    1    1    0    0    0  0.13484826933E+02  0.69257976119E+01 -0.72196877007E+01  0.16791137082E+02  0.10566000000E+00 0.  1.
         13    1    1    0    0    0  0.36950038774E+02  0.18566109487E+02 -0.19476322055E+02  0.45709343374E+02  0.10566000000E+00 0.  1.
         22    1    1    0    0    0 -0.50434865707E+02 -0.25491907098E+02  0.26696009756E+02  0.62499519544E+02  0.00000000000E+00 0.  1.
</event>
<event>
 4    1  0.9925048E-003  0.9118800E+02  0.7818608E-02  0.1130116E+00
         25   -1    0    0    0    0  0.00000000000E+00  0.00000000000E+00  0.99999998245E-14  0.12500000000E+03  0.12500000000E+03 0.  0.
        -13    1    1    0    0    0 -0.13410799986E+02 -0.36607337502E+02 -0.21644980123E+01  0.39046676311E+02  0.10566000000E+00 0. -1.
         13    1    1    0    0    0 -0.60684300389E+01 -0.22681625075E+02 -0.56986710222E+00  0.23486546612E+02  0.10566000000E+00 0.  1.
         22    1    1    0    0    0  0.19479230025E+02  0.59288962577E+02  0.27343651145E+01  0.62466777077E+02  0.00000000000E+00 0.  1.
</event>
<event>
 4    1  0.9925048E-003  0.9118800E+02  0.7818608E-02  0.1130116E+00
         25   -1    0    0    0    0  0.00000000000E+00  0.00000000000E+00  0.99999998245E-14  0.12500000000E+03  0.12500000000E+03 0.  0.
        -13    1    1    0    0    0 -0.20534910297E+02 -0.24374942138E+02 -0.11117204355E+02  0.33755351307E+02  0.10566000000E+00 0. -1.
         13    1    1    0    0    0 -0.13522789880E+02 -0.21178951899E+02 -0.14337450727E+02  0.28930736373E+02  0.10566000000E+00 0.  1.
         22    1    1    0    0    0  0.34057700177E+02  0.45553894037E+02  0.25454655083E+02  0.62313912320E+02  0.00000000000E+00 0. -1.
</event>
<event>
 4    1  0.9925048E-003  0.9118800E+02  0.7818608E-02  0.1130116E+00
         25   -1    0    0    0    0  0.00000000000E+00  0.00000000000E+00  0.99999998245E-14  0.12500000000E+03  0.12500000000E+03 0.  0.
        -13    1    1    0    0    0 -0.30977187918E+00 -0.85442110440E+01  0.82097124855E+01  0.11853693269E+02  0.10566000000E+00 0. -1.
         13    1    1    0    0    0 -0.16139287506E+01 -0.36423606536E+02  0.35153833041E+02  0.50646688151E+02  0.10566000000E+00 0. -1.
         22    1    1    0    0    0  0.19237006298E+01  0.44967817580E+02 -0.43363545526E+02  0.62499618580E+02  0.00000000000E+00 0. -1.
</event>
<event>
 4    1  0.9925048E-003  0.9118800E+02  0.7818608E-02  0.1130116E+00
         25   -1    0    0    0    0  0.00000000000E+00  0.00000000000E+00  0.99999998245E-14  0.12500000000E+03  0.12500000000E+03 0.  0.
        -13    1    1    0    0    0 -0.14083799446E+01  0.11826362208E+01 -0.27746240062E+00  0.18628773224E+01  0.10566000000E+00 0.  1.
         13    1    1    0    0    0 -0.50176269546E+01  0.55209260907E+01 -0.60851325822E+02  0.61307032415E+02  0.10566000000E+00 0. -1.
         22    1    1    0    0    0  0.64260068993E+01 -0.67035623115E+01  0.61128788223E+02  0.61830090263E+02  0.00000000000E+00 0. -1.
</event>
<event>
 4    1  0.9925048E-003  0.9118800E+02  0.7818608E-02  0.1130116E+00
         25   -1    0    0    0    0  0.00000000000E+00  0.00000000000E+00  0.99999998245E-14  0.12500000000E+03  0.12500000000E+03 0.  0.
        -13    1    1    0    0    0 -0.78124623151E+00  0.72949450797E+00  0.21973037911E+01  0.24457751118E+01  0.10566000000E+00 0.  1.
         13    1    1    0    0    0 -0.49454930216E+02  0.31069724713E+02 -0.17853437344E+02  0.61072696890E+02  0.10566000000E+00 0. -1.
         22    1    1    0    0    0  0.50236176448E+02 -0.31799219221E+02  0.15656133553E+02  0.61481527998E+02  0.00000000000E+00 0. -1.
</event>
<event>
 4    1  0.9925048E-003  0.9118800E+02  0.7818608E-02  0.1130116E+00
         25   -1    0    0    0    0  0.00000000000E+00  0.00000000000E+00  0.99999998245E-14  0.12500000000E+03  0.12500000000E+03 0.  0.
        -13    1    1    0    0    0  0.42133670163E+00 -0.71733419665E+00  0.17232360067E+00  0.85612640701E+00  0.10566000000E+00 0.  1.
         13    1    1    0    0    0 -0.17278668968E+01 -0.59866961108E+02  0.14861857988E+02  0.61708383087E+02  0.10566000000E+00 0. -1.
         22    1    1    0    0    0  0.13065301952E+01  0.60584295305E+02 -0.15034181589E+02  0.62435490506E+02  0.00000000000E+00 0. -1.
</event>
<event>
 4    1  0.9925048E-003  0.9118800E+02  0.7818608E-02  0.1130116E+00
         25   -1    0    0    0    0  0.00000000000E+00  0.00000000000E+00  0.99999998245E-14  0.12500000000E+03  0.12500000000E+03 0.  0.
        -13    1    1    0    0    0 -0.47717204902E+01  0.10330393586E+02  0.36983322379E+02  0.38694491162E+02  0.10566000000E+00 0.  1.
         13    1    1    0    0    0 -0.28675497152E+01  0.63995391592E+01  0.22749180246E+02  0.23805741088E+02  0.10566000000E+00 0.  1.
         22    1    1    0    0    0  0.76392702054E+01 -0.16729932745E+02 -0.59732502625E+02  0.62499767750E+02  0.00000000000E+00 0.  1.
</event>
<event>
 4    1  0.9925048E-003  0.9118800E+02  0.7818608E-02  0.1130116E+00
         25   -1    0    0    0    0  0.00000000000E+00  0.00000000000E+00  0.99999998245E-14  0.12500000000E+03  0.12500000000E+03 0.  0.
        -13    1    1    0    0    0 -0.30184306216E+02 -0.24196344767E+02 -0.35172689503E+02  0.52284650641E+02  0.10566000000E+00 0.  1.
         13    1    1    0    0    0  0.83186482814E+01 -0.93480854283E+01 -0.71827864296E+01  0.14428797432E+02  0.10566000000E+00 0. -1.
         22    1    1    0    0    0  0.21865657934E+02  0.33544430195E+02  0.42355475932E+02  0.58286551927E+02  0.00000000000E+00 0.  1.
</event>
<event>
 4    1  0.9925048E-003  0.9118800E+02  0.7818608E-02  0.1130116E+00
         25   -1    0    0    0    0  0.00000000000E+00  0.00000000000E+00  0.99999998245E-14  0.12500000000E+03  0.12500000000E+03 0.  0.
        -13    1    1    0    0    0 -0.21962817634E+02 -0.52551987573E+02  0.15216624494E+01  0.56977218052E+02  0.10566000000E+00 0. -1.
         13    1    1    0    0    0 -0.20682089222E+01 -0.50771085754E+01 -0.10464454664E+01  0.55821798414E+01  0.10566000000E+00 0.  1.
         22    1    1    0    0    0  0.24031026556E+02  0.57629096149E+02 -0.47521698296E+00  0.62440602106E+02  0.00000000000E+00 0. -1.
</event>
<event>
 4    1  0.9925048E-003  0.9118800E+02  0.7818608E-02  0.1130116E+00
         25   -1    0    0    0    0  0.00000000000E+00  0.00000000000E+00  0.99999998245E-14  0.12500000000E+03  0.12500000000E+03 0.  0.
        -13    1    1    0    0    0  0.46560937764E+02  0.83196814640E+01  0.15678205965E+02  0.49829261799E+02  0.10566000000E+00 0. -1.
         13    1    1    0    0    0  0.11893493804E+02  0.23500228830E+01  0.36910120092E+01  0.12673300127E+02  0.10566000000E+00 0.  1.
         22    1    1    0    0    0 -0.58454431569E+02 -0.10669704347E+02 -0.19369217974E+02  0.62497438074E+02  0.00000000000E+00 0. -1.
</event>
<event>
 4    1  0.9925048E-003  0.9118800E+02  0.7818608E-02  0.1130116E+00
         25   -1    0    0    0    0  0.00000000000E+00  0.00000000000E+00  0.99999998245E-14  0.12500000000E+03  0.12500000000E+03 0.  0.
        -13    1    1    0    0    0  0.21371148905E+02 -0.21925221337E+02  0.14298684585E+02  0.33792083113E+02  0.10566000000E+00 0.  1.
         13    1    1    0    0    0 -0.41536524864E+02  0.10400858587E+02  0.21980225560E+02  0.48131094282E+02  0.10566000000E+00 0. -1.
         22    1    1    0    0    0  0.20165375958E+02  0.11524362751E+02 -0.36278910145E+02  0.43076822604E+02  0.00000000000E+00 0. -1.
</event>
<event>
 4    1  0.9925048E-003  0.9118800E+02  0.7818608E-02  0.1130116E+00
         25   -1    0    0    0    0  0.00000000000E+00  0.00000000000E+00  0.99999998245E-14  0.12500000000E+03  0.12500000000E+03 0.  0.
        -13    1    1    0    0    0 -0.54919137067E+00 -0.10519122083E+01 -0.39717182548E+01  0.41465455969E+01  0.10566000000E+00 0. -1.
         13    1    1    0    0    0 -0.64833346661E+01 -0.10127743745E+02 -0.57108839133E+02  0.58361249926E+02  0.10566000000E+00 0.  1.
         22    1    1    0    0    0  0.70325260367E+01  0.11179655954E+02  0.61080557387E+02  0.62492204478E+02  0.00000000000E+00 0.  1.
</event>
<event>
 4    1  0.9925048E-003  0.9118800E+02  0.7818608E-02  0.1130116E+00
         25   -1    0    0    0    0  0.00000000000E+00  0.00000000000E+00  0.99999998245E-14  0.12500000000E+03  0.12500000000E+03 0.  0.
        -13    1    1    0    0    0  0.95331075167E+01  0.24536699141E+02 -0.19656032240E+02  0.32852709342E+02  0.10566000000E+00 0. -1.
         13    1    1    0    0    0  0.79186086103E+01  0.22052926046E+02 -0.18168635004E+02  0.29650402551E+02  0.10566000000E+00 0. -1.
         22    1    1    0    0    0 -0.17451716127E+02 -0.46589625187E+02  0.37824667245E+02  0.62496888106E+02  0.00000000000E+00 0. -1.
</event>
<event>
 4    1  0.9925048E-003  0.9118800E+02  0.7818608E-02  0.1130116E+00
         25   -1    0    0    0    0  0.00000000000E+00  0.00000000000E+00  0.99999998245E-14  0.12500000000E+03  0.12500000000E+03 0.  0.
        -13    1    1    0    0    0 -0.13719835057E+01 -0.37436203686E+01  0.13114476179E+02  0.13707577528E+02  0.10566000000E+00 0. -1.
         13    1    1    0    0    0 -0.45037305205E+01 -0.62723046876E+01  0.48237217430E+02  0.48851465731E+02  0.10566000000E+00 0.  1.
         22    1    1    0    0    0  0.58757140263E+01  0.10015925056E+02 -0.61351693609E+02  0.62440956741E+02  0.00000000000E+00 0.  1.
</event>
<event>
 4    1  0.9925048E-003  0.9118800E+02  0.7818608E-02  0.1130116E+00
         25   -1    0    0    0    0  0.00000000000E+00  0.00000000000E+00  0.99999998245E-14  0.12500000000E+03  0.12500000000E+03 0.  0.
        -13    1    1    0    0    0 -0.13281272486E+02  0.26772351260E+02  0.47655653878E+01  0.30263389902E+02  0.10566000000E+00 0.  1.
         13    1    1    0    0    0 -0.82339171869E+01  0.29900790153E+02  0.95471160792E+01  0.32450165384E+02  0.10566000000E+00 0. -1.
         22    1    1    0    0    0  0.21515189673E+02 -0.56673141413E+02 -0.14312681467E+02  0.62286444714E+02  0.00000000000E+00 0. -1.
</event>
<event>
 4    1  0.9925048E-003  0.9118800E+02  0.7818608E-02  0.1130116E+00
         25   -1    0    0    0    0  0.00000000000E+00  0.00000000000E+00  0.99999998245E-14  0.12500000000E+03  0.12500000000E+03 0.  0.
        -13    1    1    0    0    0 -0.48124285332E+01  0.82889612024E+01  0.12439172687E+02  0.15703837982E+02  0.10566000000E+00 0.  1.
         13    1    1    0    0    0 -0.83987835184E+00 -0.10111293251E+02  0.47749266324E+02  0.48815440645E+02  0.10566000000E+00 0. -1.
         22    1    1    0    0    0  0.56523068850E+01  0.18223320489E+01 -0.60188439011E+02  0.60480721373E+02  0.00000000000E+00 0. -1.
</event>
<event>
 4    1  0.9925048E-003  0.9118800E+02  0.7818608E-02  0.1130116E+00
         25   -1    0    0    0    0  0.00000000000E+00  0.00000000000E+00  0.99999998245E-14  0.12500000000E+03  0.12500000000E+03 0.  0.
        -13    1    1    0    0    0  0.38262956159E+02 -0.23848303215E+02 -0.25712967399E+02  0.51903402940E+02  0.10566000000E+00 0. -1.
         13    1    1    0    0    0  0.37006913006E+01 -0.74356446825E+01 -0.74298140716E+01  0.11144381056E+02  0.10566000000E+00 0.  1.
         22    1    1    0    0    0 -0.41963647460E+02  0.31283947897E+02  0.33142781471E+02  0.61952216004E+02  0.00000000000E+00 0. -1.
</event>
<event>
 4    1  0.9925048E-003  0.9118800E+02  0.7818608E-02  0.1130116E+00
         25   -1    0    0    0    0  0.00000000000E+00  0.00000000000E+00  0.99999998245E-14  0.12500000000E+03  0.12500000000E+03 0.  0.
        -13    1    1    0    0    0  0.35210027245E+02  0.36774718253E+02  0.72590106179E+01  0.51427913825E+02  0.10566000000E+00 0. -1.
         13    1    1    0    0    0  0.82226144004E+01  0.72447469220E+01  0.16886118051E+01  0.11088747423E+02  0.10566000000E+00 0.  1.
         22    1    1    0    0    0 -0.43432641645E+02 -0.44019465175E+02 -0.89476224230E+01  0.62483338752E+02  0.00000000000E+00 0. -1.
</event>
<event>
 4    1  0.9925048E-003  0.9118800E+02  0.7818608E-02  0.1130116E+00
         25   -1    0    0    0    0  0.00000000000E+00  0.00000000000E+00  0.99999998245E-14  0.12500000000E+03  0.12500000000E+03 0.  0.
        -13    1    1    0    0    0  0.10145478793E+02 -0.50284624015E+02  0.34668568381E+02  0.61914416333E+02  0.10566000000E+00 0. -1.
         13    1    1    0    0    0  0.45911518893E+00 -0.92284054825E-01  0.53519954141E+00  0.71896153458E+00  0.10566000000E+00 0. -1.
         22    1    1    0    0    0 -0.10604593982E+02  0.50376908070E+02 -0.35203767923E+02  0.62366622132E+02  0.00000000000E+00 0. -1.
</event>
<event>
 4    1  0.9925048E-003  0.9118800E+02  0.7818608E-02  0.1130116E+00
         25   -1    0    0    0    0  0.00000000000E+00  0.00000000000E+00  0.99999998245E-14  0.12500000000E+03  0.12500000000E+03 0.  0.
        -13    1    1    0    0    0 -0.62851088227E+01 -0.33189118941E+01  0.43053347849E+01  0.83105258991E+01  0.10566000000E+00 0.  1.
         13    1    1    0    0    0  0.11057717219E+02 -0.55987719575E+02 -0.36794724508E+01  0.57187826806E+02  0.10566000000E+00 0. -1.
         22    1    1    0    0    0 -0.47726083962E+01  0.59306631469E+02 -0.62586233417E+00  0.59501647294E+02  0.00000000000E+00 0. -1.
</event>
<event>
 4    1  0.9925048E-003  0.9118800E+02  0.7818608E-02  0.1130116E+00
         25   -1    0    0    0    0  0.00000000000E+00  0.00000000000E+00  0.99999998245E-14  0.12500000000E+03  0.12500000000E+03 0.  0.
        -13    1    1    0    0    0  0.24257395987E+01  0.26499695813E+01 -0.52782365968E+01  0.63857260347E+01  0.10566000000E+00 0.  1.
         13    1    1    0    0    0  0.11226365446E+02  0.39854602659E+02 -0.38172509519E+02  0.56316714049E+02  0.10566000000E+00 0. -1.
         22    1    1    0    0    0 -0.13652105045E+02 -0.42504572241E+02  0.43450746116E+02  0.62297559916E+02  0.00000000000E+00 0. -1.
</event>
<event>
 4    1  0.9925048E-003  0.9118800E+02  0.7818608E-02  0.1130116E+00
         25   -1    0    0    0    0  0.00000000000E+00  0.00000000000E+00  0.99999998245E-14  0.12500000000E+03  0.12500000000E+03 0.  0.
        -13    1    1    0    0    0 -0.19690270992E+02  0.43756296659E+02  0.11886244652E+02  0.49432926730E+02  0.10566000000E+00 0.  1.
         13    1    1    0    0    0 -0.50751933426E+01  0.11658435790E+02  0.30139779980E+01  0.13067973827E+02  0.10566000000E+00 0. -1.
         22    1    1    0    0    0  0.24765464335E+02 -0.55414732450E+02 -0.14900222650E+02  0.62499099443E+02  0.00000000000E+00 0. -1.
</event>
<event>
 4    1  0.9925048E-003  0.9118800E+02  0.7818608E-02  0.1130116E+00
         25   -1    0    0    0    0  0.00000000000E+00  0.00000000000E+00  0.99999998245E-14  0.12500000000E+03  0.12500000000E+03 0.  0.
        -13    1    1    0    0    0  0.73062180537E+01  0.61639270997E+02  0.26720598607E+01  0.62128347952E+02  0.10566000000E+00 0.  1.
         13    1    1    0    0    0 -0.71938695089E+00 -0.13176836752E+01  0.13994025387E+01  0.20550667517E+01  0.10566000000E+00 0. -1.
         22    1    1    0    0    0 -0.65868311028E+01 -0.60321587322E+02 -0.40714623995E+01  0.60816585296E+02  0.00000000000E+00 0.  1.
</event>
<event>
 4    1  0.9925048E-003  0.9118800E+02  0.7818608E-02  0.1130116E+00
         25   -1    0    0    0    0  0.00000000000E+00  0.00000000000E+00  0.99999998245E-14  0.12500000000E+03  0.12500000000E+03 0.  0.
        -13    1    1    0    0    0  0.27807692921E+02  0.10511082850E+02  0.29947703601E+01  0.29878595379E+02  0.10566000000E+00 0. -1.
         13    1    1    0    0    0  0.30470492590E+02  0.10966981407E+02  0.39505165798E+01  0.32624275397E+02  0.10566000000E+00 0.  1.
         22    1    1    0    0    0 -0.58278185511E+02 -0.21478064257E+02 -0.69452869399E+01  0.62497129225E+02  0.00000000000E+00 0.  1.
</event>
<event>
 4    1  0.9925048E-003  0.9118800E+02  0.7818608E-02  0.1130116E+00
         25   -1    0    0    0    0  0.00000000000E+00  0.00000000000E+00  0.99999998245E-14  0.12500000000E+03  0.12500000000E+03 0.  0.
        -13    1    1    0    0    0 -0.17677086554E+01  0.15860415953E+01  0.10829544765E+01  0.26123315766E+01  0.10566000000E+00 0. -1.
         13    1    1    0    0    0 -0.43806578874E+02  0.27993641796E+02  0.29769004623E+02  0.59907137587E+02  0.10566000000E+00 0.  1.
         22    1    1    0    0    0  0.45574287529E+02 -0.29579683391E+02 -0.30851959100E+02  0.62480530836E+02  0.00000000000E+00 0.  1.
</event>
<event>
 4    1  0.9925048E-003  0.9118800E+02  0.7818608E-02  0.1130116E+00
         25   -1    0    0    0    0  0.00000000000E+00  0.00000000000E+00  0.99999998245E-14  0.12500000000E+03  0.12500000000E+03 0.  0.
        -13    1    1    0    0    0 -0.46711803673E+02 -0.12284979547E+02  0.36747184831E+02  0.60690032805E+02  0.10566000000E+00 0.  1.
         13    1    1    0    0    0  0.23587775115E+01  0.78297358555E+01 -0.63920420127E+01  0.10379689785E+02  0.10566000000E+00 0. -1.
         22    1    1    0    0    0  0.44353026161E+02  0.44552436911E+01 -0.30355142818E+02  0.53930277410E+02  0.00000000000E+00 0.  1.
</event>
<event>
 4    1  0.9925048E-003  0.9118800E+02  0.7818608E-02  0.1130116E+00
         25   -1    0    0    0    0  0.00000000000E+00  0.00000000000E+00  0.99999998245E-14  0.12500000000E+03  0.12500000000E+03 0.  0.
        -13    1    1    0    0    0  0.36058069536E+02 -0.14770055959E+02  0.29586978494E+02  0.48925856070E+02  0.10566000000E+00 0. -1.
         13    1    1    0    0    0  0.10180110230E+02 -0.39833628033E+01  0.80485297048E+01  0.13575412257E+02  0.10566000000E+00 0.  1.
         22    1    1    0    0    0 -0.46238179766E+02  0.18753418762E+02 -0.37635508198E+02  0.62498731673E+02  0.00000000000E+00 0. -1.
</event>
<event>
 4    1  0.9925048E-003  0.9118800E+02  0.7818608E-02  0.1130116E+00
         25   -1    0    0    0    0  0.00000000000E+00  0.00000000000E+00  0.99999998245E-14  0.12500000000E+03  0.12500000000E+03 0.  0.
        -13    1    1    0    0    0 -0.65419881224E+01  0.28232403945E+02  0.27061321626E+02  0.39650883134E+02  0.10566000000E+00 0. -1.
         13    1    1    0    0    0 -0.63448900737E+01  0.15938941121E+02  0.15164771994E+02  0.22897356786E+02  0.10566000000E+00 0.  1.
         22    1    1    0    0    0  0.12886878196E+02 -0.44171345067E+02 -0.42226093620E+02  0.62451760080E+02  0.00000000000E+00 0. -1.
</event>
<event>
 4    1  0.9925048E-003  0.9118800E+02  0.7818608E-02  0.1130116E+00
         25   -1    0    0    0    0  0.00000000000E+00  0.00000000000E+00  0.99999998245E-14  0.12500000000E+03  0.12500000000E+03 0.  0.
        -13    1    1    0    0    0 -0.34059574568E+02  0.50414734490E+01 -0.26969477589E+02  0.43735968719E+02  0.10566000000E+00 0. -1.
         13    1    1    0    0    0 -0.13760132243E+02  0.37477599915E+01 -0.12247149036E+02  0.18798690589E+02  0.10566000000E+00 0.  1.
         22    1    1    0    0    0  0.47819706812E+02 -0.87892334405E+01  0.39216626625E+02  0.62465340693E+02  0.00000000000E+00 0. -1.
</event>
<event>
 4    1  0.9925048E-003  0.9118800E+02  0.7818608E-02  0.1130116E+00
         25   -1    0    0    0    0  0.00000000000E+00  0.00000000000E+00  0.99999998245E-14  0.12500000000E+03  0.12500000000E+03 0.  0.
        -13    1    1    0    0    0  0.11524447536E+02 -0.58646065752E+02  0.19348644547E+01  0.59799070091E+02  0.10566000000E+00 0. -1.
         13    1    1    0    0    0  0.51060443618E+00 -0.26496199563E+01  0.92465927371E-01  0.27020208708E+01  0.10566000000E+00 0. -1.
         22    1    1    0    0    0 -0.12035051972E+02  0.61295685709E+02 -0.20273303821E+01  0.62498909038E+02  0.00000000000E+00 0. -1.
</event>
<event>
 4    1  0.9925048E-003  0.9118800E+02  0.7818608E-02  0.1130116E+00
         25   -1    0    0    0    0  0.00000000000E+00  0.00000000000E+00  0.99999998245E-14  0.12500000000E+03  0.12500000000E+03 0.  0.
        -13    1    1    0    0    0  0.21305457777E+02  0.38324106068E+02 -0.19202341571E+02  0.47868577615E+02  0.10566000000E+00 0.  1.
         13    1    1    0    0    0  0.12031005963E+02  0.10050187175E+02  0.67996798067E+01  0.17087954127E+02  0.10566000000E+00 0. -1.
         22    1    1    0    0    0 -0.33336463741E+02 -0.48374293244E+02  0.12402661764E+02  0.60043468258E+02  0.00000000000E+00 0. -1.
</event>
<event>
 4    1  0.9925048E-003  0.9118800E+02  0.7818608E-02  0.1130116E+00
         25   -1    0    0    0    0  0.00000000000E+00  0.00000000000E+00  0.99999998245E-14  0.12500000000E+03  0.12500000000E+03 0.  0.
        -13    1    1    0    0    0 -0.79025817047E+00 -0.22744550515E+01  0.10995756203E+01  0.26491289772E+01  0.10566000000E+00 0.  1.
         13    1    1    0    0    0  0.36661274557E+02  0.29840605325E+02 -0.40585160767E+02  0.62303107602E+02  0.10566000000E+00 0. -1.
         22    1    1    0    0    0 -0.35871016386E+02 -0.27566150274E+02  0.39485585147E+02  0.60047763421E+02  0.00000000000E+00 0. -1.
</event>
<event>
 4    1  0.9925048E-003  0.9118800E+02  0.7818608E-02  0.1130116E+00
         25   -1    0    0    0    0  0.00000000000E+00  0.00000000000E+00  0.99999998245E-14  0.12500000000E+03  0.12500000000E+03 0.  0.
        -13    1    1    0    0    0 -0.77243293295E+01  0.36711137020E+02 -0.32556282665E+02  0.49671878864E+02  0.10566000000E+00 0. -1.
         13    1    1    0    0    0 -0.54995364816E+01  0.71679101478E+01 -0.95118239306E+01  0.13119062311E+02  0.10566000000E+00 0.  1.
         22    1    1    0    0    0  0.13223865811E+02 -0.43879047167E+02  0.42068106596E+02  0.62209058825E+02  0.00000000000E+00 0. -1.
</event>
<event>
 4    1  0.9925048E-003  0.9118800E+02  0.7818608E-02  0.1130116E+00
         25   -1    0    0    0    0  0.00000000000E+00  0.00000000000E+00  0.99999998245E-14  0.12500000000E+03  0.12500000000E+03 0.  0.
        -13    1    1    0    0    0  0.18661462778E+02  0.94277052383E+01 -0.35658693366E+02  0.41336247963E+02  0.10566000000E+00 0. -1.
         13    1    1    0    0    0  0.96262400274E+01  0.48647456605E+01 -0.18209183349E+02  0.21164020641E+02  0.10566000000E+00 0. -1.
         22    1    1    0    0    0 -0.28287702805E+02 -0.14292450899E+02  0.53867876715E+02  0.62499731396E+02  0.00000000000E+00 0. -1.
</event>
<event>
 4    1  0.9925048E-003  0.9118800E+02  0.7818608E-02  0.1130116E+00
         25   -1    0    0    0    0  0.00000000000E+00  0.00000000000E+00  0.99999998245E-14  0.12500000000E+03  0.12500000000E+03 0.  0.
        -13    1    1    0    0    0  0.13480124729E+02 -0.31593809236E+02  0.27838713642E+02  0.44214111842E+02  0.10566000000E+00 0.  1.
         13    1    1    0    0    0  0.61415219148E+01 -0.13094839695E+02  0.11194953631E+02  0.18290195978E+02  0.10566000000E+00 0. -1.
         22    1    1    0    0    0 -0.19621646644E+02  0.44688648931E+02 -0.39033667273E+02  0.62495692180E+02  0.00000000000E+00 0. -1.
</event>
<event>
 4    1  0.9925048E-003  0.9118800E+02  0.7818608E-02  0.1130116E+00
         25   -1    0    0    0    0  0.00000000000E+00  0.00000000000E+00  0.99999998245E-14  0.12500000000E+03  0.12500000000E+03 0.  0.
        -13    1    1    0    0    0  0.40896079241E+02 -0.45876021103E+02  0.46470327041E+01  0.61633632754E+02  0.10566000000E+00 0. -1.
         13    1    1    0    0    0  0.11140525856E+01  0.21182859429E+01 -0.10035740364E+01  0.25974166746E+01  0.10566000000E+00 0.  1.
         22    1    1    0    0    0 -0.42010131826E+02  0.43757735160E+02 -0.36434586677E+01  0.60768950571E+02  0.00000000000E+00 0. -1.
</event>
<event>
 4    1  0.9925048E-003  0.9118800E+02  0.7818608E-02  0.1130116E+00
         25   -1    0    0    0    0  0.00000000000E+00  0.00000000000E+00  0.99999998245E-14  0.12500000000E+03  0.12500000000E+03 0.  0.
        -13    1    1    0    0    0 -0.15198270153E+00  0.30377630362E+00 -0.23494354679E+01  0.23762133401E+01  0.10566000000E+00 0. -1.
         13    1    1    0    0    0 -0.92897602078E+01  0.59247442104E+02 -0.10736867256E+02  0.60924958130E+02  0.10566000000E+00 0.  1.
         22    1    1    0    0    0  0.94417429093E+01 -0.59551218408E+02  0.13086302724E+02  0.61698828530E+02  0.00000000000E+00 0.  1.
</event>
<event>
 4    1  0.9925048E-003  0.9118800E+02  0.7818608E-02  0.1130116E+00
         25   -1    0    0    0    0  0.00000000000E+00  0.00000000000E+00  0.99999998245E-14  0.12500000000E+03  0.12500000000E+03 0.  0.
        -13    1    1    0    0    0  0.90116642880E+00  0.11143552616E+01  0.76318726006E+00  0.16271162868E+01  0.10566000000E+00 0. -1.
         13    1    1    0    0    0  0.33923304163E+02  0.42325205972E+02  0.27631765215E+02  0.60874783276E+02  0.10566000000E+00 0. -1.
         22    1    1    0    0    0 -0.34824470592E+02 -0.43439561234E+02 -0.28394952475E+02  0.62498100437E+02  0.00000000000E+00 0. -1.
</event>
<event>
 4    1  0.9925048E-003  0.9118800E+02  0.7818608E-02  0.1130116E+00
         25   -1    0    0    0    0  0.00000000000E+00  0.00000000000E+00  0.99999998245E-14  0.12500000000E+03  0.12500000000E+03 0.  0.
        -13    1    1    0    0    0  0.17258773118E+02  0.45063474641E+00 -0.37817254436E+01  0.17674301474E+02  0.10566000000E+00 0. -1.
         13    1    1    0    0    0  0.43660862778E+02  0.34868498204E+00 -0.10153568202E+02  0.44827431680E+02  0.10566000000E+00 0.  1.
         22    1    1    0    0    0 -0.60919635897E+02 -0.79931972845E+00  0.13935293645E+02  0.62498266846E+02  0.00000000000E+00 0.  1.
</event>
<event>
 4    1  0.9925048E-003  0.9118800E+02  0.7818608E-02  0.1130116E+00
         25   -1    0    0    0    0  0.00000000000E+00  0.00000000000E+00  0.99999998245E-14  0.12500000000E+03  0.12500000000E+03 0.  0.
        -13    1    1    0    0    0 -0.15608956487E+02 -0.19066830060E+02  0.41033596691E+01  0.24980637617E+02  0.10566000000E+00 0.  1.
         13    1    1    0    0    0  0.34745555108E+01 -0.35206923097E+02 -0.21923570521E+02  0.41620356539E+02  0.10566000000E+00 0. -1.
         22    1    1    0    0    0  0.12134400976E+02  0.54273753157E+02  0.17820210852E+02  0.58399005844E+02  0.00000000000E+00 0. -1.
</event>
<event>
 4    1  0.9925048E-003  0.9118800E+02  0.7818608E-02  0.1130116E+00
         25   -1    0    0    0    0  0.00000000000E+00  0.00000000000E+00  0.99999998245E-14  0.12500000000E+03  0.12500000000E+03 0.  0.
        -13    1    1    0    0    0  0.21738630400E+02 -0.31496991037E+01 -0.96829281937E+01  0.24005393530E+02  0.10566000000E+00 0. -1.
         13    1    1    0    0    0 -0.22217434959E+02  0.41765044949E+02  0.31312997419E+02  0.56731370221E+02  0.10566000000E+00 0.  1.
         22    1    1    0    0    0  0.47880455893E+00 -0.38615345845E+02 -0.21630069225E+02  0.44263236249E+02  0.00000000000E+00 0.  1.
</event>
<event>
 4    1  0.9925048E-003  0.9118800E+02  0.7818608E-02  0.1130116E+00
         25   -1    0    0    0    0  0.00000000000E+00  0.00000000000E+00  0.99999998245E-14  0.12500000000E+03  0.12500000000E+03 0.  0.
        -13    1    1    0    0    0  0.18532440729E+02 -0.19811597680E+02  0.38641518653E+01  0.27402437769E+02  0.10566000000E+00 0.  1.
         13    1    1    0    0    0  0.22638123237E+02 -0.26273491548E+02  0.54362676904E+01  0.35104773924E+02  0.10566000000E+00 0. -1.
         22    1    1    0    0    0 -0.41170563966E+02  0.46085089228E+02 -0.93004195557E+01  0.62492788307E+02  0.00000000000E+00 0. -1.
</event>
<event>
 4    1  0.9925048E-003  0.9118800E+02  0.7818608E-02  0.1130116E+00
         25   -1    0    0    0    0  0.00000000000E+00  0.00000000000E+00  0.99999998245E-14  0.12500000000E+03  0.12500000000E+03 0.  0.
        -13    1    1    0    0    0  0.53338679765E+02 -0.69633577765E+01 -0.11739513003E+02  0.55057519379E+02  0.10566000000E+00 0. -1.
         13    1    1    0    0    0 -0.18710637269E+01 -0.31776112688E+01 -0.11860549610E+02  0.12421026283E+02  0.10566000000E+00 0.  1.
         22    1    1    0    0    0 -0.51467616038E+02  0.10140969045E+02  0.23600062613E+02  0.57521454338E+02  0.00000000000E+00 0. -1.
</event>
<event>
 4    1  0.9925048E-003  0.9118800E+02  0.7818608E-02  0.1130116E+00
         25   -1    0    0    0    0  0.00000000000E+00  0.00000000000E+00  0.99999998245E-14  0.12500000000E+03  0.12500000000E+03 0.  0.
        -13    1    1    0    0    0  0.82488981782E+01  0.34830166314E+01  0.14206840339E+02  0.16793486906E+02  0.10566000000E+00 0. -1.
         13    1    1    0    0    0  0.22290344932E+02  0.92799556999E+01  0.38808883505E+02  0.45706866638E+02  0.10566000000E+00 0. -1.
         22    1    1    0    0    0 -0.30539243110E+02 -0.12762972331E+02 -0.53015723844E+02  0.62499646456E+02  0.00000000000E+00 0. -1.
</event>
<event>
 4    1  0.9925048E-003  0.9118800E+02  0.7818608E-02  0.1130116E+00
         25   -1    0    0    0    0  0.00000000000E+00  0.00000000000E+00  0.99999998245E-14  0.12500000000E+03  0.12500000000E+03 0.  0.
        -13    1    1    0    0    0 -0.29171635974E+02 -0.24869917073E+02  0.10961882862E+02  0.39870680463E+02  0.10566000000E+00 0.  1.
         13    1    1    0    0    0 -0.17010880537E+02 -0.13741420084E+02  0.58348163783E+01  0.22633005297E+02  0.10566000000E+00 0. -1.
         22    1    1    0    0    0  0.46182516511E+02  0.38611337156E+02 -0.16796699240E+02  0.62496314241E+02  0.00000000000E+00 0. -1.
</event>
<event>
 4    1  0.9925048E-003  0.9118800E+02  0.7818608E-02  0.1130116E+00
         25   -1    0    0    0    0  0.00000000000E+00  0.00000000000E+00  0.99999998245E-14  0.12500000000E+03  0.12500000000E+03 0.  0.
        -13    1    1    0    0    0 -0.15618274506E+02  0.54613652033E+02  0.33594816888E+01  0.56902361710E+02  0.10566000000E+00 0. -1.
         13    1    1    0    0    0 -0.17047942561E+01  0.50986020516E+01  0.18961087155E+01  0.57016189484E+01  0.10566000000E+00 0.  1.
         22    1    1    0    0    0  0.17323068762E+02 -0.59712254084E+02 -0.52555904043E+01  0.62396019342E+02  0.00000000000E+00 0. -1.
</event>
<event>
 4    1  0.9925048E-003  0.9118800E+02  0.7818608E-02  0.1130116E+00
         25   -1    0    0    0    0  0.00000000000E+00  0.00000000000E+00  0.99999998245E-14  0.12500000000E+03  0.12500000000E+03 0.  0.
        -13    1    1    0    0    0 -0.20828530984E+02  0.81475482779E+01  0.55159279835E+02  0.59521152222E+02  0.10566000000E+00 0.  1.
         13    1    1    0    0    0 -0.12754816996E+01 -0.62588807570E-02  0.27111222512E+01  0.29980394654E+01  0.10566000000E+00 0. -1.
         22    1    1    0    0    0  0.22104012683E+02 -0.81412893971E+01 -0.57870402086E+02  0.62480808313E+02  0.00000000000E+00 0.  1.
</event>
<event>
 4    1  0.9925048E-003  0.9118800E+02  0.7818608E-02  0.1130116E+00
         25   -1    0    0    0    0  0.00000000000E+00  0.00000000000E+00  0.99999998245E-14  0.12500000000E+03  0.12500000000E+03 0.  0.
        -13    1    1    0    0    0 -0.38553608651E+01 -0.42591911580E+01 -0.30428146848E+00  0.57539784470E+01  0.10566000000E+00 0.  1.
         13    1    1    0    0    0  0.23920148468E+02 -0.51051812004E+02  0.15514872104E+02  0.58473784143E+02  0.10566000000E+00 0. -1.
         22    1    1    0    0    0 -0.20064787603E+02  0.55311003162E+02 -0.15210590636E+02  0.60772237410E+02  0.00000000000E+00 0. -1.
</event>
<event>
 4    1  0.9925048E-003  0.9118800E+02  0.7818608E-02  0.1130116E+00
         25   -1    0    0    0    0  0.00000000000E+00  0.00000000000E+00  0.99999998245E-14  0.12500000000E+03  0.12500000000E+03 0.  0.
        -13    1    1    0    0    0  0.61336157823E-01  0.17346799259E+02 -0.24702249771E+02  0.30184888843E+02  0.10566000000E+00 0. -1.
         13    1    1    0    0    0  0.21836742389E+01  0.18374732412E+02 -0.26513420790E+02  0.32332211035E+02  0.10566000000E+00 0.  1.
         22    1    1    0    0    0 -0.22450103968E+01 -0.35721531671E+02  0.51215670561E+02  0.62482900122E+02  0.00000000000E+00 0.  1.
</event>
<event>
 4    1  0.9925048E-003  0.9118800E+02  0.7818608E-02  0.1130116E+00
         25   -1    0    0    0    0  0.00000000000E+00  0.00000000000E+00  0.99999998245E-14  0.12500000000E+03  0.12500000000E+03 0.  0.
        -13    1    1    0    0    0  0.11621564694E+00  0.26263169699E-01 -0.25514326751E+00  0.30076228692E+00  0.10566000000E+00 0.  1.
         13    1    1    0    0    0 -0.55874296824E+02  0.26243482577E+02  0.92158644348E+01  0.62414747814E+02  0.10566000000E+00 0. -1.
         22    1    1    0    0    0  0.55758081177E+02 -0.26269745747E+02 -0.89607211673E+01  0.62284489899E+02  0.00000000000E+00 0. -1.
</event>
<event>
 4    1  0.9925048E-003  0.9118800E+02  0.7818608E-02  0.1130116E+00
         25   -1    0    0    0    0  0.00000000000E+00  0.00000000000E+00  0.99999998245E-14  0.12500000000E+03  0.12500000000E+03 0.  0.
        -13    1    1    0    0    0 -0.57678578267E+01 -0.57536195334E+01  0.42555507272E+02  0.43328451217E+02  0.10566000000E+00 0. -1.
         13    1    1    0    0    0 -0.28575220410E+02  0.26691311702E+01 -0.24845159262E+01  0.28807142623E+02  0.10566000000E+00 0.  1.
         22    1    1    0    0    0  0.34343078237E+02  0.30844883633E+01 -0.40070991345E+02  0.52864406160E+02  0.00000000000E+00 0. -1.
</event>
<event>
 4    1  0.9925048E-003  0.9118800E+02  0.7818608E-02  0.1130116E+00
         25   -1    0    0    0    0  0.00000000000E+00  0.00000000000E+00  0.99999998245E-14  0.12500000000E+03  0.12500000000E+03 0.  0.
        -13    1    1    0    0    0 -0.60034780596E+02  0.71475972172E+01  0.15311723946E+02  0.62367644508E+02  0.10566000000E+00 0.  1.
         13    1    1    0    0    0  0.39151819899E+01 -0.38015496507E+00  0.42136178858E+00  0.39575090151E+01  0.10566000000E+00 0. -1.
         22    1    1    0    0    0  0.56119598606E+02 -0.67674422522E+01 -0.15733085734E+02  0.58674846477E+02  0.00000000000E+00 0.  1.
</event>
<event>
 4    1  0.9925048E-003  0.9118800E+02  0.7818608E-02  0.1130116E+00
         25   -1    0    0    0    0  0.00000000000E+00  0.00000000000E+00  0.99999998245E-14  0.12500000000E+03  0.12500000000E+03 0.  0.
        -13    1    1    0    0    0  0.19760936134E+02 -0.19902732686E+02 -0.83991896091E+00  0.28059401155E+02  0.10566000000E+00 0.  1.
         13    1    1    0    0    0  0.24047275479E+02 -0.24641108466E+02 -0.85283930023E+00  0.34441169889E+02  0.10566000000E+00 0.  1.
         22    1    1    0    0    0 -0.43808211613E+02  0.44543841153E+02  0.16927582611E+01  0.62499428956E+02  0.00000000000E+00 0.  1.
</event>
<event>
 4    1  0.9925048E-003  0.9118800E+02  0.7818608E-02  0.1130116E+00
         25   -1    0    0    0    0  0.00000000000E+00  0.00000000000E+00  0.99999998245E-14  0.12500000000E+03  0.12500000000E+03 0.  0.
        -13    1    1    0    0    0 -0.34719746971E+02  0.36672261144E+01 -0.17922476505E+02  0.39244562747E+02  0.10566000000E+00 0.  1.
         13    1    1    0    0    0 -0.20157021593E+02  0.20153015686E+01 -0.11433106900E+02  0.23261428532E+02  0.10566000000E+00 0. -1.
         22    1    1    0    0    0  0.54876768565E+02 -0.56825276830E+01  0.29355583405E+02  0.62494008721E+02  0.00000000000E+00 0. -1.
</event>
<event>
 4    1  0.9925048E-003  0.9118800E+02  0.7818608E-02  0.1130116E+00
         25   -1    0    0    0    0  0.00000000000E+00  0.00000000000E+00  0.99999998245E-14  0.12500000000E+03  0.12500000000E+03 0.  0.
        -13    1    1    0    0    0 -0.10670463937E+02 -0.43599937046E+02  0.24536757858E+02  0.51155419667E+02  0.10566000000E+00 0. -1.
         13    1    1    0    0    0 -0.16503184166E+01 -0.10073724179E+02  0.49853607196E+01  0.11360829866E+02  0.10566000000E+00 0.  1.
         22    1    1    0    0    0  0.12320782354E+02  0.53673661225E+02 -0.29522118577E+02  0.62483750467E+02  0.00000000000E+00 0. -1.
</event>
<event>
 4    1  0.9925048E-003  0.9118800E+02  0.7818608E-02  0.1130116E+00
         25   -1    0    0    0    0  0.00000000000E+00  0.00000000000E+00  0.99999998245E-14  0.12500000000E+03  0.12500000000E+03 0.  0.
        -13    1    1    0    0    0 -0.95945604474E+01 -0.47503684594E+02 -0.38935732856E+02  0.62166374329E+02  0.10566000000E+00 0. -1.
         13    1    1    0    0    0  0.57340103377E-01  0.28549113665E+01  0.56524050176E+01  0.63336129749E+01  0.10566000000E+00 0.  1.
         22    1    1    0    0    0  0.95372203440E+01  0.44648773228E+02  0.33283327838E+02  0.56500012696E+02  0.00000000000E+00 0. -1.
</event>
<event>
 4    1  0.9925048E-003  0.9118800E+02  0.7818608E-02  0.1130116E+00
         25   -1    0    0    0    0  0.00000000000E+00  0.00000000000E+00  0.99999998245E-14  0.12500000000E+03  0.12500000000E+03 0.  0.
        -13    1    1    0    0    0 -0.39740193616E+01  0.10934574392E+02  0.22717682465E+01  0.11854528334E+02  0.10566000000E+00 0.  1.
         13    1    1    0    0    0  0.39868902610E+02  0.36077521456E+02 -0.44795703357E+01  0.53955487804E+02  0.10566000000E+00 0. -1.
         22    1    1    0    0    0 -0.35894883249E+02 -0.47012095848E+02  0.22078020892E+01  0.59189983862E+02  0.00000000000E+00 0. -1.
</event>
<event>
 4    1  0.9925048E-003  0.9118800E+02  0.7818608E-02  0.1130116E+00
         25   -1    0    0    0    0  0.00000000000E+00  0.00000000000E+00  0.99999998245E-14  0.12500000000E+03  0.12500000000E+03 0.  0.
        -13    1    1    0    0    0  0.36266107068E+02  0.73602115008E+01  0.14697018183E+02  0.39817292007E+02  0.10566000000E+00 0.  1.
         13    1    1    0    0    0  0.19659034036E+02  0.46025902219E+01  0.10418661584E+02  0.22720500197E+02  0.10566000000E+00 0. -1.
         22    1    1    0    0    0 -0.55925141104E+02 -0.11962801723E+02 -0.25115679767E+02  0.62462207796E+02  0.00000000000E+00 0.  1.
</event>
<event>
 4    1  0.9925048E-003  0.9118800E+02  0.7818608E-02  0.1130116E+00
         25   -1    0    0    0    0  0.00000000000E+00  0.00000000000E+00  0.99999998245E-14  0.12500000000E+03  0.12500000000E+03 0.  0.
        -13    1    1    0    0    0  0.31513528421E+01 -0.29680004256E+02  0.86054690682E+01  0.31062822462E+02  0.10566000000E+00 0.  1.
         13    1    1    0    0    0  0.20097064917E+02 -0.24520857442E+02  0.79403662969E+01  0.32683712289E+02  0.10566000000E+00 0. -1.
         22    1    1    0    0    0 -0.23248417760E+02  0.54200861698E+02 -0.16545835365E+02  0.61253465250E+02  0.00000000000E+00 0.  1.
</event>
<event>
 4    1  0.9925048E-003  0.9118800E+02  0.7818608E-02  0.1130116E+00
         25   -1    0    0    0    0  0.00000000000E+00  0.00000000000E+00  0.99999998245E-14  0.12500000000E+03  0.12500000000E+03 0.  0.
        -13    1    1    0    0    0 -0.33867968526E+00 -0.32158557983E+02 -0.46229363502E+02  0.56315652969E+02  0.10566000000E+00 0. -1.
         13    1    1    0    0    0 -0.10715268962E-01 -0.35052600341E+01 -0.50946037398E+01  0.61849101873E+01  0.10566000000E+00 0.  1.
         22    1    1    0    0    0  0.34939495423E+00  0.35663818017E+02  0.51323967242E+02  0.62499436844E+02  0.00000000000E+00 0.  1.
</event>
<event>
 4    1  0.9925048E-003  0.9118800E+02  0.7818608E-02  0.1130116E+00
         25   -1    0    0    0    0  0.00000000000E+00  0.00000000000E+00  0.99999998245E-14  0.12500000000E+03  0.12500000000E+03 0.  0.
        -13    1    1    0    0    0  0.31033363187E+02  0.85814156290E+01  0.14162270709E+01  0.32229290840E+02  0.10566000000E+00 0.  1.
         13    1    1    0    0    0  0.23596423143E+02  0.42803705748E+01  0.21443237590E+02  0.32170426789E+02  0.10566000000E+00 0. -1.
         22    1    1    0    0    0 -0.54629786330E+02 -0.12861786204E+02 -0.22859464661E+02  0.60600282371E+02  0.00000000000E+00 0.  1.
</event>
<event>
 4    1  0.9925048E-003  0.9118800E+02  0.7818608E-02  0.1130116E+00
         25   -1    0    0    0    0  0.00000000000E+00  0.00000000000E+00  0.99999998245E-14  0.12500000000E+03  0.12500000000E+03 0.  0.
        -13    1    1    0    0    0  0.48488931007E+00  0.85009769514E+00 -0.16856768354E+00  0.99868054644E+00  0.10566000000E+00 0. -1.
         13    1    1    0    0    0  0.19755864329E+02  0.57348605008E+02 -0.10227874771E+02  0.61512415479E+02  0.10566000000E+00 0.  1.
         22    1    1    0    0    0 -0.20240753639E+02 -0.58198702703E+02  0.10396442455E+02  0.62488903974E+02  0.00000000000E+00 0.  1.
</event>
<event>
 4    1  0.9925048E-003  0.9118800E+02  0.7818608E-02  0.1130116E+00
         25   -1    0    0    0    0  0.00000000000E+00  0.00000000000E+00  0.99999998245E-14  0.12500000000E+03  0.12500000000E+03 0.  0.
        -13    1    1    0    0    0  0.18930163988E+02  0.39445720248E+02 -0.23065486310E+02  0.49460527466E+02  0.10566000000E+00 0.  1.
         13    1    1    0    0    0 -0.72338724224E+00  0.11578035057E+02 -0.70316090569E+01  0.13565724265E+02  0.10566000000E+00 0. -1.
         22    1    1    0    0    0 -0.18206776746E+02 -0.51023755305E+02  0.30097095367E+02  0.61973748268E+02  0.00000000000E+00 0.  1.
</event>
<event>
 4    1  0.9925048E-003  0.9118800E+02  0.7818608E-02  0.1130116E+00
         25   -1    0    0    0    0  0.00000000000E+00  0.00000000000E+00  0.99999998245E-14  0.12500000000E+03  0.12500000000E+03 0.  0.
        -13    1    1    0    0    0  0.47861440201E+02  0.11248424021E+02  0.13897016666E+02  0.51091904812E+02  0.10566000000E+00 0. -1.
         13    1    1    0    0    0 -0.12493635118E+02  0.30961787187E+01 -0.29876830006E+02  0.32531728763E+02  0.10566000000E+00 0.  1.
         22    1    1    0    0    0 -0.35367805083E+02 -0.14344602740E+02  0.15979813339E+02  0.41376366425E+02  0.00000000000E+00 0.  1.
</event>
<event>
 4    1  0.9925048E-003  0.9118800E+02  0.7818608E-02  0.1130116E+00
         25   -1    0    0    0    0  0.00000000000E+00  0.00000000000E+00  0.99999998245E-14  0.12500000000E+03  0.12500000000E+03 0.  0.
        -13    1    1    0    0    0 -0.54638390596E+01  0.83404885933E+01 -0.33381776567E+02  0.34839222982E+02  0.10566000000E+00 0. -1.
         13    1    1    0    0    0 -0.52655507231E+01  0.73714115752E+01 -0.26143568867E+02  0.27668774641E+02  0.10566000000E+00 0.  1.
         22    1    1    0    0    0  0.10729389783E+02 -0.15711900168E+02  0.59525345433E+02  0.62492002376E+02  0.00000000000E+00 0.  1.
</event>
<event>
 4    1  0.9925048E-003  0.9118800E+02  0.7818608E-02  0.1130116E+00
         25   -1    0    0    0    0  0.00000000000E+00  0.00000000000E+00  0.99999998245E-14  0.12500000000E+03  0.12500000000E+03 0.  0.
        -13    1    1    0    0    0 -0.22642258916E+02 -0.21363054687E+02  0.17340405706E+02  0.35633591293E+02  0.10566000000E+00 0.  1.
         13    1    1    0    0    0  0.10780936475E+02  0.11972311645E+02  0.33042490217E+02  0.36761150162E+02  0.10566000000E+00 0. -1.
         22    1    1    0    0    0  0.11861322441E+02  0.93907430423E+01 -0.50382895924E+02  0.52605258545E+02  0.00000000000E+00 0.  1.
</event>
<event>
 4    1  0.9925048E-003  0.9118800E+02  0.7818608E-02  0.1130116E+00
         25   -1    0    0    0    0  0.00000000000E+00  0.00000000000E+00  0.99999998245E-14  0.12500000000E+03  0.12500000000E+03 0.  0.
        -13    1    1    0    0    0 -0.35121138965E+01 -0.69858625508E+01  0.48884956701E+01  0.92220265427E+01  0.10566000000E+00 0. -1.
         13    1    1    0    0    0 -0.20803439118E+02 -0.40394458301E+02  0.27822765261E+02  0.53278633348E+02  0.10566000000E+00 0.  1.
         22    1    1    0    0    0  0.24315553015E+02  0.47380320852E+02 -0.32711260931E+02  0.62499340110E+02  0.00000000000E+00 0.  1.
</event>
<event>
 4    1  0.9925048E-003  0.9118800E+02  0.7818608E-02  0.1130116E+00
         25   -1    0    0    0    0  0.00000000000E+00  0.00000000000E+00  0.99999998245E-14  0.12500000000E+03  0.12500000000E+03 0.  0.
        -13    1    1    0    0    0 -0.16700829010E+02  0.81906636111E+01 -0.15303462085E+02  0.24087585513E+02  0.10566000000E+00 0.  1.
         13    1    1    0    0    0 -0.26183648792E+02  0.13450594074E+02 -0.24679903031E+02  0.38413678848E+02  0.10566000000E+00 0.  1.
         22    1    1    0    0    0  0.42884477802E+02 -0.21641257685E+02  0.39983365116E+02  0.62498735639E+02  0.00000000000E+00 0.  1.
</event>
<event>
 4    1  0.9925048E-003  0.9118800E+02  0.7818608E-02  0.1130116E+00
         25   -1    0    0    0    0  0.00000000000E+00  0.00000000000E+00  0.99999998245E-14  0.12500000000E+03  0.12500000000E+03 0.  0.
        -13    1    1    0    0    0 -0.60187330073E+01  0.44359039688E+01  0.77418526479E+01  0.10763356237E+02  0.10566000000E+00 0.  1.
         13    1    1    0    0    0 -0.18111325010E+02 -0.21680167897E+02  0.45346043482E+02  0.53425879470E+02  0.10566000000E+00 0. -1.
         22    1    1    0    0    0  0.24130058017E+02  0.17244263929E+02 -0.53087896130E+02  0.60810764292E+02  0.00000000000E+00 0. -1.
</event>
<event>
 4    1  0.9925048E-003  0.9118800E+02  0.7818608E-02  0.1130116E+00
         25   -1    0    0    0    0  0.00000000000E+00  0.00000000000E+00  0.99999998245E-14  0.12500000000E+03  0.12500000000E+03 0.  0.
        -13    1    1    0    0    0  0.17682028704E+02  0.21922371769E+02 -0.62968099430E+01  0.28860102262E+02  0.10566000000E+00 0.  1.
         13    1    1    0    0    0  0.20704492901E+02  0.25511380671E+02 -0.72209949797E+01  0.33640162047E+02  0.10566000000E+00 0.  1.
         22    1    1    0    0    0 -0.38386521605E+02 -0.47433752440E+02  0.13517804923E+02  0.62499735691E+02  0.00000000000E+00 0.  1.
</event>
<event>
 4    1  0.9925048E-003  0.9118800E+02  0.7818608E-02  0.1130116E+00
         25   -1    0    0    0    0  0.00000000000E+00  0.00000000000E+00  0.99999998245E-14  0.12500000000E+03  0.12500000000E+03 0.  0.
        -13    1    1    0    0    0 -0.20921051203E+02  0.19612296434E+02 -0.11068348377E+02  0.30738445873E+02  0.10566000000E+00 0. -1.
         13    1    1    0    0    0 -0.25286208135E+02  0.17165949155E+02 -0.90455319403E+01  0.31873106914E+02  0.10566000000E+00 0.  1.
         22    1    1    0    0    0  0.46207259338E+02 -0.36778245589E+02  0.20113880318E+02  0.62388447213E+02  0.00000000000E+00 0.  1.
</event>
<event>
 4    1  0.9925048E-003  0.9118800E+02  0.7818608E-02  0.1130116E+00
         25   -1    0    0    0    0  0.00000000000E+00  0.00000000000E+00  0.99999998245E-14  0.12500000000E+03  0.12500000000E+03 0.  0.
        -13    1    1    0    0    0  0.16094157476E+02 -0.93714060962E+01  0.19655504222E+02  0.27077576837E+02  0.10566000000E+00 0. -1.
         13    1    1    0    0    0  0.21428599003E+02 -0.12786573103E+02  0.25144166874E+02  0.35424872601E+02  0.10566000000E+00 0.  1.
         22    1    1    0    0    0 -0.37522756479E+02  0.22157979199E+02 -0.44799671096E+02  0.62497550563E+02  0.00000000000E+00 0.  1.
</event>
<event>
 4    1  0.9925048E-003  0.9118800E+02  0.7818608E-02  0.1130116E+00
         25   -1    0    0    0    0  0.00000000000E+00  0.00000000000E+00  0.99999998245E-14  0.12500000000E+03  0.12500000000E+03 0.  0.
        -13    1    1    0    0    0 -0.21978687605E+02 -0.57214444005E+01  0.26115980348E+01  0.22861085784E+02  0.10566000000E+00 0. -1.
         13    1    1    0    0    0 -0.38123066156E+02 -0.10176644954E+02  0.37980142538E+01  0.39640488796E+02  0.10566000000E+00 0. -1.
         22    1    1    0    0    0  0.60101753761E+02  0.15898089355E+02 -0.64096122886E+01  0.62498425420E+02  0.00000000000E+00 0. -1.
</event>
<event>
 4    1  0.9925048E-003  0.9118800E+02  0.7818608E-02  0.1130116E+00
         25   -1    0    0    0    0  0.00000000000E+00  0.00000000000E+00  0.99999998245E-14  0.12500000000E+03  0.12500000000E+03 0.  0.
        -13    1    1    0    0    0  0.73298933920E+01 -0.89988224670E+01 -0.49650346735E+01  0.12624138635E+02  0.10566000000E+00 0. -1.
         13    1    1    0    0    0  0.30208198290E+02 -0.35175194588E+02 -0.18387842951E+02  0.49879389438E+02  0.10566000000E+00 0.  1.
         22    1    1    0    0    0 -0.37538091682E+02  0.44174017055E+02  0.23352877625E+02  0.62496471927E+02  0.00000000000E+00 0.  1.
</event>
<event>
 4    1  0.9925048E-003  0.9118800E+02  0.7818608E-02  0.1130116E+00
         25   -1    0    0    0    0  0.00000000000E+00  0.00000000000E+00  0.99999998245E-14  0.12500000000E+03  0.12500000000E+03 0.  0.
        -13    1    1    0    0    0  0.70989839322E+01 -0.18056957315E+02  0.15048652108E+02  0.24554477690E+02  0.10566000000E+00 0. -1.
         13    1    1    0    0    0  0.75967724991E+01 -0.30276117828E+02  0.21664521189E+02  0.37996274890E+02  0.10566000000E+00 0.  1.
         22    1    1    0    0    0 -0.14695756431E+02  0.48333075143E+02 -0.36713173296E+02  0.62449247420E+02  0.00000000000E+00 0. -1.
</event>
<event>
 4    1  0.9925048E-003  0.9118800E+02  0.7818608E-02  0.1130116E+00
         25   -1    0    0    0    0  0.00000000000E+00  0.00000000000E+00  0.99999998245E-14  0.12500000000E+03  0.12500000000E+03 0.  0.
        -13    1    1    0    0    0  0.56549820242E+01  0.28929221326E+01  0.11177741648E+02  0.12856939471E+02  0.10566000000E+00 0. -1.
         13    1    1    0    0    0 -0.52069227120E+02 -0.16073192756E+02 -0.27717219153E+02  0.61137609864E+02  0.10566000000E+00 0.  1.
         22    1    1    0    0    0  0.46414245095E+02  0.13180270623E+02  0.16539477505E+02  0.51005450666E+02  0.00000000000E+00 0.  1.
</event>
<event>
 4    1  0.9925048E-003  0.9118800E+02  0.7818608E-02  0.1130116E+00
         25   -1    0    0    0    0  0.00000000000E+00  0.00000000000E+00  0.99999998245E-14  0.12500000000E+03  0.12500000000E+03 0.  0.
        -13    1    1    0    0    0 -0.15047032674E+02  0.65710853027E+01  0.11492356643E+02  0.20041900598E+02  0.10566000000E+00 0.  1.
         13    1    1    0    0    0 -0.31162694461E+02  0.10392862213E+02  0.26958181227E+02  0.42495644602E+02  0.10566000000E+00 0. -1.
         22    1    1    0    0    0  0.46209727134E+02 -0.16963947516E+02 -0.38450537870E+02  0.62462454800E+02  0.00000000000E+00 0. -1.
</event>
<event>
 4    1  0.9925048E-003  0.9118800E+02  0.7818608E-02  0.1130116E+00
         25   -1    0    0    0    0  0.00000000000E+00  0.00000000000E+00  0.99999998245E-14  0.12500000000E+03  0.12500000000E+03 0.  0.
        -13    1    1    0    0    0  0.55059313739E+02  0.18387168295E+02  0.63855563145E+01  0.58398651361E+02  0.10566000000E+00 0. -1.
         13    1    1    0    0    0 -0.46218473978E+01  0.39094115480E+01  0.75929961659E+01  0.97113195206E+01  0.10566000000E+00 0.  1.
         22    1    1    0    0    0 -0.50437466341E+02 -0.22296579842E+02 -0.13978552480E+02  0.56890029118E+02  0.00000000000E+00 0. -1.
</event>
<event>
 4    1  0.9925048E-003  0.9118800E+02  0.7818608E-02  0.1130116E+00
         25   -1    0    0    0    0  0.00000000000E+00  0.00000000000E+00  0.99999998245E-14  0.12500000000E+03  0.12500000000E+03 0.  0.
        -13    1    1    0    0    0 -0.64329940667E+01  0.59229373152E+01 -0.13244978178E+02  0.15871521983E+02  0.10566000000E+00 0.  1.
         13    1    1    0    0    0  0.18613566281E+02  0.28620572546E+02 -0.34775353861E+02  0.48733339950E+02  0.10566000000E+00 0. -1.
         22    1    1    0    0    0 -0.12180572214E+02 -0.34543509861E+02  0.48020332038E+02  0.60395138066E+02  0.00000000000E+00 0. -1.
</event>
<event>
 4    1  0.9925048E-003  0.9118800E+02  0.7818608E-02  0.1130116E+00
         25   -1    0    0    0    0  0.00000000000E+00  0.00000000000E+00  0.99999998245E-14  0.12500000000E+03  0.12500000000E+03 0.  0.
        -13    1    1    0    0    0 -0.10822985990E+02  0.92305694605E+01  0.45682098328E+01  0.14940553651E+02  0.10566000000E+00 0. -1.
         13    1    1    0    0    0 -0.27963107290E+02  0.34980767178E+02  0.16293455822E+02  0.47655821348E+02  0.10566000000E+00 0.  1.
         22    1    1    0    0    0  0.38786093280E+02 -0.44211336639E+02 -0.20861665655E+02  0.62403625000E+02  0.00000000000E+00 0.  1.
</event>
<event>
 4    1  0.9925048E-003  0.9118800E+02  0.7818608E-02  0.1130116E+00
         25   -1    0    0    0    0  0.00000000000E+00  0.00000000000E+00  0.99999998245E-14  0.12500000000E+03  0.12500000000E+03 0.  0.
        -13    1    1    0    0    0  0.93907050961E+01  0.23762877082E+02  0.17315560629E+02  0.30865830191E+02  0.10566000000E+00 0.  1.
         13    1    1    0    0    0  0.11015276468E+02  0.24096962056E+02  0.17299260695E+02  0.31642937295E+02  0.10566000000E+00 0. -1.
         22    1    1    0    0    0 -0.20405981564E+02 -0.47859839139E+02 -0.34614821324E+02  0.62491232515E+02  0.00000000000E+00 0.  1.
</event>
<event>
 4    1  0.9925048E-003  0.9118800E+02  0.7818608E-02  0.1130116E+00
         25   -1    0    0    0    0  0.00000000000E+00  0.00000000000E+00  0.99999998245E-14  0.12500000000E+03  0.12500000000E+03 0.  0.
        -13    1    1    0    0    0 -0.12853299015E+02 -0.23847865678E+02  0.86853181090E+01  0.28449497494E+02  0.10566000000E+00 0. -1.
         13    1    1    0    0    0 -0.19553816657E+02 -0.27935899601E+02  0.34327724884E+01  0.34271873648E+02  0.10566000000E+00 0.  1.
         22    1    1    0    0    0  0.32407115672E+02  0.51783765279E+02 -0.12118090597E+02  0.62278628858E+02  0.00000000000E+00 0.  1.
</event>
<event>
 4    1  0.9925048E-003  0.9118800E+02  0.7818608E-02  0.1130116E+00
         25   -1    0    0    0    0  0.00000000000E+00  0.00000000000E+00  0.99999998245E-14  0.12500000000E+03  0.12500000000E+03 0.  0.
        -13    1    1    0    0    0  0.95578628883E+01  0.58173999951E+02 -0.10525989405E+02  0.59886347612E+02  0.10566000000E+00 0.  1.
         13    1    1    0    0    0 -0.97720100538E+01 -0.18819409271E+02 -0.65780872858E+01  0.22202358933E+02  0.10566000000E+00 0. -1.
         22    1    1    0    0    0  0.21414716550E+00 -0.39354590680E+02  0.17104076691E+02  0.42911293455E+02  0.00000000000E+00 0.  1.
</event>
<event>
 4    1  0.9925048E-003  0.9118800E+02  0.7818608E-02  0.1130116E+00
         25   -1    0    0    0    0  0.00000000000E+00  0.00000000000E+00  0.99999998245E-14  0.12500000000E+03  0.12500000000E+03 0.  0.
        -13    1    1    0    0    0 -0.27006301888E+01 -0.36148269985E+00  0.16427873263E+01  0.31833924348E+01  0.10566000000E+00 0. -1.
         13    1    1    0    0    0 -0.14608100063E+01  0.39602626744E+02  0.45499471719E+02  0.60338338573E+02  0.10566000000E+00 0.  1.
         22    1    1    0    0    0  0.41614401951E+01 -0.39241144044E+02 -0.47142259046E+02  0.61478268993E+02  0.00000000000E+00 0.  1.
</event>
<event>
 4    1  0.9925048E-003  0.9118800E+02  0.7818608E-02  0.1130116E+00
         25   -1    0    0    0    0  0.00000000000E+00  0.00000000000E+00  0.99999998245E-14  0.12500000000E+03  0.12500000000E+03 0.  0.
        -13    1    1    0    0    0 -0.88375773546E+01  0.32141378846E+02 -0.48218831725E+02  0.58619432824E+02  0.10566000000E+00 0.  1.
         13    1    1    0    0    0 -0.25765116487E+01 -0.25715761567E+01 -0.39279679752E+01  0.53564458977E+01  0.10566000000E+00 0. -1.
         22    1    1    0    0    0  0.11414089003E+02 -0.29569802690E+02  0.52146799700E+02  0.61024121279E+02  0.00000000000E+00 0.  1.
</event>
<event>
 4    1  0.9925048E-003  0.9118800E+02  0.7818608E-02  0.1130116E+00
         25   -1    0    0    0    0  0.00000000000E+00  0.00000000000E+00  0.99999998245E-14  0.12500000000E+03  0.12500000000E+03 0.  0.
        -13    1    1    0    0    0  0.26340853003E+02 -0.14311203654E+02  0.38104001051E+02  0.48482751026E+02  0.10566000000E+00 0.  1.
         13    1    1    0    0    0  0.96498580329E+01 -0.15726995061E+01  0.10260577629E+02  0.14173346856E+02  0.10566000000E+00 0. -1.
         22    1    1    0    0    0 -0.35990711036E+02  0.15883903160E+02 -0.48364578679E+02  0.62343902118E+02  0.00000000000E+00 0.  1.
</event>
<event>
 4    1  0.9925048E-003  0.9118800E+02  0.7818608E-02  0.1130116E+00
         25   -1    0    0    0    0  0.00000000000E+00  0.00000000000E+00  0.99999998245E-14  0.12500000000E+03  0.12500000000E+03 0.  0.
        -13    1    1    0    0    0 -0.13000004098E+02  0.33836379245E+02  0.19067210884E+02  0.40956933013E+02  0.10566000000E+00 0. -1.
         13    1    1    0    0    0 -0.11902920640E+02  0.11937193364E+02  0.14350675542E+02  0.22138860804E+02  0.10566000000E+00 0.  1.
         22    1    1    0    0    0  0.24902924738E+02 -0.45773572609E+02 -0.33417886425E+02  0.61904206182E+02  0.00000000000E+00 0. -1.
</event>
<event>
 4    1  0.9925048E-003  0.9118800E+02  0.7818608E-02  0.1130116E+00
         25   -1    0    0    0    0  0.00000000000E+00  0.00000000000E+00  0.99999998245E-14  0.12500000000E+03  0.12500000000E+03 0.  0.
        -13    1    1    0    0    0 -0.40973250155E+02  0.26273611565E+02 -0.21254156946E+02  0.53111771242E+02  0.10566000000E+00 0.  1.
         13    1    1    0    0    0 -0.65492928204E+01  0.57275393866E+01 -0.36259213610E+01  0.94263679975E+01  0.10566000000E+00 0. -1.
         22    1    1    0    0    0  0.47522542975E+02 -0.32001150952E+02  0.24880078307E+02  0.62461860760E+02  0.00000000000E+00 0.  1.
</event>
<event>
 4    1  0.9925048E-003  0.9118800E+02  0.7818608E-02  0.1130116E+00
         25   -1    0    0    0    0  0.00000000000E+00  0.00000000000E+00  0.99999998245E-14  0.12500000000E+03  0.12500000000E+03 0.  0.
        -13    1    1    0    0    0  0.14287879192E+02 -0.31507242032E+01 -0.83181252054E+00  0.14655157144E+02  0.10566000000E+00 0.  1.
         13    1    1    0    0    0  0.43692553699E+02 -0.19818307198E+02  0.26932626485E+00  0.47977997558E+02  0.10566000000E+00 0. -1.
         22    1    1    0    0    0 -0.57980432891E+02  0.22969031401E+02  0.56248625569E+00  0.62366845299E+02  0.00000000000E+00 0. -1.
</event>
<event>
 4    1  0.9925048E-003  0.9118800E+02  0.7818608E-02  0.1130116E+00
         25   -1    0    0    0    0  0.00000000000E+00  0.00000000000E+00  0.99999998245E-14  0.12500000000E+03  0.12500000000E+03 0.  0.
        -13    1    1    0    0    0 -0.66546518656E+01  0.29947377998E+01  0.95357667737E+00  0.73602526083E+01  0.10566000000E+00 0.  1.
         13    1    1    0    0    0 -0.53212353002E+02  0.14560955052E+02 -0.26012870112E+01  0.55230007986E+02  0.10566000000E+00 0. -1.
         22    1    1    0    0    0  0.59867004868E+02 -0.17555692852E+02  0.16477103338E+01  0.62409739405E+02  0.00000000000E+00 0. -1.
</event>
<event>
 4    1  0.9925048E-003  0.9118800E+02  0.7818608E-02  0.1130116E+00
         25   -1    0    0    0    0  0.00000000000E+00  0.00000000000E+00  0.99999998245E-14  0.12500000000E+03  0.12500000000E+03 0.  0.
        -13    1    1    0    0    0  0.32089650138E+02  0.41447793103E+02 -0.13902658631E+02  0.54230621241E+02  0.10566000000E+00 0.  1.
         13    1    1    0    0    0  0.51288919473E+01  0.62735925070E+01 -0.16802784505E+01  0.82763515668E+01  0.10566000000E+00 0. -1.
         22    1    1    0    0    0 -0.37218542085E+02 -0.47721385610E+02  0.15582937082E+02  0.62493027192E+02  0.00000000000E+00 0.  1.
</event>
<event>
 4    1  0.9925048E-003  0.9118800E+02  0.7818608E-02  0.1130116E+00
         25   -1    0    0    0    0  0.00000000000E+00  0.00000000000E+00  0.99999998245E-14  0.12500000000E+03  0.12500000000E+03 0.  0.
        -13    1    1    0    0    0  0.74588209808E+01 -0.50562923979E+01  0.69820301173E+01  0.11400000519E+02  0.10566000000E+00 0. -1.
         13    1    1    0    0    0  0.33254214045E+02 -0.23107845372E+02  0.31167875908E+02  0.51100517827E+02  0.10566000000E+00 0. -1.
         22    1    1    0    0    0 -0.40713035026E+02  0.28164137770E+02 -0.38149906025E+02  0.62499481655E+02  0.00000000000E+00 0. -1.
</event>
<event>
 4    1  0.9925048E-003  0.9118800E+02  0.7818608E-02  0.1130116E+00
         25   -1    0    0    0    0  0.00000000000E+00  0.00000000000E+00  0.99999998245E-14  0.12500000000E+03  0.12500000000E+03 0.  0.
        -13    1    1    0    0    0  0.10185392999E+02 -0.17781389777E+01  0.68860360294E+01  0.12423069870E+02  0.10566000000E+00 0. -1.
         13    1    1    0    0    0  0.42313359786E+02 -0.79183201446E+01  0.25598278718E+02  0.50083961981E+02  0.10566000000E+00 0.  1.
         22    1    1    0    0    0 -0.52498752785E+02  0.96964591224E+01 -0.32484314747E+02  0.62492968149E+02  0.00000000000E+00 0.  1.
</event>
<event>
 4    1  0.9925048E-003  0.9118800E+02  0.7818608E-02  0.1130116E+00
         25   -1    0    0    0    0  0.00000000000E+00  0.00000000000E+00  0.99999998245E-14  0.12500000000E+03  0.12500000000E+03 0.  0.
        -13    1    1    0    0    0  0.46923963369E+02  0.10858634532E+02  0.28475461418E+02  0.55952045085E+02  0.10566000000E+00 0.  1.
         13    1    1    0    0    0  0.62458054787E+00  0.91307864230E+01  0.16720736569E+01  0.93042117298E+01  0.10566000000E+00 0. -1.
         22    1    1    0    0    0 -0.47548543917E+02 -0.19989420955E+02 -0.30147535075E+02  0.59743743186E+02  0.00000000000E+00 0.  1.
</event>
<event>
 4    1  0.9925048E-003  0.9118800E+02  0.7818608E-02  0.1130116E+00
         25   -1    0    0    0    0  0.00000000000E+00  0.00000000000E+00  0.99999998245E-14  0.12500000000E+03  0.12500000000E+03 0.  0.
        -13    1    1    0    0    0  0.32825026971E+02  0.66102906524E+01 -0.49575177191E+02  0.59823805426E+02  0.10566000000E+00 0. -1.
         13    1    1    0    0    0  0.11743477311E+01  0.71781484932E+00 -0.23226285237E+01  0.27018730625E+01  0.10566000000E+00 0.  1.
         22    1    1    0    0    0 -0.33999374702E+02 -0.73281055018E+01  0.51897805714E+02  0.62474321511E+02  0.00000000000E+00 0. -1.
</event>
<event>
 4    1  0.9925048E-003  0.9118800E+02  0.7818608E-02  0.1130116E+00
         25   -1    0    0    0    0  0.00000000000E+00  0.00000000000E+00  0.99999998245E-14  0.12500000000E+03  0.12500000000E+03 0.  0.
        -13    1    1    0    0    0 -0.24167621936E+02  0.46383987084E+01 -0.67589588943E+01  0.25520254348E+02  0.10566000000E+00 0.  1.
         13    1    1    0    0    0 -0.35247240539E+02  0.27888756121E+01 -0.10991841272E+02  0.37026713754E+02  0.10566000000E+00 0. -1.
         22    1    1    0    0    0  0.59414862475E+02 -0.74272743204E+01  0.17750800166E+02  0.62453031898E+02  0.00000000000E+00 0.  1.
</event>
<event>
 4    1  0.9925048E-003  0.9118800E+02  0.7818608E-02  0.1130116E+00
         25   -1    0    0    0    0  0.00000000000E+00  0.00000000000E+00  0.99999998245E-14  0.12500000000E+03  0.12500000000E+03 0.  0.
        -13    1    1    0    0    0  0.68642790833E+01 -0.94521901776E+01  0.13031262271E+02  0.17501062450E+02  0.10566000000E+00 0.  1.
         13    1    1    0    0    0  0.13657241008E+02 -0.42894135598E+02  0.11020574412E+02  0.46345348473E+02  0.10566000000E+00 0. -1.
         22    1    1    0    0    0 -0.20521520092E+02  0.52346325776E+02 -0.24051836683E+02  0.61153589076E+02  0.00000000000E+00 0.  1.
</event>
<event>
 4    1  0.9925048E-003  0.9118800E+02  0.7818608E-02  0.1130116E+00
         25   -1    0    0    0    0  0.00000000000E+00  0.00000000000E+00  0.99999998245E-14  0.12500000000E+03  0.12500000000E+03 0.  0.
        -13    1    1    0    0    0 -0.13193498850E+02 -0.36255890632E+02  0.34090486440E+02  0.51485244946E+02  0.10566000000E+00 0. -1.
         13    1    1    0    0    0 -0.27832892953E+01 -0.77434475081E+01  0.73221453798E+01  0.11015110331E+02  0.10566000000E+00 0. -1.
         22    1    1    0    0    0  0.15976788145E+02  0.43999338140E+02 -0.41412631820E+02  0.62499644723E+02  0.00000000000E+00 0. -1.
</event>
<event>
 4    1  0.9925048E-003  0.9118800E+02  0.7818608E-02  0.1130116E+00
         25   -1    0    0    0    0  0.00000000000E+00  0.00000000000E+00  0.99999998245E-14  0.12500000000E+03  0.12500000000E+03 0.  0.
        -13    1    1    0    0    0 -0.52292750642E+00 -0.22258963754E+02 -0.13019717587E+02  0.25792617755E+02  0.10566000000E+00 0. -1.
         13    1    1    0    0    0 -0.91312669588E+00 -0.30974349732E+02 -0.19686920005E+02  0.36712806008E+02  0.10566000000E+00 0.  1.
         22    1    1    0    0    0  0.14360542023E+01  0.53233313487E+02  0.32706637592E+02  0.62494576236E+02  0.00000000000E+00 0.  1.
</event>
<event>
 4    1  0.9925048E-003  0.9118800E+02  0.7818608E-02  0.1130116E+00
         25   -1    0    0    0    0  0.00000000000E+00  0.00000000000E+00  0.99999998245E-14  0.12500000000E+03  0.12500000000E+03 0.  0.
        -13    1    1    0    0    0  0.52672212307E+02 -0.12462817188E+02 -0.26348336035E+02  0.60199084190E+02  0.10566000000E+00 0.  1.
         13    1    1    0    0    0  0.19083127035E+01 -0.58563591298E+00 -0.11512137360E+01  0.23067474717E+01  0.10566000000E+00 0. -1.
         22    1    1    0    0    0 -0.54580525010E+02  0.13048453101E+02  0.27499549771E+02  0.62494168338E+02  0.00000000000E+00 0.  1.
</event>
<event>
 4    1  0.9925048E-003  0.9118800E+02  0.7818608E-02  0.1130116E+00
         25   -1    0    0    0    0  0.00000000000E+00  0.00000000000E+00  0.99999998245E-14  0.12500000000E+03  0.12500000000E+03 0.  0.
        -13    1    1    0    0    0 -0.34771941936E+02 -0.19027366861E+02 -0.98446657741E+01  0.40841856519E+02  0.10566000000E+00 0.  1.
         13    1    1    0    0    0 -0.18756255028E+02 -0.99441048098E+01 -0.43235353587E+01  0.21665328180E+02  0.10566000000E+00 0. -1.
         22    1    1    0    0    0  0.53528196963E+02  0.28971471671E+02  0.14168201133E+02  0.62492815301E+02  0.00000000000E+00 0.  1.
</event>
<event>
 4    1  0.9925048E-003  0.9118800E+02  0.7818608E-02  0.1130116E+00
         25   -1    0    0    0    0  0.00000000000E+00  0.00000000000E+00  0.99999998245E-14  0.12500000000E+03  0.12500000000E+03 0.  0.
        -13    1    1    0    0    0 -0.93276059039E+01 -0.85527790517E+01  0.19376320703E+02  0.23143189699E+02  0.10566000000E+00 0. -1.
         13    1    1    0    0    0 -0.14757739674E+02 -0.13684918279E+02  0.33828982886E+02  0.39363423578E+02  0.10566000000E+00 0.  1.
         22    1    1    0    0    0  0.24085345578E+02  0.22237697330E+02 -0.53205303589E+02  0.62493386724E+02  0.00000000000E+00 0.  1.
</event>
<event>
 4    1  0.9925048E-003  0.9118800E+02  0.7818608E-02  0.1130116E+00
         25   -1    0    0    0    0  0.00000000000E+00  0.00000000000E+00  0.99999998245E-14  0.12500000000E+03  0.12500000000E+03 0.  0.
        -13    1    1    0    0    0  0.42576009321E+02  0.59944487170E+01 -0.20253546453E+02  0.47527542469E+02  0.10566000000E+00 0.  1.
         13    1    1    0    0    0  0.11844046042E+02 -0.25328307932E+01 -0.94632864491E+01  0.15370803913E+02  0.10566000000E+00 0. -1.
         22    1    1    0    0    0 -0.54420055363E+02 -0.34616179238E+01  0.29716832902E+02  0.62101653618E+02  0.00000000000E+00 0.  1.
</event>
<event>
 4    1  0.9925048E-003  0.9118800E+02  0.7818608E-02  0.1130116E+00
         25   -1    0    0    0    0  0.00000000000E+00  0.00000000000E+00  0.99999998245E-14  0.12500000000E+03  0.12500000000E+03 0.  0.
        -13    1    1    0    0    0  0.38116731351E+02 -0.97805907824E+01 -0.38295424318E+02  0.54909888479E+02  0.10566000000E+00 0.  1.
         13    1    1    0    0    0  0.26224146787E+01 -0.25324876228E+01 -0.70273557457E+01  0.79174140425E+01  0.10566000000E+00 0. -1.
         22    1    1    0    0    0 -0.40739146030E+02  0.12313078405E+02  0.45322780064E+02  0.62172697479E+02  0.00000000000E+00 0.  1.
</event>
<event>
 4    1  0.9925048E-003  0.9118800E+02  0.7818608E-02  0.1130116E+00
         25   -1    0    0    0    0  0.00000000000E+00  0.00000000000E+00  0.99999998245E-14  0.12500000000E+03  0.12500000000E+03 0.  0.
        -13    1    1    0    0    0 -0.29849495541E+02 -0.21959254512E+02  0.93159227425E+01  0.38209930952E+02  0.10566000000E+00 0.  1.
         13    1    1    0    0    0 -0.18113381738E+02 -0.14976850457E+02  0.61780558488E+01  0.24301855602E+02  0.10566000000E+00 0. -1.
         22    1    1    0    0    0  0.47962877279E+02  0.36936104968E+02 -0.15493978591E+02  0.62488213446E+02  0.00000000000E+00 0.  1.
</event>
<event>
 4    1  0.9925048E-003  0.9118800E+02  0.7818608E-02  0.1130116E+00
         25   -1    0    0    0    0  0.00000000000E+00  0.00000000000E+00  0.99999998245E-14  0.12500000000E+03  0.12500000000E+03 0.  0.
        -13    1    1    0    0    0  0.43761350035E+01  0.21931364939E+01  0.17893602102E+01  0.52128091513E+01  0.10566000000E+00 0.  1.
         13    1    1    0    0    0  0.48242482682E+02  0.23048433333E+02  0.20576503351E+02  0.57288489844E+02  0.10566000000E+00 0. -1.
         22    1    1    0    0    0 -0.52618617685E+02 -0.25241569827E+02 -0.22365863561E+02  0.62498701005E+02  0.00000000000E+00 0. -1.
</event>
<event>
 4    1  0.9925048E-003  0.9118800E+02  0.7818608E-02  0.1130116E+00
         25   -1    0    0    0    0  0.00000000000E+00  0.00000000000E+00  0.99999998245E-14  0.12500000000E+03  0.12500000000E+03 0.  0.
        -13    1    1    0    0    0  0.36779614724E+01  0.31281011716E+02  0.18265130383E+02  0.36409548837E+02  0.10566000000E+00 0. -1.
         13    1    1    0    0    0  0.17547244642E+02  0.22083848222E+02  0.37844876083E+00  0.28209156923E+02  0.10566000000E+00 0.  1.
         22    1    1    0    0    0 -0.21225206114E+02 -0.53364859938E+02 -0.18643579144E+02  0.60381294240E+02  0.00000000000E+00 0. -1.
</event>
<event>
 4    1  0.9925048E-003  0.9118800E+02  0.7818608E-02  0.1130116E+00
         25   -1    0    0    0    0  0.00000000000E+00  0.00000000000E+00  0.99999998245E-14  0.12500000000E+03  0.12500000000E+03 0.  0.
        -13    1    1    0    0    0 -0.29743544102E+01  0.15424224551E+01 -0.36417864518E+01  0.49497094646E+01  0.10566000000E+00 0.  1.
         13    1    1    0    0    0  0.86558781565E+00 -0.21632689585E+02 -0.54423354809E+02  0.58571624646E+02  0.10566000000E+00 0. -1.
         22    1    1    0    0    0  0.21087665946E+01  0.20090267130E+02  0.58065141261E+02  0.61478665889E+02  0.00000000000E+00 0. -1.
</event>
<event>
 4    1  0.9925048E-003  0.9118800E+02  0.7818608E-02  0.1130116E+00
         25   -1    0    0    0    0  0.00000000000E+00  0.00000000000E+00  0.99999998245E-14  0.12500000000E+03  0.12500000000E+03 0.  0.
        -13    1    1    0    0    0 -0.31819008216E+02  0.99495642342E+00 -0.21172174426E+02  0.38232333909E+02  0.10566000000E+00 0. -1.
         13    1    1    0    0    0  0.78905913550E+01  0.21872040860E+00 -0.29595534293E+02  0.30630313166E+02  0.10566000000E+00 0.  1.
         22    1    1    0    0    0  0.23928416861E+02 -0.12136768320E+01  0.50767708718E+02  0.56137352925E+02  0.00000000000E+00 0. -1.
</event>
<event>
 4    1  0.9925048E-003  0.9118800E+02  0.7818608E-02  0.1130116E+00
         25   -1    0    0    0    0  0.00000000000E+00  0.00000000000E+00  0.99999998245E-14  0.12500000000E+03  0.12500000000E+03 0.  0.
        -13    1    1    0    0    0 -0.85314648436E+01 -0.76792708306E+01 -0.79776808001E+01  0.13978971631E+02  0.10566000000E+00 0.  1.
         13    1    1    0    0    0 -0.29260132111E+02 -0.26426131531E+02 -0.28281921589E+02  0.48521892087E+02  0.10566000000E+00 0.  1.
         22    1    1    0    0    0  0.37791596955E+02  0.34105402361E+02  0.36259602389E+02  0.62499136283E+02  0.00000000000E+00 0.  1.
</event>
<event>
 4    1  0.9925048E-003  0.9118800E+02  0.7818608E-02  0.1130116E+00
         25   -1    0    0    0    0  0.00000000000E+00  0.00000000000E+00  0.99999998245E-14  0.12500000000E+03  0.12500000000E+03 0.  0.
        -13    1    1    0    0    0  0.43390572378E+01  0.27912000144E+02  0.25626550585E+02  0.38139722451E+02  0.10566000000E+00 0.  1.
         13    1    1    0    0    0  0.10157779575E+02  0.25222302491E+02 -0.31457229997E+01  0.27372463646E+02  0.10566000000E+00 0. -1.
         22    1    1    0    0    0 -0.14496836813E+02 -0.53134302634E+02 -0.22480827585E+02  0.59487813903E+02  0.00000000000E+00 0. -1.
</event>
<event>
 4    1  0.9925048E-003  0.9118800E+02  0.7818608E-02  0.1130116E+00
         25   -1    0    0    0    0  0.00000000000E+00  0.00000000000E+00  0.99999998245E-14  0.12500000000E+03  0.12500000000E+03 0.  0.
        -13    1    1    0    0    0 -0.61855582411E+00 -0.21615093562E-01 -0.26102211348E+00  0.67998169029E+00  0.10566000000E+00 0.  1.
         13    1    1    0    0    0 -0.12667044268E+02  0.56404606116E+01  0.60658805766E+02  0.62223554120E+02  0.10566000000E+00 0. -1.
         22    1    1    0    0    0  0.13285600092E+02 -0.56188455181E+01 -0.60397783652E+02  0.62096464190E+02  0.00000000000E+00 0. -1.
</event>
<event>
 4    1  0.9925048E-003  0.9118800E+02  0.7818608E-02  0.1130116E+00
         25   -1    0    0    0    0  0.00000000000E+00  0.00000000000E+00  0.99999998245E-14  0.12500000000E+03  0.12500000000E+03 0.  0.
        -13    1    1    0    0    0 -0.24746854872E+02 -0.20861968213E+02  0.26818008826E+02  0.42033859033E+02  0.10566000000E+00 0.  1.
         13    1    1    0    0    0 -0.12074515480E+02 -0.99290618991E+01  0.13210051727E+02  0.20466969119E+02  0.10566000000E+00 0. -1.
         22    1    1    0    0    0  0.36821370352E+02  0.30791030112E+02 -0.40028060553E+02  0.62499171847E+02  0.00000000000E+00 0. -1.
</event>
<event>
 4    1  0.9925048E-003  0.9118800E+02  0.7818608E-02  0.1130116E+00
         25   -1    0    0    0    0  0.00000000000E+00  0.00000000000E+00  0.99999998245E-14  0.12500000000E+03  0.12500000000E+03 0.  0.
        -13    1    1    0    0    0 -0.29527884923E+02 -0.17998680423E+02 -0.22218698899E+02  0.41103895555E+02  0.10566000000E+00 0. -1.
         13    1    1    0    0    0 -0.15346135246E+02 -0.95199212663E+01 -0.11474678548E+02  0.21396545976E+02  0.10566000000E+00 0. -1.
         22    1    1    0    0    0  0.44874020168E+02  0.27518601689E+02  0.33693377447E+02  0.62499558469E+02  0.00000000000E+00 0. -1.
</event>
<event>
 4    1  0.9925048E-003  0.9118800E+02  0.7818608E-02  0.1130116E+00
         25   -1    0    0    0    0  0.00000000000E+00  0.00000000000E+00  0.99999998245E-14  0.12500000000E+03  0.12500000000E+03 0.  0.
        -13    1    1    0    0    0  0.28475737384E+02  0.20813474119E+02  0.27860887911E+02  0.44947842704E+02  0.10566000000E+00 0.  1.
         13    1    1    0    0    0  0.11251785114E+02  0.88358148506E+01  0.10186269391E+02  0.17562617700E+02  0.10566000000E+00 0. -1.
         22    1    1    0    0    0 -0.39727522498E+02 -0.29649288970E+02 -0.38047157302E+02  0.62489539597E+02  0.00000000000E+00 0.  1.
</event>
<event>
 4    1  0.9925048E-003  0.9118800E+02  0.7818608E-02  0.1130116E+00
         25   -1    0    0    0    0  0.00000000000E+00  0.00000000000E+00  0.99999998245E-14  0.12500000000E+03  0.12500000000E+03 0.  0.
        -13    1    1    0    0    0  0.52224711236E+01 -0.50158116869E+02 -0.14202914721E+02  0.52391266859E+02  0.10566000000E+00 0.  1.
         13    1    1    0    0    0  0.10273715704E+01 -0.96607699749E+01 -0.27923877921E+01  0.10109132627E+02  0.10566000000E+00 0.  1.
         22    1    1    0    0    0 -0.62498426940E+01  0.59818886844E+02  0.16995302513E+02  0.62499600514E+02  0.00000000000E+00 0.  1.
</event>
<event>
 4    1  0.9925048E-003  0.9118800E+02  0.7818608E-02  0.1130116E+00
         25   -1    0    0    0    0  0.00000000000E+00  0.00000000000E+00  0.99999998245E-14  0.12500000000E+03  0.12500000000E+03 0.  0.
        -13    1    1    0    0    0 -0.20312218258E+02  0.97032527234E+01 -0.10944729695E+02  0.25030733032E+02  0.10566000000E+00 0.  1.
         13    1    1    0    0    0 -0.30420446382E+02  0.15072666112E+02 -0.15857972999E+02  0.37470992694E+02  0.10566000000E+00 0. -1.
         22    1    1    0    0    0  0.50732664639E+02 -0.24775918835E+02  0.26802702695E+02  0.62498274274E+02  0.00000000000E+00 0. -1.
</event>
<event>
 4    1  0.9925048E-003  0.9118800E+02  0.7818608E-02  0.1130116E+00
         25   -1    0    0    0    0  0.00000000000E+00  0.00000000000E+00  0.99999998245E-14  0.12500000000E+03  0.12500000000E+03 0.  0.
        -13    1    1    0    0    0  0.48277456719E+02 -0.23989757111E+01 -0.38273266552E+02  0.61654862000E+02  0.10566000000E+00 0.  1.
         13    1    1    0    0    0 -0.47126387037E+01  0.58420941150E+00  0.10827951902E+02  0.11823957485E+02  0.10566000000E+00 0. -1.
         22    1    1    0    0    0 -0.43564818015E+02  0.18147662996E+01  0.27445314650E+02  0.51521180514E+02  0.00000000000E+00 0.  1.
</event>
<event>
 4    1  0.9925048E-003  0.9118800E+02  0.7818608E-02  0.1130116E+00
         25   -1    0    0    0    0  0.00000000000E+00  0.00000000000E+00  0.99999998245E-14  0.12500000000E+03  0.12500000000E+03 0.  0.
        -13    1    1    0    0    0 -0.18030102403E+02  0.38091401396E+02 -0.35018523088E+02  0.54793681901E+02  0.10566000000E+00 0. -1.
         13    1    1    0    0    0 -0.14595702696E+01  0.55831932630E+01 -0.51609471547E+01  0.77426695625E+01  0.10566000000E+00 0.  1.
         22    1    1    0    0    0  0.19489672673E+02 -0.43674594659E+02  0.40179470243E+02  0.62463648537E+02  0.00000000000E+00 0. -1.
</event>
<event>
 4    1  0.9925048E-003  0.9118800E+02  0.7818608E-02  0.1130116E+00
         25   -1    0    0    0    0  0.00000000000E+00  0.00000000000E+00  0.99999998245E-14  0.12500000000E+03  0.12500000000E+03 0.  0.
        -13    1    1    0    0    0 -0.12623507060E+02 -0.12973768454E+02 -0.11511522027E+02  0.21452223703E+02  0.10566000000E+00 0.  1.
         13    1    1    0    0    0 -0.24671543310E+02 -0.23879765598E+02 -0.22499650839E+02  0.41050867301E+02  0.10566000000E+00 0. -1.
         22    1    1    0    0    0  0.37295050370E+02  0.36853534053E+02  0.34011172865E+02  0.62496908995E+02  0.00000000000E+00 0.  1.
</event>
<event>
 4    1  0.9925048E-003  0.9118800E+02  0.7818608E-02  0.1130116E+00
         25   -1    0    0    0    0  0.00000000000E+00  0.00000000000E+00  0.99999998245E-14  0.12500000000E+03  0.12500000000E+03 0.  0.
        -13    1    1    0    0    0  0.36074452174E+01  0.10106855181E+02  0.59082937019E+01  0.12250766554E+02  0.10566000000E+00 0.  1.
         13    1    1    0    0    0  0.10307137736E+02  0.39805353636E+02  0.28960891813E+02  0.50293614754E+02  0.10566000000E+00 0. -1.
         22    1    1    0    0    0 -0.13914582953E+02 -0.49912208817E+02 -0.34869185515E+02  0.62455618692E+02  0.00000000000E+00 0. -1.
</event>
<event>
 4    1  0.9925048E-003  0.9118800E+02  0.7818608E-02  0.1130116E+00
         25   -1    0    0    0    0  0.00000000000E+00  0.00000000000E+00  0.99999998245E-14  0.12500000000E+03  0.12500000000E+03 0.  0.
        -13    1    1    0    0    0  0.89758766631E+01  0.13071145026E+02 -0.13343134543E+02  0.20723696524E+02  0.10566000000E+00 0.  1.
         13    1    1    0    0    0  0.28948165033E+02  0.29010949238E+02 -0.11279515545E+02  0.42507294309E+02  0.10566000000E+00 0. -1.
         22    1    1    0    0    0 -0.37924041696E+02 -0.42082094264E+02  0.24622650088E+02  0.61769009168E+02  0.00000000000E+00 0. -1.
</event>
<event>
 4    1  0.9925048E-003  0.9118800E+02  0.7818608E-02  0.1130116E+00
         25   -1    0    0    0    0  0.00000000000E+00  0.00000000000E+00  0.99999998245E-14  0.12500000000E+03  0.12500000000E+03 0.  0.
        -13    1    1    0    0    0 -0.96186754112E+01 -0.48864856414E+02 -0.26546627842E+01  0.49873354685E+02  0.10566000000E+00 0.  1.
         13    1    1    0    0    0 -0.24875316239E+01 -0.12361534414E+02 -0.65867985582E+00  0.12626969939E+02  0.10566000000E+00 0.  1.
         22    1    1    0    0    0  0.12106207035E+02  0.61226390828E+02  0.33133426400E+01  0.62499675376E+02  0.00000000000E+00 0.  1.
</event>
<event>
 4    1  0.9925048E-003  0.9118800E+02  0.7818608E-02  0.1130116E+00
         25   -1    0    0    0    0  0.00000000000E+00  0.00000000000E+00  0.99999998245E-14  0.12500000000E+03  0.12500000000E+03 0.  0.
        -13    1    1    0    0    0 -0.59162787183E+02  0.94886062605E+01  0.11349249687E+02  0.60984306740E+02  0.10566000000E+00 0.  1.
         13    1    1    0    0    0 -0.15000869861E+01 -0.24495054100E-01 -0.85053043406E+00  0.17278388317E+01  0.10566000000E+00 0. -1.
         22    1    1    0    0    0  0.60662874169E+02 -0.94641112064E+01 -0.10498719253E+02  0.62287854429E+02  0.00000000000E+00 0.  1.
</event>
<event>
 4    1  0.9925048E-003  0.9118800E+02  0.7818608E-02  0.1130116E+00
         25   -1    0    0    0    0  0.00000000000E+00  0.00000000000E+00  0.99999998245E-14  0.12500000000E+03  0.12500000000E+03 0.  0.
        -13    1    1    0    0    0 -0.23129405209E+02  0.24642186280E+02 -0.23801583894E+02  0.41336827284E+02  0.10566000000E+00 0.  1.
         13    1    1    0    0    0 -0.10496042933E+02  0.14673361527E+02 -0.11168929684E+02  0.21218638271E+02  0.10566000000E+00 0. -1.
         22    1    1    0    0    0  0.33625448142E+02 -0.39315547807E+02  0.34970513579E+02  0.62444534445E+02  0.00000000000E+00 0. -1.
</event>
<event>
 4    1  0.9925048E-003  0.9118800E+02  0.7818608E-02  0.1130116E+00
         25   -1    0    0    0    0  0.00000000000E+00  0.00000000000E+00  0.99999998245E-14  0.12500000000E+03  0.12500000000E+03 0.  0.
        -13    1    1    0    0    0 -0.90187675903E+01  0.77042867202E+01 -0.14260021896E-01  0.11861937873E+02  0.10566000000E+00 0.  1.
         13    1    1    0    0    0 -0.43499158624E+02  0.25394795680E+02  0.62134886617E+01  0.50751266526E+02  0.10566000000E+00 0. -1.
         22    1    1    0    0    0  0.52517926214E+02 -0.33099082400E+02 -0.61992286398E+01  0.62386795601E+02  0.00000000000E+00 0. -1.
</event>
<event>
 4    1  0.9925048E-003  0.9118800E+02  0.7818608E-02  0.1130116E+00
         25   -1    0    0    0    0  0.00000000000E+00  0.00000000000E+00  0.99999998245E-14  0.12500000000E+03  0.12500000000E+03 0.  0.
        -13    1    1    0    0    0 -0.10972311589E+02 -0.93129124832E+01  0.18452624909E+02  0.23401548893E+02  0.10566000000E+00 0.  1.
         13    1    1    0    0    0 -0.60375408100E+01 -0.18457624165E+02  0.34408771982E+02  0.39510891438E+02  0.10566000000E+00 0. -1.
         22    1    1    0    0    0  0.17009852399E+02  0.27770536649E+02 -0.52861396891E+02  0.62087559669E+02  0.00000000000E+00 0. -1.
</event>
<event>
 4    1  0.9925048E-003  0.9118800E+02  0.7818608E-02  0.1130116E+00
         25   -1    0    0    0    0  0.00000000000E+00  0.00000000000E+00  0.99999998245E-14  0.12500000000E+03  0.12500000000E+03 0.  0.
        -13    1    1    0    0    0 -0.12149770714E+02 -0.11126433255E+02 -0.23667593984E+02  0.28837139498E+02  0.10566000000E+00 0.  1.
         13    1    1    0    0    0 -0.14268591043E+02 -0.12666076049E+02 -0.27734368454E+02  0.33663459870E+02  0.10566000000E+00 0.  1.
         22    1    1    0    0    0  0.26418361757E+02  0.23792509305E+02  0.51401962438E+02  0.62499400632E+02  0.00000000000E+00 0.  1.
</event>
<event>
 4    1  0.9925048E-003  0.9118800E+02  0.7818608E-02  0.1130116E+00
         25   -1    0    0    0    0  0.00000000000E+00  0.00000000000E+00  0.99999998245E-14  0.12500000000E+03  0.12500000000E+03 0.  0.
        -13    1    1    0    0    0  0.24359143168E+02  0.25095666075E+02 -0.49780034896E+02  0.60837680346E+02  0.10566000000E+00 0.  1.
         13    1    1    0    0    0 -0.11058723994E+01 -0.47989020616E+01 -0.71863818506E+00  0.49779533583E+01  0.10566000000E+00 0. -1.
         22    1    1    0    0    0 -0.23253270769E+02 -0.20296764014E+02  0.50498673081E+02  0.59184366295E+02  0.00000000000E+00 0.  1.
</event>
<event>
 4    1  0.9925048E-003  0.9118800E+02  0.7818608E-02  0.1130116E+00
         25   -1    0    0    0    0  0.00000000000E+00  0.00000000000E+00  0.99999998245E-14  0.12500000000E+03  0.12500000000E+03 0.  0.
        -13    1    1    0    0    0 -0.38642878766E+02  0.19719263919E+02  0.31976936227E+02  0.53894870473E+02  0.10566000000E+00 0. -1.
         13    1    1    0    0    0 -0.31881530852E+01  0.43529226457E+01  0.71615051197E+01  0.89671943922E+01  0.10566000000E+00 0.  1.
         22    1    1    0    0    0  0.41831031851E+02 -0.24072186565E+02 -0.39138441346E+02  0.62137935135E+02  0.00000000000E+00 0. -1.
</event>
<event>
 4    1  0.9925048E-003  0.9118800E+02  0.7818608E-02  0.1130116E+00
         25   -1    0    0    0    0  0.00000000000E+00  0.00000000000E+00  0.99999998245E-14  0.12500000000E+03  0.12500000000E+03 0.  0.
        -13    1    1    0    0    0 -0.21285364725E+02 -0.13489004279E+02  0.49448353859E+02  0.55499286944E+02  0.10566000000E+00 0. -1.
         13    1    1    0    0    0 -0.71907587221E+01  0.11192863628E+02 -0.11087323133E+01  0.13350193204E+02  0.10566000000E+00 0.  1.
         22    1    1    0    0    0  0.28476123447E+02  0.22961406507E+01 -0.48339621546E+02  0.56150519852E+02  0.00000000000E+00 0. -1.
</event>
<event>
 4    1  0.9925048E-003  0.9118800E+02  0.7818608E-02  0.1130116E+00
         25   -1    0    0    0    0  0.00000000000E+00  0.00000000000E+00  0.99999998245E-14  0.12500000000E+03  0.12500000000E+03 0.  0.
        -13    1    1    0    0    0 -0.34843406149E+02  0.18725328109E+02  0.35042968457E+02  0.52846207690E+02  0.10566000000E+00 0. -1.
         13    1    1    0    0    0  0.30552824187E+01  0.11063471815E+02  0.54232457519E+01  0.12694798848E+02  0.10566000000E+00 0.  1.
         22    1    1    0    0    0  0.31788123731E+02 -0.29788799924E+02 -0.40466214209E+02  0.59458993463E+02  0.00000000000E+00 0. -1.
</event>
<event>
 4    1  0.9925048E-003  0.9118800E+02  0.7818608E-02  0.1130116E+00
         25   -1    0    0    0    0  0.00000000000E+00  0.00000000000E+00  0.99999998245E-14  0.12500000000E+03  0.12500000000E+03 0.  0.
        -13    1    1    0    0    0 -0.28395472826E+02  0.44832752557E+02 -0.13388773565E+02  0.54731608788E+02  0.10566000000E+00 0.  1.
         13    1    1    0    0    0 -0.73479597816E+01  0.38220966826E+01 -0.56988972036E+00  0.83028232747E+01  0.10566000000E+00 0. -1.
         22    1    1    0    0    0  0.35743432607E+02 -0.48654849240E+02  0.13958663286E+02  0.61965567938E+02  0.00000000000E+00 0.  1.
</event>
<event>
 4    1  0.9925048E-003  0.9118800E+02  0.7818608E-02  0.1130116E+00
         25   -1    0    0    0    0  0.00000000000E+00  0.00000000000E+00  0.99999998245E-14  0.12500000000E+03  0.12500000000E+03 0.  0.
        -13    1    1    0    0    0  0.23967722045E+02  0.13420112083E+02 -0.51911442799E+01  0.27955504848E+02  0.10566000000E+00 0.  1.
         13    1    1    0    0    0  0.33548105614E+02  0.22256887280E+01 -0.10829692334E+02  0.35323115387E+02  0.10566000000E+00 0. -1.
         22    1    1    0    0    0 -0.57515827659E+02 -0.15645800811E+02  0.16020836613E+02  0.61721379765E+02  0.00000000000E+00 0. -1.
</event>
<event>
 4    1  0.9925048E-003  0.9118800E+02  0.7818608E-02  0.1130116E+00
         25   -1    0    0    0    0  0.00000000000E+00  0.00000000000E+00  0.99999998245E-14  0.12500000000E+03  0.12500000000E+03 0.  0.
        -13    1    1    0    0    0  0.10453144021E+02  0.15982021263E+02 -0.90669557326E+01  0.21140342331E+02  0.10566000000E+00 0.  1.
         13    1    1    0    0    0  0.35105130798E+02  0.18693073016E+02 -0.13957906051E+02  0.42150154122E+02  0.10566000000E+00 0. -1.
         22    1    1    0    0    0 -0.45558274820E+02 -0.34675094279E+02  0.23024861784E+02  0.61709503547E+02  0.00000000000E+00 0. -1.
</event>
<event>
 4    1  0.9925048E-003  0.9118800E+02  0.7818608E-02  0.1130116E+00
         25   -1    0    0    0    0  0.00000000000E+00  0.00000000000E+00  0.99999998245E-14  0.12500000000E+03  0.12500000000E+03 0.  0.
        -13    1    1    0    0    0 -0.47783872287E+02 -0.38025301069E+02  0.36520322759E+01  0.61176551684E+02  0.10566000000E+00 0. -1.
         13    1    1    0    0    0  0.15060520418E+01 -0.18199442913E+01  0.10240158350E+01  0.25768512650E+01  0.10566000000E+00 0.  1.
         22    1    1    0    0    0  0.46277820245E+02  0.39845245361E+02 -0.46760481109E+01  0.61246597051E+02  0.00000000000E+00 0. -1.
</event>
<event>
 4    1  0.9925048E-003  0.9118800E+02  0.7818608E-02  0.1130116E+00
         25   -1    0    0    0    0  0.00000000000E+00  0.00000000000E+00  0.99999998245E-14  0.12500000000E+03  0.12500000000E+03 0.  0.
        -13    1    1    0    0    0  0.29240171673E+02  0.19637052071E+02 -0.24840688443E+02  0.43100724122E+02  0.10566000000E+00 0.  1.
         13    1    1    0    0    0  0.13798762000E+02  0.92637447952E+01 -0.10037886861E+02  0.19416311108E+02  0.10566000000E+00 0. -1.
         22    1    1    0    0    0 -0.43038933673E+02 -0.28900796866E+02  0.34878575304E+02  0.62482964770E+02  0.00000000000E+00 0.  1.
</event>
<event>
 4    1  0.9925048E-003  0.9118800E+02  0.7818608E-02  0.1130116E+00
         25   -1    0    0    0    0  0.00000000000E+00  0.00000000000E+00  0.99999998245E-14  0.12500000000E+03  0.12500000000E+03 0.  0.
        -13    1    1    0    0    0  0.20073814052E+01 -0.30093866033E+01  0.66225261172E+00  0.36790936916E+01  0.10566000000E+00 0. -1.
         13    1    1    0    0    0  0.54721791416E+02 -0.22124568245E+02  0.35381201335E+01  0.59131213702E+02  0.10566000000E+00 0.  1.
         22    1    1    0    0    0 -0.56729172821E+02  0.25133954848E+02 -0.42003727453E+01  0.62189692606E+02  0.00000000000E+00 0.  1.
</event>
<event>
 4    1  0.9925048E-003  0.9118800E+02  0.7818608E-02  0.1130116E+00
         25   -1    0    0    0    0  0.00000000000E+00  0.00000000000E+00  0.99999998245E-14  0.12500000000E+03  0.12500000000E+03 0.  0.
        -13    1    1    0    0    0 -0.76546210012E+01 -0.67036977331E-01 -0.83336443699E+01  0.11316293967E+02  0.10566000000E+00 0. -1.
         13    1    1    0    0    0 -0.35925942643E+02 -0.60599512225E+01 -0.35997368779E+02  0.51217361184E+02  0.10566000000E+00 0.  1.
         22    1    1    0    0    0  0.43580563644E+02  0.61269881998E+01  0.44331013149E+02  0.62466344849E+02  0.00000000000E+00 0.  1.
</event>
<event>
 4    1  0.9925048E-003  0.9118800E+02  0.7818608E-02  0.1130116E+00
         25   -1    0    0    0    0  0.00000000000E+00  0.00000000000E+00  0.99999998245E-14  0.12500000000E+03  0.12500000000E+03 0.  0.
        -13    1    1    0    0    0 -0.32780075384E+01 -0.24613709821E+01 -0.12015363550E+01  0.42730006063E+01  0.10566000000E+00 0. -1.
         13    1    1    0    0    0  0.25216415032E+02 -0.21325658947E+02  0.51344944410E+02  0.61048880392E+02  0.10566000000E+00 0.  1.
         22    1    1    0    0    0 -0.21938407494E+02  0.23787029929E+02 -0.50143408055E+02  0.59678119002E+02  0.00000000000E+00 0.  1.
</event>
<event>
 4    1  0.9925048E-003  0.9118800E+02  0.7818608E-02  0.1130116E+00
         25   -1    0    0    0    0  0.00000000000E+00  0.00000000000E+00  0.99999998245E-14  0.12500000000E+03  0.12500000000E+03 0.  0.
        -13    1    1    0    0    0 -0.31727731598E+02 -0.10011092631E+02 -0.10910398784E+02  0.35013124591E+02  0.10566000000E+00 0. -1.
         13    1    1    0    0    0 -0.24976502788E+02 -0.70731391722E+01 -0.90505537996E+01  0.27491429162E+02  0.10566000000E+00 0.  1.
         22    1    1    0    0    0  0.56704234385E+02  0.17084231803E+02  0.19960952583E+02  0.62495446247E+02  0.00000000000E+00 0. -1.
</event>
<event>
 4    1  0.9925048E-003  0.9118800E+02  0.7818608E-02  0.1130116E+00
         25   -1    0    0    0    0  0.00000000000E+00  0.00000000000E+00  0.99999998245E-14  0.12500000000E+03  0.12500000000E+03 0.  0.
        -13    1    1    0    0    0 -0.20440078519E+01  0.30515650340E+02 -0.28700731775E+01  0.30718583428E+02  0.10566000000E+00 0. -1.
         13    1    1    0    0    0  0.44124357840E+01  0.30030401357E+02 -0.10707825008E+02  0.32186383388E+02  0.10566000000E+00 0.  1.
         22    1    1    0    0    0 -0.23684279321E+01 -0.60546051697E+02  0.13577898185E+02  0.62095033183E+02  0.00000000000E+00 0. -1.
</event>
<event>
 4    1  0.9925048E-003  0.9118800E+02  0.7818608E-02  0.1130116E+00
         25   -1    0    0    0    0  0.00000000000E+00  0.00000000000E+00  0.99999998245E-14  0.12500000000E+03  0.12500000000E+03 0.  0.
        -13    1    1    0    0    0 -0.10732889727E+02  0.18834617171E+02 -0.44878004607E+01  0.22137959321E+02  0.10566000000E+00 0.  1.
         13    1    1    0    0    0  0.16530904730E+02  0.13550347171E+02  0.45508153763E+02  0.50278086107E+02  0.10566000000E+00 0. -1.
         22    1    1    0    0    0 -0.57980150030E+01 -0.32384964342E+02 -0.41020353302E+02  0.52583954572E+02  0.00000000000E+00 0. -1.
</event>
<event>
 4    1  0.9925048E-003  0.9118800E+02  0.7818608E-02  0.1130116E+00
         25   -1    0    0    0    0  0.00000000000E+00  0.00000000000E+00  0.99999998245E-14  0.12500000000E+03  0.12500000000E+03 0.  0.
        -13    1    1    0    0    0 -0.10570058217E+02  0.48997048789E+01  0.26207610126E+02  0.28680711832E+02  0.10566000000E+00 0.  1.
         13    1    1    0    0    0 -0.13043698614E+02  0.97606871102E+01  0.29704977321E+02  0.33879284645E+02  0.10566000000E+00 0. -1.
         22    1    1    0    0    0  0.23613756831E+02 -0.14660391989E+02 -0.55912587447E+02  0.62440003523E+02  0.00000000000E+00 0. -1.
</event>
<event>
 4    1  0.9925048E-003  0.9118800E+02  0.7818608E-02  0.1130116E+00
         25   -1    0    0    0    0  0.00000000000E+00  0.00000000000E+00  0.99999998245E-14  0.12500000000E+03  0.12500000000E+03 0.  0.
        -13    1    1    0    0    0  0.83483413828E+01  0.55882162494E+02 -0.16019173857E+02  0.58729345169E+02  0.10566000000E+00 0.  1.
         13    1    1    0    0    0  0.57116411232E+00  0.36151040174E+01 -0.90836168429E+00  0.37724647758E+01  0.10566000000E+00 0. -1.
         22    1    1    0    0    0 -0.89195054951E+01 -0.59497266512E+02  0.16927535542E+02  0.62498190055E+02  0.00000000000E+00 0.  1.
</event>
<event>
 4    1  0.9925048E-003  0.9118800E+02  0.7818608E-02  0.1130116E+00
         25   -1    0    0    0    0  0.00000000000E+00  0.00000000000E+00  0.99999998245E-14  0.12500000000E+03  0.12500000000E+03 0.  0.
        -13    1    1    0    0    0 -0.22630651468E+02 -0.58488350007E+01 -0.78921420151E+01  0.24670880129E+02  0.10566000000E+00 0.  1.
         13    1    1    0    0    0 -0.34058646990E+02 -0.61994098240E+01 -0.15373033805E+02  0.37878297868E+02  0.10566000000E+00 0. -1.
         22    1    1    0    0    0  0.56689298458E+02  0.12048244825E+02  0.23265175820E+02  0.62450822003E+02  0.00000000000E+00 0. -1.
</event>
<event>
 4    1  0.9925048E-003  0.9118800E+02  0.7818608E-02  0.1130116E+00
         25   -1    0    0    0    0  0.00000000000E+00  0.00000000000E+00  0.99999998245E-14  0.12500000000E+03  0.12500000000E+03 0.  0.
        -13    1    1    0    0    0 -0.52907464801E+02  0.97583635174E+01 -0.57448438486E+01  0.54105821176E+02  0.10566000000E+00 0.  1.
         13    1    1    0    0    0 -0.70634307387E+01 -0.44493407602E+00  0.73219557818E+01  0.10183919709E+02  0.10566000000E+00 0. -1.
         22    1    1    0    0    0  0.59970895540E+02 -0.93134294414E+01 -0.15771119332E+01  0.60710259115E+02  0.00000000000E+00 0.  1.
</event>
<event>
 4    1  0.9925048E-003  0.9118800E+02  0.7818608E-02  0.1130116E+00
         25   -1    0    0    0    0  0.00000000000E+00  0.00000000000E+00  0.99999998245E-14  0.12500000000E+03  0.12500000000E+03 0.  0.
        -13    1    1    0    0    0 -0.17898922145E+02 -0.25599210760E+02 -0.96071817865E+01  0.32680270982E+02  0.10566000000E+00 0. -1.
         13    1    1    0    0    0 -0.16740593337E+02 -0.23161620628E+02 -0.85192314302E+01  0.29821076500E+02  0.10566000000E+00 0. -1.
         22    1    1    0    0    0  0.34639515482E+02  0.48760831389E+02  0.18126413217E+02  0.62498652519E+02  0.00000000000E+00 0. -1.
</event>
<event>
 4    1  0.9925048E-003  0.9118800E+02  0.7818608E-02  0.1130116E+00
         25   -1    0    0    0    0  0.00000000000E+00  0.00000000000E+00  0.99999998245E-14  0.12500000000E+03  0.12500000000E+03 0.  0.
        -13    1    1    0    0    0  0.61773572795E+01 -0.17618809300E+02 -0.21855566234E+02  0.28744723404E+02  0.10566000000E+00 0. -1.
         13    1    1    0    0    0  0.11201741203E+01 -0.19241807410E+02 -0.27896505402E+02  0.33907641029E+02  0.10566000000E+00 0.  1.
         22    1    1    0    0    0 -0.72975313998E+01  0.36860616710E+02  0.49752071636E+02  0.62347635567E+02  0.00000000000E+00 0. -1.
</event>
<event>
 4    1  0.9925048E-003  0.9118800E+02  0.7818608E-02  0.1130116E+00
         25   -1    0    0    0    0  0.00000000000E+00  0.00000000000E+00  0.99999998245E-14  0.12500000000E+03  0.12500000000E+03 0.  0.
        -13    1    1    0    0    0  0.50732859129E+02 -0.15722421892E+02 -0.46653795985E+01  0.53317862639E+02  0.10566000000E+00 0. -1.
         13    1    1    0    0    0  0.78535256186E+01 -0.50830659557E+01  0.85269038905E+00  0.93943423978E+01  0.10566000000E+00 0.  1.
         22    1    1    0    0    0 -0.58586384748E+02  0.20805487848E+02  0.38126892094E+01  0.62287794963E+02  0.00000000000E+00 0. -1.
</event>
<event>
 4    1  0.9925048E-003  0.9118800E+02  0.7818608E-02  0.1130116E+00
         25   -1    0    0    0    0  0.00000000000E+00  0.00000000000E+00  0.99999998245E-14  0.12500000000E+03  0.12500000000E+03 0.  0.
        -13    1    1    0    0    0  0.19281867821E+02  0.97799802074E+01 -0.21453630580E+01  0.21726761982E+02  0.10566000000E+00 0. -1.
         13    1    1    0    0    0  0.35990743951E+02  0.18630005249E+02 -0.44841288555E+01  0.40774125635E+02  0.10566000000E+00 0.  1.
         22    1    1    0    0    0 -0.55272611771E+02 -0.28409985456E+02  0.66294919136E+01  0.62499112383E+02  0.00000000000E+00 0.  1.
</event>
<event>
 4    1  0.9925048E-003  0.9118800E+02  0.7818608E-02  0.1130116E+00
         25   -1    0    0    0    0  0.00000000000E+00  0.00000000000E+00  0.99999998245E-14  0.12500000000E+03  0.12500000000E+03 0.  0.
        -13    1    1    0    0    0  0.18664725581E+02 -0.21250595954E+02 -0.50465225722E+02  0.57850756094E+02  0.10566000000E+00 0. -1.
         13    1    1    0    0    0  0.92662286717E+00 -0.15697268287E+01 -0.42983883296E+01  0.46701154721E+01  0.10566000000E+00 0.  1.
         22    1    1    0    0    0 -0.19591348448E+02  0.22820322783E+02  0.54763614052E+02  0.62479128434E+02  0.00000000000E+00 0. -1.
</event>
<event>
 4    1  0.9925048E-003  0.9118800E+02  0.7818608E-02  0.1130116E+00
         25   -1    0    0    0    0  0.00000000000E+00  0.00000000000E+00  0.99999998245E-14  0.12500000000E+03  0.12500000000E+03 0.  0.
        -13    1    1    0    0    0  0.11233247620E+02  0.15495069652E+02  0.23582470047E+02  0.30371484869E+02  0.10566000000E+00 0.  1.
         13    1    1    0    0    0  0.21120281157E+02  0.17249696285E+02  0.17935326424E+02  0.32639016469E+02  0.10566000000E+00 0. -1.
         22    1    1    0    0    0 -0.32353528777E+02 -0.32744765937E+02 -0.41517796471E+02  0.61989498662E+02  0.00000000000E+00 0.  1.
</event>
<event>
 4    1  0.9925048E-003  0.9118800E+02  0.7818608E-02  0.1130116E+00
         25   -1    0    0    0    0  0.00000000000E+00  0.00000000000E+00  0.99999998245E-14  0.12500000000E+03  0.12500000000E+03 0.  0.
        -13    1    1    0    0    0 -0.16576778737E+02  0.44282595502E+01 -0.29859759799E+02  0.34438575685E+02  0.10566000000E+00 0. -1.
         13    1    1    0    0    0 -0.78828762753E+01  0.35618231963E+02  0.32708736736E+01  0.36626601879E+02  0.10566000000E+00 0.  1.
         22    1    1    0    0    0  0.24459655013E+02 -0.40046491513E+02  0.26588886125E+02  0.53934822436E+02  0.00000000000E+00 0.  1.
</event>
<event>
 4    1  0.9925048E-003  0.9118800E+02  0.7818608E-02  0.1130116E+00
         25   -1    0    0    0    0  0.00000000000E+00  0.00000000000E+00  0.99999998245E-14  0.12500000000E+03  0.12500000000E+03 0.  0.
        -13    1    1    0    0    0 -0.13982239671E+02 -0.24050017810E+02 -0.29633420056E+02  0.40645505669E+02  0.10566000000E+00 0. -1.
         13    1    1    0    0    0  0.11462931565E+02 -0.18627707575E+02 -0.11771546624E+02  0.24838896181E+02  0.10566000000E+00 0.  1.
         22    1    1    0    0    0  0.25193081065E+01  0.42677725385E+02  0.41404966679E+02  0.59515598149E+02  0.00000000000E+00 0. -1.
</event>
<event>
 4    1  0.9925048E-003  0.9118800E+02  0.7818608E-02  0.1130116E+00
         25   -1    0    0    0    0  0.00000000000E+00  0.00000000000E+00  0.99999998245E-14  0.12500000000E+03  0.12500000000E+03 0.  0.
        -13    1    1    0    0    0  0.17434355660E+02  0.33488485378E+02 -0.10661038391E+02  0.39231419982E+02  0.10566000000E+00 0.  1.
         13    1    1    0    0    0  0.10120340600E+02  0.20414266834E+02 -0.48056957106E+01  0.23286679873E+02  0.10566000000E+00 0. -1.
         22    1    1    0    0    0 -0.27554696260E+02 -0.53902752212E+02  0.15466734101E+02  0.62481900145E+02  0.00000000000E+00 0.  1.
</event>
<event>
 4    1  0.9925048E-003  0.9118800E+02  0.7818608E-02  0.1130116E+00
         25   -1    0    0    0    0  0.00000000000E+00  0.00000000000E+00  0.99999998245E-14  0.12500000000E+03  0.12500000000E+03 0.  0.
        -13    1    1    0    0    0 -0.34647293857E+02  0.40748763231E+02 -0.18308225044E+02  0.56534051197E+02  0.10566000000E+00 0. -1.
         13    1    1    0    0    0 -0.40730587178E+01  0.38471272088E+01 -0.20929871965E+01  0.59818019459E+01  0.10566000000E+00 0.  1.
         22    1    1    0    0    0  0.38720352574E+02 -0.44595890440E+02  0.20401212240E+02  0.62484146857E+02  0.00000000000E+00 0. -1.
</event>
<event>
 4    1  0.9925048E-003  0.9118800E+02  0.7818608E-02  0.1130116E+00
         25   -1    0    0    0    0  0.00000000000E+00  0.00000000000E+00  0.99999998245E-14  0.12500000000E+03  0.12500000000E+03 0.  0.
        -13    1    1    0    0    0  0.20531523233E+01  0.18260379274E+01 -0.39092525915E+01  0.47794632370E+01  0.10566000000E+00 0. -1.
         13    1    1    0    0    0 -0.50136005951E+02  0.28746363062E+02  0.19760560565E+02  0.61077519595E+02  0.10566000000E+00 0.  1.
         22    1    1    0    0    0  0.48082853628E+02 -0.30572400990E+02 -0.15851307973E+02  0.59143017168E+02  0.00000000000E+00 0.  1.
</event>
<event>
 4    1  0.9925048E-003  0.9118800E+02  0.7818608E-02  0.1130116E+00
         25   -1    0    0    0    0  0.00000000000E+00  0.00000000000E+00  0.99999998245E-14  0.12500000000E+03  0.12500000000E+03 0.  0.
        -13    1    1    0    0    0 -0.44411339902E+01  0.17204691520E+01  0.95614125076E+00  0.48589150382E+01  0.10566000000E+00 0. -1.
         13    1    1    0    0    0 -0.54630392649E+02  0.12232533293E+02  0.13835798221E+02  0.57667626517E+02  0.10566000000E+00 0.  1.
         22    1    1    0    0    0  0.59071526639E+02 -0.13953002445E+02 -0.14791939472E+02  0.62473458444E+02  0.00000000000E+00 0.  1.
</event>
<event>
 4    1  0.9925048E-003  0.9118800E+02  0.7818608E-02  0.1130116E+00
         25   -1    0    0    0    0  0.00000000000E+00  0.00000000000E+00  0.99999998245E-14  0.12500000000E+03  0.12500000000E+03 0.  0.
        -13    1    1    0    0    0 -0.24103437631E+02  0.24469567797E+02  0.43306912089E+02  0.55274182513E+02  0.10566000000E+00 0. -1.
         13    1    1    0    0    0  0.25506689389E-01  0.51113597801E+01  0.56794975391E+01  0.76416297820E+01  0.10566000000E+00 0.  1.
         22    1    1    0    0    0  0.24077930941E+02 -0.29580927577E+02 -0.48986409628E+02  0.62084187705E+02  0.00000000000E+00 0. -1.
</event>
<event>
 4    1  0.9925048E-003  0.9118800E+02  0.7818608E-02  0.1130116E+00
         25   -1    0    0    0    0  0.00000000000E+00  0.00000000000E+00  0.99999998245E-14  0.12500000000E+03  0.12500000000E+03 0.  0.
        -13    1    1    0    0    0  0.94578698743E+01  0.95327485227E+01 -0.26081946598E+02  0.29336047780E+02  0.10566000000E+00 0.  1.
         13    1    1    0    0    0  0.27664698348E+01  0.83718828894E+01 -0.32249882277E+02  0.33433633506E+02  0.10566000000E+00 0. -1.
         22    1    1    0    0    0 -0.12224339709E+02 -0.17904631412E+02  0.58331828876E+02  0.62230318714E+02  0.00000000000E+00 0. -1.
</event>
<event>
 4    1  0.9925048E-003  0.9118800E+02  0.7818608E-02  0.1130116E+00
         25   -1    0    0    0    0  0.00000000000E+00  0.00000000000E+00  0.99999998245E-14  0.12500000000E+03  0.12500000000E+03 0.  0.
        -13    1    1    0    0    0  0.39825810538E+01 -0.92709074066E+01 -0.19738842283E+01  0.10281928758E+02  0.10566000000E+00 0. -1.
         13    1    1    0    0    0  0.37449985376E+02 -0.36893639208E+02 -0.14785524735E+01  0.52591247372E+02  0.10566000000E+00 0.  1.
         22    1    1    0    0    0 -0.41432566430E+02  0.46164546615E+02  0.34524367018E+01  0.62126823871E+02  0.00000000000E+00 0.  1.
</event>
<event>
 4    1  0.9925048E-003  0.9118800E+02  0.7818608E-02  0.1130116E+00
         25   -1    0    0    0    0  0.00000000000E+00  0.00000000000E+00  0.99999998245E-14  0.12500000000E+03  0.12500000000E+03 0.  0.
        -13    1    1    0    0    0  0.12645936793E+01 -0.18315149183E+01 -0.72655552024E+00  0.23436490840E+01  0.10566000000E+00 0.  1.
         13    1    1    0    0    0 -0.24634804699E+02  0.36951071395E+02  0.43793594973E+02  0.62371030170E+02  0.10566000000E+00 0. -1.
         22    1    1    0    0    0  0.23370211020E+02 -0.35119556477E+02 -0.43067039453E+02  0.60285320746E+02  0.00000000000E+00 0. -1.
</event>
<event>
 4    1  0.9925048E-003  0.9118800E+02  0.7818608E-02  0.1130116E+00
         25   -1    0    0    0    0  0.00000000000E+00  0.00000000000E+00  0.99999998245E-14  0.12500000000E+03  0.12500000000E+03 0.  0.
        -13    1    1    0    0    0 -0.18512793265E+01  0.19280917537E+01 -0.10521912333E+01  0.28745509880E+01  0.10566000000E+00 0. -1.
         13    1    1    0    0    0 -0.38644541132E+02  0.41752144588E+02 -0.17863250341E+02  0.59630101574E+02  0.10566000000E+00 0.  1.
         22    1    1    0    0    0  0.40495820458E+02 -0.43680236342E+02  0.18915441574E+02  0.62495347438E+02  0.00000000000E+00 0.  1.
</event>
<event>
 4    1  0.9925048E-003  0.9118800E+02  0.7818608E-02  0.1130116E+00
         25   -1    0    0    0    0  0.00000000000E+00  0.00000000000E+00  0.99999998245E-14  0.12500000000E+03  0.12500000000E+03 0.  0.
        -13    1    1    0    0    0  0.16178794349E+01  0.11305751038E+01 -0.49699726136E+02  0.49739015631E+02  0.10566000000E+00 0.  1.
         13    1    1    0    0    0  0.55479113893E+01  0.37486387419E+01 -0.11576910332E+02  0.13374140349E+02  0.10566000000E+00 0. -1.
         22    1    1    0    0    0 -0.71657908242E+01 -0.48792138457E+01  0.61276636468E+02  0.61886844020E+02  0.00000000000E+00 0.  1.
</event>
<event>
 4    1  0.9925048E-003  0.9118800E+02  0.7818608E-02  0.1130116E+00
         25   -1    0    0    0    0  0.00000000000E+00  0.00000000000E+00  0.99999998245E-14  0.12500000000E+03  0.12500000000E+03 0.  0.
        -13    1    1    0    0    0  0.11609117889E+01  0.32825067426E+00 -0.38236497882E+01  0.40108510849E+01  0.10566000000E+00 0. -1.
         13    1    1    0    0    0  0.16133272505E+02  0.27090699973E+01 -0.56156911799E+02  0.58491293787E+02  0.10566000000E+00 0. -1.
         22    1    1    0    0    0 -0.17294184294E+02 -0.30373206715E+01  0.59980561588E+02  0.62497855128E+02  0.00000000000E+00 0. -1.
</event>
<event>
 4    1  0.9925048E-003  0.9118800E+02  0.7818608E-02  0.1130116E+00
         25   -1    0    0    0    0  0.00000000000E+00  0.00000000000E+00  0.99999998245E-14  0.12500000000E+03  0.12500000000E+03 0.  0.
        -13    1    1    0    0    0  0.13562232394E+02 -0.99029114495E+01  0.10513437808E+02  0.19812757033E+02  0.10566000000E+00 0.  1.
         13    1    1    0    0    0  0.29578637511E+02 -0.20940071095E+02  0.22558177791E+02  0.42687995078E+02  0.10566000000E+00 0. -1.
         22    1    1    0    0    0 -0.43140869905E+02  0.30842982544E+02 -0.33071615599E+02  0.62499247889E+02  0.00000000000E+00 0. -1.
</event>
<event>
 4    1  0.9925048E-003  0.9118800E+02  0.7818608E-02  0.1130116E+00
         25   -1    0    0    0    0  0.00000000000E+00  0.00000000000E+00  0.99999998245E-14  0.12500000000E+03  0.12500000000E+03 0.  0.
        -13    1    1    0    0    0 -0.19641805053E+01  0.59036552232E+01  0.46853437053E+00  0.62403396177E+01  0.10566000000E+00 0. -1.
         13    1    1    0    0    0 -0.40674726496E+02  0.37088640892E+02  0.13373306879E+02  0.56646775369E+02  0.10566000000E+00 0.  1.
         22    1    1    0    0    0  0.42638907002E+02 -0.42992296115E+02 -0.13841841250E+02  0.62112885014E+02  0.00000000000E+00 0.  1.
</event>
<event>
 4    1  0.9925048E-003  0.9118800E+02  0.7818608E-02  0.1130116E+00
         25   -1    0    0    0    0  0.00000000000E+00  0.00000000000E+00  0.99999998245E-14  0.12500000000E+03  0.12500000000E+03 0.  0.
        -13    1    1    0    0    0 -0.22751440418E+02  0.41292978890E+02 -0.91631073354E+01  0.48028240096E+02  0.10566000000E+00 0.  1.
         13    1    1    0    0    0 -0.71542235577E+01  0.12318900557E+02 -0.25584439737E+01  0.14473942976E+02  0.10566000000E+00 0. -1.
         22    1    1    0    0    0  0.29905663975E+02 -0.53611879447E+02  0.11721551309E+02  0.62497816928E+02  0.00000000000E+00 0.  1.
</event>
<event>
 4    1  0.9925048E-003  0.9118800E+02  0.7818608E-02  0.1130116E+00
         25   -1    0    0    0    0  0.00000000000E+00  0.00000000000E+00  0.99999998245E-14  0.12500000000E+03  0.12500000000E+03 0.  0.
        -13    1    1    0    0    0 -0.53401295841E+02 -0.44740582973E+00 -0.11745610862E+02  0.54679695574E+02  0.10566000000E+00 0.  1.
         13    1    1    0    0    0 -0.76884711949E+01 -0.15676314514E+00 -0.14308214877E+01  0.78227602650E+01  0.10566000000E+00 0. -1.
         22    1    1    0    0    0  0.61089767036E+02  0.60416897488E+00  0.13176432350E+02  0.62497544161E+02  0.00000000000E+00 0.  1.
</event>
<event>
 4    1  0.9925048E-003  0.9118800E+02  0.7818608E-02  0.1130116E+00
         25   -1    0    0    0    0  0.00000000000E+00  0.00000000000E+00  0.99999998245E-14  0.12500000000E+03  0.12500000000E+03 0.  0.
        -13    1    1    0    0    0 -0.12372887919E+02  0.10320969370E+01 -0.37560099646E+02  0.39559143431E+02  0.10566000000E+00 0.  1.
         13    1    1    0    0    0 -0.70883513541E+01  0.54406462480E+00 -0.21811543586E+02  0.22941127455E+02  0.10566000000E+00 0.  1.
         22    1    1    0    0    0  0.19461239273E+02 -0.15761615618E+01  0.59371643232E+02  0.62499729115E+02  0.00000000000E+00 0.  1.
</event>
<event>
 4    1  0.9925048E-003  0.9118800E+02  0.7818608E-02  0.1130116E+00
         25   -1    0    0    0    0  0.00000000000E+00  0.00000000000E+00  0.99999998245E-14  0.12500000000E+03  0.12500000000E+03 0.  0.
        -13    1    1    0    0    0 -0.17377863470E+02  0.15776697360E+02  0.16352679846E+02  0.28606216467E+02  0.10566000000E+00 0. -1.
         13    1    1    0    0    0  0.16424322837E+02  0.10960118155E+02  0.34032605062E+02  0.39346053702E+02  0.10566000000E+00 0.  1.
         22    1    1    0    0    0  0.95354063300E+00 -0.26736815515E+02 -0.50385284908E+02  0.57047729831E+02  0.00000000000E+00 0.  1.
</event>
<event>
 4    1  0.9925048E-003  0.9118800E+02  0.7818608E-02  0.1130116E+00
         25   -1    0    0    0    0  0.00000000000E+00  0.00000000000E+00  0.99999998245E-14  0.12500000000E+03  0.12500000000E+03 0.  0.
        -13    1    1    0    0    0  0.34669473867E+02  0.24646168776E+01  0.17325397518E+02  0.38835902433E+02  0.10566000000E+00 0. -1.
         13    1    1    0    0    0  0.21095818748E+02  0.55661216392E+00  0.10720545980E+02  0.23670332822E+02  0.10566000000E+00 0.  1.
         22    1    1    0    0    0 -0.55765292615E+02 -0.30212290415E+01 -0.28045943498E+02  0.62493764745E+02  0.00000000000E+00 0. -1.
</event>
<event>
 4    1  0.9925048E-003  0.9118800E+02  0.7818608E-02  0.1130116E+00
         25   -1    0    0    0    0  0.00000000000E+00  0.00000000000E+00  0.99999998245E-14  0.12500000000E+03  0.12500000000E+03 0.  0.
        -13    1    1    0    0    0  0.16065862404E+02  0.92143873936E+01 -0.11444558774E+02  0.21771677919E+02  0.10566000000E+00 0.  1.
         13    1    1    0    0    0  0.35053885570E+02  0.14630165521E+02 -0.15114333809E+02  0.40881180111E+02  0.10566000000E+00 0. -1.
         22    1    1    0    0    0 -0.51119747974E+02 -0.23844552915E+02  0.26558892583E+02  0.62347141970E+02  0.00000000000E+00 0. -1.
</event>
<event>
 4    1  0.9925048E-003  0.9118800E+02  0.7818608E-02  0.1130116E+00
         25   -1    0    0    0    0  0.00000000000E+00  0.00000000000E+00  0.99999998245E-14  0.12500000000E+03  0.12500000000E+03 0.  0.
        -13    1    1    0    0    0  0.36414506087E+01 -0.16317371743E+01  0.28764592995E+00  0.40020785797E+01  0.10566000000E+00 0. -1.
         13    1    1    0    0    0 -0.20692390350E+02 -0.44243778980E+02  0.35487921116E+02  0.60374586590E+02  0.10566000000E+00 0.  1.
         22    1    1    0    0    0  0.17050939741E+02  0.45875516154E+02 -0.35775567046E+02  0.60623334830E+02  0.00000000000E+00 0.  1.
</event>
<event>
 4    1  0.9925048E-003  0.9118800E+02  0.7818608E-02  0.1130116E+00
         25   -1    0    0    0    0  0.00000000000E+00  0.00000000000E+00  0.99999998245E-14  0.12500000000E+03  0.12500000000E+03 0.  0.
        -13    1    1    0    0    0 -0.21629197113E+02  0.22967498513E+02 -0.11559946160E+02  0.33600173734E+02  0.10566000000E+00 0. -1.
         13    1    1    0    0    0 -0.18553912808E+02  0.19756269797E+02 -0.10032153652E+02  0.28900054459E+02  0.10566000000E+00 0. -1.
         22    1    1    0    0    0  0.40183109921E+02 -0.42723768311E+02  0.21592099813E+02  0.62499771807E+02  0.00000000000E+00 0. -1.
</event>
<event>
 4    1  0.9925048E-003  0.9118800E+02  0.7818608E-02  0.1130116E+00
         25   -1    0    0    0    0  0.00000000000E+00  0.00000000000E+00  0.99999998245E-14  0.12500000000E+03  0.12500000000E+03 0.  0.
        -13    1    1    0    0    0  0.24311349585E+02  0.20866481525E+02 -0.62945414269E+01  0.32650944637E+02  0.10566000000E+00 0. -1.
         13    1    1    0    0    0  0.22624550958E+02  0.19171742862E+02 -0.35803129123E+01  0.29870651734E+02  0.10566000000E+00 0.  1.
         22    1    1    0    0    0 -0.46935900543E+02 -0.40038224387E+02  0.98748543392E+01  0.62478403629E+02  0.00000000000E+00 0. -1.
</event>
<event>
 4    1  0.9925048E-003  0.9118800E+02  0.7818608E-02  0.1130116E+00
         25   -1    0    0    0    0  0.00000000000E+00  0.00000000000E+00  0.99999998245E-14  0.12500000000E+03  0.12500000000E+03 0.  0.
        -13    1    1    0    0    0 -0.16322625788E+02  0.18655810478E+02  0.61265123075E+01  0.25534539241E+02  0.10566000000E+00 0. -1.
         13    1    1    0    0    0  0.83366458272E+00 -0.35817096598E+02 -0.42984619804E+02  0.55957556318E+02  0.10566000000E+00 0.  1.
         22    1    1    0    0    0  0.15488961205E+02  0.17161286121E+02  0.36858107497E+02  0.43507904440E+02  0.00000000000E+00 0.  1.
</event>
<event>
 4    1  0.9925048E-003  0.9118800E+02  0.7818608E-02  0.1130116E+00
         25   -1    0    0    0    0  0.00000000000E+00  0.00000000000E+00  0.99999998245E-14  0.12500000000E+03  0.12500000000E+03 0.  0.
        -13    1    1    0    0    0 -0.11934563050E+01 -0.50987211833E+01 -0.15057492100E+01  0.54497468177E+01  0.10566000000E+00 0. -1.
         13    1    1    0    0    0 -0.64768219281E+01 -0.43532806148E+02  0.38095717636E+02  0.58209529286E+02  0.10566000000E+00 0.  1.
         22    1    1    0    0    0  0.76702782331E+01  0.48631527331E+02 -0.36589968426E+02  0.61340723897E+02  0.00000000000E+00 0.  1.
</event>
<event>
 4    1  0.9925048E-003  0.9118800E+02  0.7818608E-02  0.1130116E+00
         25   -1    0    0    0    0  0.00000000000E+00  0.00000000000E+00  0.99999998245E-14  0.12500000000E+03  0.12500000000E+03 0.  0.
        -13    1    1    0    0    0  0.12416955764E+02  0.18853186284E+02  0.50110288242E+02  0.54960672988E+02  0.10566000000E+00 0.  1.
         13    1    1    0    0    0  0.43514493562E+00  0.29158213015E+01  0.69934174328E+01  0.75901525941E+01  0.10566000000E+00 0. -1.
         22    1    1    0    0    0 -0.12852100700E+02 -0.21769007586E+02 -0.57103705675E+02  0.62449174418E+02  0.00000000000E+00 0.  1.
</event>
<event>
 4    1  0.9925048E-003  0.9118800E+02  0.7818608E-02  0.1130116E+00
         25   -1    0    0    0    0  0.00000000000E+00  0.00000000000E+00  0.99999998245E-14  0.12500000000E+03  0.12500000000E+03 0.  0.
        -13    1    1    0    0    0 -0.65714378895E+01 -0.59012606540E+01 -0.11582715495E+01  0.89085032558E+01  0.10566000000E+00 0.  1.
         13    1    1    0    0    0 -0.17834027090E+02 -0.50616339269E+02 -0.64857893783E+01  0.54056849253E+02  0.10566000000E+00 0. -1.
         22    1    1    0    0    0  0.24405464979E+02  0.56517599923E+02  0.76440609277E+01  0.62034647491E+02  0.00000000000E+00 0. -1.
</event>
<event>
 4    1  0.9925048E-003  0.9118800E+02  0.7818608E-02  0.1130116E+00
         25   -1    0    0    0    0  0.00000000000E+00  0.00000000000E+00  0.99999998245E-14  0.12500000000E+03  0.12500000000E+03 0.  0.
        -13    1    1    0    0    0  0.35092245935E+02  0.40887468668E+02 -0.30409526876E+02  0.61870843761E+02  0.10566000000E+00 0.  1.
         13    1    1    0    0    0  0.34014933120E+00  0.31503729742E+00 -0.43397444973E+00  0.64377630036E+00  0.10566000000E+00 0.  1.
         22    1    1    0    0    0 -0.35432395266E+02 -0.41202505965E+02  0.30843501326E+02  0.62485379939E+02  0.00000000000E+00 0.  1.
</event>
<event>
 4    1  0.9925048E-003  0.9118800E+02  0.7818608E-02  0.1130116E+00
         25   -1    0    0    0    0  0.00000000000E+00  0.00000000000E+00  0.99999998245E-14  0.12500000000E+03  0.12500000000E+03 0.  0.
        -13    1    1    0    0    0  0.31792534636E+02  0.14600377528E+02  0.47823691074E+02  0.59254138037E+02  0.10566000000E+00 0. -1.
         13    1    1    0    0    0  0.14720613027E+01  0.96064411483E+00  0.27374902450E+01  0.32549682750E+01  0.10566000000E+00 0.  1.
         22    1    1    0    0    0 -0.33264595938E+02 -0.15561021643E+02 -0.50561181319E+02  0.62490893688E+02  0.00000000000E+00 0. -1.
</event>
<event>
 4    1  0.9925048E-003  0.9118800E+02  0.7818608E-02  0.1130116E+00
         25   -1    0    0    0    0  0.00000000000E+00  0.00000000000E+00  0.99999998245E-14  0.12500000000E+03  0.12500000000E+03 0.  0.
        -13    1    1    0    0    0  0.10973601214E+02  0.87919750898E+01 -0.43859011103E+01  0.14729767214E+02  0.10566000000E+00 0. -1.
         13    1    1    0    0    0  0.32569917869E+02  0.30563686948E+02 -0.17016397961E+02  0.47796521562E+02  0.10566000000E+00 0.  1.
         22    1    1    0    0    0 -0.43543519083E+02 -0.39355662038E+02  0.21402299072E+02  0.62473711224E+02  0.00000000000E+00 0.  1.
</event>
<event>
 4    1  0.9925048E-003  0.9118800E+02  0.7818608E-02  0.1130116E+00
         25   -1    0    0    0    0  0.00000000000E+00  0.00000000000E+00  0.99999998245E-14  0.12500000000E+03  0.12500000000E+03 0.  0.
        -13    1    1    0    0    0 -0.22322663628E+02  0.48280909321E+02 -0.19850115640E+02  0.56774869188E+02  0.10566000000E+00 0. -1.
         13    1    1    0    0    0 -0.19407601437E+01  0.50011254864E+01 -0.20114788883E+01  0.57301847632E+01  0.10566000000E+00 0.  1.
         22    1    1    0    0    0  0.24263423771E+02 -0.53282034808E+02  0.21861594528E+02  0.62494946049E+02  0.00000000000E+00 0. -1.
</event>
<event>
 4    1  0.9925048E-003  0.9118800E+02  0.7818608E-02  0.1130116E+00
         25   -1    0    0    0    0  0.00000000000E+00  0.00000000000E+00  0.99999998245E-14  0.12500000000E+03  0.12500000000E+03 0.  0.
        -13    1    1    0    0    0 -0.21546879876E+02 -0.35325505500E+02  0.28794134154E+02  0.50411037451E+02  0.10566000000E+00 0. -1.
         13    1    1    0    0    0 -0.45557393969E+01 -0.84373612545E+01  0.73781067072E+01  0.12099233406E+02  0.10566000000E+00 0.  1.
         22    1    1    0    0    0  0.26102619273E+02  0.43762866754E+02 -0.36172240861E+02  0.62489729143E+02  0.00000000000E+00 0. -1.
</event>
<event>
 4    1  0.9925048E-003  0.9118800E+02  0.7818608E-02  0.1130116E+00
         25   -1    0    0    0    0  0.00000000000E+00  0.00000000000E+00  0.99999998245E-14  0.12500000000E+03  0.12500000000E+03 0.  0.
        -13    1    1    0    0    0 -0.52654126375E+01  0.45531703311E+02 -0.76410847990E+01  0.46467815933E+02  0.10566000000E+00 0.  1.
         13    1    1    0    0    0 -0.21597527871E+01  0.15613559218E+02 -0.29430689277E+01  0.16034979959E+02  0.10566000000E+00 0. -1.
         22    1    1    0    0    0  0.74251654246E+01 -0.61145262528E+02  0.10584153727E+02  0.62497204108E+02  0.00000000000E+00 0. -1.
</event>
<event>
 4    1  0.9925048E-003  0.9118800E+02  0.7818608E-02  0.1130116E+00
         25   -1    0    0    0    0  0.00000000000E+00  0.00000000000E+00  0.99999998245E-14  0.12500000000E+03  0.12500000000E+03 0.  0.
        -13    1    1    0    0    0 -0.10409469981E+02  0.46806084029E+02  0.13979428731E+02  0.49945992423E+02  0.10566000000E+00 0. -1.
         13    1    1    0    0    0 -0.24345524956E+01  0.11911080819E+02  0.31424358137E+01  0.12557346814E+02  0.10566000000E+00 0.  1.
         22    1    1    0    0    0  0.12844022476E+02 -0.58717164848E+02 -0.17121864545E+02  0.62496660764E+02  0.00000000000E+00 0. -1.
</event>
<event>
 4    1  0.9925048E-003  0.9118800E+02  0.7818608E-02  0.1130116E+00
         25   -1    0    0    0    0  0.00000000000E+00  0.00000000000E+00  0.99999998245E-14  0.12500000000E+03  0.12500000000E+03 0.  0.
        -13    1    1    0    0    0  0.46481337904E+02  0.21213870928E+02 -0.33724071778E+02  0.61219827462E+02  0.10566000000E+00 0.  1.
         13    1    1    0    0    0  0.92587356841E+00  0.93084628232E+00 -0.32013634334E+00  0.13554954740E+01  0.10566000000E+00 0. -1.
         22    1    1    0    0    0 -0.47407211473E+02 -0.22144717211E+02  0.34044208121E+02  0.62424677064E+02  0.00000000000E+00 0.  1.
</event>
<event>
 4    1  0.9925048E-003  0.9118800E+02  0.7818608E-02  0.1130116E+00
         25   -1    0    0    0    0  0.00000000000E+00  0.00000000000E+00  0.99999998245E-14  0.12500000000E+03  0.12500000000E+03 0.  0.
        -13    1    1    0    0    0  0.33950742169E+00  0.15597651121E+02  0.60523691362E+01  0.16734524851E+02  0.10566000000E+00 0. -1.
         13    1    1    0    0    0  0.64429488448E+01  0.44966091802E+02  0.69429408140E+01  0.45952982416E+02  0.10566000000E+00 0.  1.
         22    1    1    0    0    0 -0.67824562665E+01 -0.60563742923E+02 -0.12995309950E+02  0.62312492733E+02  0.00000000000E+00 0.  1.
</event>
<event>
 4    1  0.9925048E-003  0.9118800E+02  0.7818608E-02  0.1130116E+00
         25   -1    0    0    0    0  0.00000000000E+00  0.00000000000E+00  0.99999998245E-14  0.12500000000E+03  0.12500000000E+03 0.  0.
        -13    1    1    0    0    0  0.71380513027E+01 -0.25219540996E+02  0.76981777988E+01  0.27317579137E+02  0.10566000000E+00 0. -1.
         13    1    1    0    0    0  0.10103769754E+02 -0.31343365869E+02  0.12457493798E+02  0.35209275241E+02  0.10566000000E+00 0.  1.
         22    1    1    0    0    0 -0.17241821057E+02  0.56562906865E+02 -0.20155671597E+02  0.62473145622E+02  0.00000000000E+00 0.  1.
</event>
<event>
 4    1  0.9925048E-003  0.9118800E+02  0.7818608E-02  0.1130116E+00
         25   -1    0    0    0    0  0.00000000000E+00  0.00000000000E+00  0.99999998245E-14  0.12500000000E+03  0.12500000000E+03 0.  0.
        -13    1    1    0    0    0  0.19260407915E+01 -0.42098230600E+01 -0.37982085633E+00  0.46462534633E+01  0.10566000000E+00 0.  1.
         13    1    1    0    0    0  0.23119790494E+02 -0.52925850675E+02 -0.33989010184E+01  0.57855285621E+02  0.10566000000E+00 0.  1.
         22    1    1    0    0    0 -0.25045831285E+02  0.57135673735E+02  0.37787218747E+01  0.62498460916E+02  0.00000000000E+00 0.  1.
</event>
<event>
 4    1  0.9925048E-003  0.9118800E+02  0.7818608E-02  0.1130116E+00
         25   -1    0    0    0    0  0.00000000000E+00  0.00000000000E+00  0.99999998245E-14  0.12500000000E+03  0.12500000000E+03 0.  0.
        -13    1    1    0    0    0 -0.40038236915E+01  0.35913362005E+01  0.62138322088E+01  0.82189521603E+01  0.10566000000E+00 0. -1.
         13    1    1    0    0    0 -0.24756753563E+02  0.26412888764E+02  0.40455068330E+02  0.54287763423E+02  0.10566000000E+00 0.  1.
         22    1    1    0    0    0  0.28760577254E+02 -0.30004224964E+02 -0.46668900539E+02  0.62493284417E+02  0.00000000000E+00 0.  1.
</event>
<event>
 4    1  0.9925048E-003  0.9118800E+02  0.7818608E-02  0.1130116E+00
         25   -1    0    0    0    0  0.00000000000E+00  0.00000000000E+00  0.99999998245E-14  0.12500000000E+03  0.12500000000E+03 0.  0.
        -13    1    1    0    0    0 -0.37749941102E+01 -0.57759470816E+00  0.13553531380E+01  0.40536825656E+01  0.10566000000E+00 0.  1.
         13    1    1    0    0    0 -0.55118839466E+02 -0.13878060580E+02  0.13692486428E+02  0.58465223664E+02  0.10566000000E+00 0.  1.
         22    1    1    0    0    0  0.58893833576E+02  0.14455655288E+02 -0.15047839566E+02  0.62481093770E+02  0.00000000000E+00 0.  1.
</event>
<event>
 4    1  0.9925048E-003  0.9118800E+02  0.7818608E-02  0.1130116E+00
         25   -1    0    0    0    0  0.00000000000E+00  0.00000000000E+00  0.99999998245E-14  0.12500000000E+03  0.12500000000E+03 0.  0.
        -13    1    1    0    0    0 -0.94806341294E+00 -0.17564896842E+01 -0.97124559814E+01  0.99159994692E+01  0.10566000000E+00 0. -1.
         13    1    1    0    0    0 -0.10515089203E+01 -0.28983583605E+02 -0.44273553783E+02  0.52927426899E+02  0.10566000000E+00 0.  1.
         22    1    1    0    0    0  0.19995723333E+01  0.30740073289E+02  0.53986009764E+02  0.62156573631E+02  0.00000000000E+00 0.  1.
</event>
<event>
 4    1  0.9925048E-003  0.9118800E+02  0.7818608E-02  0.1130116E+00
         25   -1    0    0    0    0  0.00000000000E+00  0.00000000000E+00  0.99999998245E-14  0.12500000000E+03  0.12500000000E+03 0.  0.
        -13    1    1    0    0    0  0.56223614715E+00 -0.40452893749E+01 -0.16966706382E+01  0.44238366721E+01  0.10566000000E+00 0.  1.
         13    1    1    0    0    0  0.77609406280E+01 -0.53296103884E+02 -0.21730586363E+02  0.58076987149E+02  0.10566000000E+00 0. -1.
         22    1    1    0    0    0 -0.83231767752E+01  0.57341393258E+02  0.23427257001E+02  0.62499176179E+02  0.00000000000E+00 0. -1.
</event>
<event>
 4    1  0.9925048E-003  0.9118800E+02  0.7818608E-02  0.1130116E+00
         25   -1    0    0    0    0  0.00000000000E+00  0.00000000000E+00  0.99999998245E-14  0.12500000000E+03  0.12500000000E+03 0.  0.
        -13    1    1    0    0    0 -0.75432134214E+01 -0.12385864455E+01 -0.54113019106E+01  0.93662968940E+01  0.10566000000E+00 0. -1.
         13    1    1    0    0    0 -0.43633183694E+02 -0.63975718570E+01 -0.29641173397E+02  0.53135618651E+02  0.10566000000E+00 0.  1.
         22    1    1    0    0    0  0.51176397116E+02  0.76361583025E+01  0.35052475308E+02  0.62498084455E+02  0.00000000000E+00 0.  1.
</event>
<event>
 4    1  0.9925048E-003  0.9118800E+02  0.7818608E-02  0.1130116E+00
         25   -1    0    0    0    0  0.00000000000E+00  0.00000000000E+00  0.99999998245E-14  0.12500000000E+03  0.12500000000E+03 0.  0.
        -13    1    1    0    0    0 -0.17753301969E+02  0.39877029194E+02 -0.29144562763E+01  0.43747713169E+02  0.10566000000E+00 0. -1.
         13    1    1    0    0    0 -0.75990049849E+01  0.17056891590E+02 -0.17463143464E+01  0.18754818189E+02  0.10566000000E+00 0.  1.
         22    1    1    0    0    0  0.25352306954E+02 -0.56933920784E+02  0.46607706227E+01  0.62497468641E+02  0.00000000000E+00 0.  1.
</event>
<event>
 4    1  0.9925048E-003  0.9118800E+02  0.7818608E-02  0.1130116E+00
         25   -1    0    0    0    0  0.00000000000E+00  0.00000000000E+00  0.99999998245E-14  0.12500000000E+03  0.12500000000E+03 0.  0.
        -13    1    1    0    0    0  0.28978909591E+02 -0.13370010148E+02 -0.42227738753E+02  0.52931346636E+02  0.10566000000E+00 0. -1.
         13    1    1    0    0    0  0.61237149769E+01 -0.25369988958E+01 -0.69397760689E+01  0.95972863059E+01  0.10566000000E+00 0.  1.
         22    1    1    0    0    0 -0.35102624568E+02  0.15907009044E+02  0.49167514822E+02  0.62471367058E+02  0.00000000000E+00 0. -1.
</event>
<event>
 4    1  0.9925048E-003  0.9118800E+02  0.7818608E-02  0.1130116E+00
         25   -1    0    0    0    0  0.00000000000E+00  0.00000000000E+00  0.99999998245E-14  0.12500000000E+03  0.12500000000E+03 0.  0.
        -13    1    1    0    0    0 -0.11262525093E+02 -0.71039924720E+01 -0.27307670413E+01  0.13593359893E+02  0.10566000000E+00 0.  1.
         13    1    1    0    0    0 -0.40775670987E+02 -0.25789158330E+02 -0.80312270274E+01  0.48910610335E+02  0.10566000000E+00 0. -1.
         22    1    1    0    0    0  0.52038196080E+02  0.32893150802E+02  0.10761994069E+02  0.62496029772E+02  0.00000000000E+00 0. -1.
</event>
<event>
 4    1  0.9925048E-003  0.9118800E+02  0.7818608E-02  0.1130116E+00
         25   -1    0    0    0    0  0.00000000000E+00  0.00000000000E+00  0.99999998245E-14  0.12500000000E+03  0.12500000000E+03 0.  0.
        -13    1    1    0    0    0 -0.19804837025E+02 -0.30663141686E+02 -0.10221639109E+02  0.37907161563E+02  0.10566000000E+00 0. -1.
         13    1    1    0    0    0 -0.12337127966E+02 -0.19692296779E+02 -0.80967496033E+01  0.24608124615E+02  0.10566000000E+00 0.  1.
         22    1    1    0    0    0  0.32141964990E+02  0.50355438466E+02  0.18318388712E+02  0.62484713823E+02  0.00000000000E+00 0. -1.
</event>
<event>
 4    1  0.9925048E-003  0.9118800E+02  0.7818608E-02  0.1130116E+00
         25   -1    0    0    0    0  0.00000000000E+00  0.00000000000E+00  0.99999998245E-14  0.12500000000E+03  0.12500000000E+03 0.  0.
        -13    1    1    0    0    0  0.68972916702E+01  0.62053090767E+01 -0.39640602387E+01  0.10089768616E+02  0.10566000000E+00 0. -1.
         13    1    1    0    0    0  0.33546875216E+02  0.35731517354E+02 -0.18613044359E+02  0.52427004049E+02  0.10566000000E+00 0.  1.
         22    1    1    0    0    0 -0.40444166886E+02 -0.41936826431E+02  0.22577104597E+02  0.62483227335E+02  0.00000000000E+00 0.  1.
</event>
<event>
 4    1  0.9925048E-003  0.9118800E+02  0.7818608E-02  0.1130116E+00
         25   -1    0    0    0    0  0.00000000000E+00  0.00000000000E+00  0.99999998245E-14  0.12500000000E+03  0.12500000000E+03 0.  0.
        -13    1    1    0    0    0 -0.26461688083E+01 -0.72572292350E+01 -0.40675612003E+01  0.87307390114E+01  0.10566000000E+00 0. -1.
         13    1    1    0    0    0 -0.19385863953E+02 -0.43289073357E+02 -0.25342002650E+02  0.53777168535E+02  0.10566000000E+00 0.  1.
         22    1    1    0    0    0  0.22032032762E+02  0.50546302592E+02  0.29409563851E+02  0.62492092453E+02  0.00000000000E+00 0.  1.
</event>
<event>
 4    1  0.9925048E-003  0.9118800E+02  0.7818608E-02  0.1130116E+00
         25   -1    0    0    0    0  0.00000000000E+00  0.00000000000E+00  0.99999998245E-14  0.12500000000E+03  0.12500000000E+03 0.  0.
        -13    1    1    0    0    0  0.12934577548E+01  0.20607447143E+02  0.73230135467E+01  0.21908391136E+02  0.10566000000E+00 0.  1.
         13    1    1    0    0    0  0.27624507693E+01  0.38153107209E+02  0.13579999337E+02  0.40592096152E+02  0.10566000000E+00 0. -1.
         22    1    1    0    0    0 -0.40559085240E+01 -0.58760554352E+02 -0.20903012884E+02  0.62499512713E+02  0.00000000000E+00 0. -1.
</event>
<event>
 4    1  0.9925048E-003  0.9118800E+02  0.7818608E-02  0.1130116E+00
         25   -1    0    0    0    0  0.00000000000E+00  0.00000000000E+00  0.99999998245E-14  0.12500000000E+03  0.12500000000E+03 0.  0.
        -13    1    1    0    0    0  0.36291073414E+01 -0.22250528982E+02  0.32809301326E+02  0.39808515139E+02  0.10566000000E+00 0. -1.
         13    1    1    0    0    0  0.46882019839E+00 -0.10621658565E+02  0.20116413091E+02  0.22753475838E+02  0.10566000000E+00 0.  1.
         22    1    1    0    0    0 -0.40979275398E+01  0.32872187546E+02 -0.52925714417E+02  0.62438009023E+02  0.00000000000E+00 0. -1.
</event>
<event>
 4    1  0.9925048E-003  0.9118800E+02  0.7818608E-02  0.1130116E+00
         25   -1    0    0    0    0  0.00000000000E+00  0.00000000000E+00  0.99999998245E-14  0.12500000000E+03  0.12500000000E+03 0.  0.
        -13    1    1    0    0    0 -0.28016033521E+01  0.74995851678E+01 -0.32579314372E+02  0.33548705609E+02  0.10566000000E+00 0.  1.
         13    1    1    0    0    0 -0.70026910783E+01  0.15344128837E+02 -0.24183096680E+02  0.29484119474E+02  0.10566000000E+00 0. -1.
         22    1    1    0    0    0  0.98042944304E+01 -0.22843714005E+02  0.56762411052E+02  0.61967174917E+02  0.00000000000E+00 0. -1.
</event>
<event>
 4    1  0.9925048E-003  0.9118800E+02  0.7818608E-02  0.1130116E+00
         25   -1    0    0    0    0  0.00000000000E+00  0.00000000000E+00  0.99999998245E-14  0.12500000000E+03  0.12500000000E+03 0.  0.
        -13    1    1    0    0    0 -0.38578962395E+01 -0.18199960366E+01  0.28772576671E+02  0.29087249463E+02  0.10566000000E+00 0. -1.
         13    1    1    0    0    0 -0.30496088951E+02 -0.25408733946E+02  0.57583475698E+01  0.40109661340E+02  0.10566000000E+00 0.  1.
         22    1    1    0    0    0  0.34353985191E+02  0.27228729983E+02 -0.34530924241E+02  0.55803089197E+02  0.00000000000E+00 0. -1.
</event>
<event>
 4    1  0.9925048E-003  0.9118800E+02  0.7818608E-02  0.1130116E+00
         25   -1    0    0    0    0  0.00000000000E+00  0.00000000000E+00  0.99999998245E-14  0.12500000000E+03  0.12500000000E+03 0.  0.
        -13    1    1    0    0    0 -0.38402081694E+01  0.35353126709E+01  0.13785314842E+01  0.53997358782E+01  0.10566000000E+00 0. -1.
         13    1    1    0    0    0 -0.33327710624E+02  0.44401696094E+02  0.13517170436E+02  0.57139933252E+02  0.10566000000E+00 0.  1.
         22    1    1    0    0    0  0.37167918793E+02 -0.47937008765E+02 -0.14895701920E+02  0.62460330870E+02  0.00000000000E+00 0.  1.
</event>
<event>
 4    1  0.9925048E-003  0.9118800E+02  0.7818608E-02  0.1130116E+00
         25   -1    0    0    0    0  0.00000000000E+00  0.00000000000E+00  0.99999998245E-14  0.12500000000E+03  0.12500000000E+03 0.  0.
        -13    1    1    0    0    0  0.10685584638E+02  0.19270539567E+02  0.37007154426E+01  0.22343721111E+02  0.10566000000E+00 0.  1.
         13    1    1    0    0    0  0.19785527036E+02  0.34506202361E+02  0.55381191036E+01  0.40160017539E+02  0.10566000000E+00 0. -1.
         22    1    1    0    0    0 -0.30471111674E+02 -0.53776741928E+02 -0.92388345463E+01  0.62496261351E+02  0.00000000000E+00 0. -1.
</event>
<event>
 4    1  0.9925048E-003  0.9118800E+02  0.7818608E-02  0.1130116E+00
         25   -1    0    0    0    0  0.00000000000E+00  0.00000000000E+00  0.99999998245E-14  0.12500000000E+03  0.12500000000E+03 0.  0.
        -13    1    1    0    0    0 -0.54041829104E+00 -0.45498036947E+02 -0.28735536958E+02  0.53815477943E+02  0.10566000000E+00 0. -1.
         13    1    1    0    0    0  0.66198642162E+01 -0.28585711481E+00 -0.92540070335E+01  0.11382096764E+02  0.10566000000E+00 0.  1.
         22    1    1    0    0    0 -0.60794459252E+01  0.45783894062E+02  0.37989543991E+02  0.59802425293E+02  0.00000000000E+00 0. -1.
</event>
<event>
 4    1  0.9925048E-003  0.9118800E+02  0.7818608E-02  0.1130116E+00
         25   -1    0    0    0    0  0.00000000000E+00  0.00000000000E+00  0.99999998245E-14  0.12500000000E+03  0.12500000000E+03 0.  0.
        -13    1    1    0    0    0 -0.62654322376E+01 -0.74754677209E+00 -0.78377916575E+00  0.63592406085E+01  0.10566000000E+00 0.  1.
         13    1    1    0    0    0 -0.55016345457E+02 -0.81076077957E+01 -0.77103172157E+01  0.56142601714E+02  0.10566000000E+00 0.  1.
         22    1    1    0    0    0  0.61281777694E+02  0.88551545678E+01  0.84940963814E+01  0.62498157678E+02  0.00000000000E+00 0.  1.
</event>
<event>
 4    1  0.9925048E-003  0.9118800E+02  0.7818608E-02  0.1130116E+00
         25   -1    0    0    0    0  0.00000000000E+00  0.00000000000E+00  0.99999998245E-14  0.12500000000E+03  0.12500000000E+03 0.  0.
        -13    1    1    0    0    0 -0.30788830119E+02 -0.32406986548E+02  0.22976431922E+02  0.50260246966E+02  0.10566000000E+00 0. -1.
         13    1    1    0    0    0 -0.13475170982E+00 -0.72255116548E+01  0.11642235871E+02  0.13703247673E+02  0.10566000000E+00 0.  1.
         22    1    1    0    0    0  0.30923581829E+02  0.39632498203E+02 -0.34618667792E+02  0.61036505360E+02  0.00000000000E+00 0. -1.
</event>
<event>
 4    1  0.9925048E-003  0.9118800E+02  0.7818608E-02  0.1130116E+00
         25   -1    0    0    0    0  0.00000000000E+00  0.00000000000E+00  0.99999998245E-14  0.12500000000E+03  0.12500000000E+03 0.  0.
        -13    1    1    0    0    0  0.11625523371E+02 -0.12227385378E+02  0.13901449126E+02  0.21861454633E+02  0.10566000000E+00 0. -1.
         13    1    1    0    0    0  0.20604400254E+02 -0.22607156111E+02  0.26761899511E+02  0.40642776070E+02  0.10566000000E+00 0. -1.
         22    1    1    0    0    0 -0.32229923625E+02  0.34834541488E+02 -0.40663348638E+02  0.62495769297E+02  0.00000000000E+00 0. -1.
</event>
<event>
 4    1  0.9925048E-003  0.9118800E+02  0.7818608E-02  0.1130116E+00
         25   -1    0    0    0    0  0.00000000000E+00  0.00000000000E+00  0.99999998245E-14  0.12500000000E+03  0.12500000000E+03 0.  0.
        -13    1    1    0    0    0  0.11897143846E+02  0.22354926715E+02 -0.30099042616E+02  0.39335077356E+02  0.10566000000E+00 0.  1.
         13    1    1    0    0    0  0.70915708809E+01  0.13269986145E+02 -0.17613578253E+02  0.23165323498E+02  0.10566000000E+00 0.  1.
         22    1    1    0    0    0 -0.18988714727E+02 -0.35624912860E+02  0.47712620869E+02  0.62499599147E+02  0.00000000000E+00 0.  1.
</event>
<event>
 4    1  0.9925048E-003  0.9118800E+02  0.7818608E-02  0.1130116E+00
         25   -1    0    0    0    0  0.00000000000E+00  0.00000000000E+00  0.99999998245E-14  0.12500000000E+03  0.12500000000E+03 0.  0.
        -13    1    1    0    0    0 -0.37953346916E+02 -0.10620479125E+02 -0.14064431784E+02  0.41845794585E+02  0.10566000000E+00 0. -1.
         13    1    1    0    0    0  0.24603606775E+02 -0.24829276304E+02  0.25859178165E+02  0.43480325292E+02  0.10566000000E+00 0.  1.
         22    1    1    0    0    0  0.13349740141E+02  0.35449755429E+02 -0.11794746381E+02  0.39673880123E+02  0.00000000000E+00 0. -1.
</event>
<event>
 4    1  0.9925048E-003  0.9118800E+02  0.7818608E-02  0.1130116E+00
         25   -1    0    0    0    0  0.00000000000E+00  0.00000000000E+00  0.99999998245E-14  0.12500000000E+03  0.12500000000E+03 0.  0.
        -13    1    1    0    0    0  0.25417710948E+00  0.50842308629E+01 -0.57469218990E+01  0.76780391259E+01  0.10566000000E+00 0. -1.
         13    1    1    0    0    0  0.61030445749E+00  0.34349561336E+02 -0.42728404396E+02  0.54826932632E+02  0.10566000000E+00 0.  1.
         22    1    1    0    0    0 -0.86448156697E+00 -0.39433792199E+02  0.48475326295E+02  0.62495028242E+02  0.00000000000E+00 0.  1.
</event>
<event>
 4    1  0.9925048E-003  0.9118800E+02  0.7818608E-02  0.1130116E+00
         25   -1    0    0    0    0  0.00000000000E+00  0.00000000000E+00  0.99999998245E-14  0.12500000000E+03  0.12500000000E+03 0.  0.
        -13    1    1    0    0    0 -0.79347116367E+00  0.92247473789E+01  0.64726846294E+01  0.11297449758E+02  0.10566000000E+00 0.  1.
         13    1    1    0    0    0 -0.16143513971E+02  0.41179773794E+02  0.26087780394E+02  0.51351438763E+02  0.10566000000E+00 0. -1.
         22    1    1    0    0    0  0.16936985135E+02 -0.50404521173E+02 -0.32560465023E+02  0.62351111479E+02  0.00000000000E+00 0. -1.
</event>
<event>
 4    1  0.9925048E-003  0.9118800E+02  0.7818608E-02  0.1130116E+00
         25   -1    0    0    0    0  0.00000000000E+00  0.00000000000E+00  0.99999998245E-14  0.12500000000E+03  0.12500000000E+03 0.  0.
        -13    1    1    0    0    0 -0.47042837912E+01 -0.32357005309E+02  0.14651100509E+02  0.35829764006E+02  0.10566000000E+00 0.  1.
         13    1    1    0    0    0 -0.10208713501E+02 -0.14072705589E+02  0.22091091612E+02  0.28112032416E+02  0.10566000000E+00 0. -1.
         22    1    1    0    0    0  0.14912997292E+02  0.46429710898E+02 -0.36742192121E+02  0.61058203578E+02  0.00000000000E+00 0.  1.
</event>
<event>
 4    1  0.9925048E-003  0.9118800E+02  0.7818608E-02  0.1130116E+00
         25   -1    0    0    0    0  0.00000000000E+00  0.00000000000E+00  0.99999998245E-14  0.12500000000E+03  0.12500000000E+03 0.  0.
        -13    1    1    0    0    0  0.35815483643E+02 -0.29844538095E+02 -0.20616396549E+02  0.50975408712E+02  0.10566000000E+00 0.  1.
         13    1    1    0    0    0  0.81137863329E+01 -0.69361631708E+01 -0.43499551171E+01  0.11527235651E+02  0.10566000000E+00 0. -1.
         22    1    1    0    0    0 -0.43929269975E+02  0.36780701266E+02  0.24966351666E+02  0.62497355638E+02  0.00000000000E+00 0.  1.
</event>
<event>
 4    1  0.9925048E-003  0.9118800E+02  0.7818608E-02  0.1130116E+00
         25   -1    0    0    0    0  0.00000000000E+00  0.00000000000E+00  0.99999998245E-14  0.12500000000E+03  0.12500000000E+03 0.  0.
        -13    1    1    0    0    0 -0.11442360045E+02 -0.43908767781E+02  0.97403939614E+01  0.46408985444E+02  0.10566000000E+00 0. -1.
         13    1    1    0    0    0 -0.62700249015E+01 -0.14061637369E+02  0.50373969905E+01  0.16199672535E+02  0.10566000000E+00 0.  1.
         22    1    1    0    0    0  0.17712384947E+02  0.57970405150E+02 -0.14777790952E+02  0.62391342021E+02  0.00000000000E+00 0. -1.
</event>
<event>
 4    1  0.9925048E-003  0.9118800E+02  0.7818608E-02  0.1130116E+00
         25   -1    0    0    0    0  0.00000000000E+00  0.00000000000E+00  0.99999998245E-14  0.12500000000E+03  0.12500000000E+03 0.  0.
        -13    1    1    0    0    0  0.78787159478E+00  0.63025768430E+00 -0.12464764208E+01  0.16071197534E+01  0.10566000000E+00 0. -1.
         13    1    1    0    0    0  0.42019582696E+02  0.38431296640E+02 -0.21873305980E+02  0.61000512866E+02  0.10566000000E+00 0.  1.
         22    1    1    0    0    0 -0.42807454291E+02 -0.39061554324E+02  0.23119782400E+02  0.62392367381E+02  0.00000000000E+00 0.  1.
</event>
<event>
 4    1  0.9925048E-003  0.9118800E+02  0.7818608E-02  0.1130116E+00
         25   -1    0    0    0    0  0.00000000000E+00  0.00000000000E+00  0.99999998245E-14  0.12500000000E+03  0.12500000000E+03 0.  0.
        -13    1    1    0    0    0  0.40083548548E+02 -0.26137746018E+02 -0.25926567387E+02  0.54424908743E+02  0.10566000000E+00 0.  1.
         13    1    1    0    0    0  0.66737229650E+01 -0.48646599072E+01 -0.10480014452E+01  0.83254408467E+01  0.10566000000E+00 0. -1.
         22    1    1    0    0    0 -0.46757271513E+02  0.31002405925E+02  0.26974568833E+02  0.62249650411E+02  0.00000000000E+00 0.  1.
</event>
<event>
 4    1  0.9925048E-003  0.9118800E+02  0.7818608E-02  0.1130116E+00
         25   -1    0    0    0    0  0.00000000000E+00  0.00000000000E+00  0.99999998245E-14  0.12500000000E+03  0.12500000000E+03 0.  0.
        -13    1    1    0    0    0  0.43893196450E+02 -0.27512763724E+02 -0.13719957277E+01  0.51821408691E+02  0.10566000000E+00 0. -1.
         13    1    1    0    0    0  0.88958267915E+01 -0.58682098474E+01 -0.75884993300E+00  0.10684504592E+02  0.10566000000E+00 0. -1.
         22    1    1    0    0    0 -0.52789023242E+02  0.33380973572E+02  0.21308456607E+01  0.62494086717E+02  0.00000000000E+00 0. -1.
</event>
<event>
 4    1  0.9925048E-003  0.9118800E+02  0.7818608E-02  0.1130116E+00
         25   -1    0    0    0    0  0.00000000000E+00  0.00000000000E+00  0.99999998245E-14  0.12500000000E+03  0.12500000000E+03 0.  0.
        -13    1    1    0    0    0 -0.29547686616E+02 -0.82097957398E+01 -0.71273358154E+01  0.31484545579E+02  0.10566000000E+00 0. -1.
         13    1    1    0    0    0 -0.29132646139E+02 -0.81981641933E+01 -0.67863461881E+01  0.31015909237E+02  0.10566000000E+00 0.  1.
         22    1    1    0    0    0  0.58680332754E+02  0.16407959933E+02  0.13913682004E+02  0.62499545184E+02  0.00000000000E+00 0.  1.
</event>
<event>
 4    1  0.9925048E-003  0.9118800E+02  0.7818608E-02  0.1130116E+00
         25   -1    0    0    0    0  0.00000000000E+00  0.00000000000E+00  0.99999998245E-14  0.12500000000E+03  0.12500000000E+03 0.  0.
        -13    1    1    0    0    0  0.37525482971E+02 -0.13459177643E+02 -0.37841017099E+02  0.54966035642E+02  0.10566000000E+00 0.  1.
         13    1    1    0    0    0  0.63706596017E+01 -0.56444617297E+01  0.14405671868E+02  0.16732596869E+02  0.10566000000E+00 0. -1.
         22    1    1    0    0    0 -0.43896142573E+02  0.19103639372E+02  0.23435345231E+02  0.53301367489E+02  0.00000000000E+00 0.  1.
</event>
<event>
 4    1  0.9925048E-003  0.9118800E+02  0.7818608E-02  0.1130116E+00
         25   -1    0    0    0    0  0.00000000000E+00  0.00000000000E+00  0.99999998245E-14  0.12500000000E+03  0.12500000000E+03 0.  0.
        -13    1    1    0    0    0 -0.17728267271E+02  0.16280834321E+01  0.11081636793E+02  0.20970358941E+02  0.10566000000E+00 0.  1.
         13    1    1    0    0    0 -0.31749514190E+02  0.14432606929E+02  0.23057008352E+02  0.41808714310E+02  0.10566000000E+00 0. -1.
         22    1    1    0    0    0  0.49477781461E+02 -0.16060690361E+02 -0.34138645145E+02  0.62220926749E+02  0.00000000000E+00 0. -1.
</event>
<event>
 4    1  0.9925048E-003  0.9118800E+02  0.7818608E-02  0.1130116E+00
         25   -1    0    0    0    0  0.00000000000E+00  0.00000000000E+00  0.99999998245E-14  0.12500000000E+03  0.12500000000E+03 0.  0.
        -13    1    1    0    0    0 -0.13675410703E+02  0.30026319587E+02  0.29028981862E+02  0.43946441014E+02  0.10566000000E+00 0.  1.
         13    1    1    0    0    0 -0.60641266819E+01  0.11307492654E+02  0.13445654698E+02  0.18585742300E+02  0.10566000000E+00 0. -1.
         22    1    1    0    0    0  0.19739537385E+02 -0.41333812241E+02 -0.42474636561E+02  0.62467816686E+02  0.00000000000E+00 0.  1.
</event>
<event>
 4    1  0.9925048E-003  0.9118800E+02  0.7818608E-02  0.1130116E+00
         25   -1    0    0    0    0  0.00000000000E+00  0.00000000000E+00  0.99999998245E-14  0.12500000000E+03  0.12500000000E+03 0.  0.
        -13    1    1    0    0    0  0.33577363377E+00  0.35753249194E+02  0.37709940181E+01  0.35953290973E+02  0.10566000000E+00 0.  1.
         13    1    1    0    0    0  0.92011072910E+00  0.26422029566E+02  0.24334325374E+01  0.26550009569E+02  0.10566000000E+00 0. -1.
         22    1    1    0    0    0 -0.12558843629E+01 -0.62175278760E+02 -0.62044265555E+01  0.62496699459E+02  0.00000000000E+00 0. -1.
</event>
<event>
 4    1  0.9925048E-003  0.9118800E+02  0.7818608E-02  0.1130116E+00
         25   -1    0    0    0    0  0.00000000000E+00  0.00000000000E+00  0.99999998245E-14  0.12500000000E+03  0.12500000000E+03 0.  0.
        -13    1    1    0    0    0  0.10867562421E+02  0.92481955470E+01  0.14518824100E+02  0.20357810568E+02  0.10566000000E+00 0.  1.
         13    1    1    0    0    0  0.21688142738E+02  0.19913513367E+02  0.30153788097E+02  0.42144817602E+02  0.10566000000E+00 0. -1.
         22    1    1    0    0    0 -0.32555705158E+02 -0.29161708914E+02 -0.44672612197E+02  0.62497371830E+02  0.00000000000E+00 0. -1.
</event>
<event>
 4    1  0.9925048E-003  0.9118800E+02  0.7818608E-02  0.1130116E+00
         25   -1    0    0    0    0  0.00000000000E+00  0.00000000000E+00  0.99999998245E-14  0.12500000000E+03  0.12500000000E+03 0.  0.
        -13    1    1    0    0    0  0.11753033441E+02 -0.10497600177E+02  0.35703296792E+01  0.16158336010E+02  0.10566000000E+00 0. -1.
         13    1    1    0    0    0  0.30275857231E+02 -0.33200782809E+02  0.11471591225E+02  0.46373786556E+02  0.10566000000E+00 0.  1.
         22    1    1    0    0    0 -0.42028890672E+02  0.43698382986E+02 -0.15041920904E+02  0.62467877435E+02  0.00000000000E+00 0.  1.
</event>
<event>
 4    1  0.9925048E-003  0.9118800E+02  0.7818608E-02  0.1130116E+00
         25   -1    0    0    0    0  0.00000000000E+00  0.00000000000E+00  0.99999998245E-14  0.12500000000E+03  0.12500000000E+03 0.  0.
        -13    1    1    0    0    0 -0.39541451332E+00 -0.25044484076E+01 -0.26573293574E+01  0.36743948908E+01  0.10566000000E+00 0. -1.
         13    1    1    0    0    0 -0.58306433511E+02 -0.11928827633E+02  0.10283773619E+02  0.60396227377E+02  0.10566000000E+00 0.  1.
         22    1    1    0    0    0  0.58701848025E+02  0.14433276040E+02 -0.76264442619E+01  0.60929377732E+02  0.00000000000E+00 0.  1.
</event>
<event>
 4    1  0.9925048E-003  0.9118800E+02  0.7818608E-02  0.1130116E+00
         25   -1    0    0    0    0  0.00000000000E+00  0.00000000000E+00  0.99999998245E-14  0.12500000000E+03  0.12500000000E+03 0.  0.
        -13    1    1    0    0    0 -0.28005488111E+02  0.90638572419E+01 -0.15337148021E+02  0.33191868671E+02  0.10566000000E+00 0.  1.
         13    1    1    0    0    0 -0.25947239737E+02  0.85999017204E+01 -0.10695384501E+02  0.29353363917E+02  0.10566000000E+00 0. -1.
         22    1    1    0    0    0  0.53952727848E+02 -0.17663758962E+02  0.26032532523E+02  0.62454767412E+02  0.00000000000E+00 0.  1.
</event>
<event>
 4    1  0.9925048E-003  0.9118800E+02  0.7818608E-02  0.1130116E+00
         25   -1    0    0    0    0  0.00000000000E+00  0.00000000000E+00  0.99999998245E-14  0.12500000000E+03  0.12500000000E+03 0.  0.
        -13    1    1    0    0    0  0.56735248473E+01 -0.28372957513E+02  0.45477364948E+02  0.53901906171E+02  0.10566000000E+00 0.  1.
         13    1    1    0    0    0  0.19776935257E+01 -0.40526697512E+01  0.73610790474E+01  0.86331948067E+01  0.10566000000E+00 0. -1.
         22    1    1    0    0    0 -0.76512183731E+01  0.32425627264E+02 -0.52838443995E+02  0.62464899022E+02  0.00000000000E+00 0.  1.
</event>
<event>
 4    1  0.9925048E-003  0.9118800E+02  0.7818608E-02  0.1130116E+00
         25   -1    0    0    0    0  0.00000000000E+00  0.00000000000E+00  0.99999998245E-14  0.12500000000E+03  0.12500000000E+03 0.  0.
        -13    1    1    0    0    0  0.10734809207E+02  0.19520344960E+01  0.71240094297E+01  0.13031087513E+02  0.10566000000E+00 0. -1.
         13    1    1    0    0    0  0.39750617070E+02  0.64708026879E+01  0.28735006223E+02  0.49474181060E+02  0.10566000000E+00 0.  1.
         22    1    1    0    0    0 -0.50485426277E+02 -0.84228371839E+01 -0.35859015653E+02  0.62494731427E+02  0.00000000000E+00 0.  1.
</event>
<event>
 4    1  0.9925048E-003  0.9118800E+02  0.7818608E-02  0.1130116E+00
         25   -1    0    0    0    0  0.00000000000E+00  0.00000000000E+00  0.99999998245E-14  0.12500000000E+03  0.12500000000E+03 0.  0.
        -13    1    1    0    0    0 -0.11069851641E+02  0.11452432772E+02 -0.11743618473E+02  0.19789481313E+02  0.10566000000E+00 0.  1.
         13    1    1    0    0    0 -0.23057786839E+02  0.25282945637E+02 -0.25563141482E+02  0.42712694138E+02  0.10566000000E+00 0. -1.
         22    1    1    0    0    0  0.34127638481E+02 -0.36735378408E+02  0.37306759955E+02  0.62497824550E+02  0.00000000000E+00 0. -1.
</event>
<event>
 4    1  0.9925048E-003  0.9118800E+02  0.7818608E-02  0.1130116E+00
         25   -1    0    0    0    0  0.00000000000E+00  0.00000000000E+00  0.99999998245E-14  0.12500000000E+03  0.12500000000E+03 0.  0.
        -13    1    1    0    0    0 -0.27856202580E+01  0.18371693559E+01  0.29628268176E+01  0.44636731792E+01  0.10566000000E+00 0.  1.
         13    1    1    0    0    0 -0.40210896746E+02  0.12691435354E+02  0.39942612062E+02  0.58081082728E+02  0.10566000000E+00 0. -1.
         22    1    1    0    0    0  0.42996517004E+02 -0.14528604710E+02 -0.42905438879E+02  0.62455244093E+02  0.00000000000E+00 0. -1.
</event>
<event>
 4    1  0.9925048E-003  0.9118800E+02  0.7818608E-02  0.1130116E+00
         25   -1    0    0    0    0  0.00000000000E+00  0.00000000000E+00  0.99999998245E-14  0.12500000000E+03  0.12500000000E+03 0.  0.
        -13    1    1    0    0    0  0.20734624829E+02  0.29528367738E+02  0.35797494593E+02  0.50826380466E+02  0.10566000000E+00 0. -1.
         13    1    1    0    0    0  0.73965572731E+01  0.76707066335E+01  0.53988500529E+01  0.11946026355E+02  0.10566000000E+00 0.  1.
         22    1    1    0    0    0 -0.28131182102E+02 -0.37199074372E+02 -0.41196344646E+02  0.62227593179E+02  0.00000000000E+00 0. -1.
</event>
<event>
 4    1  0.9925048E-003  0.9118800E+02  0.7818608E-02  0.1130116E+00
         25   -1    0    0    0    0  0.00000000000E+00  0.00000000000E+00  0.99999998245E-14  0.12500000000E+03  0.12500000000E+03 0.  0.
        -13    1    1    0    0    0  0.55426947214E+02 -0.10150265289E+02 -0.19365483975E+01  0.56382051635E+02  0.10566000000E+00 0.  1.
         13    1    1    0    0    0  0.60175793378E+01 -0.98164749283E+00 -0.55691595866E+00  0.61234150854E+01  0.10566000000E+00 0. -1.
         22    1    1    0    0    0 -0.61444526552E+02  0.11131912781E+02  0.24934643562E+01  0.62494533279E+02  0.00000000000E+00 0.  1.
</event>
<event>
 4    1  0.9925048E-003  0.9118800E+02  0.7818608E-02  0.1130116E+00
         25   -1    0    0    0    0  0.00000000000E+00  0.00000000000E+00  0.99999998245E-14  0.12500000000E+03  0.12500000000E+03 0.  0.
        -13    1    1    0    0    0  0.39448717108E+00  0.11467833258E+02  0.25023299862E+01  0.11744770716E+02  0.10566000000E+00 0. -1.
         13    1    1    0    0    0  0.22942353010E+02  0.19357557767E+02 -0.46082350550E+02  0.54996916282E+02  0.10566000000E+00 0.  1.
         22    1    1    0    0    0 -0.23336840181E+02 -0.30825391025E+02  0.43580020564E+02  0.58258313002E+02  0.00000000000E+00 0.  1.
</event>
<event>
 4    1  0.9925048E-003  0.9118800E+02  0.7818608E-02  0.1130116E+00
         25   -1    0    0    0    0  0.00000000000E+00  0.00000000000E+00  0.99999998245E-14  0.12500000000E+03  0.12500000000E+03 0.  0.
        -13    1    1    0    0    0  0.60258775732E+01  0.32309210632E+02  0.13587113931E+02  0.35564267477E+02  0.10566000000E+00 0. -1.
         13    1    1    0    0    0  0.40303357902E+01  0.24350850887E+02  0.10792662465E+02  0.26938824634E+02  0.10566000000E+00 0.  1.
         22    1    1    0    0    0 -0.10056213363E+02 -0.56660061519E+02 -0.24379776396E+02  0.62496907889E+02  0.00000000000E+00 0. -1.
</event>
<event>
 4    1  0.9925048E-003  0.9118800E+02  0.7818608E-02  0.1130116E+00
         25   -1    0    0    0    0  0.00000000000E+00  0.00000000000E+00  0.99999998245E-14  0.12500000000E+03  0.12500000000E+03 0.  0.
        -13    1    1    0    0    0 -0.36225219856E+02 -0.25057730859E+02  0.51303901160E+01  0.44345106790E+02  0.10566000000E+00 0. -1.
         13    1    1    0    0    0 -0.14861966468E+02 -0.10187163724E+02  0.22244369078E+01  0.18155319762E+02  0.10566000000E+00 0. -1.
         22    1    1    0    0    0  0.51087186324E+02  0.35244894583E+02 -0.73548270237E+01  0.62499573449E+02  0.00000000000E+00 0. -1.
</event>
<event>
 4    1  0.9925048E-003  0.9118800E+02  0.7818608E-02  0.1130116E+00
         25   -1    0    0    0    0  0.00000000000E+00  0.00000000000E+00  0.99999998245E-14  0.12500000000E+03  0.12500000000E+03 0.  0.
        -13    1    1    0    0    0  0.31121036669E+01  0.23530042578E+02 -0.25360248642E+02  0.34734730000E+02  0.10566000000E+00 0.  1.
         13    1    1    0    0    0  0.34566951774E+02  0.77100183367E+01  0.20884639916E+02  0.41115664729E+02  0.10566000000E+00 0. -1.
         22    1    1    0    0    0 -0.37679055440E+02 -0.31240060915E+02  0.44756087252E+01  0.49149605271E+02  0.00000000000E+00 0. -1.
</event>
<event>
 4    1  0.9925048E-003  0.9118800E+02  0.7818608E-02  0.1130116E+00
         25   -1    0    0    0    0  0.00000000000E+00  0.00000000000E+00  0.99999998245E-14  0.12500000000E+03  0.12500000000E+03 0.  0.
        -13    1    1    0    0    0  0.42890760347E+01 -0.50866050338E+02  0.11460198781E+02  0.52317287491E+02  0.10566000000E+00 0.  1.
         13    1    1    0    0    0  0.65289378807E+00 -0.97273166103E+01  0.29832497791E+01  0.10195974795E+02  0.10566000000E+00 0. -1.
         22    1    1    0    0    0 -0.49419698227E+01  0.60593366949E+02 -0.14443448560E+02  0.62486737715E+02  0.00000000000E+00 0.  1.
</event>
<event>
 4    1  0.9925048E-003  0.9118800E+02  0.7818608E-02  0.1130116E+00
         25   -1    0    0    0    0  0.00000000000E+00  0.00000000000E+00  0.99999998245E-14  0.12500000000E+03  0.12500000000E+03 0.  0.
        -13    1    1    0    0    0  0.13953732185E+02 -0.30527374365E+02 -0.36524645952E+02  0.49605323842E+02  0.10566000000E+00 0. -1.
         13    1    1    0    0    0  0.23825119024E+01 -0.68371795422E+01 -0.10750217569E+02  0.12961548089E+02  0.10566000000E+00 0.  1.
         22    1    1    0    0    0 -0.16336244088E+02  0.37364553907E+02  0.47274863521E+02  0.62433128069E+02  0.00000000000E+00 0. -1.
</event>
<event>
 4    1  0.9925048E-003  0.9118800E+02  0.7818608E-02  0.1130116E+00
         25   -1    0    0    0    0  0.00000000000E+00  0.00000000000E+00  0.99999998245E-14  0.12500000000E+03  0.12500000000E+03 0.  0.
        -13    1    1    0    0    0 -0.85808801263E+01  0.11056210435E+02 -0.50314200394E+00  0.14004842335E+02  0.10566000000E+00 0.  1.
         13    1    1    0    0    0 -0.29574093134E+02  0.38387239739E+02 -0.18954906062E+01  0.48495476162E+02  0.10566000000E+00 0.  1.
         22    1    1    0    0    0  0.38154973260E+02 -0.49443450174E+02  0.23986326102E+01  0.62499681503E+02  0.00000000000E+00 0.  1.
</event>
<event>
 4    1  0.9925048E-003  0.9118800E+02  0.7818608E-02  0.1130116E+00
         25   -1    0    0    0    0  0.00000000000E+00  0.00000000000E+00  0.99999998245E-14  0.12500000000E+03  0.12500000000E+03 0.  0.
        -13    1    1    0    0    0  0.55241583677E+01  0.27237395032E+01  0.10343769118E+01  0.62462934756E+01  0.10566000000E+00 0.  1.
         13    1    1    0    0    0  0.49360803165E+02  0.25687007160E+02  0.82669461865E+01  0.56255353427E+02  0.10566000000E+00 0.  1.
         22    1    1    0    0    0 -0.54884961533E+02 -0.28410746664E+02 -0.93013230982E+01  0.62498353097E+02  0.00000000000E+00 0.  1.
</event>
<event>
 4    1  0.9925048E-003  0.9118800E+02  0.7818608E-02  0.1130116E+00
         25   -1    0    0    0    0  0.00000000000E+00  0.00000000000E+00  0.99999998245E-14  0.12500000000E+03  0.12500000000E+03 0.  0.
        -13    1    1    0    0    0 -0.92914009974E+01 -0.26346697680E+01 -0.88541922016E+01  0.13102652436E+02  0.10566000000E+00 0. -1.
         13    1    1    0    0    0 -0.35253182556E+02 -0.99486396490E+01 -0.33141550764E+02  0.49397731348E+02  0.10566000000E+00 0. -1.
         22    1    1    0    0    0  0.44544583554E+02  0.12583309417E+02  0.41995742966E+02  0.62499616216E+02  0.00000000000E+00 0. -1.
</event>
<event>
 4    1  0.9925048E-003  0.9118800E+02  0.7818608E-02  0.1130116E+00
         25   -1    0    0    0    0  0.00000000000E+00  0.00000000000E+00  0.99999998245E-14  0.12500000000E+03  0.12500000000E+03 0.  0.
        -13    1    1    0    0    0 -0.10827015669E+02  0.21747807940E+01  0.19198820970E+02  0.22148585293E+02  0.10566000000E+00 0. -1.
         13    1    1    0    0    0 -0.35012394498E+02 -0.22311065046E+02  0.12784124975E+02  0.43440722915E+02  0.10566000000E+00 0.  1.
         22    1    1    0    0    0  0.45839410166E+02  0.20136284252E+02 -0.31982945945E+02  0.59410691792E+02  0.00000000000E+00 0.  1.
</event>
<event>
 4    1  0.9925048E-003  0.9118800E+02  0.7818608E-02  0.1130116E+00
         25   -1    0    0    0    0  0.00000000000E+00  0.00000000000E+00  0.99999998245E-14  0.12500000000E+03  0.12500000000E+03 0.  0.
        -13    1    1    0    0    0 -0.32264241942E+02  0.25517462485E+02 -0.63532130298E+01  0.41623270890E+02  0.10566000000E+00 0. -1.
         13    1    1    0    0    0 -0.14665759438E+02  0.14633241978E+02 -0.29207145951E+01  0.20922667336E+02  0.10566000000E+00 0.  1.
         22    1    1    0    0    0  0.46930001380E+02 -0.40150704463E+02  0.92739276249E+01  0.62454061773E+02  0.00000000000E+00 0. -1.
</event>
<event>
 4    1  0.9925048E-003  0.9118800E+02  0.7818608E-02  0.1130116E+00
         25   -1    0    0    0    0  0.00000000000E+00  0.00000000000E+00  0.99999998245E-14  0.12500000000E+03  0.12500000000E+03 0.  0.
        -13    1    1    0    0    0 -0.22897797063E+01 -0.66313241705E+00  0.88154329318E+01  0.91326807410E+01  0.10566000000E+00 0. -1.
         13    1    1    0    0    0 -0.43110788094E+02  0.26069187562E+02  0.22465080412E+02  0.55161885321E+02  0.10566000000E+00 0.  1.
         22    1    1    0    0    0  0.45400567800E+02 -0.25406055145E+02 -0.31280513344E+02  0.60705433938E+02  0.00000000000E+00 0.  1.
</event>
<event>
 4    1  0.9925048E-003  0.9118800E+02  0.7818608E-02  0.1130116E+00
         25   -1    0    0    0    0  0.00000000000E+00  0.00000000000E+00  0.99999998245E-14  0.12500000000E+03  0.12500000000E+03 0.  0.
        -13    1    1    0    0    0  0.32608270158E+02  0.89887235837E+01  0.51930356618E+00  0.33828645769E+02  0.10566000000E+00 0.  1.
         13    1    1    0    0    0  0.28041761970E+02  0.60213831884E+01 -0.75450336888E+00  0.28691077172E+02  0.10566000000E+00 0. -1.
         22    1    1    0    0    0 -0.60650032128E+02 -0.15010106772E+02  0.23519980270E+00  0.62480277059E+02  0.00000000000E+00 0.  1.
</event>
<event>
 4    1  0.9925048E-003  0.9118800E+02  0.7818608E-02  0.1130116E+00
         25   -1    0    0    0    0  0.00000000000E+00  0.00000000000E+00  0.99999998245E-14  0.12500000000E+03  0.12500000000E+03 0.  0.
        -13    1    1    0    0    0 -0.17133537488E+02 -0.12466256365E+02  0.46812513148E+02  0.51384707899E+02  0.10566000000E+00 0. -1.
         13    1    1    0    0    0 -0.37208925346E+01 -0.29554697756E+01  0.10049653840E+02  0.11116948736E+02  0.10566000000E+00 0. -1.
         22    1    1    0    0    0  0.20854430023E+02  0.15421726141E+02 -0.56862166988E+02  0.62498343365E+02  0.00000000000E+00 0. -1.
</event>
<event>
 4    1  0.9925048E-003  0.9118800E+02  0.7818608E-02  0.1130116E+00
         25   -1    0    0    0    0  0.00000000000E+00  0.00000000000E+00  0.99999998245E-14  0.12500000000E+03  0.12500000000E+03 0.  0.
        -13    1    1    0    0    0  0.39326995276E+01 -0.61068926531E+01  0.20469090450E+01  0.75472686533E+01  0.10566000000E+00 0. -1.
         13    1    1    0    0    0  0.33555018057E+02 -0.36909153482E+02  0.23253775625E+02  0.55036116255E+02  0.10566000000E+00 0.  1.
         22    1    1    0    0    0 -0.37487717584E+02  0.43016046135E+02 -0.25300684670E+02  0.62416615092E+02  0.00000000000E+00 0.  1.
</event>
<event>
 4    1  0.9925048E-003  0.9118800E+02  0.7818608E-02  0.1130116E+00
         25   -1    0    0    0    0  0.00000000000E+00  0.00000000000E+00  0.99999998245E-14  0.12500000000E+03  0.12500000000E+03 0.  0.
        -13    1    1    0    0    0 -0.51452762520E+02 -0.10835534868E+02 -0.91811451787E+01  0.53376962986E+02  0.10566000000E+00 0. -1.
         13    1    1    0    0    0 -0.61656570890E+01 -0.58839616568E+01  0.78889636809E+01  0.11613924578E+02  0.10566000000E+00 0.  1.
         22    1    1    0    0    0  0.57618419609E+02  0.16719496525E+02  0.12921814978E+01  0.60009112435E+02  0.00000000000E+00 0. -1.
</event>
<event>
 4    1  0.9925048E-003  0.9118800E+02  0.7818608E-02  0.1130116E+00
         25   -1    0    0    0    0  0.00000000000E+00  0.00000000000E+00  0.99999998245E-14  0.12500000000E+03  0.12500000000E+03 0.  0.
        -13    1    1    0    0    0 -0.13149328421E+02  0.95742194522E+00  0.26341664214E+02  0.29457018388E+02  0.10566000000E+00 0.  1.
         13    1    1    0    0    0 -0.25986585077E+02  0.25234215222E+02 -0.31716290235E+02  0.48145637935E+02  0.10566000000E+00 0. -1.
         22    1    1    0    0    0  0.39135913498E+02 -0.26191637167E+02  0.53746260211E+01  0.47397343677E+02  0.00000000000E+00 0. -1.
</event>
<event>
 4    1  0.9925048E-003  0.9118800E+02  0.7818608E-02  0.1130116E+00
         25   -1    0    0    0    0  0.00000000000E+00  0.00000000000E+00  0.99999998245E-14  0.12500000000E+03  0.12500000000E+03 0.  0.
        -13    1    1    0    0    0  0.79377321703E-01 -0.15878405555E+01 -0.12681451760E+02  0.12781154923E+02  0.10566000000E+00 0. -1.
         13    1    1    0    0    0 -0.17688675800E+01 -0.19568105893E+02 -0.45890785142E+02  0.49920085995E+02  0.10566000000E+00 0.  1.
         22    1    1    0    0    0  0.16894902583E+01  0.21155946448E+02  0.58572236902E+02  0.62298759082E+02  0.00000000000E+00 0.  1.
</event>
<event>
 4    1  0.9925048E-003  0.9118800E+02  0.7818608E-02  0.1130116E+00
         25   -1    0    0    0    0  0.00000000000E+00  0.00000000000E+00  0.99999998245E-14  0.12500000000E+03  0.12500000000E+03 0.  0.
        -13    1    1    0    0    0 -0.29284515929E+02  0.10858649497E+00  0.24661073918E+02  0.38285433196E+02  0.10566000000E+00 0.  1.
         13    1    1    0    0    0 -0.17099218282E+02  0.43424831669E+01  0.16785781998E+02  0.24351880157E+02  0.10566000000E+00 0. -1.
         22    1    1    0    0    0  0.46383734210E+02 -0.44510696619E+01 -0.41446855916E+02  0.62362686646E+02  0.00000000000E+00 0. -1.
</event>
<event>
 4    1  0.9925048E-003  0.9118800E+02  0.7818608E-02  0.1130116E+00
         25   -1    0    0    0    0  0.00000000000E+00  0.00000000000E+00  0.99999998245E-14  0.12500000000E+03  0.12500000000E+03 0.  0.
        -13    1    1    0    0    0  0.48515165351E+00  0.23041369670E+01 -0.53695802371E+01  0.58641261283E+01  0.10566000000E+00 0. -1.
         13    1    1    0    0    0  0.38594165584E+01  0.27851217875E+02 -0.49182554068E+02  0.56652627671E+02  0.10566000000E+00 0.  1.
         22    1    1    0    0    0 -0.43445682119E+01 -0.30155354842E+02  0.54552134305E+02  0.62483246201E+02  0.00000000000E+00 0.  1.
</event>
<event>
 4    1  0.9925048E-003  0.9118800E+02  0.7818608E-02  0.1130116E+00
         25   -1    0    0    0    0  0.00000000000E+00  0.00000000000E+00  0.99999998245E-14  0.12500000000E+03  0.12500000000E+03 0.  0.
        -13    1    1    0    0    0  0.12424883387E+01  0.65574599115E+01  0.75524521565E+01  0.10079422373E+02  0.10566000000E+00 0.  1.
         13    1    1    0    0    0  0.29801342353E+02  0.43452426240E+02  0.97152061170E+01  0.53578258147E+02  0.10566000000E+00 0. -1.
         22    1    1    0    0    0 -0.31043830692E+02 -0.50009886151E+02 -0.17267658273E+02  0.61342319480E+02  0.00000000000E+00 0. -1.
</event>
<event>
 4    1  0.9925048E-003  0.9118800E+02  0.7818608E-02  0.1130116E+00
         25   -1    0    0    0    0  0.00000000000E+00  0.00000000000E+00  0.99999998245E-14  0.12500000000E+03  0.12500000000E+03 0.  0.
        -13    1    1    0    0    0  0.15135131574E+02 -0.25069998194E+01 -0.44279895387E+01  0.15967952631E+02  0.10566000000E+00 0.  1.
         13    1    1    0    0    0 -0.18855882764E+01 -0.15732832451E+02 -0.48756462293E+02  0.51266765447E+02  0.10566000000E+00 0. -1.
         22    1    1    0    0    0 -0.13249543297E+02  0.18239832271E+02  0.53184451831E+02  0.57765281921E+02  0.00000000000E+00 0. -1.
</event>
<event>
 4    1  0.9925048E-003  0.9118800E+02  0.7818608E-02  0.1130116E+00
         25   -1    0    0    0    0  0.00000000000E+00  0.00000000000E+00  0.99999998245E-14  0.12500000000E+03  0.12500000000E+03 0.  0.
        -13    1    1    0    0    0  0.25092403155E+02  0.12369400789E+02  0.36996048989E+02  0.46382643055E+02  0.10566000000E+00 0. -1.
         13    1    1    0    0    0  0.55756680344E+01  0.48002295298E+01  0.14505860425E+02  0.16265344394E+02  0.10566000000E+00 0.  1.
         22    1    1    0    0    0 -0.30668071189E+02 -0.17169630319E+02 -0.51501909414E+02  0.62352012550E+02  0.00000000000E+00 0. -1.
</event>
<event>
 4    1  0.9925048E-003  0.9118800E+02  0.7818608E-02  0.1130116E+00
         25   -1    0    0    0    0  0.00000000000E+00  0.00000000000E+00  0.99999998245E-14  0.12500000000E+03  0.12500000000E+03 0.  0.
        -13    1    1    0    0    0  0.86928580645E+01  0.22905567199E+02  0.39711154095E+01  0.24819583230E+02  0.10566000000E+00 0.  1.
         13    1    1    0    0    0  0.14222698612E+02  0.34742046211E+02  0.34687777006E+01  0.37700643410E+02  0.10566000000E+00 0. -1.
         22    1    1    0    0    0 -0.22915556677E+02 -0.57647613410E+02 -0.74398931100E+01  0.62479773361E+02  0.00000000000E+00 0. -1.
</event>
<event>
 4    1  0.9925048E-003  0.9118800E+02  0.7818608E-02  0.1130116E+00
         25   -1    0    0    0    0  0.00000000000E+00  0.00000000000E+00  0.99999998245E-14  0.12500000000E+03  0.12500000000E+03 0.  0.
        -13    1    1    0    0    0  0.53993189630E+02  0.47653190157E+01 -0.26461347311E+02  0.60317384370E+02  0.10566000000E+00 0.  1.
         13    1    1    0    0    0 -0.15762732209E+01  0.32475374535E+01  0.75784243885E+01  0.83949280537E+01  0.10566000000E+00 0. -1.
         22    1    1    0    0    0 -0.52416916409E+02 -0.80128564693E+01  0.18882922923E+02  0.56287687576E+02  0.00000000000E+00 0.  1.
</event>
<event>
 4    1  0.9925048E-003  0.9118800E+02  0.7818608E-02  0.1130116E+00
         25   -1    0    0    0    0  0.00000000000E+00  0.00000000000E+00  0.99999998245E-14  0.12500000000E+03  0.12500000000E+03 0.  0.
        -13    1    1    0    0    0  0.19352817004E+02 -0.19792687608E+02  0.39046619417E+02  0.47863677885E+02  0.10566000000E+00 0.  1.
         13    1    1    0    0    0  0.50178530896E+01 -0.73599186863E+01  0.11656207927E+02  0.14670569177E+02  0.10566000000E+00 0. -1.
         22    1    1    0    0    0 -0.24370670094E+02  0.27152606294E+02 -0.50702827344E+02  0.62465752938E+02  0.00000000000E+00 0.  1.
</event>
<event>
 4    1  0.9925048E-003  0.9118800E+02  0.7818608E-02  0.1130116E+00
         25   -1    0    0    0    0  0.00000000000E+00  0.00000000000E+00  0.99999998245E-14  0.12500000000E+03  0.12500000000E+03 0.  0.
        -13    1    1    0    0    0  0.17147810965E+02  0.17084430586E+02  0.28207950051E+02  0.37170213874E+02  0.10566000000E+00 0. -1.
         13    1    1    0    0    0  0.31278632553E+02 -0.13157911448E+02 -0.62134718591E+01  0.34497853334E+02  0.10566000000E+00 0.  1.
         22    1    1    0    0    0 -0.48426443518E+02 -0.39265191384E+01 -0.21994478191E+02  0.53331932792E+02  0.00000000000E+00 0. -1.
</event>
<event>
 4    1  0.9925048E-003  0.9118800E+02  0.7818608E-02  0.1130116E+00
         25   -1    0    0    0    0  0.00000000000E+00  0.00000000000E+00  0.99999998245E-14  0.12500000000E+03  0.12500000000E+03 0.  0.
        -13    1    1    0    0    0 -0.95008658532E+00  0.14605202041E+00  0.13675826949E+00  0.97665888218E+00  0.10566000000E+00 0.  1.
         13    1    1    0    0    0 -0.59732330948E+02 -0.95598641825E+01 -0.11490696950E+02  0.61574261215E+02  0.10566000000E+00 0. -1.
         22    1    1    0    0    0  0.60682417534E+02  0.94138121621E+01  0.11353938681E+02  0.62449079903E+02  0.00000000000E+00 0. -1.
</event>
<event>
 4    1  0.9925048E-003  0.9118800E+02  0.7818608E-02  0.1130116E+00
         25   -1    0    0    0    0  0.00000000000E+00  0.00000000000E+00  0.99999998245E-14  0.12500000000E+03  0.12500000000E+03 0.  0.
        -13    1    1    0    0    0 -0.57199999151E+01  0.38688462162E+02  0.18556217504E+02  0.43288103165E+02  0.10566000000E+00 0. -1.
         13    1    1    0    0    0 -0.27646622148E+01  0.17156370053E+02  0.81931599689E+01  0.19212585064E+02  0.10566000000E+00 0. -1.
         22    1    1    0    0    0  0.84846621299E+01 -0.55844832215E+02 -0.26749377473E+02  0.62499311771E+02  0.00000000000E+00 0. -1.
</event>
<event>
 4    1  0.9925048E-003  0.9118800E+02  0.7818608E-02  0.1130116E+00
         25   -1    0    0    0    0  0.00000000000E+00  0.00000000000E+00  0.99999998245E-14  0.12500000000E+03  0.12500000000E+03 0.  0.
        -13    1    1    0    0    0  0.15674803246E+02  0.17001459907E+02 -0.24620277314E+02  0.33777482364E+02  0.10566000000E+00 0.  1.
         13    1    1    0    0    0  0.11103541137E+02  0.16335293651E+02 -0.20908004229E+02  0.28762584191E+02  0.10566000000E+00 0. -1.
         22    1    1    0    0    0 -0.26778344383E+02 -0.33336753559E+02  0.45528281543E+02  0.62459933445E+02  0.00000000000E+00 0. -1.
</event>
<event>
 4    1  0.9925048E-003  0.9118800E+02  0.7818608E-02  0.1130116E+00
         25   -1    0    0    0    0  0.00000000000E+00  0.00000000000E+00  0.99999998245E-14  0.12500000000E+03  0.12500000000E+03 0.  0.
        -13    1    1    0    0    0 -0.10164359620E+02  0.22027286345E+02 -0.64980850038E+01  0.25114773002E+02  0.10566000000E+00 0. -1.
         13    1    1    0    0    0 -0.19116886657E+02  0.29004217738E+02 -0.14182004745E+02  0.37521199670E+02  0.10566000000E+00 0.  1.
         22    1    1    0    0    0  0.29281246277E+02 -0.51031504083E+02  0.20680089748E+02  0.62364027328E+02  0.00000000000E+00 0. -1.
</event>
<event>
 4    1  0.9925048E-003  0.9118800E+02  0.7818608E-02  0.1130116E+00
         25   -1    0    0    0    0  0.00000000000E+00  0.00000000000E+00  0.99999998245E-14  0.12500000000E+03  0.12500000000E+03 0.  0.
        -13    1    1    0    0    0  0.41774596988E+01 -0.51179749763E+01 -0.76937272297E+01  0.10141471299E+02  0.10566000000E+00 0. -1.
         13    1    1    0    0    0  0.48082035207E+02 -0.19532365263E+02 -0.12968584553E+02  0.53493838447E+02  0.10566000000E+00 0.  1.
         22    1    1    0    0    0 -0.52259494906E+02  0.24650340239E+02  0.20662311782E+02  0.61364690254E+02  0.00000000000E+00 0.  1.
</event>
<event>
 4    1  0.9925048E-003  0.9118800E+02  0.7818608E-02  0.1130116E+00
         25   -1    0    0    0    0  0.00000000000E+00  0.00000000000E+00  0.99999998245E-14  0.12500000000E+03  0.12500000000E+03 0.  0.
        -13    1    1    0    0    0 -0.86202662008E+01  0.61281114832E+02  0.37292009963E+01  0.61996791276E+02  0.10566000000E+00 0.  1.
         13    1    1    0    0    0  0.26740350420E+00  0.47307774200E+00 -0.19353080024E+00  0.58645152424E+00  0.10566000000E+00 0. -1.
         22    1    1    0    0    0  0.83528626966E+01 -0.61754192574E+02 -0.35356701960E+01  0.62416757200E+02  0.00000000000E+00 0.  1.
</event>
<event>
 4    1  0.9925048E-003  0.9118800E+02  0.7818608E-02  0.1130116E+00
         25   -1    0    0    0    0  0.00000000000E+00  0.00000000000E+00  0.99999998245E-14  0.12500000000E+03  0.12500000000E+03 0.  0.
        -13    1    1    0    0    0 -0.17904793504E+02  0.45421432832E+02 -0.24554329387E+02  0.54649926318E+02  0.10566000000E+00 0. -1.
         13    1    1    0    0    0 -0.40060343694E+01  0.31924398827E+01 -0.67826029081E+01  0.85002852904E+01  0.10566000000E+00 0.  1.
         22    1    1    0    0    0  0.21910827873E+02 -0.48613872715E+02  0.31336932295E+02  0.61849788391E+02  0.00000000000E+00 0. -1.
</event>
<event>
 4    1  0.9925048E-003  0.9118800E+02  0.7818608E-02  0.1130116E+00
         25   -1    0    0    0    0  0.00000000000E+00  0.00000000000E+00  0.99999998245E-14  0.12500000000E+03  0.12500000000E+03 0.  0.
        -13    1    1    0    0    0 -0.15457286428E+02  0.80876717665E+01  0.11507991062E+01  0.17483524843E+02  0.10566000000E+00 0. -1.
         13    1    1    0    0    0 -0.38508163710E+02  0.69362859228E+01 -0.25214762824E+02  0.46548750392E+02  0.10566000000E+00 0.  1.
         22    1    1    0    0    0  0.53965450138E+02 -0.15023957689E+02  0.24063963718E+02  0.60967724765E+02  0.00000000000E+00 0.  1.
</event>
<event>
 4    1  0.9925048E-003  0.9118800E+02  0.7818608E-02  0.1130116E+00
         25   -1    0    0    0    0  0.00000000000E+00  0.00000000000E+00  0.99999998245E-14  0.12500000000E+03  0.12500000000E+03 0.  0.
        -13    1    1    0    0    0  0.43873460869E+01 -0.82013365013E+01  0.16617692359E+02  0.19043885881E+02  0.10566000000E+00 0. -1.
         13    1    1    0    0    0  0.10322055633E+02 -0.18631037409E+02  0.37878709595E+02  0.43456509203E+02  0.10566000000E+00 0. -1.
         22    1    1    0    0    0 -0.14709401720E+02  0.26832373911E+02 -0.54496401954E+02  0.62499604916E+02  0.00000000000E+00 0. -1.
</event>
<event>
 4    1  0.9925048E-003  0.9118800E+02  0.7818608E-02  0.1130116E+00
         25   -1    0    0    0    0  0.00000000000E+00  0.00000000000E+00  0.99999998245E-14  0.12500000000E+03  0.12500000000E+03 0.  0.
        -13    1    1    0    0    0  0.27073222233E-01 -0.19337630709E+02  0.75174390548E+01  0.20747716702E+02  0.10566000000E+00 0.  1.
         13    1    1    0    0    0 -0.17017257419E+00 -0.38886439720E+02  0.15201449436E+02  0.41752597306E+02  0.10566000000E+00 0.  1.
         22    1    1    0    0    0  0.14309935195E+00  0.58224070429E+02 -0.22718888491E+02  0.62499685991E+02  0.00000000000E+00 0.  1.
</event>
<event>
 4    1  0.9925048E-003  0.9118800E+02  0.7818608E-02  0.1130116E+00
         25   -1    0    0    0    0  0.00000000000E+00  0.00000000000E+00  0.99999998245E-14  0.12500000000E+03  0.12500000000E+03 0.  0.
        -13    1    1    0    0    0  0.17149992191E+02  0.13652335843E+02 -0.33024528589E+01  0.22168127234E+02  0.10566000000E+00 0. -1.
         13    1    1    0    0    0  0.30967395483E+02  0.25175327080E+02 -0.58244089040E+01  0.40332512687E+02  0.10566000000E+00 0.  1.
         22    1    1    0    0    0 -0.48117387674E+02 -0.38827662923E+02  0.91268617629E+01  0.62499360079E+02  0.00000000000E+00 0. -1.
</event>
<event>
 4    1  0.9925048E-003  0.9118800E+02  0.7818608E-02  0.1130116E+00
         25   -1    0    0    0    0  0.00000000000E+00  0.00000000000E+00  0.99999998245E-14  0.12500000000E+03  0.12500000000E+03 0.  0.
        -13    1    1    0    0    0 -0.75983041662E+01 -0.14916952847E+02  0.45486481920E+01  0.17347941459E+02  0.10566000000E+00 0. -1.
         13    1    1    0    0    0 -0.26227330375E+02 -0.34642248243E+02  0.12611607369E+02  0.45244027522E+02  0.10566000000E+00 0.  1.
         22    1    1    0    0    0  0.33825634541E+02  0.49559201091E+02 -0.17160255561E+02  0.62408031019E+02  0.00000000000E+00 0.  1.
</event>
<event>
 4    1  0.9925048E-003  0.9118800E+02  0.7818608E-02  0.1130116E+00
         25   -1    0    0    0    0  0.00000000000E+00  0.00000000000E+00  0.99999998245E-14  0.12500000000E+03  0.12500000000E+03 0.  0.
        -13    1    1    0    0    0 -0.40779419686E+02  0.39748512880E+02 -0.21128524101E+02  0.60739863688E+02  0.10566000000E+00 0.  1.
         13    1    1    0    0    0 -0.40580188591E+00  0.19332018072E+01  0.14299369011E+01  0.24408662345E+01  0.10566000000E+00 0. -1.
         22    1    1    0    0    0  0.41185221572E+02 -0.41681714688E+02  0.19698587200E+02  0.61819270077E+02  0.00000000000E+00 0.  1.
</event>
<event>
 4    1  0.9925048E-003  0.9118800E+02  0.7818608E-02  0.1130116E+00
         25   -1    0    0    0    0  0.00000000000E+00  0.00000000000E+00  0.99999998245E-14  0.12500000000E+03  0.12500000000E+03 0.  0.
        -13    1    1    0    0    0  0.12748715124E+02 -0.16177077436E+02 -0.17773814520E+02  0.27205646810E+02  0.10566000000E+00 0. -1.
         13    1    1    0    0    0  0.16569955856E+02 -0.20878167891E+02 -0.23135162787E+02  0.35294592401E+02  0.10566000000E+00 0. -1.
         22    1    1    0    0    0 -0.29318670980E+02  0.37055245328E+02  0.40908977307E+02  0.62499760789E+02  0.00000000000E+00 0. -1.
</event>
<event>
 4    1  0.9925048E-003  0.9118800E+02  0.7818608E-02  0.1130116E+00
         25   -1    0    0    0    0  0.00000000000E+00  0.00000000000E+00  0.99999998245E-14  0.12500000000E+03  0.12500000000E+03 0.  0.
        -13    1    1    0    0    0 -0.17250078442E+01  0.12153718624E+02  0.82984006429E+01  0.14817663302E+02  0.10566000000E+00 0. -1.
         13    1    1    0    0    0  0.19246785280E+01  0.36886822183E+02  0.30298940409E+02  0.47774250304E+02  0.10566000000E+00 0.  1.
         22    1    1    0    0    0 -0.19967068384E+00 -0.49040540808E+02 -0.38597341052E+02  0.62408086394E+02  0.00000000000E+00 0.  1.
</event>
<event>
 4    1  0.9925048E-003  0.9118800E+02  0.7818608E-02  0.1130116E+00
         25   -1    0    0    0    0  0.00000000000E+00  0.00000000000E+00  0.99999998245E-14  0.12500000000E+03  0.12500000000E+03 0.  0.
        -13    1    1    0    0    0 -0.34379872975E+02 -0.17689169622E+02 -0.10121644893E+02  0.39966751770E+02  0.10566000000E+00 0.  1.
         13    1    1    0    0    0 -0.21556541245E+02 -0.66021639730E+01 -0.27322206396E+01  0.22710113017E+02  0.10566000000E+00 0. -1.
         22    1    1    0    0    0  0.55936414220E+02  0.24291333595E+02  0.12853865533E+02  0.62323135213E+02  0.00000000000E+00 0.  1.
</event>
<event>
 4    1  0.9925048E-003  0.9118800E+02  0.7818608E-02  0.1130116E+00
         25   -1    0    0    0    0  0.00000000000E+00  0.00000000000E+00  0.99999998245E-14  0.12500000000E+03  0.12500000000E+03 0.  0.
        -13    1    1    0    0    0 -0.14386457476E+02 -0.33510734583E+02 -0.37364119164E+02  0.52211378606E+02  0.10566000000E+00 0. -1.
         13    1    1    0    0    0 -0.33434577319E+01 -0.65296387616E+01 -0.72218398172E+01  0.10294708658E+02  0.10566000000E+00 0.  1.
         22    1    1    0    0    0  0.17729915208E+02  0.40040373345E+02  0.44585958981E+02  0.62493912737E+02  0.00000000000E+00 0.  1.
</event>
<event>
 4    1  0.9925048E-003  0.9118800E+02  0.7818608E-02  0.1130116E+00
         25   -1    0    0    0    0  0.00000000000E+00  0.00000000000E+00  0.99999998245E-14  0.12500000000E+03  0.12500000000E+03 0.  0.
        -13    1    1    0    0    0  0.28013842236E+02  0.38426105288E+02 -0.30843522476E+02  0.56680463718E+02  0.10566000000E+00 0. -1.
         13    1    1    0    0    0  0.31965749149E+01  0.42333374417E+01 -0.24568026684E+01  0.58469034941E+01  0.10566000000E+00 0.  1.
         22    1    1    0    0    0 -0.31210417151E+02 -0.42659442730E+02  0.33300325145E+02  0.62472632788E+02  0.00000000000E+00 0. -1.
</event>
<event>
 4    1  0.9925048E-003  0.9118800E+02  0.7818608E-02  0.1130116E+00
         25   -1    0    0    0    0  0.00000000000E+00  0.00000000000E+00  0.99999998245E-14  0.12500000000E+03  0.12500000000E+03 0.  0.
        -13    1    1    0    0    0  0.68254770666E+01  0.25409033401E+02 -0.84969744142E+01  0.27648071430E+02  0.10566000000E+00 0. -1.
         13    1    1    0    0    0  0.73240578956E+01  0.31538520399E+02 -0.12956449979E+02  0.34874071359E+02  0.10566000000E+00 0.  1.
         22    1    1    0    0    0 -0.14149534962E+02 -0.56947553800E+02  0.21453424394E+02  0.62477857211E+02  0.00000000000E+00 0.  1.
</event>
<event>
 4    1  0.9925048E-003  0.9118800E+02  0.7818608E-02  0.1130116E+00
         25   -1    0    0    0    0  0.00000000000E+00  0.00000000000E+00  0.99999998245E-14  0.12500000000E+03  0.12500000000E+03 0.  0.
        -13    1    1    0    0    0 -0.17370937337E+02 -0.21485026385E+02  0.29858808983E+01  0.27789970700E+02  0.10566000000E+00 0.  1.
         13    1    1    0    0    0 -0.11765310316E+02  0.43029739353E+02  0.25260556269E+02  0.51264879427E+02  0.10566000000E+00 0. -1.
         22    1    1    0    0    0  0.29136247653E+02 -0.21544712969E+02 -0.28246437167E+02  0.45945149873E+02  0.00000000000E+00 0. -1.
</event>
<event>
 4    1  0.9925048E-003  0.9118800E+02  0.7818608E-02  0.1130116E+00
         25   -1    0    0    0    0  0.00000000000E+00  0.00000000000E+00  0.99999998245E-14  0.12500000000E+03  0.12500000000E+03 0.  0.
        -13    1    1    0    0    0 -0.19153731378E+02 -0.36492226357E+02 -0.29014987445E+02  0.50402665313E+02  0.10566000000E+00 0. -1.
         13    1    1    0    0    0 -0.77466995658E+01 -0.11252053771E+02  0.84573255813E+01  0.16067283164E+02  0.10566000000E+00 0.  1.
         22    1    1    0    0    0  0.26900430944E+02  0.47744280129E+02  0.20557661864E+02  0.58530051523E+02  0.00000000000E+00 0. -1.
</event>
<event>
 4    1  0.9925048E-003  0.9118800E+02  0.7818608E-02  0.1130116E+00
         25   -1    0    0    0    0  0.00000000000E+00  0.00000000000E+00  0.99999998245E-14  0.12500000000E+03  0.12500000000E+03 0.  0.
        -13    1    1    0    0    0 -0.13450090379E+01 -0.20042775783E+01 -0.37462748376E+01  0.44577928526E+01  0.10566000000E+00 0.  1.
         13    1    1    0    0    0 -0.18380287563E+02 -0.24240288623E+02 -0.49433828653E+02  0.58044303276E+02  0.10566000000E+00 0.  1.
         22    1    1    0    0    0  0.19725296600E+02  0.26244566201E+02  0.53180103491E+02  0.62497903872E+02  0.00000000000E+00 0.  1.
</event>
<event>
 4    1  0.9925048E-003  0.9118800E+02  0.7818608E-02  0.1130116E+00
         25   -1    0    0    0    0  0.00000000000E+00  0.00000000000E+00  0.99999998245E-14  0.12500000000E+03  0.12500000000E+03 0.  0.
        -13    1    1    0    0    0  0.44237464614E+00  0.15227215942E+01  0.14773293431E+01  0.21698023883E+01  0.10566000000E+00 0.  1.
         13    1    1    0    0    0  0.15816975858E+02  0.50616454647E+02  0.28838949756E+02  0.60364711491E+02  0.10566000000E+00 0. -1.
         22    1    1    0    0    0 -0.16259350504E+02 -0.52139176241E+02 -0.30316279099E+02  0.62465486121E+02  0.00000000000E+00 0. -1.
</event>
<event>
 4    1  0.9925048E-003  0.9118800E+02  0.7818608E-02  0.1130116E+00
         25   -1    0    0    0    0  0.00000000000E+00  0.00000000000E+00  0.99999998245E-14  0.12500000000E+03  0.12500000000E+03 0.  0.
        -13    1    1    0    0    0  0.65981157908E+00  0.11723049661E+01 -0.92685016143E+00  0.16370294777E+01  0.10566000000E+00 0. -1.
         13    1    1    0    0    0  0.98891753878E+01  0.53246991558E+02 -0.27857991523E+02  0.60902518467E+02  0.10566000000E+00 0.  1.
         22    1    1    0    0    0 -0.10548986967E+02 -0.54419296524E+02  0.28784841684E+02  0.62460452056E+02  0.00000000000E+00 0.  1.
</event>
<event>
 4    1  0.9925048E-003  0.9118800E+02  0.7818608E-02  0.1130116E+00
         25   -1    0    0    0    0  0.00000000000E+00  0.00000000000E+00  0.99999998245E-14  0.12500000000E+03  0.12500000000E+03 0.  0.
        -13    1    1    0    0    0  0.11703265021E+02  0.38160602622E+02 -0.11807870770E+02  0.41624932202E+02  0.10566000000E+00 0.  1.
         13    1    1    0    0    0  0.63598014720E+01  0.19159969684E+02 -0.53301957179E+01  0.20879982363E+02  0.10566000000E+00 0. -1.
         22    1    1    0    0    0 -0.18063066493E+02 -0.57320572306E+02  0.17138066488E+02  0.62495085435E+02  0.00000000000E+00 0.  1.
</event>
<event>
 4    1  0.9925048E-003  0.9118800E+02  0.7818608E-02  0.1130116E+00
         25   -1    0    0    0    0  0.00000000000E+00  0.00000000000E+00  0.99999998245E-14  0.12500000000E+03  0.12500000000E+03 0.  0.
        -13    1    1    0    0    0 -0.68218034635E+01 -0.21714440493E+01  0.96147110465E+00  0.72241098050E+01  0.10566000000E+00 0. -1.
         13    1    1    0    0    0 -0.28630532940E+02  0.27439356775E+02  0.41190566059E+02  0.57177789507E+02  0.10566000000E+00 0.  1.
         22    1    1    0    0    0  0.35452336404E+02 -0.25267912725E+02 -0.42152037163E+02  0.60598100688E+02  0.00000000000E+00 0.  1.
</event>
<event>
 4    1  0.9925048E-003  0.9118800E+02  0.7818608E-02  0.1130116E+00
         25   -1    0    0    0    0  0.00000000000E+00  0.00000000000E+00  0.99999998245E-14  0.12500000000E+03  0.12500000000E+03 0.  0.
        -13    1    1    0    0    0  0.79142628153E+01  0.57948212621E+01 -0.67034256050E+01  0.11881186315E+02  0.10566000000E+00 0. -1.
         13    1    1    0    0    0  0.33184111147E+02  0.25078708007E+02 -0.28847966455E+02  0.50619592655E+02  0.10566000000E+00 0. -1.
         22    1    1    0    0    0 -0.41098373962E+02 -0.30873529269E+02  0.35551392061E+02  0.62499221030E+02  0.00000000000E+00 0. -1.
</event>
<event>
 4    1  0.9925048E-003  0.9118800E+02  0.7818608E-02  0.1130116E+00
         25   -1    0    0    0    0  0.00000000000E+00  0.00000000000E+00  0.99999998245E-14  0.12500000000E+03  0.12500000000E+03 0.  0.
        -13    1    1    0    0    0 -0.10355679516E+02 -0.67105748066E+01  0.40583275219E+02  0.42417983261E+02  0.10566000000E+00 0. -1.
         13    1    1    0    0    0 -0.25071490842E+01 -0.28336796332E+01  0.19775370643E+02  0.20134348386E+02  0.10566000000E+00 0.  1.
         22    1    1    0    0    0  0.12862828600E+02  0.95442544398E+01 -0.60358645862E+02  0.62447668353E+02  0.00000000000E+00 0. -1.
</event>
<event>
 4    1  0.9925048E-003  0.9118800E+02  0.7818608E-02  0.1130116E+00
         25   -1    0    0    0    0  0.00000000000E+00  0.00000000000E+00  0.99999998245E-14  0.12500000000E+03  0.12500000000E+03 0.  0.
        -13    1    1    0    0    0  0.21422076337E+02  0.97127249656E+01  0.39511445013E+02  0.45982690568E+02  0.10566000000E+00 0.  1.
         13    1    1    0    0    0  0.10308842652E+02  0.74128016738E+01  0.11106565173E+02  0.16869760504E+02  0.10566000000E+00 0. -1.
         22    1    1    0    0    0 -0.31730918989E+02 -0.17125526639E+02 -0.50618010186E+02  0.62147548928E+02  0.00000000000E+00 0.  1.
</event>
<event>
 4    1  0.9925048E-003  0.9118800E+02  0.7818608E-02  0.1130116E+00
         25   -1    0    0    0    0  0.00000000000E+00  0.00000000000E+00  0.99999998245E-14  0.12500000000E+03  0.12500000000E+03 0.  0.
        -13    1    1    0    0    0  0.45384753741E+01 -0.18019940875E+02 -0.11186875925E+02  0.21690398449E+02  0.10566000000E+00 0.  1.
         13    1    1    0    0    0  0.28643446925E+02 -0.20070206329E+02 -0.23405536694E+02  0.42084326605E+02  0.10566000000E+00 0. -1.
         22    1    1    0    0    0 -0.33181922299E+02  0.38090147204E+02  0.34592412619E+02  0.61225274946E+02  0.00000000000E+00 0. -1.
</event>
<event>
 4    1  0.9925048E-003  0.9118800E+02  0.7818608E-02  0.1130116E+00
         25   -1    0    0    0    0  0.00000000000E+00  0.00000000000E+00  0.99999998245E-14  0.12500000000E+03  0.12500000000E+03 0.  0.
        -13    1    1    0    0    0 -0.36202359457E+02 -0.50444141214E+01 -0.78569559197E+01  0.37387161760E+02  0.10566000000E+00 0. -1.
         13    1    1    0    0    0 -0.24419745252E+02 -0.31805758998E+01 -0.49260330981E+01  0.25114079464E+02  0.10566000000E+00 0. -1.
         22    1    1    0    0    0  0.60622104709E+02  0.82249900212E+01  0.12782989018E+02  0.62498758776E+02  0.00000000000E+00 0. -1.
</event>
<event>
 4    1  0.9925048E-003  0.9118800E+02  0.7818608E-02  0.1130116E+00
         25   -1    0    0    0    0  0.00000000000E+00  0.00000000000E+00  0.99999998245E-14  0.12500000000E+03  0.12500000000E+03 0.  0.
        -13    1    1    0    0    0 -0.20128509063E+02 -0.39384921963E+02 -0.42310336796E+01  0.44432440459E+02  0.10566000000E+00 0. -1.
         13    1    1    0    0    0 -0.84375018642E+01 -0.15934699738E+02  0.31130206588E+01  0.18297763664E+02  0.10566000000E+00 0.  1.
         22    1    1    0    0    0  0.28566010927E+02  0.55319621701E+02  0.11180130208E+01  0.62269795877E+02  0.00000000000E+00 0. -1.
</event>
<event>
 4    1  0.9925048E-003  0.9118800E+02  0.7818608E-02  0.1130116E+00
         25   -1    0    0    0    0  0.00000000000E+00  0.00000000000E+00  0.99999998245E-14  0.12500000000E+03  0.12500000000E+03 0.  0.
        -13    1    1    0    0    0  0.25383708047E+02  0.16128832133E+02  0.19859293723E+01  0.30140121760E+02  0.10566000000E+00 0.  1.
         13    1    1    0    0    0  0.30412114475E+02  0.86601210374E+01  0.88831659990E+01  0.32845337651E+02  0.10566000000E+00 0. -1.
         22    1    1    0    0    0 -0.55795822522E+02 -0.24788953171E+02 -0.10869095371E+02  0.62014540589E+02  0.00000000000E+00 0.  1.
</event>
<event>
 4    1  0.9925048E-003  0.9118800E+02  0.7818608E-02  0.1130116E+00
         25   -1    0    0    0    0  0.00000000000E+00  0.00000000000E+00  0.99999998245E-14  0.12500000000E+03  0.12500000000E+03 0.  0.
        -13    1    1    0    0    0  0.16819126075E+02  0.40875554099E+02  0.41896811404E+02  0.60901953127E+02  0.10566000000E+00 0. -1.
         13    1    1    0    0    0  0.83738438315E+00  0.14891429035E+01  0.31606131422E+00  0.17406372345E+01  0.10566000000E+00 0.  1.
         22    1    1    0    0    0 -0.17656510458E+02 -0.42364697003E+02 -0.42212872718E+02  0.62357409638E+02  0.00000000000E+00 0. -1.
</event>
<event>
 4    1  0.9925048E-003  0.9118800E+02  0.7818608E-02  0.1130116E+00
         25   -1    0    0    0    0  0.00000000000E+00  0.00000000000E+00  0.99999998245E-14  0.12500000000E+03  0.12500000000E+03 0.  0.
        -13    1    1    0    0    0  0.37636589703E+01  0.27304593822E+02  0.32562609464E+02  0.42661934693E+02  0.10566000000E+00 0. -1.
         13    1    1    0    0    0 -0.32814057621E+01  0.17016564783E+02  0.10727079482E+02  0.20381670663E+02  0.10566000000E+00 0.  1.
         22    1    1    0    0    0 -0.48225320818E+00 -0.44321158605E+02 -0.43289688946E+02  0.61956394644E+02  0.00000000000E+00 0. -1.
</event>
<event>
 4    1  0.9925048E-003  0.9118800E+02  0.7818608E-02  0.1130116E+00
         25   -1    0    0    0    0  0.00000000000E+00  0.00000000000E+00  0.99999998245E-14  0.12500000000E+03  0.12500000000E+03 0.  0.
        -13    1    1    0    0    0 -0.10864658159E+02 -0.19244684666E+01  0.33761277936E+02  0.35518719399E+02  0.10566000000E+00 0.  1.
         13    1    1    0    0    0 -0.76458214848E+01 -0.53934342792E+01  0.25396066229E+02  0.27065089385E+02  0.10566000000E+00 0. -1.
         22    1    1    0    0    0  0.18510479644E+02  0.73179027458E+01 -0.59157344165E+02  0.62416191216E+02  0.00000000000E+00 0.  1.
</event>
<event>
 4    1  0.9925048E-003  0.9118800E+02  0.7818608E-02  0.1130116E+00
         25   -1    0    0    0    0  0.00000000000E+00  0.00000000000E+00  0.99999998245E-14  0.12500000000E+03  0.12500000000E+03 0.  0.
        -13    1    1    0    0    0  0.14198906672E+01  0.21007472268E+02 -0.18080144781E+01  0.21133150759E+02  0.10566000000E+00 0.  1.
         13    1    1    0    0    0  0.23040490683E+01  0.41156806215E+02 -0.34740965878E+01  0.41367521694E+02  0.10566000000E+00 0. -1.
         22    1    1    0    0    0 -0.37239397356E+01 -0.62164278484E+02  0.52821110659E+01  0.62499327547E+02  0.00000000000E+00 0.  1.
</event>
<event>
 4    1  0.9925048E-003  0.9118800E+02  0.7818608E-02  0.1130116E+00
         25   -1    0    0    0    0  0.00000000000E+00  0.00000000000E+00  0.99999998245E-14  0.12500000000E+03  0.12500000000E+03 0.  0.
        -13    1    1    0    0    0  0.15701187912E+02  0.38197338643E+02  0.49854711928E+00  0.41301618546E+02  0.10566000000E+00 0.  1.
         13    1    1    0    0    0  0.81031590775E+01  0.19589288132E+02 -0.10484375607E+00  0.21199612091E+02  0.10566000000E+00 0. -1.
         22    1    1    0    0    0 -0.23804346989E+02 -0.57786626775E+02 -0.39370336321E+00  0.62498769363E+02  0.00000000000E+00 0.  1.
</event>
<event>
 4    1  0.9925048E-003  0.9118800E+02  0.7818608E-02  0.1130116E+00
         25   -1    0    0    0    0  0.00000000000E+00  0.00000000000E+00  0.99999998245E-14  0.12500000000E+03  0.12500000000E+03 0.  0.
        -13    1    1    0    0    0 -0.27856628427E+02 -0.22676732523E+02 -0.30786657695E+02  0.47308090231E+02  0.10566000000E+00 0.  1.
         13    1    1    0    0    0 -0.88353666136E+01 -0.75559060067E+01 -0.97812099601E+01  0.15193375237E+02  0.10566000000E+00 0.  1.
         22    1    1    0    0    0  0.36691995040E+02  0.30232638530E+02  0.40567867655E+02  0.62498534532E+02  0.00000000000E+00 0.  1.
</event>
<event>
 4    1  0.9925048E-003  0.9118800E+02  0.7818608E-02  0.1130116E+00
         25   -1    0    0    0    0  0.00000000000E+00  0.00000000000E+00  0.99999998245E-14  0.12500000000E+03  0.12500000000E+03 0.  0.
        -13    1    1    0    0    0 -0.68737670750E+01 -0.13427469323E+02  0.11070348138E+02  0.18711209960E+02  0.10566000000E+00 0. -1.
         13    1    1    0    0    0 -0.37704845478E+01 -0.31741345406E+02  0.30356081912E+02  0.44082110147E+02  0.10566000000E+00 0.  1.
         22    1    1    0    0    0  0.10644251623E+02  0.45168814729E+02 -0.41426430050E+02  0.62206679893E+02  0.00000000000E+00 0.  1.
</event>
<event>
 4    1  0.9925048E-003  0.9118800E+02  0.7818608E-02  0.1130116E+00
         25   -1    0    0    0    0  0.00000000000E+00  0.00000000000E+00  0.99999998245E-14  0.12500000000E+03  0.12500000000E+03 0.  0.
        -13    1    1    0    0    0 -0.62646241816E+00  0.96623216711E+00 -0.66843263904E+01  0.67836157830E+01  0.10566000000E+00 0. -1.
         13    1    1    0    0    0 -0.20375330394E+01  0.74712844165E+01 -0.55180832449E+02  0.55721692953E+02  0.10566000000E+00 0.  1.
         22    1    1    0    0    0  0.26639954575E+01 -0.84375165836E+01  0.61865158840E+02  0.62494691264E+02  0.00000000000E+00 0.  1.
</event>
<event>
 4    1  0.9925048E-003  0.9118800E+02  0.7818608E-02  0.1130116E+00
         25   -1    0    0    0    0  0.00000000000E+00  0.00000000000E+00  0.99999998245E-14  0.12500000000E+03  0.12500000000E+03 0.  0.
        -13    1    1    0    0    0  0.31084688193E+02  0.34569165031E+02 -0.12529039602E+01  0.46506622575E+02  0.10566000000E+00 0. -1.
         13    1    1    0    0    0  0.10376394215E+02  0.12167470442E+02 -0.36697741034E+00  0.15995709747E+02  0.10566000000E+00 0.  1.
         22    1    1    0    0    0 -0.41461082407E+02 -0.46736635472E+02  0.16198813706E+01  0.62497667679E+02  0.00000000000E+00 0. -1.
</event>
<event>
 4    1  0.9925048E-003  0.9118800E+02  0.7818608E-02  0.1130116E+00
         25   -1    0    0    0    0  0.00000000000E+00  0.00000000000E+00  0.99999998245E-14  0.12500000000E+03  0.12500000000E+03 0.  0.
        -13    1    1    0    0    0  0.58746123631E+02 -0.12948543247E+02  0.18236943521E+01  0.60183958320E+02  0.10566000000E+00 0. -1.
         13    1    1    0    0    0  0.20982044844E+01 -0.10360846603E+01  0.21243781810E+00  0.23520687371E+01  0.10566000000E+00 0.  1.
         22    1    1    0    0    0 -0.60844328116E+02  0.13984627907E+02 -0.20361321702E+01  0.62463972943E+02  0.00000000000E+00 0. -1.
</event>
<event>
 4    1  0.9925048E-003  0.9118800E+02  0.7818608E-02  0.1130116E+00
         25   -1    0    0    0    0  0.00000000000E+00  0.00000000000E+00  0.99999998245E-14  0.12500000000E+03  0.12500000000E+03 0.  0.
        -13    1    1    0    0    0  0.11219032543E+01 -0.97646038232E+00  0.29697341057E+01  0.33230447611E+01  0.10566000000E+00 0. -1.
         13    1    1    0    0    0 -0.88339504880E+01 -0.19764570025E+02  0.55278714030E+02  0.59366861955E+02  0.10566000000E+00 0.  1.
         22    1    1    0    0    0  0.77120472337E+01  0.20741030407E+02 -0.58248448136E+02  0.62310093284E+02  0.00000000000E+00 0.  1.
</event>
<event>
 4    1  0.9925048E-003  0.9118800E+02  0.7818608E-02  0.1130116E+00
         25   -1    0    0    0    0  0.00000000000E+00  0.00000000000E+00  0.99999998245E-14  0.12500000000E+03  0.12500000000E+03 0.  0.
        -13    1    1    0    0    0 -0.25441555874E+01 -0.14439496792E+02  0.96142308798E+01  0.17533293892E+02  0.10566000000E+00 0.  1.
         13    1    1    0    0    0 -0.14642870773E+02 -0.28816480252E+02  0.31668386968E+02  0.45251531419E+02  0.10566000000E+00 0. -1.
         22    1    1    0    0    0  0.17187026361E+02  0.43255977044E+02 -0.41282617848E+02  0.62215174689E+02  0.00000000000E+00 0. -1.
</event>
<event>
 4    1  0.9925048E-003  0.9118800E+02  0.7818608E-02  0.1130116E+00
         25   -1    0    0    0    0  0.00000000000E+00  0.00000000000E+00  0.99999998245E-14  0.12500000000E+03  0.12500000000E+03 0.  0.
        -13    1    1    0    0    0 -0.15553922266E+02  0.23713541704E+02  0.20756926880E+02  0.35144241854E+02  0.10566000000E+00 0.  1.
         13    1    1    0    0    0 -0.12234436787E+02  0.18488368261E+02  0.16026374387E+02  0.27356115303E+02  0.10566000000E+00 0.  1.
         22    1    1    0    0    0  0.27788359053E+02 -0.42201909964E+02 -0.36783301266E+02  0.62499642843E+02  0.00000000000E+00 0.  1.
</event>
<event>
 4    1  0.9925048E-003  0.9118800E+02  0.7818608E-02  0.1130116E+00
         25   -1    0    0    0    0  0.00000000000E+00  0.00000000000E+00  0.99999998245E-14  0.12500000000E+03  0.12500000000E+03 0.  0.
        -13    1    1    0    0    0  0.93405351335E+01 -0.20579955620E+01  0.88777127767E+01  0.13050129903E+02  0.10566000000E+00 0. -1.
         13    1    1    0    0    0  0.32259396474E+02 -0.13957771501E+02  0.34856284515E+02  0.49502118948E+02  0.10566000000E+00 0.  1.
         22    1    1    0    0    0 -0.41599931608E+02  0.16015767063E+02 -0.43733997292E+02  0.62447751148E+02  0.00000000000E+00 0.  1.
</event>
<event>
 4    1  0.9925048E-003  0.9118800E+02  0.7818608E-02  0.1130116E+00
         25   -1    0    0    0    0  0.00000000000E+00  0.00000000000E+00  0.99999998245E-14  0.12500000000E+03  0.12500000000E+03 0.  0.
        -13    1    1    0    0    0 -0.12446621242E+02  0.24926373518E+02 -0.29099334056E+02  0.40286782989E+02  0.10566000000E+00 0.  1.
         13    1    1    0    0    0 -0.22544203252E+01  0.15314869640E+02 -0.16169786862E+02  0.22385281198E+02  0.10566000000E+00 0. -1.
         22    1    1    0    0    0  0.14701041567E+02 -0.40241243158E+02  0.45269120918E+02  0.62327935813E+02  0.00000000000E+00 0.  1.
</event>
<event>
 4    1  0.9925048E-003  0.9118800E+02  0.7818608E-02  0.1130116E+00
         25   -1    0    0    0    0  0.00000000000E+00  0.00000000000E+00  0.99999998245E-14  0.12500000000E+03  0.12500000000E+03 0.  0.
        -13    1    1    0    0    0 -0.38600202497E+02  0.17380378873E+02  0.13796888466E+02  0.44524358479E+02  0.10566000000E+00 0. -1.
         13    1    1    0    0    0 -0.17510509115E+02  0.49115220107E+01  0.13227239727E+01  0.18234630259E+02  0.10566000000E+00 0.  1.
         22    1    1    0    0    0  0.56110711612E+02 -0.22291900884E+02 -0.15119612439E+02  0.62241011262E+02  0.00000000000E+00 0.  1.
</event>
<event>
 4    1  0.9925048E-003  0.9118800E+02  0.7818608E-02  0.1130116E+00
         25   -1    0    0    0    0  0.00000000000E+00  0.00000000000E+00  0.99999998245E-14  0.12500000000E+03  0.12500000000E+03 0.  0.
        -13    1    1    0    0    0 -0.11103708826E+02 -0.90484961461E+01  0.67312651642E+01  0.15826835658E+02  0.10566000000E+00 0.  1.
         13    1    1    0    0    0 -0.24261181073E+02  0.34004625157E+02  0.30787268891E+02  0.51892066147E+02  0.10566000000E+00 0. -1.
         22    1    1    0    0    0  0.35364889899E+02 -0.24956129011E+02 -0.37518534055E+02  0.57281098195E+02  0.00000000000E+00 0. -1.
</event>
<event>
 4    1  0.9925048E-003  0.9118800E+02  0.7818608E-02  0.1130116E+00
         25   -1    0    0    0    0  0.00000000000E+00  0.00000000000E+00  0.99999998245E-14  0.12500000000E+03  0.12500000000E+03 0.  0.
        -13    1    1    0    0    0 -0.34965394092E+02  0.39868131088E+01  0.29941423386E+01  0.35319251339E+02  0.10566000000E+00 0.  1.
         13    1    1    0    0    0 -0.26979455088E+02  0.25238034110E+01  0.21501370268E+01  0.27182620068E+02  0.10566000000E+00 0. -1.
         22    1    1    0    0    0  0.61944849180E+02 -0.65106165197E+01 -0.51442793655E+01  0.62498128593E+02  0.00000000000E+00 0. -1.
</event>
<event>
 4    1  0.9925048E-003  0.9118800E+02  0.7818608E-02  0.1130116E+00
         25   -1    0    0    0    0  0.00000000000E+00  0.00000000000E+00  0.99999998245E-14  0.12500000000E+03  0.12500000000E+03 0.  0.
        -13    1    1    0    0    0  0.43234784555E+00  0.26505914878E+01 -0.33130223240E+01  0.42661271488E+01  0.10566000000E+00 0.  1.
         13    1    1    0    0    0  0.44361502294E+02  0.21255986128E+02 -0.32181920388E+02  0.58783050244E+02  0.10566000000E+00 0. -1.
         22    1    1    0    0    0 -0.44793850139E+02 -0.23906577615E+02  0.35494942712E+02  0.61950822608E+02  0.00000000000E+00 0. -1.
</event>
<event>
 4    1  0.9925048E-003  0.9118800E+02  0.7818608E-02  0.1130116E+00
         25   -1    0    0    0    0  0.00000000000E+00  0.00000000000E+00  0.99999998245E-14  0.12500000000E+03  0.12500000000E+03 0.  0.
        -13    1    1    0    0    0  0.13505095758E+01 -0.12913349928E+02 -0.36799562234E+01  0.13495618709E+02  0.10566000000E+00 0.  1.
         13    1    1    0    0    0  0.29460344215E+02 -0.21917679396E+02  0.38656367612E+02  0.53316249609E+02  0.10566000000E+00 0. -1.
         22    1    1    0    0    0 -0.30810853790E+02  0.34831029324E+02 -0.34976411389E+02  0.58188131683E+02  0.00000000000E+00 0. -1.
</event>
<event>
 4    1  0.9925048E-003  0.9118800E+02  0.7818608E-02  0.1130116E+00
         25   -1    0    0    0    0  0.00000000000E+00  0.00000000000E+00  0.99999998245E-14  0.12500000000E+03  0.12500000000E+03 0.  0.
        -13    1    1    0    0    0  0.39974609855E+02 -0.76527665603E+01 -0.40587098112E+02  0.57479195943E+02  0.10566000000E+00 0.  1.
         13    1    1    0    0    0  0.58858679392E+01 -0.26680570416E+01  0.21888909513E+01  0.68238095964E+01  0.10566000000E+00 0. -1.
         22    1    1    0    0    0 -0.45860477794E+02  0.10320823602E+02  0.38398207161E+02  0.60696994460E+02  0.00000000000E+00 0.  1.
</event>
<event>
 4    1  0.9925048E-003  0.9118800E+02  0.7818608E-02  0.1130116E+00
         25   -1    0    0    0    0  0.00000000000E+00  0.00000000000E+00  0.99999998245E-14  0.12500000000E+03  0.12500000000E+03 0.  0.
        -13    1    1    0    0    0  0.15201578961E+01  0.23698814419E+01  0.25463368103E+01  0.37976589190E+01  0.10566000000E+00 0. -1.
         13    1    1    0    0    0  0.21647517181E+02  0.35552694376E+02  0.41396883542E+02  0.58705384834E+02  0.10566000000E+00 0.  1.
         22    1    1    0    0    0 -0.23167675078E+02 -0.37922575818E+02 -0.43943220352E+02  0.62496956247E+02  0.00000000000E+00 0.  1.
</event>
<event>
 4    1  0.9925048E-003  0.9118800E+02  0.7818608E-02  0.1130116E+00
         25   -1    0    0    0    0  0.00000000000E+00  0.00000000000E+00  0.99999998245E-14  0.12500000000E+03  0.12500000000E+03 0.  0.
        -13    1    1    0    0    0  0.80625812957E+00 -0.73010281084E+01  0.21277399142E+01  0.76481046534E+01  0.10566000000E+00 0.  1.
         13    1    1    0    0    0  0.14363042425E+02 -0.47890226938E+02  0.22763438282E+02  0.54935927318E+02  0.10566000000E+00 0. -1.
         22    1    1    0    0    0 -0.15169300555E+02  0.55191255046E+02 -0.24891178196E+02  0.62415968028E+02  0.00000000000E+00 0. -1.
</event>
<event>
 4    1  0.9925048E-003  0.9118800E+02  0.7818608E-02  0.1130116E+00
         25   -1    0    0    0    0  0.00000000000E+00  0.00000000000E+00  0.99999998245E-14  0.12500000000E+03  0.12500000000E+03 0.  0.
        -13    1    1    0    0    0  0.42736099829E+01  0.34888993683E+01 -0.58519425780E+01  0.80431683471E+01  0.10566000000E+00 0.  1.
         13    1    1    0    0    0  0.45254086478E+02  0.28732771683E+02 -0.12580968083E+02  0.55061751093E+02  0.10566000000E+00 0. -1.
         22    1    1    0    0    0 -0.49527696461E+02 -0.32221671051E+02  0.18432910661E+02  0.61895080560E+02  0.00000000000E+00 0. -1.
</event>
<event>
 4    1  0.9925048E-003  0.9118800E+02  0.7818608E-02  0.1130116E+00
         25   -1    0    0    0    0  0.00000000000E+00  0.00000000000E+00  0.99999998245E-14  0.12500000000E+03  0.12500000000E+03 0.  0.
        -13    1    1    0    0    0  0.19253132701E+02 -0.17070537853E+01 -0.46839949533E+02  0.50671384309E+02  0.10566000000E+00 0. -1.
         13    1    1    0    0    0  0.57754940946E+01 -0.43353803859E+00 -0.10352357466E+02  0.11862830877E+02  0.10566000000E+00 0.  1.
         22    1    1    0    0    0 -0.25028626796E+02  0.21405918239E+01  0.57192306999E+02  0.62465784815E+02  0.00000000000E+00 0. -1.
</event>
<event>
 4    1  0.9925048E-003  0.9118800E+02  0.7818608E-02  0.1130116E+00
         25   -1    0    0    0    0  0.00000000000E+00  0.00000000000E+00  0.99999998245E-14  0.12500000000E+03  0.12500000000E+03 0.  0.
        -13    1    1    0    0    0 -0.17646203546E+02 -0.22429768704E+02  0.38583917204E+02  0.47991799868E+02  0.10566000000E+00 0.  1.
         13    1    1    0    0    0 -0.52683076544E+01 -0.69317707550E+01  0.11605655160E+02  0.14508856160E+02  0.10566000000E+00 0.  1.
         22    1    1    0    0    0  0.22914511200E+02  0.29361539459E+02 -0.50189572364E+02  0.62499343973E+02  0.00000000000E+00 0.  1.
</event>
<event>
 4    1  0.9925048E-003  0.9118800E+02  0.7818608E-02  0.1130116E+00
         25   -1    0    0    0    0  0.00000000000E+00  0.00000000000E+00  0.99999998245E-14  0.12500000000E+03  0.12500000000E+03 0.  0.
        -13    1    1    0    0    0  0.10152041764E+02  0.41226268923E+01 -0.72301358865E+01  0.13128062822E+02  0.10566000000E+00 0. -1.
         13    1    1    0    0    0  0.34871012025E+02  0.15139235074E+02 -0.31552852542E+02  0.49404226396E+02  0.10566000000E+00 0.  1.
         22    1    1    0    0    0 -0.45023053789E+02 -0.19261861966E+02  0.38782988428E+02  0.62467710782E+02  0.00000000000E+00 0.  1.
</event>
<event>
 4    1  0.9925048E-003  0.9118800E+02  0.7818608E-02  0.1130116E+00
         25   -1    0    0    0    0  0.00000000000E+00  0.00000000000E+00  0.99999998245E-14  0.12500000000E+03  0.12500000000E+03 0.  0.
        -13    1    1    0    0    0  0.29454937365E+02 -0.22084399528E+02 -0.49747106422E+01  0.37149333072E+02  0.10566000000E+00 0.  1.
         13    1    1    0    0    0  0.19763973905E+02 -0.15293176577E+02 -0.42951003764E+01  0.25356556659E+02  0.10566000000E+00 0. -1.
         22    1    1    0    0    0 -0.49218911269E+02  0.37377576105E+02  0.92698110186E+01  0.62494110269E+02  0.00000000000E+00 0. -1.
</event>
<event>
 4    1  0.9925048E-003  0.9118800E+02  0.7818608E-02  0.1130116E+00
         25   -1    0    0    0    0  0.00000000000E+00  0.00000000000E+00  0.99999998245E-14  0.12500000000E+03  0.12500000000E+03 0.  0.
        -13    1    1    0    0    0  0.12341007214E+02 -0.43825782460E+01 -0.52412336926E+01  0.14106351257E+02  0.10566000000E+00 0. -1.
         13    1    1    0    0    0  0.44501494415E+02 -0.11568755030E+02 -0.15182505277E+02  0.48422502297E+02  0.10566000000E+00 0.  1.
         22    1    1    0    0    0 -0.56842501629E+02  0.15951333276E+02  0.20423738970E+02  0.62471146446E+02  0.00000000000E+00 0.  1.
</event>
<event>
 4    1  0.9925048E-003  0.9118800E+02  0.7818608E-02  0.1130116E+00
         25   -1    0    0    0    0  0.00000000000E+00  0.00000000000E+00  0.99999998245E-14  0.12500000000E+03  0.12500000000E+03 0.  0.
        -13    1    1    0    0    0 -0.51408449158E+02  0.35269317128E+02  0.64063257600E-01  0.62343954347E+02  0.10566000000E+00 0.  1.
         13    1    1    0    0    0 -0.94395870175E-01  0.18639376525E-01  0.17167959327E+00  0.22337395777E+00  0.10566000000E+00 0. -1.
         22    1    1    0    0    0  0.51502845028E+02 -0.35287956505E+02 -0.23574285087E+00  0.62432671695E+02  0.00000000000E+00 0.  1.
</event>
<event>
 4    1  0.9925048E-003  0.9118800E+02  0.7818608E-02  0.1130116E+00
         25   -1    0    0    0    0  0.00000000000E+00  0.00000000000E+00  0.99999998245E-14  0.12500000000E+03  0.12500000000E+03 0.  0.
        -13    1    1    0    0    0  0.34086024994E+01 -0.56678140341E+01 -0.12234118202E+02  0.13907821510E+02  0.10566000000E+00 0. -1.
         13    1    1    0    0    0  0.15196661765E+02 -0.19046029572E+02 -0.42057612285E+02  0.48606004633E+02  0.10566000000E+00 0.  1.
         22    1    1    0    0    0 -0.18605264264E+02  0.24713843606E+02  0.54291730487E+02  0.62486173858E+02  0.00000000000E+00 0.  1.
</event>
<event>
 4    1  0.9925048E-003  0.9118800E+02  0.7818608E-02  0.1130116E+00
         25   -1    0    0    0    0  0.00000000000E+00  0.00000000000E+00  0.99999998245E-14  0.12500000000E+03  0.12500000000E+03 0.  0.
        -13    1    1    0    0    0 -0.17328783860E+02  0.35758804475E+02 -0.27963321696E+02  0.48589477996E+02  0.10566000000E+00 0. -1.
         13    1    1    0    0    0 -0.47158804225E+01  0.10364160209E+02 -0.79920572658E+01  0.13911847051E+02  0.10566000000E+00 0.  1.
         22    1    1    0    0    0  0.22044664283E+02 -0.46122964684E+02  0.35955378962E+02  0.62498674953E+02  0.00000000000E+00 0. -1.
</event>
<event>
 4    1  0.9925048E-003  0.9118800E+02  0.7818608E-02  0.1130116E+00
         25   -1    0    0    0    0  0.00000000000E+00  0.00000000000E+00  0.99999998245E-14  0.12500000000E+03  0.12500000000E+03 0.  0.
        -13    1    1    0    0    0 -0.50921746961E+00  0.15382326925E+02 -0.10172388729E+02  0.18448954999E+02  0.10566000000E+00 0.  1.
         13    1    1    0    0    0 -0.29271450948E+01  0.36993668463E+02 -0.23746340132E+02  0.44056776079E+02  0.10566000000E+00 0. -1.
         22    1    1    0    0    0  0.34363625644E+01 -0.52375995388E+02  0.33918728861E+02  0.62494268922E+02  0.00000000000E+00 0. -1.
</event>
<event>
 4    1  0.9925048E-003  0.9118800E+02  0.7818608E-02  0.1130116E+00
         25   -1    0    0    0    0  0.00000000000E+00  0.00000000000E+00  0.99999998245E-14  0.12500000000E+03  0.12500000000E+03 0.  0.
        -13    1    1    0    0    0 -0.14003334438E+02  0.54616861799E+02 -0.26826578391E+02  0.62440142859E+02  0.10566000000E+00 0.  1.
         13    1    1    0    0    0  0.48834923932E+00 -0.82554898770E+00  0.36994499692E-01  0.96568563169E+00  0.10566000000E+00 0. -1.
         22    1    1    0    0    0  0.13514985199E+02 -0.53791312811E+02  0.26789583891E+02  0.61594171509E+02  0.00000000000E+00 0.  1.
</event>
<event>
 4    1  0.9925048E-003  0.9118800E+02  0.7818608E-02  0.1130116E+00
         25   -1    0    0    0    0  0.00000000000E+00  0.00000000000E+00  0.99999998245E-14  0.12500000000E+03  0.12500000000E+03 0.  0.
        -13    1    1    0    0    0 -0.39154626955E+02 -0.22581714293E+02  0.31507761160E+02  0.55097811298E+02  0.10566000000E+00 0. -1.
         13    1    1    0    0    0 -0.49303506166E+01 -0.55253331921E+01  0.21628548696E+01  0.77153593117E+01  0.10566000000E+00 0.  1.
         22    1    1    0    0    0  0.44084977572E+02  0.28107047485E+02 -0.33670616030E+02  0.62186829391E+02  0.00000000000E+00 0. -1.
</event>
<event>
 4    1  0.9925048E-003  0.9118800E+02  0.7818608E-02  0.1130116E+00
         25   -1    0    0    0    0  0.00000000000E+00  0.00000000000E+00  0.99999998245E-14  0.12500000000E+03  0.12500000000E+03 0.  0.
        -13    1    1    0    0    0 -0.95277404635E+01 -0.74930423333E+00  0.58359032991E+01  0.11198581452E+02  0.10566000000E+00 0. -1.
         13    1    1    0    0    0 -0.43600372021E+02 -0.36866351423E+01  0.26782046120E+02  0.51301782400E+02  0.10566000000E+00 0. -1.
         22    1    1    0    0    0  0.53128112485E+02  0.44359393756E+01 -0.32617949419E+02  0.62499636148E+02  0.00000000000E+00 0. -1.
</event>
<event>
 4    1  0.9925048E-003  0.9118800E+02  0.7818608E-02  0.1130116E+00
         25   -1    0    0    0    0  0.00000000000E+00  0.00000000000E+00  0.99999998245E-14  0.12500000000E+03  0.12500000000E+03 0.  0.
        -13    1    1    0    0    0  0.47949889058E+02  0.34338257399E+02  0.20028673309E+02  0.62285365058E+02  0.10566000000E+00 0. -1.
         13    1    1    0    0    0  0.13245000192E+00  0.15986635365E+00 -0.18758746805E+00  0.29908752533E+00  0.10566000000E+00 0.  1.
         22    1    1    0    0    0 -0.48082339060E+02 -0.34498123753E+02 -0.19841085841E+02  0.62415547416E+02  0.00000000000E+00 0. -1.
</event>
<event>
 4    1  0.9925048E-003  0.9118800E+02  0.7818608E-02  0.1130116E+00
         25   -1    0    0    0    0  0.00000000000E+00  0.00000000000E+00  0.99999998245E-14  0.12500000000E+03  0.12500000000E+03 0.  0.
        -13    1    1    0    0    0  0.59419455164E+01 -0.20370996442E+02  0.35833312185E+02  0.41645187462E+02  0.10566000000E+00 0. -1.
         13    1    1    0    0    0  0.37886330627E+01 -0.62814732284E+01  0.19684334511E+02  0.21007018722E+02  0.10566000000E+00 0.  1.
         22    1    1    0    0    0 -0.97305785791E+01  0.26652469670E+02 -0.55517646696E+02  0.62347793816E+02  0.00000000000E+00 0. -1.
</event>
<event>
 4    1  0.9925048E-003  0.9118800E+02  0.7818608E-02  0.1130116E+00
         25   -1    0    0    0    0  0.00000000000E+00  0.00000000000E+00  0.99999998245E-14  0.12500000000E+03  0.12500000000E+03 0.  0.
        -13    1    1    0    0    0 -0.24612962076E-01  0.17197828044E+02 -0.15266867077E+02  0.22996832165E+02  0.10566000000E+00 0.  1.
         13    1    1    0    0    0  0.53578429958E+00  0.29636988110E+02 -0.26113819321E+02  0.39504187786E+02  0.10566000000E+00 0.  1.
         22    1    1    0    0    0 -0.51117133750E+00 -0.46834816155E+02  0.41380686398E+02  0.62498980049E+02  0.00000000000E+00 0.  1.
</event>
<event>
 4    1  0.9925048E-003  0.9118800E+02  0.7818608E-02  0.1130116E+00
         25   -1    0    0    0    0  0.00000000000E+00  0.00000000000E+00  0.99999998245E-14  0.12500000000E+03  0.12500000000E+03 0.  0.
        -13    1    1    0    0    0 -0.21003652148E+02 -0.32860861299E+01  0.22034642972E+02  0.30618432693E+02  0.10566000000E+00 0. -1.
         13    1    1    0    0    0 -0.22066419457E+02 -0.23763017482E+01  0.22894073659E+02  0.31886101210E+02  0.10566000000E+00 0.  1.
         22    1    1    0    0    0  0.43070071605E+02  0.56623878782E+01 -0.44928716631E+02  0.62495466097E+02  0.00000000000E+00 0. -1.
</event>
<event>
 4    1  0.9925048E-003  0.9118800E+02  0.7818608E-02  0.1130116E+00
         25   -1    0    0    0    0  0.00000000000E+00  0.00000000000E+00  0.99999998245E-14  0.12500000000E+03  0.12500000000E+03 0.  0.
        -13    1    1    0    0    0  0.30981352997E+02 -0.40034407856E+02  0.18654783645E+02  0.53950071017E+02  0.10566000000E+00 0. -1.
         13    1    1    0    0    0  0.39839821084E+01 -0.68649136872E+01  0.32595247219E+01  0.85810732907E+01  0.10566000000E+00 0.  1.
         22    1    1    0    0    0 -0.34965335105E+02  0.46899321543E+02 -0.21914308367E+02  0.62468855692E+02  0.00000000000E+00 0. -1.
</event>
<event>
 4    1  0.9925048E-003  0.9118800E+02  0.7818608E-02  0.1130116E+00
         25   -1    0    0    0    0  0.00000000000E+00  0.00000000000E+00  0.99999998245E-14  0.12500000000E+03  0.12500000000E+03 0.  0.
        -13    1    1    0    0    0 -0.77365349789E+01 -0.28877459100E+02 -0.10812862734E+02  0.31791363326E+02  0.10566000000E+00 0. -1.
         13    1    1    0    0    0 -0.75850832399E+01 -0.27761553302E+02 -0.10714899905E+02  0.30709242477E+02  0.10566000000E+00 0. -1.
         22    1    1    0    0    0  0.15321618219E+02  0.56639012403E+02  0.21527762639E+02  0.62499394197E+02  0.00000000000E+00 0. -1.
</event>
<event>
 4    1  0.9925048E-003  0.9118800E+02  0.7818608E-02  0.1130116E+00
         25   -1    0    0    0    0  0.00000000000E+00  0.00000000000E+00  0.99999998245E-14  0.12500000000E+03  0.12500000000E+03 0.  0.
        -13    1    1    0    0    0 -0.13486086050E+02  0.30758069699E+02 -0.14508424430E+02  0.36584681385E+02  0.10566000000E+00 0.  1.
         13    1    1    0    0    0 -0.96294201674E+01  0.21682224710E+02 -0.10429249640E+02  0.25915729069E+02  0.10566000000E+00 0.  1.
         22    1    1    0    0    0  0.23115506217E+02 -0.52440294409E+02  0.24937674069E+02  0.62499589546E+02  0.00000000000E+00 0.  1.
</event>
<event>
 4    1  0.9925048E-003  0.9118800E+02  0.7818608E-02  0.1130116E+00
         25   -1    0    0    0    0  0.00000000000E+00  0.00000000000E+00  0.99999998245E-14  0.12500000000E+03  0.12500000000E+03 0.  0.
        -13    1    1    0    0    0  0.57799856644E+01  0.33452906454E+02  0.64157502622E+01  0.34549648334E+02  0.10566000000E+00 0.  1.
         13    1    1    0    0    0  0.23654052296E+02  0.14592811616E+02  0.13226112406E+02  0.30779953774E+02  0.10566000000E+00 0. -1.
         22    1    1    0    0    0 -0.29434037961E+02 -0.48045718070E+02 -0.19641862668E+02  0.59670397893E+02  0.00000000000E+00 0. -1.
</event>
<event>
 4    1  0.9925048E-003  0.9118800E+02  0.7818608E-02  0.1130116E+00
         25   -1    0    0    0    0  0.00000000000E+00  0.00000000000E+00  0.99999998245E-14  0.12500000000E+03  0.12500000000E+03 0.  0.
        -13    1    1    0    0    0 -0.31631749558E+01  0.86307695266E+01  0.19096639630E+02  0.21194071521E+02  0.10566000000E+00 0. -1.
         13    1    1    0    0    0 -0.76611712241E+01  0.18151589599E+02  0.36315690133E+02  0.41316029133E+02  0.10566000000E+00 0.  1.
         22    1    1    0    0    0  0.10824346180E+02 -0.26782359126E+02 -0.55412329763E+02  0.62489899346E+02  0.00000000000E+00 0. -1.
</event>
<event>
 4    1  0.9925048E-003  0.9118800E+02  0.7818608E-02  0.1130116E+00
         25   -1    0    0    0    0  0.00000000000E+00  0.00000000000E+00  0.99999998245E-14  0.12500000000E+03  0.12500000000E+03 0.  0.
        -13    1    1    0    0    0 -0.43770504164E+01  0.11988484631E+02 -0.11512372743E+02  0.17188025608E+02  0.10566000000E+00 0. -1.
         13    1    1    0    0    0 -0.76516223905E+01  0.35451067282E+02 -0.27263231604E+02  0.45372022857E+02  0.10566000000E+00 0.  1.
         22    1    1    0    0    0  0.12028672807E+02 -0.47439551913E+02  0.38775604347E+02  0.62439951535E+02  0.00000000000E+00 0.  1.
</event>
<event>
 4    1  0.9925048E-003  0.9118800E+02  0.7818608E-02  0.1130116E+00
         25   -1    0    0    0    0  0.00000000000E+00  0.00000000000E+00  0.99999998245E-14  0.12500000000E+03  0.12500000000E+03 0.  0.
        -13    1    1    0    0    0  0.10452859950E+02 -0.16659422213E+02  0.95826578129E+01  0.21877776953E+02  0.10566000000E+00 0. -1.
         13    1    1    0    0    0  0.19343135712E+02 -0.36160210133E+02  0.32420343808E+01  0.41136840508E+02  0.10566000000E+00 0.  1.
         22    1    1    0    0    0 -0.29795995662E+02  0.52819632346E+02 -0.12824692194E+02  0.61985382539E+02  0.00000000000E+00 0.  1.
</event>
<event>
 4    1  0.9925048E-003  0.9118800E+02  0.7818608E-02  0.1130116E+00
         25   -1    0    0    0    0  0.00000000000E+00  0.00000000000E+00  0.99999998245E-14  0.12500000000E+03  0.12500000000E+03 0.  0.
        -13    1    1    0    0    0 -0.23738638563E+02 -0.20042179521E+02  0.21454787251E+02  0.37756204534E+02  0.10566000000E+00 0.  1.
         13    1    1    0    0    0 -0.15220725491E+02 -0.13899756516E+02  0.13697828329E+02  0.24749048075E+02  0.10566000000E+00 0. -1.
         22    1    1    0    0    0  0.38959364053E+02  0.33941936037E+02 -0.35152615580E+02  0.62494747391E+02  0.00000000000E+00 0. -1.
</event>
<event>
 4    1  0.9925048E-003  0.9118800E+02  0.7818608E-02  0.1130116E+00
         25   -1    0    0    0    0  0.00000000000E+00  0.00000000000E+00  0.99999998245E-14  0.12500000000E+03  0.12500000000E+03 0.  0.
        -13    1    1    0    0    0  0.17909620061E+02 -0.46971047648E+01 -0.31930600948E+00  0.18518380174E+02  0.10566000000E+00 0. -1.
         13    1    1    0    0    0  0.40526232910E+02 -0.17132593133E+02  0.24266523643E+01  0.44065872362E+02  0.10566000000E+00 0.  1.
         22    1    1    0    0    0 -0.58435852971E+02  0.21829697898E+02 -0.21073463548E+01  0.62415747464E+02  0.00000000000E+00 0.  1.
</event>
<event>
 4    1  0.9925048E-003  0.9118800E+02  0.7818608E-02  0.1130116E+00
         25   -1    0    0    0    0  0.00000000000E+00  0.00000000000E+00  0.99999998245E-14  0.12500000000E+03  0.12500000000E+03 0.  0.
        -13    1    1    0    0    0  0.27683062654E+02 -0.34750287208E+02 -0.23104097100E+02  0.50077388967E+02  0.10566000000E+00 0. -1.
         13    1    1    0    0    0  0.55509143575E+01 -0.95018500044E+01 -0.58507622969E+01  0.12463562380E+02  0.10566000000E+00 0.  1.
         22    1    1    0    0    0 -0.33233977012E+02  0.44252137212E+02  0.28954859397E+02  0.62459048653E+02  0.00000000000E+00 0. -1.
</event>
<event>
 4    1  0.9925048E-003  0.9118800E+02  0.7818608E-02  0.1130116E+00
         25   -1    0    0    0    0  0.00000000000E+00  0.00000000000E+00  0.99999998245E-14  0.12500000000E+03  0.12500000000E+03 0.  0.
        -13    1    1    0    0    0  0.91066608634E+01 -0.74367462537E+01 -0.72776108415E+01  0.13827915625E+02  0.10566000000E+00 0.  1.
         13    1    1    0    0    0  0.33222914833E+02 -0.23340422066E+02 -0.26863759571E+02  0.48684803733E+02  0.10566000000E+00 0. -1.
         22    1    1    0    0    0 -0.42329575696E+02  0.30777168320E+02  0.34141370412E+02  0.62487280642E+02  0.00000000000E+00 0. -1.
</event>
<event>
 4    1  0.9925048E-003  0.9118800E+02  0.7818608E-02  0.1130116E+00
         25   -1    0    0    0    0  0.00000000000E+00  0.00000000000E+00  0.99999998245E-14  0.12500000000E+03  0.12500000000E+03 0.  0.
        -13    1    1    0    0    0  0.85223206077E+01 -0.54164509139E+02 -0.89698326505E+01  0.55559815161E+02  0.10566000000E+00 0.  1.
         13    1    1    0    0    0  0.13195872228E+01 -0.67568142193E+01 -0.90299814057E+00  0.69442363519E+01  0.10566000000E+00 0. -1.
         22    1    1    0    0    0 -0.98419078304E+01  0.60921323359E+02  0.98728307911E+01  0.62495948488E+02  0.00000000000E+00 0.  1.
</event>
<event>
 4    1  0.9925048E-003  0.9118800E+02  0.7818608E-02  0.1130116E+00
         25   -1    0    0    0    0  0.00000000000E+00  0.00000000000E+00  0.99999998245E-14  0.12500000000E+03  0.12500000000E+03 0.  0.
        -13    1    1    0    0    0 -0.18614634913E+02  0.19720101469E+02 -0.32940152944E+02  0.42666753743E+02  0.10566000000E+00 0.  1.
         13    1    1    0    0    0  0.17158344182E+02  0.34492310857E+01 -0.18762210438E+02  0.25658091798E+02  0.10566000000E+00 0. -1.
         22    1    1    0    0    0  0.14562907314E+01 -0.23169332555E+02  0.51702363382E+02  0.56675154460E+02  0.00000000000E+00 0. -1.
</event>
<event>
 4    1  0.9925048E-003  0.9118800E+02  0.7818608E-02  0.1130116E+00
         25   -1    0    0    0    0  0.00000000000E+00  0.00000000000E+00  0.99999998245E-14  0.12500000000E+03  0.12500000000E+03 0.  0.
        -13    1    1    0    0    0 -0.55359906495E+01 -0.72639626670E+01  0.55694808855E+02  0.56438774292E+02  0.10566000000E+00 0.  1.
         13    1    1    0    0    0  0.57310234759E+01 -0.40646560365E+01  0.38058810123E+01  0.79913674106E+01  0.10566000000E+00 0. -1.
         22    1    1    0    0    0 -0.19503282637E+00  0.11328618704E+02 -0.59500689867E+02  0.60569858298E+02  0.00000000000E+00 0.  1.
</event>
<event>
 4    1  0.9925048E-003  0.9118800E+02  0.7818608E-02  0.1130116E+00
         25   -1    0    0    0    0  0.00000000000E+00  0.00000000000E+00  0.99999998245E-14  0.12500000000E+03  0.12500000000E+03 0.  0.
        -13    1    1    0    0    0 -0.37722013212E+01  0.50327203652E+01  0.11139737289E+02  0.12793071875E+02  0.10566000000E+00 0. -1.
         13    1    1    0    0    0 -0.37130569738E+02 -0.12627316234E+02  0.33215696362E+02  0.51394766010E+02  0.10566000000E+00 0.  1.
         22    1    1    0    0    0  0.40902771059E+02  0.75945958691E+01 -0.44355433651E+02  0.60812162115E+02  0.00000000000E+00 0.  1.
</event>
<event>
 4    1  0.9925048E-003  0.9118800E+02  0.7818608E-02  0.1130116E+00
         25   -1    0    0    0    0  0.00000000000E+00  0.00000000000E+00  0.99999998245E-14  0.12500000000E+03  0.12500000000E+03 0.  0.
        -13    1    1    0    0    0  0.15313175476E+02  0.22258975908E+01  0.98260972708E+01  0.18330611415E+02  0.10566000000E+00 0.  1.
         13    1    1    0    0    0  0.37138870064E+02  0.51328997243E+01  0.23352347710E+02  0.44169963062E+02  0.10566000000E+00 0. -1.
         22    1    1    0    0    0 -0.52452045541E+02 -0.73587973151E+01 -0.33178444981E+02  0.62499425523E+02  0.00000000000E+00 0. -1.
</event>
<event>
 4    1  0.9925048E-003  0.9118800E+02  0.7818608E-02  0.1130116E+00
         25   -1    0    0    0    0  0.00000000000E+00  0.00000000000E+00  0.99999998245E-14  0.12500000000E+03  0.12500000000E+03 0.  0.
        -13    1    1    0    0    0 -0.27061656325E+02 -0.32382660972E+02 -0.11115052394E+02  0.43640869933E+02  0.10566000000E+00 0. -1.
         13    1    1    0    0    0 -0.11882922266E+02 -0.13743434157E+02 -0.50631686669E+01  0.18860876570E+02  0.10566000000E+00 0.  1.
         22    1    1    0    0    0  0.38944578592E+02  0.46126095129E+02  0.16178221061E+02  0.62498253497E+02  0.00000000000E+00 0. -1.
</event>
<event>
 4    1  0.9925048E-003  0.9118800E+02  0.7818608E-02  0.1130116E+00
         25   -1    0    0    0    0  0.00000000000E+00  0.00000000000E+00  0.99999998245E-14  0.12500000000E+03  0.12500000000E+03 0.  0.
        -13    1    1    0    0    0  0.23051848360E+02  0.16193517760E+02 -0.25361417667E+02  0.37905545773E+02  0.10566000000E+00 0.  1.
         13    1    1    0    0    0  0.14876939621E+02  0.10703751744E+02 -0.16401407032E+02  0.24594937499E+02  0.10566000000E+00 0.  1.
         22    1    1    0    0    0 -0.37928787981E+02 -0.26897269503E+02  0.41762824699E+02  0.62499516729E+02  0.00000000000E+00 0.  1.
</event>
<event>
 4    1  0.9925048E-003  0.9118800E+02  0.7818608E-02  0.1130116E+00
         25   -1    0    0    0    0  0.00000000000E+00  0.00000000000E+00  0.99999998245E-14  0.12500000000E+03  0.12500000000E+03 0.  0.
        -13    1    1    0    0    0  0.11777719651E+02 -0.19630670459E+02  0.13012005626E+02  0.26332515210E+02  0.10566000000E+00 0. -1.
         13    1    1    0    0    0 -0.14335782614E+02  0.17215942405E+02 -0.53513312197E+02  0.58013697369E+02  0.10566000000E+00 0.  1.
         22    1    1    0    0    0  0.25580629636E+01  0.24147280536E+01  0.40501306572E+02  0.40653787421E+02  0.00000000000E+00 0.  1.
</event>
<event>
 4    1  0.9925048E-003  0.9118800E+02  0.7818608E-02  0.1130116E+00
         25   -1    0    0    0    0  0.00000000000E+00  0.00000000000E+00  0.99999998245E-14  0.12500000000E+03  0.12500000000E+03 0.  0.
        -13    1    1    0    0    0  0.14024432367E+02  0.13628779204E+02 -0.20446426029E+02  0.28293034959E+02  0.10566000000E+00 0.  1.
         13    1    1    0    0    0  0.20438495048E+02  0.10862579265E+02 -0.25384792900E+02  0.34352970508E+02  0.10566000000E+00 0. -1.
         22    1    1    0    0    0 -0.34462927416E+02 -0.24491358469E+02  0.45831218928E+02  0.62353994533E+02  0.00000000000E+00 0. -1.
</event>
<event>
 4    1  0.9925048E-003  0.9118800E+02  0.7818608E-02  0.1130116E+00
         25   -1    0    0    0    0  0.00000000000E+00  0.00000000000E+00  0.99999998245E-14  0.12500000000E+03  0.12500000000E+03 0.  0.
        -13    1    1    0    0    0 -0.28948039971E+02  0.14192104953E+02  0.74047855188E+00  0.32248478005E+02  0.10566000000E+00 0. -1.
         13    1    1    0    0    0  0.40578131025E+02  0.27394115027E+02  0.48944989525E+01  0.49203552104E+02  0.10566000000E+00 0.  1.
         22    1    1    0    0    0 -0.11630091054E+02 -0.41586219980E+02 -0.56349775044E+01  0.43547969891E+02  0.00000000000E+00 0. -1.
</event>
<event>
 4    1  0.9925048E-003  0.9118800E+02  0.7818608E-02  0.1130116E+00
         25   -1    0    0    0    0  0.00000000000E+00  0.00000000000E+00  0.99999998245E-14  0.12500000000E+03  0.12500000000E+03 0.  0.
        -13    1    1    0    0    0  0.15224148736E+01  0.26557531385E+01  0.28934604968E+01  0.42135554419E+01  0.10566000000E+00 0. -1.
         13    1    1    0    0    0 -0.11099380469E+02  0.40166119256E+02  0.41185677628E+02  0.58589970034E+02  0.10566000000E+00 0.  1.
         22    1    1    0    0    0  0.95769655953E+01 -0.42821872395E+02 -0.44079138125E+02  0.62196474524E+02  0.00000000000E+00 0.  1.
</event>
<event>
 4    1  0.9925048E-003  0.9118800E+02  0.7818608E-02  0.1130116E+00
         25   -1    0    0    0    0  0.00000000000E+00  0.00000000000E+00  0.99999998245E-14  0.12500000000E+03  0.12500000000E+03 0.  0.
        -13    1    1    0    0    0  0.15913364683E+02  0.82075283490E+00  0.25873054903E+02  0.30386426983E+02  0.10566000000E+00 0.  1.
         13    1    1    0    0    0  0.17201680479E+02  0.82304349256E+00  0.27106395026E+02  0.32114529846E+02  0.10566000000E+00 0. -1.
         22    1    1    0    0    0 -0.33115045162E+02 -0.16437963275E+01 -0.52979449929E+02  0.62499043171E+02  0.00000000000E+00 0. -1.
</event>
<event>
 4    1  0.9925048E-003  0.9118800E+02  0.7818608E-02  0.1130116E+00
         25   -1    0    0    0    0  0.00000000000E+00  0.00000000000E+00  0.99999998245E-14  0.12500000000E+03  0.12500000000E+03 0.  0.
        -13    1    1    0    0    0 -0.19892748221E+02 -0.25242681998E+02 -0.40724590700E+02  0.51878876992E+02  0.10566000000E+00 0. -1.
         13    1    1    0    0    0  0.18014492304E+02  0.29298292317E+01 -0.76697679064E+01  0.19797533586E+02  0.10566000000E+00 0.  1.
         22    1    1    0    0    0  0.18782559172E+01  0.22312852766E+02  0.48394358607E+02  0.53323589422E+02  0.00000000000E+00 0. -1.
</event>
<event>
 4    1  0.9925048E-003  0.9118800E+02  0.7818608E-02  0.1130116E+00
         25   -1    0    0    0    0  0.00000000000E+00  0.00000000000E+00  0.99999998245E-14  0.12500000000E+03  0.12500000000E+03 0.  0.
        -13    1    1    0    0    0 -0.15531651386E+02  0.23651228165E+02 -0.15069106745E+02  0.32057790482E+02  0.10566000000E+00 0.  1.
         13    1    1    0    0    0 -0.11665515972E+02  0.24097128457E+02 -0.14598686036E+02  0.30494075831E+02  0.10566000000E+00 0. -1.
         22    1    1    0    0    0  0.27197167359E+02 -0.47748356622E+02  0.29667792781E+02  0.62448133686E+02  0.00000000000E+00 0. -1.
</event>
<event>
 4    1  0.9925048E-003  0.9118800E+02  0.7818608E-02  0.1130116E+00
         25   -1    0    0    0    0  0.00000000000E+00  0.00000000000E+00  0.99999998245E-14  0.12500000000E+03  0.12500000000E+03 0.  0.
        -13    1    1    0    0    0 -0.99862745684E+01  0.18041184216E+02  0.17631497512E+02  0.27130994751E+02  0.10566000000E+00 0.  1.
         13    1    1    0    0    0 -0.85903683222E+01  0.22656187458E+02  0.25886716448E+02  0.35457446475E+02  0.10566000000E+00 0. -1.
         22    1    1    0    0    0  0.18576642891E+02 -0.40697371674E+02 -0.43518213960E+02  0.62411558773E+02  0.00000000000E+00 0.  1.
</event>
<event>
 4    1  0.9925048E-003  0.9118800E+02  0.7818608E-02  0.1130116E+00
         25   -1    0    0    0    0  0.00000000000E+00  0.00000000000E+00  0.99999998245E-14  0.12500000000E+03  0.12500000000E+03 0.  0.
        -13    1    1    0    0    0 -0.40145270039E+01 -0.39556196255E+02  0.51978802185E+01  0.40097857948E+02  0.10566000000E+00 0. -1.
         13    1    1    0    0    0  0.35974064488E+02  0.20476414968E+02  0.13112204636E+02  0.43420708886E+02  0.10566000000E+00 0.  1.
         22    1    1    0    0    0 -0.31959537484E+02  0.19079781287E+02 -0.18310084854E+02  0.41481433166E+02  0.00000000000E+00 0.  1.
</event>
<event>
 4    1  0.9925048E-003  0.9118800E+02  0.7818608E-02  0.1130116E+00
         25   -1    0    0    0    0  0.00000000000E+00  0.00000000000E+00  0.99999998245E-14  0.12500000000E+03  0.12500000000E+03 0.  0.
        -13    1    1    0    0    0 -0.32727106244E+02 -0.11191624840E+02  0.48011133840E+02  0.59172595738E+02  0.10566000000E+00 0.  1.
         13    1    1    0    0    0 -0.19752615506E+01 -0.70312258414E+00  0.25860468345E+01  0.33308920468E+01  0.10566000000E+00 0. -1.
         22    1    1    0    0    0  0.34702367795E+02  0.11894747425E+02 -0.50597180675E+02  0.62496512215E+02  0.00000000000E+00 0.  1.
</event>
<event>
 4    1  0.9925048E-003  0.9118800E+02  0.7818608E-02  0.1130116E+00
         25   -1    0    0    0    0  0.00000000000E+00  0.00000000000E+00  0.99999998245E-14  0.12500000000E+03  0.12500000000E+03 0.  0.
        -13    1    1    0    0    0 -0.44027692097E+02  0.43088575327E+02 -0.10357205767E+02  0.62468759155E+02  0.10566000000E+00 0.  1.
         13    1    1    0    0    0  0.17848362289E+00 -0.33872578722E-01 -0.79990317747E-02  0.21031351678E+00  0.10566000000E+00 0. -1.
         22    1    1    0    0    0  0.43849208474E+02 -0.43054702748E+02  0.10365204798E+02  0.62320927328E+02  0.00000000000E+00 0.  1.
</event>
<event>
 4    1  0.9925048E-003  0.9118800E+02  0.7818608E-02  0.1130116E+00
         25   -1    0    0    0    0  0.00000000000E+00  0.00000000000E+00  0.99999998245E-14  0.12500000000E+03  0.12500000000E+03 0.  0.
        -13    1    1    0    0    0 -0.18170456826E+02  0.18413078406E+02 -0.14372230603E+02  0.29593565757E+02  0.10566000000E+00 0.  1.
         13    1    1    0    0    0 -0.22740402582E+02  0.19824591212E+02 -0.13268754533E+02  0.32957720449E+02  0.10566000000E+00 0. -1.
         22    1    1    0    0    0  0.40910859407E+02 -0.38237669618E+02  0.27640985136E+02  0.62448713794E+02  0.00000000000E+00 0.  1.
</event>
<event>
 4    1  0.9925048E-003  0.9118800E+02  0.7818608E-02  0.1130116E+00
         25   -1    0    0    0    0  0.00000000000E+00  0.00000000000E+00  0.99999998245E-14  0.12500000000E+03  0.12500000000E+03 0.  0.
        -13    1    1    0    0    0 -0.19430848305E+01  0.14792534093E+01  0.19885695643E+01  0.31510858850E+01  0.10566000000E+00 0. -1.
         13    1    1    0    0    0 -0.26840451169E+02  0.31456148014E+02  0.42613278165E+02  0.59378461640E+02  0.10566000000E+00 0.  1.
         22    1    1    0    0    0  0.28783535999E+02 -0.32935401423E+02 -0.44601847729E+02  0.62470452474E+02  0.00000000000E+00 0.  1.
</event>
<event>
 4    1  0.9925048E-003  0.9118800E+02  0.7818608E-02  0.1130116E+00
         25   -1    0    0    0    0  0.00000000000E+00  0.00000000000E+00  0.99999998245E-14  0.12500000000E+03  0.12500000000E+03 0.  0.
        -13    1    1    0    0    0 -0.10274564242E+01  0.69264794950E+01  0.45175784513E+02  0.45715363449E+02  0.10566000000E+00 0. -1.
         13    1    1    0    0    0 -0.31618192501E+00  0.27996489779E+01  0.16547159546E+02  0.16785638460E+02  0.10566000000E+00 0.  1.
         22    1    1    0    0    0  0.13436383492E+01 -0.97261284729E+01 -0.61722944059E+02  0.62498998091E+02  0.00000000000E+00 0.  1.
</event>
<event>
 4    1  0.9925048E-003  0.9118800E+02  0.7818608E-02  0.1130116E+00
         25   -1    0    0    0    0  0.00000000000E+00  0.00000000000E+00  0.99999998245E-14  0.12500000000E+03  0.12500000000E+03 0.  0.
        -13    1    1    0    0    0  0.41595215268E+01 -0.17344117802E+02 -0.11269286741E+02  0.21098057478E+02  0.10566000000E+00 0.  1.
         13    1    1    0    0    0 -0.94512639350E+01 -0.25636364766E+02 -0.32412382398E+02  0.42392490905E+02  0.10566000000E+00 0. -1.
         22    1    1    0    0    0  0.52917424082E+01  0.42980482568E+02  0.43681669139E+02  0.61509451617E+02  0.00000000000E+00 0. -1.
</event>
<event>
 4    1  0.9925048E-003  0.9118800E+02  0.7818608E-02  0.1130116E+00
         25   -1    0    0    0    0  0.00000000000E+00  0.00000000000E+00  0.99999998245E-14  0.12500000000E+03  0.12500000000E+03 0.  0.
        -13    1    1    0    0    0  0.39103905845E+02  0.47688344512E+01 -0.86660531961E+00  0.39403291781E+02  0.10566000000E+00 0.  1.
         13    1    1    0    0    0  0.17049466536E+02 -0.12652876706E+02 -0.15832178658E+02  0.26484875745E+02  0.10566000000E+00 0. -1.
         22    1    1    0    0    0 -0.56153372381E+02  0.78840422549E+01  0.16698783978E+02  0.59111832474E+02  0.00000000000E+00 0. -1.
</event>
<event>
 4    1  0.9925048E-003  0.9118800E+02  0.7818608E-02  0.1130116E+00
         25   -1    0    0    0    0  0.00000000000E+00  0.00000000000E+00  0.99999998245E-14  0.12500000000E+03  0.12500000000E+03 0.  0.
        -13    1    1    0    0    0  0.29735152421E+02  0.90384663094E-01 -0.47700913163E+02  0.56210103536E+02  0.10566000000E+00 0. -1.
         13    1    1    0    0    0  0.33233955418E+01 -0.11109170532E+01 -0.52769941776E+01  0.63353710398E+01  0.10566000000E+00 0.  1.
         22    1    1    0    0    0 -0.33058547963E+02  0.10205323901E+01  0.52977907341E+02  0.62454525424E+02  0.00000000000E+00 0. -1.
</event>
<event>
 4    1  0.9925048E-003  0.9118800E+02  0.7818608E-02  0.1130116E+00
         25   -1    0    0    0    0  0.00000000000E+00  0.00000000000E+00  0.99999998245E-14  0.12500000000E+03  0.12500000000E+03 0.  0.
        -13    1    1    0    0    0  0.15974138502E+02  0.76489998077E+01 -0.34566986874E+02  0.38840288935E+02  0.10566000000E+00 0. -1.
         13    1    1    0    0    0  0.14104179340E+02  0.93025227691E+01 -0.17086507817E+02  0.24029663296E+02  0.10566000000E+00 0.  1.
         22    1    1    0    0    0 -0.30078317843E+02 -0.16951522577E+02  0.51653494691E+02  0.62130047769E+02  0.00000000000E+00 0. -1.
</event>
<event>
 4    1  0.9925048E-003  0.9118800E+02  0.7818608E-02  0.1130116E+00
         25   -1    0    0    0    0  0.00000000000E+00  0.00000000000E+00  0.99999998245E-14  0.12500000000E+03  0.12500000000E+03 0.  0.
        -13    1    1    0    0    0  0.67513664136E+01 -0.86567410909E+01  0.80805701090E+01  0.13631833776E+02  0.10566000000E+00 0. -1.
         13    1    1    0    0    0  0.70960423314E+01  0.13705332902E+02  0.49542035817E+02  0.51890408012E+02  0.10566000000E+00 0.  1.
         22    1    1    0    0    0 -0.13847408745E+02 -0.50485918114E+01 -0.57622605926E+02  0.59477758212E+02  0.00000000000E+00 0.  1.
</event>
<event>
 4    1  0.9925048E-003  0.9118800E+02  0.7818608E-02  0.1130116E+00
         25   -1    0    0    0    0  0.00000000000E+00  0.00000000000E+00  0.99999998245E-14  0.12500000000E+03  0.12500000000E+03 0.  0.
        -13    1    1    0    0    0  0.12799837903E+02  0.18122883021E+02  0.44100397476E+02  0.49367306600E+02  0.10566000000E+00 0. -1.
         13    1    1    0    0    0  0.32586122479E+01  0.51211149265E+01  0.11647574078E+02  0.13134744680E+02  0.10566000000E+00 0.  1.
         22    1    1    0    0    0 -0.16058450151E+02 -0.23243997947E+02 -0.55747971554E+02  0.62497948720E+02  0.00000000000E+00 0. -1.
</event>
<event>
 4    1  0.9925048E-003  0.9118800E+02  0.7818608E-02  0.1130116E+00
         25   -1    0    0    0    0  0.00000000000E+00  0.00000000000E+00  0.99999998245E-14  0.12500000000E+03  0.12500000000E+03 0.  0.
        -13    1    1    0    0    0 -0.17372348782E+02  0.20796226197E+02 -0.26734383279E+02  0.38065994530E+02  0.10566000000E+00 0. -1.
         13    1    1    0    0    0 -0.11125013312E+02  0.13352289743E+02 -0.17174671291E+02  0.24434198587E+02  0.10566000000E+00 0. -1.
         22    1    1    0    0    0  0.28497362094E+02 -0.34148515939E+02  0.43909054570E+02  0.62499806883E+02  0.00000000000E+00 0. -1.
</event>
<event>
 4    1  0.9925048E-003  0.9118800E+02  0.7818608E-02  0.1130116E+00
         25   -1    0    0    0    0  0.00000000000E+00  0.00000000000E+00  0.99999998245E-14  0.12500000000E+03  0.12500000000E+03 0.  0.
        -13    1    1    0    0    0  0.40034303535E+02  0.42115181610E+02  0.26634469567E+01  0.58168196597E+02  0.10566000000E+00 0.  1.
         13    1    1    0    0    0  0.27579506931E+01  0.33511016885E+01 -0.10881306722E+00  0.43427156102E+01  0.10566000000E+00 0. -1.
         22    1    1    0    0    0 -0.42792254228E+02 -0.45466283298E+02 -0.25546338894E+01  0.62489087793E+02  0.00000000000E+00 0.  1.
</event>
<event>
 4    1  0.9925048E-003  0.9118800E+02  0.7818608E-02  0.1130116E+00
         25   -1    0    0    0    0  0.00000000000E+00  0.00000000000E+00  0.99999998245E-14  0.12500000000E+03  0.12500000000E+03 0.  0.
        -13    1    1    0    0    0 -0.22222139747E+02 -0.12338145675E+02  0.30521921601E+02  0.39719670138E+02  0.10566000000E+00 0.  1.
         13    1    1    0    0    0 -0.23215022381E+02 -0.23422521122E+01  0.72102426215E+01  0.24421756116E+02  0.10566000000E+00 0. -1.
         22    1    1    0    0    0  0.45437162128E+02  0.14680397787E+02 -0.37732164223E+02  0.60858573746E+02  0.00000000000E+00 0.  1.
</event>
<event>
 4    1  0.9925048E-003  0.9118800E+02  0.7818608E-02  0.1130116E+00
         25   -1    0    0    0    0  0.00000000000E+00  0.00000000000E+00  0.99999998245E-14  0.12500000000E+03  0.12500000000E+03 0.  0.
        -13    1    1    0    0    0 -0.19533966628E+02 -0.55475065997E+02  0.18342713660E+02  0.61607833171E+02  0.10566000000E+00 0.  1.
         13    1    1    0    0    0  0.14597523588E+00  0.50351645444E+01 -0.62320183538E+01  0.80139508082E+01  0.10566000000E+00 0. -1.
         22    1    1    0    0    0  0.19387991392E+02  0.50439901453E+02 -0.12110695306E+02  0.55378216020E+02  0.00000000000E+00 0.  1.
</event>
<event>
 4    1  0.9925048E-003  0.9118800E+02  0.7818608E-02  0.1130116E+00
         25   -1    0    0    0    0  0.00000000000E+00  0.00000000000E+00  0.99999998245E-14  0.12500000000E+03  0.12500000000E+03 0.  0.
        -13    1    1    0    0    0 -0.22432219840E+02  0.44132137145E+02  0.27332070725E+02  0.56550006809E+02  0.10566000000E+00 0.  1.
         13    1    1    0    0    0 -0.22315734247E+01  0.46039389261E+01  0.30400081104E+01  0.59522253764E+01  0.10566000000E+00 0. -1.
         22    1    1    0    0    0  0.24663793265E+02 -0.48736076071E+02 -0.30372078835E+02  0.62497767815E+02  0.00000000000E+00 0.  1.
</event>
<event>
 4    1  0.9925048E-003  0.9118800E+02  0.7818608E-02  0.1130116E+00
         25   -1    0    0    0    0  0.00000000000E+00  0.00000000000E+00  0.99999998245E-14  0.12500000000E+03  0.12500000000E+03 0.  0.
        -13    1    1    0    0    0 -0.97647154640E+01  0.82786440818E+01 -0.11472181876E+02  0.17190338477E+02  0.10566000000E+00 0. -1.
         13    1    1    0    0    0 -0.16356588630E+02 -0.37960166430E+01  0.54636253091E+02  0.57158368152E+02  0.10566000000E+00 0.  1.
         22    1    1    0    0    0  0.26121304094E+02 -0.44826274388E+01 -0.43164071215E+02  0.50651293371E+02  0.00000000000E+00 0.  1.
</event>
<event>
 4    1  0.9925048E-003  0.9118800E+02  0.7818608E-02  0.1130116E+00
         25   -1    0    0    0    0  0.00000000000E+00  0.00000000000E+00  0.99999998245E-14  0.12500000000E+03  0.12500000000E+03 0.  0.
        -13    1    1    0    0    0  0.32468442261E+02  0.25857211253E+01 -0.46210055279E+02  0.56535529267E+02  0.10566000000E+00 0. -1.
         13    1    1    0    0    0  0.48111959914E+01  0.78951329999E+01  0.15873794871E+01  0.93814534922E+01  0.10566000000E+00 0.  1.
         22    1    1    0    0    0 -0.37279638252E+02 -0.10480854125E+02  0.44622675792E+02  0.59083017241E+02  0.00000000000E+00 0. -1.
</event>
<event>
 4    1  0.9925048E-003  0.9118800E+02  0.7818608E-02  0.1130116E+00
         25   -1    0    0    0    0  0.00000000000E+00  0.00000000000E+00  0.99999998245E-14  0.12500000000E+03  0.12500000000E+03 0.  0.
        -13    1    1    0    0    0 -0.21216527085E+01 -0.60831111659E+01  0.11774480009E+02  0.13422190402E+02  0.10566000000E+00 0. -1.
         13    1    1    0    0    0 -0.13895017594E+02 -0.15718100132E+02  0.44467445539E+02  0.49168028866E+02  0.10566000000E+00 0.  1.
         22    1    1    0    0    0  0.16016670303E+02  0.21801211298E+02 -0.56241925548E+02  0.62409780732E+02  0.00000000000E+00 0.  1.
</event>
<event>
 4    1  0.9925048E-003  0.9118800E+02  0.7818608E-02  0.1130116E+00
         25   -1    0    0    0    0  0.00000000000E+00  0.00000000000E+00  0.99999998245E-14  0.12500000000E+03  0.12500000000E+03 0.  0.
        -13    1    1    0    0    0 -0.52925837265E+01  0.66191345054E+01  0.23753654770E+02  0.25220461198E+02  0.10566000000E+00 0.  1.
         13    1    1    0    0    0 -0.19918603304E+02  0.10479555222E+02  0.30292956294E+02  0.37739186535E+02  0.10566000000E+00 0. -1.
         22    1    1    0    0    0  0.25211187031E+02 -0.17098689727E+02 -0.54046611064E+02  0.62040352267E+02  0.00000000000E+00 0. -1.
</event>
<event>
 4    1  0.9925048E-003  0.9118800E+02  0.7818608E-02  0.1130116E+00
         25   -1    0    0    0    0  0.00000000000E+00  0.00000000000E+00  0.99999998245E-14  0.12500000000E+03  0.12500000000E+03 0.  0.
        -13    1    1    0    0    0  0.69278708908E+01  0.88298953020E+01 -0.36125902559E+01  0.11790861653E+02  0.10566000000E+00 0.  1.
         13    1    1    0    0    0  0.29007772868E+02  0.38397739740E+02 -0.15990389077E+02  0.50710363938E+02  0.10566000000E+00 0.  1.
         22    1    1    0    0    0 -0.35935643758E+02 -0.47227635042E+02  0.19602979333E+02  0.62498774409E+02  0.00000000000E+00 0.  1.
</event>
<event>
 4    1  0.9925048E-003  0.9118800E+02  0.7818608E-02  0.1130116E+00
         25   -1    0    0    0    0  0.00000000000E+00  0.00000000000E+00  0.99999998245E-14  0.12500000000E+03  0.12500000000E+03 0.  0.
        -13    1    1    0    0    0  0.16874194740E+02 -0.99230588139E+01  0.31480403832E+02  0.37070642479E+02  0.10566000000E+00 0. -1.
         13    1    1    0    0    0  0.78435651090E+01 -0.18374925673E+02  0.17249971646E+02  0.26395683226E+02  0.10566000000E+00 0.  1.
         22    1    1    0    0    0 -0.24717759849E+02  0.28297984487E+02 -0.48730375478E+02  0.61533674295E+02  0.00000000000E+00 0.  1.
</event>
<event>
 4    1  0.9925048E-003  0.9118800E+02  0.7818608E-02  0.1130116E+00
         25   -1    0    0    0    0  0.00000000000E+00  0.00000000000E+00  0.99999998245E-14  0.12500000000E+03  0.12500000000E+03 0.  0.
        -13    1    1    0    0    0 -0.28221657581E+01 -0.31749458770E+01  0.54548337800E+01  0.69145698703E+01  0.10566000000E+00 0.  1.
         13    1    1    0    0    0 -0.25354452610E+02 -0.22590599047E+02  0.44016664308E+02  0.55593716671E+02  0.10566000000E+00 0. -1.
         22    1    1    0    0    0  0.28176618368E+02  0.25765544924E+02 -0.49471498088E+02  0.62491713459E+02  0.00000000000E+00 0. -1.
</event>
<event>
 4    1  0.9925048E-003  0.9118800E+02  0.7818608E-02  0.1130116E+00
         25   -1    0    0    0    0  0.00000000000E+00  0.00000000000E+00  0.99999998245E-14  0.12500000000E+03  0.12500000000E+03 0.  0.
        -13    1    1    0    0    0 -0.41076802950E+02  0.14872524577E+02 -0.14575695326E+02  0.46053857451E+02  0.10566000000E+00 0. -1.
         13    1    1    0    0    0  0.83717549428E-01  0.19506612438E+02 -0.77282118112E+01  0.20982167650E+02  0.10566000000E+00 0.  1.
         22    1    1    0    0    0  0.40993085400E+02 -0.34379137015E+02  0.22303907137E+02  0.57963974899E+02  0.00000000000E+00 0. -1.
</event>
<event>
 4    1  0.9925048E-003  0.9118800E+02  0.7818608E-02  0.1130116E+00
         25   -1    0    0    0    0  0.00000000000E+00  0.00000000000E+00  0.99999998245E-14  0.12500000000E+03  0.12500000000E+03 0.  0.
        -13    1    1    0    0    0 -0.39435049913E+01  0.16128381266E+02  0.87369382070E+00  0.16626798213E+02  0.10566000000E+00 0. -1.
         13    1    1    0    0    0 -0.84010719255E+01  0.44804487608E+02  0.53194185024E+01  0.45894743670E+02  0.10566000000E+00 0.  1.
         22    1    1    0    0    0  0.12344576917E+02 -0.60932868874E+02 -0.61931123231E+01  0.62478458117E+02  0.00000000000E+00 0.  1.
</event>
<event>
 4    1  0.9925048E-003  0.9118800E+02  0.7818608E-02  0.1130116E+00
         25   -1    0    0    0    0  0.00000000000E+00  0.00000000000E+00  0.99999998245E-14  0.12500000000E+03  0.12500000000E+03 0.  0.
        -13    1    1    0    0    0  0.13146629198E+02  0.58935234995E+01  0.57748281495E+02  0.59518422847E+02  0.10566000000E+00 0. -1.
         13    1    1    0    0    0  0.72048388043E+00  0.31062521357E+00  0.28759329403E+01  0.29829078695E+01  0.10566000000E+00 0. -1.
         22    1    1    0    0    0 -0.13867113078E+02 -0.62041487131E+01 -0.60624214435E+02  0.62498669284E+02  0.00000000000E+00 0. -1.
</event>
<event>
 4    1  0.9925048E-003  0.9118800E+02  0.7818608E-02  0.1130116E+00
         25   -1    0    0    0    0  0.00000000000E+00  0.00000000000E+00  0.99999998245E-14  0.12500000000E+03  0.12500000000E+03 0.  0.
        -13    1    1    0    0    0  0.18807624277E+02  0.15199634589E+02 -0.10938253129E+02  0.26540764272E+02  0.10566000000E+00 0.  1.
         13    1    1    0    0    0  0.28567587814E+02  0.18895168982E+02 -0.11196448829E+02  0.36034790339E+02  0.10566000000E+00 0. -1.
         22    1    1    0    0    0 -0.47375212092E+02 -0.34094803571E+02  0.22134701958E+02  0.62424445388E+02  0.00000000000E+00 0. -1.
</event>
<event>
 4    1  0.9925048E-003  0.9118800E+02  0.7818608E-02  0.1130116E+00
         25   -1    0    0    0    0  0.00000000000E+00  0.00000000000E+00  0.99999998245E-14  0.12500000000E+03  0.12500000000E+03 0.  0.
        -13    1    1    0    0    0  0.96006118178E+01  0.17865762698E+02  0.24495363047E+02  0.31802377252E+02  0.10566000000E+00 0. -1.
         13    1    1    0    0    0  0.13579672749E+02  0.16704613526E+02  0.22008747655E+02  0.30787136314E+02  0.10566000000E+00 0.  1.
         22    1    1    0    0    0 -0.23180284567E+02 -0.34570376223E+02 -0.46504110702E+02  0.62410486434E+02  0.00000000000E+00 0.  1.
</event>
<event>
 4    1  0.9925048E-003  0.9118800E+02  0.7818608E-02  0.1130116E+00
         25   -1    0    0    0    0  0.00000000000E+00  0.00000000000E+00  0.99999998245E-14  0.12500000000E+03  0.12500000000E+03 0.  0.
        -13    1    1    0    0    0 -0.18436343424E+02 -0.45649113165E+01 -0.50595426035E+02  0.54042996530E+02  0.10566000000E+00 0. -1.
         13    1    1    0    0    0 -0.31730435441E+01 -0.75787731526E+00 -0.78048566422E+01  0.84598779305E+01  0.10566000000E+00 0.  1.
         22    1    1    0    0    0  0.21609386968E+02  0.53227886317E+01  0.58400282677E+02  0.62497125540E+02  0.00000000000E+00 0. -1.
</event>
<event>
 4    1  0.9925048E-003  0.9118800E+02  0.7818608E-02  0.1130116E+00
         25   -1    0    0    0    0  0.00000000000E+00  0.00000000000E+00  0.99999998245E-14  0.12500000000E+03  0.12500000000E+03 0.  0.
        -13    1    1    0    0    0 -0.15209928549E+02  0.13859493150E+02  0.48853701712E+02  0.53010591506E+02  0.10566000000E+00 0.  1.
         13    1    1    0    0    0 -0.36605181312E+01  0.15613262726E+01  0.86569617156E+01  0.95284459856E+01  0.10566000000E+00 0. -1.
         22    1    1    0    0    0  0.18870446680E+02 -0.15420819423E+02 -0.57510663428E+02  0.62460962508E+02  0.00000000000E+00 0.  1.
</event>
<event>
 4    1  0.9925048E-003  0.9118800E+02  0.7818608E-02  0.1130116E+00
         25   -1    0    0    0    0  0.00000000000E+00  0.00000000000E+00  0.99999998245E-14  0.12500000000E+03  0.12500000000E+03 0.  0.
        -13    1    1    0    0    0  0.20437204414E+02  0.20149493266E+00 -0.25669766145E+02  0.32812619256E+02  0.10566000000E+00 0. -1.
         13    1    1    0    0    0  0.15464073876E+02 -0.14929659772E+01 -0.25383901519E+02  0.29761050865E+02  0.10566000000E+00 0.  1.
         22    1    1    0    0    0 -0.35901278290E+02  0.12914710446E+01  0.51053667663E+02  0.62426329879E+02  0.00000000000E+00 0. -1.
</event>
<event>
 4    1  0.9925048E-003  0.9118800E+02  0.7818608E-02  0.1130116E+00
         25   -1    0    0    0    0  0.00000000000E+00  0.00000000000E+00  0.99999998245E-14  0.12500000000E+03  0.12500000000E+03 0.  0.
        -13    1    1    0    0    0 -0.30278537288E+01 -0.48601338067E+02  0.19114824694E+02  0.52312958694E+02  0.10566000000E+00 0. -1.
         13    1    1    0    0    0 -0.55601206744E+00 -0.94823807993E+01  0.36807543178E+01  0.10187433996E+02  0.10566000000E+00 0. -1.
         22    1    1    0    0    0  0.35838657963E+01  0.58083718867E+02 -0.22795579012E+02  0.62499607310E+02  0.00000000000E+00 0. -1.
</event>
<event>
 4    1  0.9925048E-003  0.9118800E+02  0.7818608E-02  0.1130116E+00
         25   -1    0    0    0    0  0.00000000000E+00  0.00000000000E+00  0.99999998245E-14  0.12500000000E+03  0.12500000000E+03 0.  0.
        -13    1    1    0    0    0  0.16843890138E+02 -0.54354857267E+02  0.10596935814E+01  0.56914859730E+02  0.10566000000E+00 0. -1.
         13    1    1    0    0    0  0.40064800479E+01 -0.41155702724E+01 -0.17474129996E+01  0.60045330599E+01  0.10566000000E+00 0.  1.
         22    1    1    0    0    0 -0.20850370186E+02  0.58470427540E+02  0.68771941819E+00  0.62080607210E+02  0.00000000000E+00 0. -1.
</event>
<event>
 4    1  0.9925048E-003  0.9118800E+02  0.7818608E-02  0.1130116E+00
         25   -1    0    0    0    0  0.00000000000E+00  0.00000000000E+00  0.99999998245E-14  0.12500000000E+03  0.12500000000E+03 0.  0.
        -13    1    1    0    0    0  0.19964332730E+02  0.14530803434E+02  0.67112775594E+01  0.25588498204E+02  0.10566000000E+00 0.  1.
         13    1    1    0    0    0  0.28634325590E+02  0.21221209410E+02  0.96030081342E+01  0.36911966353E+02  0.10566000000E+00 0.  1.
         22    1    1    0    0    0 -0.48598658320E+02 -0.35752012844E+02 -0.16314285694E+02  0.62499535443E+02  0.00000000000E+00 0.  1.
</event>
<event>
 4    1  0.9925048E-003  0.9118800E+02  0.7818608E-02  0.1130116E+00
         25   -1    0    0    0    0  0.00000000000E+00  0.00000000000E+00  0.99999998245E-14  0.12500000000E+03  0.12500000000E+03 0.  0.
        -13    1    1    0    0    0  0.11197447395E+02 -0.62510602800E+01 -0.20371208317E+02  0.24071889729E+02  0.10566000000E+00 0.  1.
         13    1    1    0    0    0  0.18006241866E+02 -0.10046421493E+02 -0.32427973513E+02  0.38428374427E+02  0.10566000000E+00 0. -1.
         22    1    1    0    0    0 -0.29203689261E+02  0.16297481773E+02  0.52799181830E+02  0.62499735844E+02  0.00000000000E+00 0.  1.
</event>
<event>
 4    1  0.9925048E-003  0.9118800E+02  0.7818608E-02  0.1130116E+00
         25   -1    0    0    0    0  0.00000000000E+00  0.00000000000E+00  0.99999998245E-14  0.12500000000E+03  0.12500000000E+03 0.  0.
        -13    1    1    0    0    0 -0.17149761534E+01  0.57704695787E+01 -0.27770099136E+01  0.66304155572E+01  0.10566000000E+00 0. -1.
         13    1    1    0    0    0  0.24912848130E+02  0.45106774117E+02 -0.23442448053E+02  0.56611223338E+02  0.10566000000E+00 0.  1.
         22    1    1    0    0    0 -0.23197871976E+02 -0.50877243695E+02  0.26219457966E+02  0.61758361104E+02  0.00000000000E+00 0.  1.
</event>
<event>
 4    1  0.9925048E-003  0.9118800E+02  0.7818608E-02  0.1130116E+00
         25   -1    0    0    0    0  0.00000000000E+00  0.00000000000E+00  0.99999998245E-14  0.12500000000E+03  0.12500000000E+03 0.  0.
        -13    1    1    0    0    0  0.16981455692E+02 -0.17108156169E+01  0.77609283754E+01  0.18749397345E+02  0.10566000000E+00 0.  1.
         13    1    1    0    0    0  0.38450188550E+02 -0.23863695160E+01  0.20776717866E+02  0.43769794703E+02  0.10566000000E+00 0. -1.
         22    1    1    0    0    0 -0.55431644242E+02  0.40971851329E+01 -0.28537646241E+02  0.62480807953E+02  0.00000000000E+00 0.  1.
</event>
<event>
 4    1  0.9925048E-003  0.9118800E+02  0.7818608E-02  0.1130116E+00
         25   -1    0    0    0    0  0.00000000000E+00  0.00000000000E+00  0.99999998245E-14  0.12500000000E+03  0.12500000000E+03 0.  0.
        -13    1    1    0    0    0  0.97273364938E+01  0.47840871139E+02  0.18120114528E+02  0.52074175377E+02  0.10566000000E+00 0.  1.
         13    1    1    0    0    0  0.22021883260E+01  0.97429617875E+01  0.30185196529E+01  0.10435399501E+02  0.10566000000E+00 0. -1.
         22    1    1    0    0    0 -0.11929524820E+02 -0.57583832927E+02 -0.21138634181E+02  0.62490425122E+02  0.00000000000E+00 0. -1.
</event>
<event>
 4    1  0.9925048E-003  0.9118800E+02  0.7818608E-02  0.1130116E+00
         25   -1    0    0    0    0  0.00000000000E+00  0.00000000000E+00  0.99999998245E-14  0.12500000000E+03  0.12500000000E+03 0.  0.
        -13    1    1    0    0    0 -0.30673497209E+02  0.74128537454E+01 -0.13823016942E+02  0.34451426576E+02  0.10566000000E+00 0. -1.
         13    1    1    0    0    0 -0.20030426646E+02  0.62449276050E+00 -0.20599282313E+02  0.28739338522E+02  0.10566000000E+00 0.  1.
         22    1    1    0    0    0  0.50703923855E+02 -0.80373465059E+01  0.34422299255E+02  0.61809234902E+02  0.00000000000E+00 0. -1.
</event>
<event>
 4    1  0.9925048E-003  0.9118800E+02  0.7818608E-02  0.1130116E+00
         25   -1    0    0    0    0  0.00000000000E+00  0.00000000000E+00  0.99999998245E-14  0.12500000000E+03  0.12500000000E+03 0.  0.
        -13    1    1    0    0    0  0.67929838601E+00 -0.11239831154E+00  0.29869848915E+01  0.30671358717E+01  0.10566000000E+00 0.  1.
         13    1    1    0    0    0  0.19799274735E+01  0.12761280766E+02  0.58087422078E+02  0.59505715417E+02  0.10566000000E+00 0. -1.
         22    1    1    0    0    0 -0.26592258595E+01 -0.12648882454E+02 -0.61074406970E+02  0.62427148711E+02  0.00000000000E+00 0. -1.
</event>
<event>
 4    1  0.9925048E-003  0.9118800E+02  0.7818608E-02  0.1130116E+00
         25   -1    0    0    0    0  0.00000000000E+00  0.00000000000E+00  0.99999998245E-14  0.12500000000E+03  0.12500000000E+03 0.  0.
        -13    1    1    0    0    0  0.21052591432E+01  0.76179798409E+01 -0.13901212327E+01  0.80255425980E+01  0.10566000000E+00 0.  1.
         13    1    1    0    0    0  0.13803203489E+02  0.51719880540E+02 -0.10102877714E+02  0.54475258345E+02  0.10566000000E+00 0. -1.
         22    1    1    0    0    0 -0.15908462632E+02 -0.59337860381E+02  0.11492998947E+02  0.62499199057E+02  0.00000000000E+00 0. -1.
</event>
<event>
 4    1  0.9925048E-003  0.9118800E+02  0.7818608E-02  0.1130116E+00
         25   -1    0    0    0    0  0.00000000000E+00  0.00000000000E+00  0.99999998245E-14  0.12500000000E+03  0.12500000000E+03 0.  0.
        -13    1    1    0    0    0  0.39345079066E+01  0.23954837755E+02  0.12561834736E+02  0.27333595817E+02  0.10566000000E+00 0. -1.
         13    1    1    0    0    0 -0.58416353232E+01  0.12149241231E+02  0.35240696617E+02  0.37731242065E+02  0.10566000000E+00 0.  1.
         22    1    1    0    0    0  0.19071274166E+01 -0.36104078986E+02 -0.47802531352E+02  0.59935162118E+02  0.00000000000E+00 0.  1.
</event>
<event>
 4    1  0.9925048E-003  0.9118800E+02  0.7818608E-02  0.1130116E+00
         25   -1    0    0    0    0  0.00000000000E+00  0.00000000000E+00  0.99999998245E-14  0.12500000000E+03  0.12500000000E+03 0.  0.
        -13    1    1    0    0    0  0.55865271195E+01  0.66089811568E+01  0.44034404112E+01  0.97102712979E+01  0.10566000000E+00 0. -1.
         13    1    1    0    0    0  0.29589487616E+02  0.39437234815E+02  0.18944364905E+02  0.52817926814E+02  0.10566000000E+00 0.  1.
         22    1    1    0    0    0 -0.35176014736E+02 -0.46046215972E+02 -0.23347805316E+02  0.62471801888E+02  0.00000000000E+00 0.  1.
</event>
<event>
 4    1  0.9925048E-003  0.9118800E+02  0.7818608E-02  0.1130116E+00
         25   -1    0    0    0    0  0.00000000000E+00  0.00000000000E+00  0.99999998245E-14  0.12500000000E+03  0.12500000000E+03 0.  0.
        -13    1    1    0    0    0  0.98798962601E+01 -0.10985873450E+02  0.15128901596E+02  0.21147023268E+02  0.10566000000E+00 0. -1.
         13    1    1    0    0    0  0.24097041917E+02 -0.19798118634E+02  0.27252615245E+02  0.41416773562E+02  0.10566000000E+00 0.  1.
         22    1    1    0    0    0 -0.33976938177E+02  0.30783992084E+02 -0.42381516841E+02  0.62436203170E+02  0.00000000000E+00 0. -1.
</event>
<event>
 4    1  0.9925048E-003  0.9118800E+02  0.7818608E-02  0.1130116E+00
         25   -1    0    0    0    0  0.00000000000E+00  0.00000000000E+00  0.99999998245E-14  0.12500000000E+03  0.12500000000E+03 0.  0.
        -13    1    1    0    0    0  0.80753521045E+01 -0.46398844633E+01 -0.11161550295E+02  0.14537235242E+02  0.10566000000E+00 0. -1.
         13    1    1    0    0    0 -0.43995653989E+02  0.11973346773E+02 -0.30584804341E+02  0.54903734148E+02  0.10566000000E+00 0.  1.
         22    1    1    0    0    0  0.35920301884E+02 -0.73334623099E+01  0.41746354636E+02  0.55559030610E+02  0.00000000000E+00 0.  1.
</event>
<event>
 4    1  0.9925048E-003  0.9118800E+02  0.7818608E-02  0.1130116E+00
         25   -1    0    0    0    0  0.00000000000E+00  0.00000000000E+00  0.99999998245E-14  0.12500000000E+03  0.12500000000E+03 0.  0.
        -13    1    1    0    0    0 -0.26583187744E+02 -0.23672312748E+02  0.48615760885E+02  0.60254025857E+02  0.10566000000E+00 0.  1.
         13    1    1    0    0    0 -0.86198078231E+00 -0.16801708737E+01  0.13729953991E+01  0.23371489973E+01  0.10566000000E+00 0. -1.
         22    1    1    0    0    0  0.27445168527E+02  0.25352483621E+02 -0.49988756284E+02  0.62408825146E+02  0.00000000000E+00 0.  1.
</event>
<event>
 4    1  0.9925048E-003  0.9118800E+02  0.7818608E-02  0.1130116E+00
         25   -1    0    0    0    0  0.00000000000E+00  0.00000000000E+00  0.99999998245E-14  0.12500000000E+03  0.12500000000E+03 0.  0.
        -13    1    1    0    0    0  0.96791225539E+00  0.38474738133E+01  0.23934530314E+01  0.46346186820E+01  0.10566000000E+00 0. -1.
         13    1    1    0    0    0  0.67937882725E+01  0.48089017211E+02  0.31478402736E+02  0.57875816524E+02  0.10566000000E+00 0.  1.
         22    1    1    0    0    0 -0.77617005279E+01 -0.51936491025E+02 -0.33871855767E+02  0.62489564794E+02  0.00000000000E+00 0.  1.
</event>
<event>
 4    1  0.9925048E-003  0.9118800E+02  0.7818608E-02  0.1130116E+00
         25   -1    0    0    0    0  0.00000000000E+00  0.00000000000E+00  0.99999998245E-14  0.12500000000E+03  0.12500000000E+03 0.  0.
        -13    1    1    0    0    0  0.32472076053E+01 -0.13213595746E+02 -0.39251024882E+02  0.41542720037E+02  0.10566000000E+00 0.  1.
         13    1    1    0    0    0  0.45661179409E+01 -0.14260261337E+02 -0.15594574571E+02  0.21619583866E+02  0.10566000000E+00 0. -1.
         22    1    1    0    0    0 -0.78133255462E+01  0.27473857083E+02  0.54845599454E+02  0.61837696096E+02  0.00000000000E+00 0. -1.
</event>
<event>
 4    1  0.9925048E-003  0.9118800E+02  0.7818608E-02  0.1130116E+00
         25   -1    0    0    0    0  0.00000000000E+00  0.00000000000E+00  0.99999998245E-14  0.12500000000E+03  0.12500000000E+03 0.  0.
        -13    1    1    0    0    0  0.14016021067E+02 -0.53379610404E+02  0.28348201583E+02  0.62044043634E+02  0.10566000000E+00 0. -1.
         13    1    1    0    0    0 -0.70379054130E+01  0.18963960827E+02 -0.15792717540E+02  0.25662911258E+02  0.10566000000E+00 0.  1.
         22    1    1    0    0    0 -0.69781156539E+01  0.34415649577E+02 -0.12555484043E+02  0.37293045108E+02  0.00000000000E+00 0. -1.
</event>
<event>
 4    1  0.9925048E-003  0.9118800E+02  0.7818608E-02  0.1130116E+00
         25   -1    0    0    0    0  0.00000000000E+00  0.00000000000E+00  0.99999998245E-14  0.12500000000E+03  0.12500000000E+03 0.  0.
        -13    1    1    0    0    0 -0.12136487805E+02 -0.71730813656E+01  0.37124669590E+02  0.39711455384E+02  0.10566000000E+00 0. -1.
         13    1    1    0    0    0 -0.12380654929E+01 -0.57258280465E+00  0.23085674847E+02  0.23126180065E+02  0.10566000000E+00 0.  1.
         22    1    1    0    0    0  0.13374553298E+02  0.77456641703E+01 -0.60210344437E+02  0.62162364551E+02  0.00000000000E+00 0. -1.
</event>
<event>
 4    1  0.9925048E-003  0.9118800E+02  0.7818608E-02  0.1130116E+00
         25   -1    0    0    0    0  0.00000000000E+00  0.00000000000E+00  0.99999998245E-14  0.12500000000E+03  0.12500000000E+03 0.  0.
        -13    1    1    0    0    0 -0.10673391080E+02  0.19482795727E+02 -0.28012661873E+02  0.35752216655E+02  0.10566000000E+00 0.  1.
         13    1    1    0    0    0  0.21554666253E+01  0.18424187085E+02 -0.20136299621E+02  0.27378430060E+02  0.10566000000E+00 0. -1.
         22    1    1    0    0    0  0.85179244542E+01 -0.37906982812E+02  0.48148961494E+02  0.61869353285E+02  0.00000000000E+00 0. -1.
</event>
<event>
 4    1  0.9925048E-003  0.9118800E+02  0.7818608E-02  0.1130116E+00
         25   -1    0    0    0    0  0.00000000000E+00  0.00000000000E+00  0.99999998245E-14  0.12500000000E+03  0.12500000000E+03 0.  0.
        -13    1    1    0    0    0 -0.11865033928E+01 -0.73589033476E+00  0.99221938674E+00  0.17160968017E+01  0.10566000000E+00 0.  1.
         13    1    1    0    0    0 -0.41483886579E+02 -0.34556293467E+02  0.27955827468E+02  0.60799586490E+02  0.10566000000E+00 0. -1.
         22    1    1    0    0    0  0.42670389972E+02  0.35292183802E+02 -0.28948046855E+02  0.62484316709E+02  0.00000000000E+00 0. -1.
</event>
<event>
 4    1  0.9925048E-003  0.9118800E+02  0.7818608E-02  0.1130116E+00
         25   -1    0    0    0    0  0.00000000000E+00  0.00000000000E+00  0.99999998245E-14  0.12500000000E+03  0.12500000000E+03 0.  0.
        -13    1    1    0    0    0 -0.12785429654E+02  0.90450260708E+01 -0.27983146610E+02  0.32067855655E+02  0.10566000000E+00 0.  1.
         13    1    1    0    0    0 -0.12966483153E+02  0.10420527554E+02 -0.25509274112E+02  0.30454085269E+02  0.10566000000E+00 0. -1.
         22    1    1    0    0    0  0.25751912808E+02 -0.19465553625E+02  0.53492420722E+02  0.62478059076E+02  0.00000000000E+00 0.  1.
</event>
<event>
 4    1  0.9925048E-003  0.9118800E+02  0.7818608E-02  0.1130116E+00
         25   -1    0    0    0    0  0.00000000000E+00  0.00000000000E+00  0.99999998245E-14  0.12500000000E+03  0.12500000000E+03 0.  0.
        -13    1    1    0    0    0  0.33682777007E+02 -0.18915193794E+02 -0.34001847515E+01  0.38779974775E+02  0.10566000000E+00 0.  1.
         13    1    1    0    0    0  0.20863435715E+02 -0.11072017505E+02 -0.22063208004E+01  0.23722384724E+02  0.10566000000E+00 0. -1.
         22    1    1    0    0    0 -0.54546212722E+02  0.29987211298E+02  0.56065055519E+01  0.62497640502E+02  0.00000000000E+00 0. -1.
</event>
<event>
 4    1  0.9925048E-003  0.9118800E+02  0.7818608E-02  0.1130116E+00
         25   -1    0    0    0    0  0.00000000000E+00  0.00000000000E+00  0.99999998245E-14  0.12500000000E+03  0.12500000000E+03 0.  0.
        -13    1    1    0    0    0  0.42987948964E+02 -0.86751727263E+01  0.66921384654E+01  0.44362351822E+02  0.10566000000E+00 0.  1.
         13    1    1    0    0    0  0.17630812130E+02 -0.34076341295E+01  0.25559631857E+01  0.18138401764E+02  0.10566000000E+00 0. -1.
         22    1    1    0    0    0 -0.60618761094E+02  0.12082806856E+02 -0.92481016510E+01  0.62499246413E+02  0.00000000000E+00 0. -1.
</event>
<event>
 4    1  0.9925048E-003  0.9118800E+02  0.7818608E-02  0.1130116E+00
         25   -1    0    0    0    0  0.00000000000E+00  0.00000000000E+00  0.99999998245E-14  0.12500000000E+03  0.12500000000E+03 0.  0.
        -13    1    1    0    0    0  0.83764204194E-01 -0.94741342861E+00 -0.20368111829E+01  0.22504160676E+01  0.10566000000E+00 0.  1.
         13    1    1    0    0    0  0.20020623030E+01  0.33352548419E+02 -0.50757731451E+02  0.60768077192E+02  0.10566000000E+00 0. -1.
         22    1    1    0    0    0 -0.20858265072E+01 -0.32405134990E+02  0.52794542634E+02  0.61981506741E+02  0.00000000000E+00 0. -1.
</event>
<event>
 4    1  0.9925048E-003  0.9118800E+02  0.7818608E-02  0.1130116E+00
         25   -1    0    0    0    0  0.00000000000E+00  0.00000000000E+00  0.99999998245E-14  0.12500000000E+03  0.12500000000E+03 0.  0.
        -13    1    1    0    0    0 -0.31764606644E+00 -0.12925682752E+01 -0.40027879845E+01  0.42196098698E+01  0.10566000000E+00 0. -1.
         13    1    1    0    0    0 -0.48921653867E+01 -0.24697995490E+02 -0.52579359297E+02  0.58296864852E+02  0.10566000000E+00 0.  1.
         22    1    1    0    0    0  0.52098114532E+01  0.25990563765E+02  0.56582147282E+02  0.62483525278E+02  0.00000000000E+00 0.  1.
</event>
<event>
 4    1  0.9925048E-003  0.9118800E+02  0.7818608E-02  0.1130116E+00
         25   -1    0    0    0    0  0.00000000000E+00  0.00000000000E+00  0.99999998245E-14  0.12500000000E+03  0.12500000000E+03 0.  0.
        -13    1    1    0    0    0 -0.71780010350E+00  0.61214232757E+02 -0.31059616520E+01  0.61297273111E+02  0.10566000000E+00 0.  1.
         13    1    1    0    0    0  0.12331605723E+01  0.50370703434E+00 -0.12491238319E+01  0.18291747200E+01  0.10566000000E+00 0. -1.
         22    1    1    0    0    0 -0.51536046875E+00 -0.61717939791E+02  0.43550854839E+01  0.61873552169E+02  0.00000000000E+00 0.  1.
</event>
<event>
 4    1  0.9925048E-003  0.9118800E+02  0.7818608E-02  0.1130116E+00
         25   -1    0    0    0    0  0.00000000000E+00  0.00000000000E+00  0.99999998245E-14  0.12500000000E+03  0.12500000000E+03 0.  0.
        -13    1    1    0    0    0 -0.48000603952E+02 -0.15274614358E+02  0.11128827867E+02  0.51587147598E+02  0.10566000000E+00 0.  1.
         13    1    1    0    0    0 -0.10508599128E+02 -0.24875933804E+01  0.17086508244E+01  0.10933866111E+02  0.10566000000E+00 0. -1.
         22    1    1    0    0    0  0.58509203080E+02  0.17762207738E+02 -0.12837478691E+02  0.62478986291E+02  0.00000000000E+00 0.  1.
</event>
<event>
 4    1  0.9925048E-003  0.9118800E+02  0.7818608E-02  0.1130116E+00
         25   -1    0    0    0    0  0.00000000000E+00  0.00000000000E+00  0.99999998245E-14  0.12500000000E+03  0.12500000000E+03 0.  0.
        -13    1    1    0    0    0 -0.16169018037E+02  0.41055584048E+02  0.26207082411E+02  0.51320760500E+02  0.10566000000E+00 0.  1.
         13    1    1    0    0    0 -0.33167850431E+01  0.91906881831E+01  0.54381739648E+01  0.11182786433E+02  0.10566000000E+00 0.  1.
         22    1    1    0    0    0  0.19485803080E+02 -0.50246272231E+02 -0.31645256376E+02  0.62496453067E+02  0.00000000000E+00 0.  1.
</event>
<event>
 4    1  0.9925048E-003  0.9118800E+02  0.7818608E-02  0.1130116E+00
         25   -1    0    0    0    0  0.00000000000E+00  0.00000000000E+00  0.99999998245E-14  0.12500000000E+03  0.12500000000E+03 0.  0.
        -13    1    1    0    0    0  0.61018933624E+01 -0.85729893633E+00  0.23067214184E+01  0.65802881251E+01  0.10566000000E+00 0. -1.
         13    1    1    0    0    0  0.46550193842E+02  0.27917527437E+02 -0.17981444787E+02  0.57180874474E+02  0.10566000000E+00 0.  1.
         22    1    1    0    0    0 -0.52652087205E+02 -0.27060228500E+02  0.15674723369E+02  0.61238837401E+02  0.00000000000E+00 0.  1.
</event>
<event>
 4    1  0.9925048E-003  0.9118800E+02  0.7818608E-02  0.1130116E+00
         25   -1    0    0    0    0  0.00000000000E+00  0.00000000000E+00  0.99999998245E-14  0.12500000000E+03  0.12500000000E+03 0.  0.
        -13    1    1    0    0    0  0.18395652785E+02 -0.12097796806E+02  0.66407611499E+01  0.22997121595E+02  0.10566000000E+00 0. -1.
         13    1    1    0    0    0  0.15756233925E+02 -0.37752175520E+02 -0.73959273427E+01  0.41571583675E+02  0.10566000000E+00 0.  1.
         22    1    1    0    0    0 -0.34151886710E+02  0.49849972326E+02  0.75516619281E+00  0.60431294730E+02  0.00000000000E+00 0.  1.
</event>
<event>
 4    1  0.9925048E-003  0.9118800E+02  0.7818608E-02  0.1130116E+00
         25   -1    0    0    0    0  0.00000000000E+00  0.00000000000E+00  0.99999998245E-14  0.12500000000E+03  0.12500000000E+03 0.  0.
        -13    1    1    0    0    0 -0.19448311409E+02  0.45283568371E+02  0.49581280025E+01  0.49532136825E+02  0.10566000000E+00 0.  1.
         13    1    1    0    0    0 -0.42636537503E+01  0.12130743552E+02  0.17966749605E+01  0.12983562199E+02  0.10566000000E+00 0. -1.
         22    1    1    0    0    0  0.23711965159E+02 -0.57414311924E+02 -0.67548029630E+01  0.62484300976E+02  0.00000000000E+00 0.  1.
</event>
<event>
 4    1  0.9925048E-003  0.9118800E+02  0.7818608E-02  0.1130116E+00
         25   -1    0    0    0    0  0.00000000000E+00  0.00000000000E+00  0.99999998245E-14  0.12500000000E+03  0.12500000000E+03 0.  0.
        -13    1    1    0    0    0  0.11835520924E+00  0.13888512785E+00 -0.79608037516E-01  0.22538524692E+00  0.10566000000E+00 0. -1.
         13    1    1    0    0    0 -0.11092798607E+02  0.58138738137E+02  0.19590489068E+02  0.62345500873E+02  0.10566000000E+00 0.  1.
         22    1    1    0    0    0  0.10974443398E+02 -0.58277623265E+02 -0.19510881030E+02  0.62429113880E+02  0.00000000000E+00 0.  1.
</event>
<event>
 4    1  0.9925048E-003  0.9118800E+02  0.7818608E-02  0.1130116E+00
         25   -1    0    0    0    0  0.00000000000E+00  0.00000000000E+00  0.99999998245E-14  0.12500000000E+03  0.12500000000E+03 0.  0.
        -13    1    1    0    0    0 -0.11274510265E+01 -0.19261981356E+02  0.62122143200E+01  0.20270615244E+02  0.10566000000E+00 0. -1.
         13    1    1    0    0    0  0.10517923550E+02 -0.40163894443E+02  0.94090695630E+01  0.42571197854E+02  0.10566000000E+00 0.  1.
         22    1    1    0    0    0 -0.93904725233E+01  0.59425875800E+02 -0.15621283883E+02  0.62158186902E+02  0.00000000000E+00 0.  1.
</event>
<event>
 4    1  0.9925048E-003  0.9118800E+02  0.7818608E-02  0.1130116E+00
         25   -1    0    0    0    0  0.00000000000E+00  0.00000000000E+00  0.99999998245E-14  0.12500000000E+03  0.12500000000E+03 0.  0.
        -13    1    1    0    0    0  0.98832967098E+01 -0.28237185099E+02 -0.39265188515E+02  0.49363796140E+02  0.10566000000E+00 0.  1.
         13    1    1    0    0    0  0.34123676935E+01 -0.61549514590E+01 -0.11144123187E+02  0.13180680043E+02  0.10566000000E+00 0. -1.
         22    1    1    0    0    0 -0.13295664403E+02  0.34392136558E+02  0.50409311703E+02  0.62455523817E+02  0.00000000000E+00 0.  1.
</event>
<event>
 4    1  0.9925048E-003  0.9118800E+02  0.7818608E-02  0.1130116E+00
         25   -1    0    0    0    0  0.00000000000E+00  0.00000000000E+00  0.99999998245E-14  0.12500000000E+03  0.12500000000E+03 0.  0.
        -13    1    1    0    0    0  0.29011844055E+02  0.16274266634E+02 -0.21833269365E+02  0.39789969404E+02  0.10566000000E+00 0. -1.
         13    1    1    0    0    0  0.16547281551E+02  0.93599484670E+01 -0.12422723922E+02  0.22710270710E+02  0.10566000000E+00 0. -1.
         22    1    1    0    0    0 -0.45559125606E+02 -0.25634215101E+02  0.34255993287E+02  0.62499759887E+02  0.00000000000E+00 0. -1.
</event>
<event>
 4    1  0.9925048E-003  0.9118800E+02  0.7818608E-02  0.1130116E+00
         25   -1    0    0    0    0  0.00000000000E+00  0.00000000000E+00  0.99999998245E-14  0.12500000000E+03  0.12500000000E+03 0.  0.
        -13    1    1    0    0    0 -0.15570736758E+02  0.18482190790E+02 -0.89205209722E+01  0.25760940938E+02  0.10566000000E+00 0.  1.
         13    1    1    0    0    0 -0.25662237290E+01  0.38725860371E+02  0.42626765434E+01  0.39044325338E+02  0.10566000000E+00 0. -1.
         22    1    1    0    0    0  0.18136960487E+02 -0.57208051161E+02  0.46578444288E+01  0.60194733724E+02  0.00000000000E+00 0.  1.
</event>
<event>
 4    1  0.9925048E-003  0.9118800E+02  0.7818608E-02  0.1130116E+00
         25   -1    0    0    0    0  0.00000000000E+00  0.00000000000E+00  0.99999998245E-14  0.12500000000E+03  0.12500000000E+03 0.  0.
        -13    1    1    0    0    0 -0.25641756149E+02 -0.59408021153E+01 -0.41018178815E+01  0.26638860000E+02  0.10566000000E+00 0. -1.
         13    1    1    0    0    0 -0.34482813967E+02 -0.80240373785E+01 -0.57080182587E+01  0.35861431530E+02  0.10566000000E+00 0. -1.
         22    1    1    0    0    0  0.60124570115E+02  0.13964839494E+02  0.98098361402E+01  0.62499708469E+02  0.00000000000E+00 0. -1.
</event>
<event>
 4    1  0.9925048E-003  0.9118800E+02  0.7818608E-02  0.1130116E+00
         25   -1    0    0    0    0  0.00000000000E+00  0.00000000000E+00  0.99999998245E-14  0.12500000000E+03  0.12500000000E+03 0.  0.
        -13    1    1    0    0    0 -0.18946882774E+01 -0.17235911907E+00 -0.50692278333E+00  0.19717216026E+01  0.10566000000E+00 0. -1.
         13    1    1    0    0    0 -0.58246908588E+02 -0.60017580827E+01 -0.15333743787E+02  0.60529813503E+02  0.10566000000E+00 0.  1.
         22    1    1    0    0    0  0.60141596865E+02  0.61741172017E+01  0.15840666570E+02  0.62498464894E+02  0.00000000000E+00 0.  1.
</event>
<event>
 4    1  0.9925048E-003  0.9118800E+02  0.7818608E-02  0.1130116E+00
         25   -1    0    0    0    0  0.00000000000E+00  0.00000000000E+00  0.99999998245E-14  0.12500000000E+03  0.12500000000E+03 0.  0.
        -13    1    1    0    0    0  0.34158907644E+02  0.57006423675E+01 -0.43020678495E+02  0.55227875544E+02  0.10566000000E+00 0.  1.
         13    1    1    0    0    0  0.48672000101E+01 -0.15894424315E+00 -0.54417244647E+01  0.73033162602E+01  0.10566000000E+00 0. -1.
         22    1    1    0    0    0 -0.39026107654E+02 -0.55416981243E+01  0.48462402960E+02  0.62468808196E+02  0.00000000000E+00 0.  1.
</event>
<event>
 4    1  0.9925048E-003  0.9118800E+02  0.7818608E-02  0.1130116E+00
         25   -1    0    0    0    0  0.00000000000E+00  0.00000000000E+00  0.99999998245E-14  0.12500000000E+03  0.12500000000E+03 0.  0.
        -13    1    1    0    0    0  0.11739639217E+02  0.42528477277E+01  0.14849393845E+02  0.19401585099E+02  0.10566000000E+00 0. -1.
         13    1    1    0    0    0  0.26124151660E+02  0.93201378008E+01  0.32987069431E+02  0.43098656386E+02  0.10566000000E+00 0. -1.
         22    1    1    0    0    0 -0.37863790877E+02 -0.13572985529E+02 -0.47836463276E+02  0.62499758516E+02  0.00000000000E+00 0. -1.
</event>
<event>
 4    1  0.9925048E-003  0.9118800E+02  0.7818608E-02  0.1130116E+00
         25   -1    0    0    0    0  0.00000000000E+00  0.00000000000E+00  0.99999998245E-14  0.12500000000E+03  0.12500000000E+03 0.  0.
        -13    1    1    0    0    0  0.14933236282E+02 -0.49325775457E+02 -0.25449845803E+01  0.51599629658E+02  0.10566000000E+00 0. -1.
         13    1    1    0    0    0  0.33468793707E+01 -0.99376870420E+01 -0.35776731822E+01  0.11080168532E+02  0.10566000000E+00 0.  1.
         22    1    1    0    0    0 -0.18280115652E+02  0.59263462499E+02  0.61226577625E+01  0.62320201810E+02  0.00000000000E+00 0. -1.
</event>
<event>
 4    1  0.9925048E-003  0.9118800E+02  0.7818608E-02  0.1130116E+00
         25   -1    0    0    0    0  0.00000000000E+00  0.00000000000E+00  0.99999998245E-14  0.12500000000E+03  0.12500000000E+03 0.  0.
        -13    1    1    0    0    0  0.78259773506E+00 -0.15774700012E+01 -0.48559380899E+00  0.18297093219E+01  0.10566000000E+00 0.  1.
         13    1    1    0    0    0  0.29373646157E+02 -0.43129149850E+02 -0.31028965753E+02  0.60710316546E+02  0.10566000000E+00 0. -1.
         22    1    1    0    0    0 -0.30156243892E+02  0.44706619851E+02  0.31514559562E+02  0.62459974132E+02  0.00000000000E+00 0. -1.
</event>
<event>
 4    1  0.9925048E-003  0.9118800E+02  0.7818608E-02  0.1130116E+00
         25   -1    0    0    0    0  0.00000000000E+00  0.00000000000E+00  0.99999998245E-14  0.12500000000E+03  0.12500000000E+03 0.  0.
        -13    1    1    0    0    0 -0.50887246128E+00 -0.36255088175E+01 -0.64321074743E+00  0.37186219852E+01  0.10566000000E+00 0. -1.
         13    1    1    0    0    0 -0.20059474992E+02 -0.55313408500E+02  0.13092906514E+01  0.58853046674E+02  0.10566000000E+00 0.  1.
         22    1    1    0    0    0  0.20568347453E+02  0.58938917317E+02 -0.66607990398E+00  0.62428331340E+02  0.00000000000E+00 0.  1.
</event>
<event>
 4    1  0.9925048E-003  0.9118800E+02  0.7818608E-02  0.1130116E+00
         25   -1    0    0    0    0  0.00000000000E+00  0.00000000000E+00  0.99999998245E-14  0.12500000000E+03  0.12500000000E+03 0.  0.
        -13    1    1    0    0    0 -0.34148041967E+02 -0.38210144554E+02 -0.87362188777E+01  0.51984965147E+02  0.10566000000E+00 0. -1.
         13    1    1    0    0    0  0.97613560435E+00 -0.77110222945E+01 -0.10610612482E+02  0.13153287301E+02  0.10566000000E+00 0.  1.
         22    1    1    0    0    0  0.33171906363E+02  0.45921166848E+02  0.19346831359E+02  0.59861747553E+02  0.00000000000E+00 0. -1.
</event>
<event>
 4    1  0.9925048E-003  0.9118800E+02  0.7818608E-02  0.1130116E+00
         25   -1    0    0    0    0  0.00000000000E+00  0.00000000000E+00  0.99999998245E-14  0.12500000000E+03  0.12500000000E+03 0.  0.
        -13    1    1    0    0    0  0.11967245670E+01 -0.14618423773E+02  0.32749589723E+02  0.35884220131E+02  0.10566000000E+00 0. -1.
         13    1    1    0    0    0 -0.96421330433E+01 -0.81323756008E+01  0.24156233029E+02  0.27251440710E+02  0.10566000000E+00 0.  1.
         22    1    1    0    0    0  0.84454084763E+01  0.22750799374E+02 -0.56905822753E+02  0.61864339160E+02  0.00000000000E+00 0. -1.
</event>
<event>
 4    1  0.9925048E-003  0.9118800E+02  0.7818608E-02  0.1130116E+00
         25   -1    0    0    0    0  0.00000000000E+00  0.00000000000E+00  0.99999998245E-14  0.12500000000E+03  0.12500000000E+03 0.  0.
        -13    1    1    0    0    0 -0.37317596522E+01 -0.23736454369E+02 -0.65010422315E+01  0.24892167648E+02  0.10566000000E+00 0. -1.
         13    1    1    0    0    0  0.35038670061E+00 -0.35308260785E+02 -0.13311507398E+02  0.37735970158E+02  0.10566000000E+00 0.  1.
         22    1    1    0    0    0  0.33813729516E+01  0.59044715154E+02  0.19812549630E+02  0.62371862194E+02  0.00000000000E+00 0.  1.
</event>
<event>
 4    1  0.9925048E-003  0.9118800E+02  0.7818608E-02  0.1130116E+00
         25   -1    0    0    0    0  0.00000000000E+00  0.00000000000E+00  0.99999998245E-14  0.12500000000E+03  0.12500000000E+03 0.  0.
        -13    1    1    0    0    0 -0.42972163020E+02 -0.25743581736E+02 -0.25914766476E+02  0.56399690431E+02  0.10566000000E+00 0. -1.
         13    1    1    0    0    0 -0.56139143111E+01 -0.79270429695E+00 -0.27014753830E+01  0.62812058775E+01  0.10566000000E+00 0.  1.
         22    1    1    0    0    0  0.48586077331E+02  0.26536286033E+02  0.28616241859E+02  0.62319103692E+02  0.00000000000E+00 0. -1.
</event>
<event>
 4    1  0.9925048E-003  0.9118800E+02  0.7818608E-02  0.1130116E+00
         25   -1    0    0    0    0  0.00000000000E+00  0.00000000000E+00  0.99999998245E-14  0.12500000000E+03  0.12500000000E+03 0.  0.
        -13    1    1    0    0    0  0.35416858212E+02  0.50356733997E+02 -0.57570309266E+01  0.61832912543E+02  0.10566000000E+00 0.  1.
         13    1    1    0    0    0 -0.79161385003E+00  0.67025901448E+00 -0.55152976533E+00  0.11795120820E+01  0.10566000000E+00 0. -1.
         22    1    1    0    0    0 -0.34625244362E+02 -0.51026993011E+02  0.63085606919E+01  0.61987575375E+02  0.00000000000E+00 0.  1.
</event>
<event>
 4    1  0.9925048E-003  0.9118800E+02  0.7818608E-02  0.1130116E+00
         25   -1    0    0    0    0  0.00000000000E+00  0.00000000000E+00  0.99999998245E-14  0.12500000000E+03  0.12500000000E+03 0.  0.
        -13    1    1    0    0    0  0.31175097821E+00 -0.10259879506E+02 -0.26735870971E+01  0.10607617459E+02  0.10566000000E+00 0.  1.
         13    1    1    0    0    0  0.35323052542E+01 -0.50247827240E+02 -0.12485665586E+02  0.51896284375E+02  0.10566000000E+00 0. -1.
         22    1    1    0    0    0 -0.38440562324E+01  0.60507706747E+02  0.15159252683E+02  0.62496098166E+02  0.00000000000E+00 0. -1.
</event>
<event>
 4    1  0.9925048E-003  0.9118800E+02  0.7818608E-02  0.1130116E+00
         25   -1    0    0    0    0  0.00000000000E+00  0.00000000000E+00  0.99999998245E-14  0.12500000000E+03  0.12500000000E+03 0.  0.
        -13    1    1    0    0    0 -0.32159331796E+02  0.26040451150E+02  0.24795055011E+02  0.48240373492E+02  0.10566000000E+00 0. -1.
         13    1    1    0    0    0 -0.91190234628E+01  0.72544352577E+01  0.82467045971E+01  0.14275949025E+02  0.10566000000E+00 0.  1.
         22    1    1    0    0    0  0.41278355259E+02 -0.33294886408E+02 -0.33041759608E+02  0.62483677483E+02  0.00000000000E+00 0. -1.
</event>
<event>
 4    1  0.9925048E-003  0.9118800E+02  0.7818608E-02  0.1130116E+00
         25   -1    0    0    0    0  0.00000000000E+00  0.00000000000E+00  0.99999998245E-14  0.12500000000E+03  0.12500000000E+03 0.  0.
        -13    1    1    0    0    0 -0.14979274891E+02  0.40747968809E+01 -0.31498169727E+02  0.35115929521E+02  0.10566000000E+00 0. -1.
         13    1    1    0    0    0 -0.11983087283E+02  0.36093644054E+01 -0.24358856196E+02  0.27385889276E+02  0.10566000000E+00 0.  1.
         22    1    1    0    0    0  0.26962362175E+02 -0.76841612862E+01  0.55857025923E+02  0.62498181203E+02  0.00000000000E+00 0.  1.
</event>
<event>
 4    1  0.9925048E-003  0.9118800E+02  0.7818608E-02  0.1130116E+00
         25   -1    0    0    0    0  0.00000000000E+00  0.00000000000E+00  0.99999998245E-14  0.12500000000E+03  0.12500000000E+03 0.  0.
        -13    1    1    0    0    0  0.40020900017E+02  0.16368141419E+02  0.72057015307E+01  0.43835166137E+02  0.10566000000E+00 0.  1.
         13    1    1    0    0    0  0.18532978709E+02  0.36666057404E+01 -0.30756446115E+00  0.18895000857E+02  0.10566000000E+00 0. -1.
         22    1    1    0    0    0 -0.58553878725E+02 -0.20034747159E+02 -0.68981370696E+01  0.62269833006E+02  0.00000000000E+00 0.  1.
</event>
<event>
 4    1  0.9925048E-003  0.9118800E+02  0.7818608E-02  0.1130116E+00
         25   -1    0    0    0    0  0.00000000000E+00  0.00000000000E+00  0.99999998245E-14  0.12500000000E+03  0.12500000000E+03 0.  0.
        -13    1    1    0    0    0  0.59598750380E+02  0.12622918030E+02 -0.17975873908E+01  0.60947449420E+02  0.10566000000E+00 0. -1.
         13    1    1    0    0    0  0.15826723614E+01 -0.41241377373E+00  0.10901379947E-01  0.16389691272E+01  0.10566000000E+00 0.  1.
         22    1    1    0    0    0 -0.61181422741E+02 -0.12210504256E+02  0.17866860109E+01  0.62413581452E+02  0.00000000000E+00 0. -1.
</event>
<event>
 4    1  0.9925048E-003  0.9118800E+02  0.7818608E-02  0.1130116E+00
         25   -1    0    0    0    0  0.00000000000E+00  0.00000000000E+00  0.99999998245E-14  0.12500000000E+03  0.12500000000E+03 0.  0.
        -13    1    1    0    0    0 -0.23682351853E+01 -0.14821644587E+02 -0.65449193540E+01  0.16374883803E+02  0.10566000000E+00 0. -1.
         13    1    1    0    0    0 -0.28939669895E+02 -0.24984553112E+02 -0.27941699149E+02  0.47354853006E+02  0.10566000000E+00 0.  1.
         22    1    1    0    0    0  0.31307905080E+02  0.39806197699E+02  0.34486618503E+02  0.61270263191E+02  0.00000000000E+00 0.  1.
</event>
<event>
 4    1  0.9925048E-003  0.9118800E+02  0.7818608E-02  0.1130116E+00
         25   -1    0    0    0    0  0.00000000000E+00  0.00000000000E+00  0.99999998245E-14  0.12500000000E+03  0.12500000000E+03 0.  0.
        -13    1    1    0    0    0 -0.10594927766E+02 -0.61362798230E+01 -0.14552625119E+02  0.19018319756E+02  0.10566000000E+00 0.  1.
         13    1    1    0    0    0 -0.24141865331E+02 -0.13799760371E+02 -0.33427733738E+02  0.43482037611E+02  0.10566000000E+00 0.  1.
         22    1    1    0    0    0  0.34736793097E+02  0.19936040194E+02  0.47980358856E+02  0.62499642633E+02  0.00000000000E+00 0.  1.
</event>
<event>
 4    1  0.9925048E-003  0.9118800E+02  0.7818608E-02  0.1130116E+00
         25   -1    0    0    0    0  0.00000000000E+00  0.00000000000E+00  0.99999998245E-14  0.12500000000E+03  0.12500000000E+03 0.  0.
        -13    1    1    0    0    0 -0.10714382763E+02 -0.10466455584E+02 -0.16141419883E+02  0.22020474345E+02  0.10566000000E+00 0. -1.
         13    1    1    0    0    0 -0.15787157939E+02 -0.16189079231E+02 -0.33681532326E+02  0.40568182434E+02  0.10566000000E+00 0.  1.
         22    1    1    0    0    0  0.26501540702E+02  0.26655534816E+02  0.49822952209E+02  0.62411343221E+02  0.00000000000E+00 0.  1.
</event>
<event>
 4    1  0.9925048E-003  0.9118800E+02  0.7818608E-02  0.1130116E+00
         25   -1    0    0    0    0  0.00000000000E+00  0.00000000000E+00  0.99999998245E-14  0.12500000000E+03  0.12500000000E+03 0.  0.
        -13    1    1    0    0    0  0.10709469354E+01 -0.57455289989E+01 -0.17409346295E+01  0.60991842270E+01  0.10566000000E+00 0. -1.
         13    1    1    0    0    0  0.13606126991E+02 -0.50115052862E+02 -0.22075071339E+02  0.56426635145E+02  0.10566000000E+00 0.  1.
         22    1    1    0    0    0 -0.14677073926E+02  0.55860581861E+02  0.23816005968E+02  0.62474180628E+02  0.00000000000E+00 0.  1.
</event>
<event>
 4    1  0.9925048E-003  0.9118800E+02  0.7818608E-02  0.1130116E+00
         25   -1    0    0    0    0  0.00000000000E+00  0.00000000000E+00  0.99999998245E-14  0.12500000000E+03  0.12500000000E+03 0.  0.
        -13    1    1    0    0    0 -0.38076063964E+02  0.70579377958E+01  0.31317779188E+02  0.49803770843E+02  0.10566000000E+00 0. -1.
         13    1    1    0    0    0 -0.10514067641E+02  0.11867431314E+01  0.70695715342E+01  0.12725721328E+02  0.10566000000E+00 0.  1.
         22    1    1    0    0    0  0.48590131605E+02 -0.82446809272E+01 -0.38387350722E+02  0.62470507829E+02  0.00000000000E+00 0. -1.
</event>
<event>
 4    1  0.9925048E-003  0.9118800E+02  0.7818608E-02  0.1130116E+00
         25   -1    0    0    0    0  0.00000000000E+00  0.00000000000E+00  0.99999998245E-14  0.12500000000E+03  0.12500000000E+03 0.  0.
        -13    1    1    0    0    0  0.27055276632E+02  0.20375979912E+02  0.40946838270E+02  0.53139658254E+02  0.10566000000E+00 0.  1.
         13    1    1    0    0    0  0.45703398346E+01  0.34707575797E+01  0.73968811479E+01  0.93626480833E+01  0.10566000000E+00 0. -1.
         22    1    1    0    0    0 -0.31625616467E+02 -0.23846737492E+02 -0.48343719418E+02  0.62497693662E+02  0.00000000000E+00 0.  1.
</event>
<event>
 4    1  0.9925048E-003  0.9118800E+02  0.7818608E-02  0.1130116E+00
         25   -1    0    0    0    0  0.00000000000E+00  0.00000000000E+00  0.99999998245E-14  0.12500000000E+03  0.12500000000E+03 0.  0.
        -13    1    1    0    0    0 -0.11844345357E+02 -0.25609843432E+02  0.13835177291E+02  0.31425720235E+02  0.10566000000E+00 0.  1.
         13    1    1    0    0    0 -0.30572545100E+02 -0.13018481219E+02  0.40639989851E+01  0.33476687694E+02  0.10566000000E+00 0. -1.
         22    1    1    0    0    0  0.42416890457E+02  0.38628324651E+02 -0.17899176276E+02  0.60097592072E+02  0.00000000000E+00 0. -1.
</event>
<event>
 4    1  0.9925048E-003  0.9118800E+02  0.7818608E-02  0.1130116E+00
         25   -1    0    0    0    0  0.00000000000E+00  0.00000000000E+00  0.99999998245E-14  0.12500000000E+03  0.12500000000E+03 0.  0.
        -13    1    1    0    0    0 -0.62822802224E+01 -0.91718904688E+01  0.12836400387E+01  0.11191492990E+02  0.10566000000E+00 0. -1.
         13    1    1    0    0    0 -0.23038165766E+02 -0.45077808378E+02  0.86187656958E+01  0.51352314224E+02  0.10566000000E+00 0.  1.
         22    1    1    0    0    0  0.29320445988E+02  0.54249698847E+02 -0.99024057345E+01  0.62456192786E+02  0.00000000000E+00 0.  1.
</event>
<event>
 4    1  0.9925048E-003  0.9118800E+02  0.7818608E-02  0.1130116E+00
         25   -1    0    0    0    0  0.00000000000E+00  0.00000000000E+00  0.99999998245E-14  0.12500000000E+03  0.12500000000E+03 0.  0.
        -13    1    1    0    0    0 -0.48318493723E+02 -0.12908620128E+02 -0.18291807606E+02  0.53253269372E+02  0.10566000000E+00 0.  1.
         13    1    1    0    0    0 -0.87026858719E+01 -0.78482669125E+00 -0.31767594818E+01  0.92981535350E+01  0.10566000000E+00 0. -1.
         22    1    1    0    0    0  0.57021179595E+02  0.13693446819E+02  0.21468567088E+02  0.62448577093E+02  0.00000000000E+00 0.  1.
</event>
<event>
 4    1  0.9925048E-003  0.9118800E+02  0.7818608E-02  0.1130116E+00
         25   -1    0    0    0    0  0.00000000000E+00  0.00000000000E+00  0.99999998245E-14  0.12500000000E+03  0.12500000000E+03 0.  0.
        -13    1    1    0    0    0  0.30835924953E+02 -0.20274001146E+02  0.33277810424E+02  0.49692184706E+02  0.10566000000E+00 0.  1.
         13    1    1    0    0    0  0.78687696720E+01 -0.52720413142E+01  0.86213776981E+01  0.12808250201E+02  0.10566000000E+00 0.  1.
         22    1    1    0    0    0 -0.38704694625E+02  0.25546042461E+02 -0.41899188123E+02  0.62499565092E+02  0.00000000000E+00 0.  1.
</event>
<event>
 4    1  0.9925048E-003  0.9118800E+02  0.7818608E-02  0.1130116E+00
         25   -1    0    0    0    0  0.00000000000E+00  0.00000000000E+00  0.99999998245E-14  0.12500000000E+03  0.12500000000E+03 0.  0.
        -13    1    1    0    0    0  0.93331745886E+01 -0.39046418044E+02 -0.46232293835E+02  0.61230442325E+02  0.10566000000E+00 0.  1.
         13    1    1    0    0    0  0.53665517006E+00 -0.90120684182E+00 -0.76594825760E+00  0.13030783983E+01  0.10566000000E+00 0. -1.
         22    1    1    0    0    0 -0.98698297587E+01  0.39947624886E+02  0.46998242093E+02  0.62466479277E+02  0.00000000000E+00 0.  1.
</event>
<event>
 4    1  0.9925048E-003  0.9118800E+02  0.7818608E-02  0.1130116E+00
         25   -1    0    0    0    0  0.00000000000E+00  0.00000000000E+00  0.99999998245E-14  0.12500000000E+03  0.12500000000E+03 0.  0.
        -13    1    1    0    0    0 -0.49482784876E+01  0.21823045208E+02 -0.16671609779E+00  0.22377884629E+02  0.10566000000E+00 0.  1.
         13    1    1    0    0    0 -0.90323113696E+01  0.39089450689E+02 -0.48122267964E+00  0.40122444381E+02  0.10566000000E+00 0. -1.
         22    1    1    0    0    0  0.13980589857E+02 -0.60912495897E+02  0.64793877743E+00  0.62499670990E+02  0.00000000000E+00 0. -1.
</event>
<event>
 4    1  0.9925048E-003  0.9118800E+02  0.7818608E-02  0.1130116E+00
         25   -1    0    0    0    0  0.00000000000E+00  0.00000000000E+00  0.99999998245E-14  0.12500000000E+03  0.12500000000E+03 0.  0.
        -13    1    1    0    0    0 -0.24311948597E+02  0.10599376856E+02 -0.17443720349E+01  0.26579534085E+02  0.10566000000E+00 0.  1.
         13    1    1    0    0    0 -0.32955852444E+02  0.13787524377E+02 -0.38233767246E+01  0.35927891844E+02  0.10566000000E+00 0. -1.
         22    1    1    0    0    0  0.57267801041E+02 -0.24386901233E+02  0.55677487595E+01  0.62492574071E+02  0.00000000000E+00 0. -1.
</event>
<event>
 4    1  0.9925048E-003  0.9118800E+02  0.7818608E-02  0.1130116E+00
         25   -1    0    0    0    0  0.00000000000E+00  0.00000000000E+00  0.99999998245E-14  0.12500000000E+03  0.12500000000E+03 0.  0.
        -13    1    1    0    0    0  0.12038300619E+01 -0.50490020413E+01  0.50242655762E+01  0.72246824876E+01  0.10566000000E+00 0.  1.
         13    1    1    0    0    0  0.14564726160E+02 -0.39198841710E+02  0.36175817919E+02  0.55293592808E+02  0.10566000000E+00 0. -1.
         22    1    1    0    0    0 -0.15768556222E+02  0.44247843752E+02 -0.41200083495E+02  0.62481724704E+02  0.00000000000E+00 0. -1.
</event>
<event>
 4    1  0.9925048E-003  0.9118800E+02  0.7818608E-02  0.1130116E+00
         25   -1    0    0    0    0  0.00000000000E+00  0.00000000000E+00  0.99999998245E-14  0.12500000000E+03  0.12500000000E+03 0.  0.
        -13    1    1    0    0    0  0.23475546158E+02 -0.13537703705E+02 -0.36033971535E+01  0.27338001465E+02  0.10566000000E+00 0. -1.
         13    1    1    0    0    0  0.30092741664E+02 -0.17620660972E+02 -0.45080163984E+01  0.35162397100E+02  0.10566000000E+00 0. -1.
         22    1    1    0    0    0 -0.53568287823E+02  0.31158364677E+02  0.81114135519E+01  0.62499601434E+02  0.00000000000E+00 0. -1.
</event>
<event>
 4    1  0.9925048E-003  0.9118800E+02  0.7818608E-02  0.1130116E+00
         25   -1    0    0    0    0  0.00000000000E+00  0.00000000000E+00  0.99999998245E-14  0.12500000000E+03  0.12500000000E+03 0.  0.
        -13    1    1    0    0    0 -0.14835960655E+01  0.12050347558E+01  0.34795066502E-01  0.19145602055E+01  0.10566000000E+00 0. -1.
         13    1    1    0    0    0 -0.23924351076E+01  0.43459127230E+02  0.42826118007E+02  0.61061502052E+02  0.10566000000E+00 0.  1.
         22    1    1    0    0    0  0.38760311731E+01 -0.44664161986E+02 -0.42860913073E+02  0.62023937742E+02  0.00000000000E+00 0.  1.
</event>
<event>
 4    1  0.9925048E-003  0.9118800E+02  0.7818608E-02  0.1130116E+00
         25   -1    0    0    0    0  0.00000000000E+00  0.00000000000E+00  0.99999998245E-14  0.12500000000E+03  0.12500000000E+03 0.  0.
        -13    1    1    0    0    0 -0.98327099328E+01 -0.11096739915E+01 -0.79120517558E+01  0.12669857458E+02  0.10566000000E+00 0.  1.
         13    1    1    0    0    0 -0.41196593974E+02 -0.46092610541E+01 -0.27685760180E+02  0.49848943051E+02  0.10566000000E+00 0. -1.
         22    1    1    0    0    0  0.51029303906E+02  0.57189350456E+01  0.35597811936E+02  0.62481199491E+02  0.00000000000E+00 0. -1.
</event>
<event>
 4    1  0.9925048E-003  0.9118800E+02  0.7818608E-02  0.1130116E+00
         25   -1    0    0    0    0  0.00000000000E+00  0.00000000000E+00  0.99999998245E-14  0.12500000000E+03  0.12500000000E+03 0.  0.
        -13    1    1    0    0    0  0.29094210352E+02  0.34265006443E+02 -0.87946759606E+01  0.45803070114E+02  0.10566000000E+00 0.  1.
         13    1    1    0    0    0  0.10218737892E+02  0.13331038203E+02 -0.28875863130E+00  0.16799813370E+02  0.10566000000E+00 0. -1.
         22    1    1    0    0    0 -0.39312948244E+02 -0.47596044646E+02  0.90834345919E+01  0.62397116517E+02  0.00000000000E+00 0. -1.
</event>
<event>
 4    1  0.9925048E-003  0.9118800E+02  0.7818608E-02  0.1130116E+00
         25   -1    0    0    0    0  0.00000000000E+00  0.00000000000E+00  0.99999998245E-14  0.12500000000E+03  0.12500000000E+03 0.  0.
        -13    1    1    0    0    0 -0.29881532123E+02 -0.22560746239E+02 -0.11467731885E+02  0.39158821119E+02  0.10566000000E+00 0. -1.
         13    1    1    0    0    0 -0.19378995743E+02 -0.11300098634E+02 -0.66182880137E+01  0.23389112967E+02  0.10566000000E+00 0.  1.
         22    1    1    0    0    0  0.49260527865E+02  0.33860844873E+02  0.18086019898E+02  0.62452065913E+02  0.00000000000E+00 0.  1.
</event>
<event>
 4    1  0.9925048E-003  0.9118800E+02  0.7818608E-02  0.1130116E+00
         25   -1    0    0    0    0  0.00000000000E+00  0.00000000000E+00  0.99999998245E-14  0.12500000000E+03  0.12500000000E+03 0.  0.
        -13    1    1    0    0    0 -0.16451198220E+02 -0.52878190375E+02 -0.12191709113E+02  0.56704443171E+02  0.10566000000E+00 0. -1.
         13    1    1    0    0    0 -0.18568309694E+01 -0.53970382626E+01 -0.10219586789E+01  0.57992591625E+01  0.10566000000E+00 0.  1.
         22    1    1    0    0    0  0.18308029190E+02  0.58275228637E+02  0.13213667792E+02  0.62496297667E+02  0.00000000000E+00 0. -1.
</event>
<event>
 4    1  0.9925048E-003  0.9118800E+02  0.7818608E-02  0.1130116E+00
         25   -1    0    0    0    0  0.00000000000E+00  0.00000000000E+00  0.99999998245E-14  0.12500000000E+03  0.12500000000E+03 0.  0.
        -13    1    1    0    0    0 -0.30477882597E+02 -0.20248283832E+02 -0.14950510444E+00  0.36591362937E+02  0.10566000000E+00 0. -1.
         13    1    1    0    0    0 -0.21579604675E+02 -0.14338100515E+02  0.49001859624E-01  0.25908956550E+02  0.10566000000E+00 0. -1.
         22    1    1    0    0    0  0.52057487272E+02  0.34586384348E+02  0.10050324481E+00  0.62499680513E+02  0.00000000000E+00 0. -1.
</event>
<event>
 4    1  0.9925048E-003  0.9118800E+02  0.7818608E-02  0.1130116E+00
         25   -1    0    0    0    0  0.00000000000E+00  0.00000000000E+00  0.99999998245E-14  0.12500000000E+03  0.12500000000E+03 0.  0.
        -13    1    1    0    0    0 -0.54233229140E+01 -0.22906728427E+02  0.16100571177E+01  0.23595213214E+02  0.10566000000E+00 0. -1.
         13    1    1    0    0    0  0.36264973242E+02 -0.25094890640E+02 -0.41245313939E+01  0.44293619673E+02  0.10566000000E+00 0.  1.
         22    1    1    0    0    0 -0.30841650328E+02  0.48001619068E+02  0.25144742761E+01  0.57111167113E+02  0.00000000000E+00 0.  1.
</event>
<event>
 4    1  0.9925048E-003  0.9118800E+02  0.7818608E-02  0.1130116E+00
         25   -1    0    0    0    0  0.00000000000E+00  0.00000000000E+00  0.99999998245E-14  0.12500000000E+03  0.12500000000E+03 0.  0.
        -13    1    1    0    0    0  0.21263965443E+02 -0.25165128369E+02 -0.17899043496E+02  0.37494357366E+02  0.10566000000E+00 0.  1.
         13    1    1    0    0    0  0.14613642094E+02 -0.17031045945E+02 -0.11044404196E+02  0.25012098859E+02  0.10566000000E+00 0. -1.
         22    1    1    0    0    0 -0.35877607536E+02  0.42196174314E+02  0.28943447692E+02  0.62493543775E+02  0.00000000000E+00 0.  1.
</event>
<event>
 4    1  0.9925048E-003  0.9118800E+02  0.7818608E-02  0.1130116E+00
         25   -1    0    0    0    0  0.00000000000E+00  0.00000000000E+00  0.99999998245E-14  0.12500000000E+03  0.12500000000E+03 0.  0.
        -13    1    1    0    0    0  0.18497122998E+02  0.84802402802E+00  0.44921291846E+02  0.48588026602E+02  0.10566000000E+00 0. -1.
         13    1    1    0    0    0  0.52622941017E+01 -0.57595035685E+00  0.12875430481E+02  0.13921613848E+02  0.10566000000E+00 0.  1.
         22    1    1    0    0    0 -0.23759417100E+02 -0.27207367117E+00 -0.57796722327E+02  0.62490359550E+02  0.00000000000E+00 0. -1.
</event>
<event>
 4    1  0.9925048E-003  0.9118800E+02  0.7818608E-02  0.1130116E+00
         25   -1    0    0    0    0  0.00000000000E+00  0.00000000000E+00  0.99999998245E-14  0.12500000000E+03  0.12500000000E+03 0.  0.
        -13    1    1    0    0    0 -0.15604726716E+01 -0.59388195359E+01 -0.28126788236E+02  0.28789443081E+02  0.10566000000E+00 0. -1.
         13    1    1    0    0    0 -0.36218319045E+02  0.16814800576E+02 -0.10298047533E+02  0.41237908529E+02  0.10566000000E+00 0.  1.
         22    1    1    0    0    0  0.37778791716E+02 -0.10875981040E+02  0.38424835769E+02  0.54972648390E+02  0.00000000000E+00 0.  1.
</event>
<event>
 4    1  0.9925048E-003  0.9118800E+02  0.7818608E-02  0.1130116E+00
         25   -1    0    0    0    0  0.00000000000E+00  0.00000000000E+00  0.99999998245E-14  0.12500000000E+03  0.12500000000E+03 0.  0.
        -13    1    1    0    0    0  0.51524041996E+02  0.18937750230E+02 -0.13747141622E+02  0.56589401430E+02  0.10566000000E+00 0. -1.
         13    1    1    0    0    0  0.52588014746E+01  0.25259178904E+01 -0.10511180577E+01  0.59288504236E+01  0.10566000000E+00 0.  1.
         22    1    1    0    0    0 -0.56782843471E+02 -0.21463668121E+02  0.14798259679E+02  0.62481748146E+02  0.00000000000E+00 0. -1.
</event>
<event>
 4    1  0.9925048E-003  0.9118800E+02  0.7818608E-02  0.1130116E+00
         25   -1    0    0    0    0  0.00000000000E+00  0.00000000000E+00  0.99999998245E-14  0.12500000000E+03  0.12500000000E+03 0.  0.
        -13    1    1    0    0    0 -0.44947752457E+01  0.17129052422E+02  0.50149869977E+02  0.53184848069E+02  0.10566000000E+00 0.  1.
         13    1    1    0    0    0 -0.72030382034E+00  0.29615537154E+01  0.88023008954E+01  0.93156482916E+01  0.10566000000E+00 0.  1.
         22    1    1    0    0    0  0.52150790661E+01 -0.20090606137E+02 -0.58952170872E+02  0.62499503640E+02  0.00000000000E+00 0.  1.
</event>
<event>
 4    1  0.9925048E-003  0.9118800E+02  0.7818608E-02  0.1130116E+00
         25   -1    0    0    0    0  0.00000000000E+00  0.00000000000E+00  0.99999998245E-14  0.12500000000E+03  0.12500000000E+03 0.  0.
        -13    1    1    0    0    0  0.51435210368E+02 -0.18214968823E+02 -0.12593700997E+02  0.55999807354E+02  0.10566000000E+00 0.  1.
         13    1    1    0    0    0 -0.15656011473E+02  0.11085138822E+02  0.24047554240E+02  0.30761778669E+02  0.10566000000E+00 0. -1.
         22    1    1    0    0    0 -0.35779198894E+02  0.71298300007E+01 -0.11453853243E+02  0.38238413977E+02  0.00000000000E+00 0.  1.
</event>
<event>
 4    1  0.9925048E-003  0.9118800E+02  0.7818608E-02  0.1130116E+00
         25   -1    0    0    0    0  0.00000000000E+00  0.00000000000E+00  0.99999998245E-14  0.12500000000E+03  0.12500000000E+03 0.  0.
        -13    1    1    0    0    0  0.34061599058E+02  0.35413637075E+02 -0.34254544987E+01  0.49255082213E+02  0.10566000000E+00 0.  1.
         13    1    1    0    0    0  0.90843048832E+01  0.95752663338E+01 -0.11093732288E+01  0.13245836839E+02  0.10566000000E+00 0. -1.
         22    1    1    0    0    0 -0.43145903941E+02 -0.44988903409E+02  0.45348277275E+01  0.62499080948E+02  0.00000000000E+00 0.  1.
</event>
<event>
 4    1  0.9925048E-003  0.9118800E+02  0.7818608E-02  0.1130116E+00
         25   -1    0    0    0    0  0.00000000000E+00  0.00000000000E+00  0.99999998245E-14  0.12500000000E+03  0.12500000000E+03 0.  0.
        -13    1    1    0    0    0  0.11655796266E+02  0.48871472351E+02  0.39482748009E+01  0.50397206612E+02  0.10566000000E+00 0. -1.
         13    1    1    0    0    0  0.29012583926E+01  0.11700350552E+02  0.10815575197E+01  0.12103571126E+02  0.10566000000E+00 0.  1.
         22    1    1    0    0    0 -0.14557054659E+02 -0.60571822903E+02 -0.50298323207E+01  0.62499222262E+02  0.00000000000E+00 0. -1.
</event>
<event>
 4    1  0.9925048E-003  0.9118800E+02  0.7818608E-02  0.1130116E+00
         25   -1    0    0    0    0  0.00000000000E+00  0.00000000000E+00  0.99999998245E-14  0.12500000000E+03  0.12500000000E+03 0.  0.
        -13    1    1    0    0    0 -0.28285772460E+02 -0.15101716393E+02  0.38816785371E+02  0.50347797889E+02  0.10566000000E+00 0. -1.
         13    1    1    0    0    0 -0.83486068673E+01 -0.47391391723E+01  0.76261470894E+01  0.12260830322E+02  0.10566000000E+00 0.  1.
         22    1    1    0    0    0  0.36634379327E+02  0.19840855565E+02 -0.46442932460E+02  0.62391371789E+02  0.00000000000E+00 0. -1.
</event>
<event>
 4    1  0.9925048E-003  0.9118800E+02  0.7818608E-02  0.1130116E+00
         25   -1    0    0    0    0  0.00000000000E+00  0.00000000000E+00  0.99999998245E-14  0.12500000000E+03  0.12500000000E+03 0.  0.
        -13    1    1    0    0    0  0.28136332827E+02  0.39764080119E+02 -0.23704223064E+02  0.54173209687E+02  0.10566000000E+00 0.  1.
         13    1    1    0    0    0  0.39371037804E+01  0.49700892061E+01 -0.56071671551E+01  0.84648721452E+01  0.10566000000E+00 0. -1.
         22    1    1    0    0    0 -0.32073436607E+02 -0.44734169325E+02  0.29311390219E+02  0.62361918168E+02  0.00000000000E+00 0.  1.
</event>
<event>
 4    1  0.9925048E-003  0.9118800E+02  0.7818608E-02  0.1130116E+00
         25   -1    0    0    0    0  0.00000000000E+00  0.00000000000E+00  0.99999998245E-14  0.12500000000E+03  0.12500000000E+03 0.  0.
        -13    1    1    0    0    0  0.15344948582E+02 -0.56153717344E+01  0.26528100119E+02  0.31156878962E+02  0.10566000000E+00 0.  1.
         13    1    1    0    0    0  0.97503006154E+01 -0.56580320021E+00  0.30073567266E+02  0.31619916310E+02  0.10566000000E+00 0. -1.
         22    1    1    0    0    0 -0.25095249198E+02  0.61811749346E+01 -0.56601667385E+02  0.62223204728E+02  0.00000000000E+00 0. -1.
</event>
<event>
 4    1  0.9925048E-003  0.9118800E+02  0.7818608E-02  0.1130116E+00
         25   -1    0    0    0    0  0.00000000000E+00  0.00000000000E+00  0.99999998245E-14  0.12500000000E+03  0.12500000000E+03 0.  0.
        -13    1    1    0    0    0 -0.23855064679E+01  0.54831837895E+01  0.27625658945E+01  0.65877826266E+01  0.10566000000E+00 0. -1.
         13    1    1    0    0    0 -0.17953833462E+02  0.47678701876E+02  0.23042859454E+02  0.55915858970E+02  0.10566000000E+00 0.  1.
         22    1    1    0    0    0  0.20339339930E+02 -0.53161885665E+02 -0.25805425348E+02  0.62496358403E+02  0.00000000000E+00 0.  1.
</event>
<event>
 4    1  0.9925048E-003  0.9118800E+02  0.7818608E-02  0.1130116E+00
         25   -1    0    0    0    0  0.00000000000E+00  0.00000000000E+00  0.99999998245E-14  0.12500000000E+03  0.12500000000E+03 0.  0.
        -13    1    1    0    0    0  0.37540093102E+02  0.31753001832E+02 -0.19988636078E+02  0.53076062889E+02  0.10566000000E+00 0. -1.
         13    1    1    0    0    0  0.10722827770E+02 -0.22229118858E+01 -0.21611450474E+01  0.11162530385E+02  0.10566000000E+00 0.  1.
         22    1    1    0    0    0 -0.48262920873E+02 -0.29530089947E+02  0.22149781126E+02  0.60761406726E+02  0.00000000000E+00 0. -1.
</event>
<event>
 4    1  0.9925048E-003  0.9118800E+02  0.7818608E-02  0.1130116E+00
         25   -1    0    0    0    0  0.00000000000E+00  0.00000000000E+00  0.99999998245E-14  0.12500000000E+03  0.12500000000E+03 0.  0.
        -13    1    1    0    0    0 -0.20922384611E+02  0.25728509261E+00 -0.14305336267E+02  0.25346916641E+02  0.10566000000E+00 0.  1.
         13    1    1    0    0    0 -0.30451831495E+02 -0.23708916924E+00 -0.21285918498E+02  0.37154700147E+02  0.10566000000E+00 0. -1.
         22    1    1    0    0    0  0.51374216106E+02 -0.20195923365E-01  0.35591254765E+02  0.62498383212E+02  0.00000000000E+00 0.  1.
</event>
<event>
 4    1  0.9925048E-003  0.9118800E+02  0.7818608E-02  0.1130116E+00
         25   -1    0    0    0    0  0.00000000000E+00  0.00000000000E+00  0.99999998245E-14  0.12500000000E+03  0.12500000000E+03 0.  0.
        -13    1    1    0    0    0  0.20350093998E+01  0.12605128192E+00  0.28821192155E+02  0.28893415054E+02  0.10566000000E+00 0.  1.
         13    1    1    0    0    0  0.29455803357E+01  0.57270915317E+01  0.33094631409E+02  0.33715601923E+02  0.10566000000E+00 0. -1.
         22    1    1    0    0    0 -0.49805897356E+01 -0.58531428136E+01 -0.61915823564E+02  0.62390983023E+02  0.00000000000E+00 0.  1.
</event>
<event>
 4    1  0.9925048E-003  0.9118800E+02  0.7818608E-02  0.1130116E+00
         25   -1    0    0    0    0  0.00000000000E+00  0.00000000000E+00  0.99999998245E-14  0.12500000000E+03  0.12500000000E+03 0.  0.
        -13    1    1    0    0    0 -0.79081490105E+01  0.58230223902E+02  0.11962731134E+02  0.59970125035E+02  0.10566000000E+00 0.  1.
         13    1    1    0    0    0 -0.80572529015E+00  0.24680474232E+01 -0.40992857972E+00  0.26305240547E+01  0.10566000000E+00 0. -1.
         22    1    1    0    0    0  0.87138743007E+01 -0.60698271325E+02 -0.11552802554E+02  0.62399350911E+02  0.00000000000E+00 0.  1.
</event>
<event>
 4    1  0.9925048E-003  0.9118800E+02  0.7818608E-02  0.1130116E+00
         25   -1    0    0    0    0  0.00000000000E+00  0.00000000000E+00  0.99999998245E-14  0.12500000000E+03  0.12500000000E+03 0.  0.
        -13    1    1    0    0    0 -0.14262803357E+02  0.91209209304E+01  0.94954098730E+01  0.19411149655E+02  0.10566000000E+00 0. -1.
         13    1    1    0    0    0  0.18477221727E+02 -0.16711343096E+02  0.44446508550E+02  0.50952723158E+02  0.10566000000E+00 0.  1.
         22    1    1    0    0    0 -0.42144183697E+01  0.75904221657E+01 -0.53941918423E+02  0.54636127188E+02  0.00000000000E+00 0.  1.
</event>
<event>
 4    1  0.9925048E-003  0.9118800E+02  0.7818608E-02  0.1130116E+00
         25   -1    0    0    0    0  0.00000000000E+00  0.00000000000E+00  0.99999998245E-14  0.12500000000E+03  0.12500000000E+03 0.  0.
        -13    1    1    0    0    0 -0.11302825937E+02  0.27122667433E+02 -0.21683941101E+02  0.36518453260E+02  0.10566000000E+00 0. -1.
         13    1    1    0    0    0 -0.80504288473E+01  0.19197234611E+02 -0.15546801193E+02  0.25981866998E+02  0.10566000000E+00 0. -1.
         22    1    1    0    0    0  0.19353254784E+02 -0.46319902043E+02  0.37230742294E+02  0.62499679742E+02  0.00000000000E+00 0. -1.
</event>
<event>
 4    1  0.9925048E-003  0.9118800E+02  0.7818608E-02  0.1130116E+00
         25   -1    0    0    0    0  0.00000000000E+00  0.00000000000E+00  0.99999998245E-14  0.12500000000E+03  0.12500000000E+03 0.  0.
        -13    1    1    0    0    0  0.15065529243E+02 -0.29357604487E+02  0.77036997844E+01  0.33885059643E+02  0.10566000000E+00 0.  1.
         13    1    1    0    0    0  0.16191752679E+02 -0.21531136848E+02  0.10138804322E+02  0.28784878424E+02  0.10566000000E+00 0. -1.
         22    1    1    0    0    0 -0.31257281922E+02  0.50888741335E+02 -0.17842504106E+02  0.62330061933E+02  0.00000000000E+00 0. -1.
</event>
<event>
 4    1  0.9925048E-003  0.9118800E+02  0.7818608E-02  0.1130116E+00
         25   -1    0    0    0    0  0.00000000000E+00  0.00000000000E+00  0.99999998245E-14  0.12500000000E+03  0.12500000000E+03 0.  0.
        -13    1    1    0    0    0 -0.19431199526E+01 -0.13179779377E+02 -0.35218818328E+01  0.13780316225E+02  0.10566000000E+00 0.  1.
         13    1    1    0    0    0 -0.75873867368E+01 -0.46857533510E+02 -0.10987511364E+02  0.48723027965E+02  0.10566000000E+00 0. -1.
         22    1    1    0    0    0  0.95305066894E+01  0.60037312887E+02  0.14509393196E+02  0.62496655810E+02  0.00000000000E+00 0. -1.
</event>
<event>
 4    1  0.9925048E-003  0.9118800E+02  0.7818608E-02  0.1130116E+00
         25   -1    0    0    0    0  0.00000000000E+00  0.00000000000E+00  0.99999998245E-14  0.12500000000E+03  0.12500000000E+03 0.  0.
        -13    1    1    0    0    0  0.40245278093E+01 -0.21980701728E+02 -0.17632292140E+02  0.28465012958E+02  0.10566000000E+00 0.  1.
         13    1    1    0    0    0  0.47309720065E+01 -0.26357794499E+02 -0.21006430868E+02  0.34035227762E+02  0.10566000000E+00 0.  1.
         22    1    1    0    0    0 -0.87554998158E+01  0.48338496227E+02  0.38638723007E+02  0.62499759281E+02  0.00000000000E+00 0.  1.
</event>
<event>
 4    1  0.9925048E-003  0.9118800E+02  0.7818608E-02  0.1130116E+00
         25   -1    0    0    0    0  0.00000000000E+00  0.00000000000E+00  0.99999998245E-14  0.12500000000E+03  0.12500000000E+03 0.  0.
        -13    1    1    0    0    0 -0.58599898453E+00  0.47460495663E+01  0.20814888513E-01  0.47833020593E+01  0.10566000000E+00 0.  1.
         13    1    1    0    0    0 -0.18390959002E+02  0.54136547681E+02  0.83721378473E+01  0.57784920386E+02  0.10566000000E+00 0. -1.
         22    1    1    0    0    0  0.18976957987E+02 -0.58882597247E+02 -0.83929527358E+01  0.62431777555E+02  0.00000000000E+00 0. -1.
</event>
<event>
 4    1  0.9925048E-003  0.9118800E+02  0.7818608E-02  0.1130116E+00
         25   -1    0    0    0    0  0.00000000000E+00  0.00000000000E+00  0.99999998245E-14  0.12500000000E+03  0.12500000000E+03 0.  0.
        -13    1    1    0    0    0  0.22124406345E+01 -0.54228645098E+01  0.16926991373E+02  0.17911910954E+02  0.10566000000E+00 0.  1.
         13    1    1    0    0    0  0.36560564370E+02 -0.33700692274E+02 -0.93668953876E+00  0.49732284063E+02  0.10566000000E+00 0. -1.
         22    1    1    0    0    0 -0.38773005004E+02  0.39123556784E+02 -0.15990301834E+02  0.57355804983E+02  0.00000000000E+00 0. -1.
</event>
<event>
 4    1  0.9925048E-003  0.9118800E+02  0.7818608E-02  0.1130116E+00
         25   -1    0    0    0    0  0.00000000000E+00  0.00000000000E+00  0.99999998245E-14  0.12500000000E+03  0.12500000000E+03 0.  0.
        -13    1    1    0    0    0 -0.62519179653E+01  0.14063336660E+02 -0.68533652667E+01  0.16847661434E+02  0.10566000000E+00 0.  1.
         13    1    1    0    0    0 -0.28405259246E+02  0.21287270471E+02 -0.29967484841E+02  0.46455009941E+02  0.10566000000E+00 0. -1.
         22    1    1    0    0    0  0.34657177211E+02 -0.35350607132E+02  0.36820850107E+02  0.61697328625E+02  0.00000000000E+00 0. -1.
</event>
<event>
 4    1  0.9925048E-003  0.9118800E+02  0.7818608E-02  0.1130116E+00
         25   -1    0    0    0    0  0.00000000000E+00  0.00000000000E+00  0.99999998245E-14  0.12500000000E+03  0.12500000000E+03 0.  0.
        -13    1    1    0    0    0  0.18036133080E+02 -0.18295170231E+02  0.89925567157E+01  0.27219342214E+02  0.10566000000E+00 0.  1.
         13    1    1    0    0    0  0.20870533855E+02 -0.28693791603E+02  0.29981582830E+01  0.35607765684E+02  0.10566000000E+00 0. -1.
         22    1    1    0    0    0 -0.38906666934E+02  0.46988961833E+02 -0.11990714999E+02  0.62172892102E+02  0.00000000000E+00 0. -1.
</event>
<event>
 4    1  0.9925048E-003  0.9118800E+02  0.7818608E-02  0.1130116E+00
         25   -1    0    0    0    0  0.00000000000E+00  0.00000000000E+00  0.99999998245E-14  0.12500000000E+03  0.12500000000E+03 0.  0.
        -13    1    1    0    0    0 -0.28150291353E+02 -0.24741855073E+02 -0.27621249433E+02  0.46556877902E+02  0.10566000000E+00 0.  1.
         13    1    1    0    0    0 -0.97083181143E+01 -0.86259966417E+01 -0.92491657652E+01  0.15944199261E+02  0.10566000000E+00 0. -1.
         22    1    1    0    0    0  0.37858609468E+02  0.33367851714E+02  0.36870415199E+02  0.62498922837E+02  0.00000000000E+00 0.  1.
</event>
<event>
 4    1  0.9925048E-003  0.9118800E+02  0.7818608E-02  0.1130116E+00
         25   -1    0    0    0    0  0.00000000000E+00  0.00000000000E+00  0.99999998245E-14  0.12500000000E+03  0.12500000000E+03 0.  0.
        -13    1    1    0    0    0 -0.53469300235E+02 -0.21415276090E+02 -0.12270961877E+02  0.58891152027E+02  0.10566000000E+00 0. -1.
         13    1    1    0    0    0 -0.30382533213E+01  0.80987315549E-01 -0.24900540595E+01  0.39305311911E+01  0.10566000000E+00 0.  1.
         22    1    1    0    0    0  0.56507553556E+02  0.21334288774E+02  0.14761015936E+02  0.62178316782E+02  0.00000000000E+00 0. -1.
</event>
<event>
 4    1  0.9925048E-003  0.9118800E+02  0.7818608E-02  0.1130116E+00
         25   -1    0    0    0    0  0.00000000000E+00  0.00000000000E+00  0.99999998245E-14  0.12500000000E+03  0.12500000000E+03 0.  0.
        -13    1    1    0    0    0  0.61898754311E+01 -0.35268903600E+01  0.31222666118E+01  0.77790247650E+01  0.10566000000E+00 0. -1.
         13    1    1    0    0    0  0.44752301849E+02 -0.25141815533E+02  0.18978719752E+02  0.54727345784E+02  0.10566000000E+00 0.  1.
         22    1    1    0    0    0 -0.50942177280E+02  0.28668705893E+02 -0.22100986364E+02  0.62493629451E+02  0.00000000000E+00 0.  1.
</event>
<event>
 4    1  0.9925048E-003  0.9118800E+02  0.7818608E-02  0.1130116E+00
         25   -1    0    0    0    0  0.00000000000E+00  0.00000000000E+00  0.99999998245E-14  0.12500000000E+03  0.12500000000E+03 0.  0.
        -13    1    1    0    0    0  0.27745313997E+02  0.10537725151E+01 -0.27775727874E+02  0.39273593015E+02  0.10566000000E+00 0.  1.
         13    1    1    0    0    0  0.16987933678E+02 -0.10965289644E+00 -0.15850560778E+02  0.23234744574E+02  0.10566000000E+00 0. -1.
         22    1    1    0    0    0 -0.44733247676E+02 -0.94411961863E+00  0.43626288651E+02  0.62491662411E+02  0.00000000000E+00 0.  1.
</event>
<event>
 4    1  0.9925048E-003  0.9118800E+02  0.7818608E-02  0.1130116E+00
         25   -1    0    0    0    0  0.00000000000E+00  0.00000000000E+00  0.99999998245E-14  0.12500000000E+03  0.12500000000E+03 0.  0.
        -13    1    1    0    0    0 -0.11636795070E+02 -0.26970778301E+02  0.29698230251E+01  0.29524039265E+02  0.10566000000E+00 0.  1.
         13    1    1    0    0    0 -0.13233998800E+02 -0.30006151658E+02  0.34536504479E+01  0.32976457163E+02  0.10566000000E+00 0. -1.
         22    1    1    0    0    0  0.24870793870E+02  0.56976929960E+02 -0.64234734730E+01  0.62499503572E+02  0.00000000000E+00 0.  1.
</event>
<event>
 4    1  0.9925048E-003  0.9118800E+02  0.7818608E-02  0.1130116E+00
         25   -1    0    0    0    0  0.00000000000E+00  0.00000000000E+00  0.99999998245E-14  0.12500000000E+03  0.12500000000E+03 0.  0.
        -13    1    1    0    0    0 -0.64156891992E-01 -0.28950339574E+01 -0.26205156642E+01  0.39068662767E+01  0.10566000000E+00 0.  1.
         13    1    1    0    0    0 -0.14181914286E+01 -0.55952845339E+02 -0.17882486320E+02  0.58758204955E+02  0.10566000000E+00 0. -1.
         22    1    1    0    0    0  0.14823483206E+01  0.58847879296E+02  0.20503001984E+02  0.62334928769E+02  0.00000000000E+00 0. -1.
</event>
<event>
 4    1  0.9925048E-003  0.9118800E+02  0.7818608E-02  0.1130116E+00
         25   -1    0    0    0    0  0.00000000000E+00  0.00000000000E+00  0.99999998245E-14  0.12500000000E+03  0.12500000000E+03 0.  0.
        -13    1    1    0    0    0 -0.18469471639E+01 -0.31662852931E+00  0.18326281514E+00  0.18857933998E+01  0.10566000000E+00 0.  1.
         13    1    1    0    0    0 -0.59164398660E+02  0.35728284726E+01  0.12831420856E+02  0.60645261128E+02  0.10566000000E+00 0. -1.
         22    1    1    0    0    0  0.61011345824E+02 -0.32561999433E+01 -0.13014683672E+02  0.62468945472E+02  0.00000000000E+00 0. -1.
</event>
<event>
 4    1  0.9925048E-003  0.9118800E+02  0.7818608E-02  0.1130116E+00
         25   -1    0    0    0    0  0.00000000000E+00  0.00000000000E+00  0.99999998245E-14  0.12500000000E+03  0.12500000000E+03 0.  0.
        -13    1    1    0    0    0  0.24558086708E+02 -0.47296970046E+02 -0.90760509287E+01  0.54060048676E+02  0.10566000000E+00 0.  1.
         13    1    1    0    0    0  0.34169555623E+01 -0.75890423003E+01 -0.14326377838E+01  0.84458725663E+01  0.10566000000E+00 0. -1.
         22    1    1    0    0    0 -0.27975042270E+02  0.54886012347E+02  0.10508688713E+02  0.62494078758E+02  0.00000000000E+00 0.  1.
</event>
<event>
 4    1  0.9925048E-003  0.9118800E+02  0.7818608E-02  0.1130116E+00
         25   -1    0    0    0    0  0.00000000000E+00  0.00000000000E+00  0.99999998245E-14  0.12500000000E+03  0.12500000000E+03 0.  0.
        -13    1    1    0    0    0  0.33432735476E+02 -0.31559056268E+02  0.22034779521E+02  0.50982982519E+02  0.10566000000E+00 0.  1.
         13    1    1    0    0    0  0.63982989670E+01 -0.97461229210E+01  0.19562932870E+01  0.11822156703E+02  0.10566000000E+00 0. -1.
         22    1    1    0    0    0 -0.39831034443E+02  0.41305179189E+02 -0.23991072808E+02  0.62194860778E+02  0.00000000000E+00 0.  1.
</event>
<event>
 4    1  0.9925048E-003  0.9118800E+02  0.7818608E-02  0.1130116E+00
         25   -1    0    0    0    0  0.00000000000E+00  0.00000000000E+00  0.99999998245E-14  0.12500000000E+03  0.12500000000E+03 0.  0.
        -13    1    1    0    0    0 -0.58657606752E+01 -0.95905567858E+01  0.23548250651E+01  0.11486613639E+02  0.10566000000E+00 0.  1.
         13    1    1    0    0    0 -0.25917327639E+02 -0.43776008431E+02  0.42446594353E+01  0.51049731477E+02  0.10566000000E+00 0. -1.
         22    1    1    0    0    0  0.31783088314E+02  0.53366565217E+02 -0.65994845003E+01  0.62463654884E+02  0.00000000000E+00 0. -1.
</event>
<event>
 4    1  0.9925048E-003  0.9118800E+02  0.7818608E-02  0.1130116E+00
         25   -1    0    0    0    0  0.00000000000E+00  0.00000000000E+00  0.99999998245E-14  0.12500000000E+03  0.12500000000E+03 0.  0.
        -13    1    1    0    0    0 -0.66018481320E+01  0.12118538894E+02  0.10721570583E+01  0.13842112139E+02  0.10566000000E+00 0.  1.
         13    1    1    0    0    0 -0.23028021690E+02  0.42775775942E+02  0.27685905018E+01  0.48659357248E+02  0.10566000000E+00 0. -1.
         22    1    1    0    0    0  0.29629869822E+02 -0.54894314836E+02 -0.38407475600E+01  0.62498530613E+02  0.00000000000E+00 0. -1.
</event>
<event>
 4    1  0.9925048E-003  0.9118800E+02  0.7818608E-02  0.1130116E+00
         25   -1    0    0    0    0  0.00000000000E+00  0.00000000000E+00  0.99999998245E-14  0.12500000000E+03  0.12500000000E+03 0.  0.
        -13    1    1    0    0    0  0.72784377171E+01  0.86636281276E+00  0.53831893232E+01  0.90948409249E+01  0.10566000000E+00 0. -1.
         13    1    1    0    0    0  0.42558978048E+02  0.53850724196E+01  0.31810129135E+02  0.53405627953E+02  0.10566000000E+00 0. -1.
         22    1    1    0    0    0 -0.49837415765E+02 -0.62514352324E+01 -0.37193318458E+02  0.62499531122E+02  0.00000000000E+00 0. -1.
</event>
<event>
 4    1  0.9925048E-003  0.9118800E+02  0.7818608E-02  0.1130116E+00
         25   -1    0    0    0    0  0.00000000000E+00  0.00000000000E+00  0.99999998245E-14  0.12500000000E+03  0.12500000000E+03 0.  0.
        -13    1    1    0    0    0  0.79519847223E+00  0.20304919099E+02 -0.83203983416E+01  0.21958193751E+02  0.10566000000E+00 0.  1.
         13    1    1    0    0    0  0.13705343828E+01  0.37433171004E+02 -0.15508969688E+02  0.40542076424E+02  0.10566000000E+00 0.  1.
         22    1    1    0    0    0 -0.21657328551E+01 -0.57738090103E+02  0.23829368030E+02  0.62499729825E+02  0.00000000000E+00 0.  1.
</event>
<event>
 4    1  0.9925048E-003  0.9118800E+02  0.7818608E-02  0.1130116E+00
         25   -1    0    0    0    0  0.00000000000E+00  0.00000000000E+00  0.99999998245E-14  0.12500000000E+03  0.12500000000E+03 0.  0.
        -13    1    1    0    0    0  0.36657141198E+01 -0.54975868968E+00 -0.33074255083E+01  0.49688954661E+01  0.10566000000E+00 0. -1.
         13    1    1    0    0    0  0.42056805212E+02 -0.64314254340E+01 -0.38726766801E+02  0.57531832307E+02  0.10566000000E+00 0.  1.
         22    1    1    0    0    0 -0.45722519331E+02  0.69811841237E+01  0.42034192309E+02  0.62499272227E+02  0.00000000000E+00 0.  1.
</event>
<event>
 4    1  0.9925048E-003  0.9118800E+02  0.7818608E-02  0.1130116E+00
         25   -1    0    0    0    0  0.00000000000E+00  0.00000000000E+00  0.99999998245E-14  0.12500000000E+03  0.12500000000E+03 0.  0.
        -13    1    1    0    0    0 -0.43561803157E+02  0.30770476643E+02 -0.27845327237E+02  0.60164992646E+02  0.10566000000E+00 0. -1.
         13    1    1    0    0    0  0.32595916495E+00  0.25894055111E+01 -0.13184046002E+01  0.29258545767E+01  0.10566000000E+00 0.  1.
         22    1    1    0    0    0  0.43235843992E+02 -0.33359882154E+02  0.29163731837E+02  0.61909152778E+02  0.00000000000E+00 0. -1.
</event>
<event>
 4    1  0.9925048E-003  0.9118800E+02  0.7818608E-02  0.1130116E+00
         25   -1    0    0    0    0  0.00000000000E+00  0.00000000000E+00  0.99999998245E-14  0.12500000000E+03  0.12500000000E+03 0.  0.
        -13    1    1    0    0    0  0.10298811234E+02 -0.13462261581E+02 -0.10881947835E+02  0.20142640155E+02  0.10566000000E+00 0. -1.
         13    1    1    0    0    0 -0.44900423942E+02 -0.25347024691E+02  0.11634878610E+02  0.52857367463E+02  0.10566000000E+00 0.  1.
         22    1    1    0    0    0  0.34601612708E+02  0.38809286272E+02 -0.75293077466E+00  0.51999992381E+02  0.00000000000E+00 0.  1.
</event>
<event>
 4    1  0.9925048E-003  0.9118800E+02  0.7818608E-02  0.1130116E+00
         25   -1    0    0    0    0  0.00000000000E+00  0.00000000000E+00  0.99999998245E-14  0.12500000000E+03  0.12500000000E+03 0.  0.
        -13    1    1    0    0    0 -0.56007589778E+01 -0.75651477738E+01 -0.83814022748E+01  0.12603929153E+02  0.10566000000E+00 0. -1.
         13    1    1    0    0    0 -0.21148015805E+02 -0.43107090028E+02 -0.15303155960E+02  0.50395014928E+02  0.10566000000E+00 0.  1.
         22    1    1    0    0    0  0.26748774783E+02  0.50672237802E+02  0.23684558235E+02  0.62001055919E+02  0.00000000000E+00 0.  1.
</event>
<event>
 4    1  0.9925048E-003  0.9118800E+02  0.7818608E-02  0.1130116E+00
         25   -1    0    0    0    0  0.00000000000E+00  0.00000000000E+00  0.99999998245E-14  0.12500000000E+03  0.12500000000E+03 0.  0.
        -13    1    1    0    0    0 -0.13988881358E+02 -0.11421006337E+02  0.59358915471E+02  0.62045307617E+02  0.10566000000E+00 0. -1.
         13    1    1    0    0    0  0.52044981078E-01 -0.54135133426E+00  0.22971648127E+00  0.59975298626E+00  0.10566000000E+00 0.  1.
         22    1    1    0    0    0  0.13936836377E+02  0.11962357671E+02 -0.59588631952E+02  0.62354939397E+02  0.00000000000E+00 0. -1.
</event>
<event>
 4    1  0.9925048E-003  0.9118800E+02  0.7818608E-02  0.1130116E+00
         25   -1    0    0    0    0  0.00000000000E+00  0.00000000000E+00  0.99999998245E-14  0.12500000000E+03  0.12500000000E+03 0.  0.
        -13    1    1    0    0    0 -0.20514243061E+01  0.14400219551E+02 -0.19933976197E+01  0.14681943430E+02  0.10566000000E+00 0. -1.
         13    1    1    0    0    0 -0.17946642001E+02 -0.92361948789E+01 -0.50243478446E+02  0.54146168334E+02  0.10566000000E+00 0.  1.
         22    1    1    0    0    0  0.19998066307E+02 -0.51640246717E+01  0.52236876065E+02  0.56171888235E+02  0.00000000000E+00 0.  1.
</event>
<event>
 4    1  0.9925048E-003  0.9118800E+02  0.7818608E-02  0.1130116E+00
         25   -1    0    0    0    0  0.00000000000E+00  0.00000000000E+00  0.99999998245E-14  0.12500000000E+03  0.12500000000E+03 0.  0.
        -13    1    1    0    0    0  0.34489742571E+02 -0.36828068613E+01  0.56877103634E+01  0.35149205143E+02  0.10566000000E+00 0. -1.
         13    1    1    0    0    0  0.26444619930E+02 -0.26882346459E+01  0.65448943796E+01  0.27375012972E+02  0.10566000000E+00 0.  1.
         22    1    1    0    0    0 -0.60934362501E+02  0.63710415072E+01 -0.12232604743E+02  0.62475781885E+02  0.00000000000E+00 0. -1.
</event>
<event>
 4    1  0.9925048E-003  0.9118800E+02  0.7818608E-02  0.1130116E+00
         25   -1    0    0    0    0  0.00000000000E+00  0.00000000000E+00  0.99999998245E-14  0.12500000000E+03  0.12500000000E+03 0.  0.
        -13    1    1    0    0    0  0.30197596481E+02 -0.37358874947E+01 -0.23126576985E+02  0.38219123690E+02  0.10566000000E+00 0.  1.
         13    1    1    0    0    0  0.80686534172E+01  0.92202758109E+01 -0.23325381909E+02  0.26347699316E+02  0.10566000000E+00 0. -1.
         22    1    1    0    0    0 -0.38266249898E+02 -0.54843883162E+01  0.46451958894E+02  0.60433176994E+02  0.00000000000E+00 0.  1.
</event>
<event>
 4    1  0.9925048E-003  0.9118800E+02  0.7818608E-02  0.1130116E+00
         25   -1    0    0    0    0  0.00000000000E+00  0.00000000000E+00  0.99999998245E-14  0.12500000000E+03  0.12500000000E+03 0.  0.
        -13    1    1    0    0    0  0.12759923396E+02  0.39297526072E+01 -0.20174615375E+02  0.24192661495E+02  0.10566000000E+00 0. -1.
         13    1    1    0    0    0  0.20088771568E+02  0.58518672045E+01 -0.32088713190E+02  0.38307959631E+02  0.10566000000E+00 0. -1.
         22    1    1    0    0    0 -0.32848694964E+02 -0.97816198117E+01  0.52263328565E+02  0.62499378874E+02  0.00000000000E+00 0. -1.
</event>
<event>
 4    1  0.9925048E-003  0.9118800E+02  0.7818608E-02  0.1130116E+00
         25   -1    0    0    0    0  0.00000000000E+00  0.00000000000E+00  0.99999998245E-14  0.12500000000E+03  0.12500000000E+03 0.  0.
        -13    1    1    0    0    0 -0.89848087980E+01 -0.18762124227E+02  0.61245015032E+00  0.20811784015E+02  0.10566000000E+00 0.  1.
         13    1    1    0    0    0 -0.38659717780E+02 -0.13329247489E+02 -0.17250565490E+02  0.44382832168E+02  0.10566000000E+00 0. -1.
         22    1    1    0    0    0  0.47644526578E+02  0.32091371717E+02  0.16638115340E+02  0.59805383817E+02  0.00000000000E+00 0.  1.
</event>
<event>
 4    1  0.9925048E-003  0.9118800E+02  0.7818608E-02  0.1130116E+00
         25   -1    0    0    0    0  0.00000000000E+00  0.00000000000E+00  0.99999998245E-14  0.12500000000E+03  0.12500000000E+03 0.  0.
        -13    1    1    0    0    0 -0.71378029762E+00 -0.20367564674E+01  0.67378066249E+00  0.22634053189E+01  0.10566000000E+00 0.  1.
         13    1    1    0    0    0  0.59702667412E+02  0.85529374668E+01  0.13310445178E+02  0.61763584339E+02  0.10566000000E+00 0. -1.
         22    1    1    0    0    0 -0.58988887115E+02 -0.65161809993E+01 -0.13984225841E+02  0.60973010342E+02  0.00000000000E+00 0. -1.
</event>
<event>
 4    1  0.9925048E-003  0.9118800E+02  0.7818608E-02  0.1130116E+00
         25   -1    0    0    0    0  0.00000000000E+00  0.00000000000E+00  0.99999998245E-14  0.12500000000E+03  0.12500000000E+03 0.  0.
        -13    1    1    0    0    0  0.25839531526E+02 -0.70976062604E+01  0.15199851096E+02  0.30807532220E+02  0.10566000000E+00 0.  1.
         13    1    1    0    0    0  0.34454085535E+01  0.32236383273E+02  0.23108777868E+02  0.39813088617E+02  0.10566000000E+00 0. -1.
         22    1    1    0    0    0 -0.29284940079E+02 -0.25138777013E+02 -0.38308628964E+02  0.54379379164E+02  0.00000000000E+00 0. -1.
</event>
<event>
 4    1  0.9925048E-003  0.9118800E+02  0.7818608E-02  0.1130116E+00
         25   -1    0    0    0    0  0.00000000000E+00  0.00000000000E+00  0.99999998245E-14  0.12500000000E+03  0.12500000000E+03 0.  0.
        -13    1    1    0    0    0  0.14051783088E+02  0.86439876935E+01 -0.16463520004E+02  0.23307290408E+02  0.10566000000E+00 0. -1.
         13    1    1    0    0    0  0.23512735928E+02  0.14450386939E+02 -0.27828359356E+02  0.39192999145E+02  0.10566000000E+00 0. -1.
         22    1    1    0    0    0 -0.37564519016E+02 -0.23094374633E+02  0.44291879360E+02  0.62499710446E+02  0.00000000000E+00 0. -1.
</event>
<event>
 4    1  0.9925048E-003  0.9118800E+02  0.7818608E-02  0.1130116E+00
         25   -1    0    0    0    0  0.00000000000E+00  0.00000000000E+00  0.99999998245E-14  0.12500000000E+03  0.12500000000E+03 0.  0.
        -13    1    1    0    0    0 -0.33536915851E+02  0.11793038242E+02 -0.67175912325E+01  0.36179243659E+02  0.10566000000E+00 0.  1.
         13    1    1    0    0    0 -0.26904747707E+02 -0.43597838342E+01  0.60537812549E+01  0.27920110955E+02  0.10566000000E+00 0. -1.
         22    1    1    0    0    0  0.60441663557E+02 -0.74332544077E+01  0.66380997757E+00  0.60900645385E+02  0.00000000000E+00 0. -1.
</event>
<event>
 4    1  0.9925048E-003  0.9118800E+02  0.7818608E-02  0.1130116E+00
         25   -1    0    0    0    0  0.00000000000E+00  0.00000000000E+00  0.99999998245E-14  0.12500000000E+03  0.12500000000E+03 0.  0.
        -13    1    1    0    0    0  0.60576446897E+01  0.14351064792E+02 -0.20754897135E+02  0.25950434273E+02  0.10566000000E+00 0. -1.
         13    1    1    0    0    0  0.91476398023E+01  0.20253841522E+02 -0.29018342236E+02  0.36550961143E+02  0.10566000000E+00 0.  1.
         22    1    1    0    0    0 -0.15205284492E+02 -0.34604906314E+02  0.49773239370E+02  0.62498604584E+02  0.00000000000E+00 0.  1.
</event>
<event>
 4    1  0.9925048E-003  0.9118800E+02  0.7818608E-02  0.1130116E+00
         25   -1    0    0    0    0  0.00000000000E+00  0.00000000000E+00  0.99999998245E-14  0.12500000000E+03  0.12500000000E+03 0.  0.
        -13    1    1    0    0    0  0.42331373485E+01  0.29867391072E+01 -0.12233253827E+02  0.13285470467E+02  0.10566000000E+00 0.  1.
         13    1    1    0    0    0  0.15029346987E+02  0.12215311472E+02 -0.45245734358E+02  0.49216691751E+02  0.10566000000E+00 0.  1.
         22    1    1    0    0    0 -0.19262484336E+02 -0.15202050579E+02  0.57478988185E+02  0.62497837782E+02  0.00000000000E+00 0.  1.
</event>
<event>
 4    1  0.9925048E-003  0.9118800E+02  0.7818608E-02  0.1130116E+00
         25   -1    0    0    0    0  0.00000000000E+00  0.00000000000E+00  0.99999998245E-14  0.12500000000E+03  0.12500000000E+03 0.  0.
        -13    1    1    0    0    0  0.25253934664E+01 -0.51246627650E+00 -0.42447052101E+01  0.49667816743E+01  0.10566000000E+00 0. -1.
         13    1    1    0    0    0  0.50069174159E+02 -0.12289724055E+02 -0.26303611649E+02  0.57877894468E+02  0.10566000000E+00 0.  1.
         22    1    1    0    0    0 -0.52594567625E+02  0.12802190331E+02  0.30548316859E+02  0.62155323858E+02  0.00000000000E+00 0.  1.
</event>
<event>
 4    1  0.9925048E-003  0.9118800E+02  0.7818608E-02  0.1130116E+00
         25   -1    0    0    0    0  0.00000000000E+00  0.00000000000E+00  0.99999998245E-14  0.12500000000E+03  0.12500000000E+03 0.  0.
        -13    1    1    0    0    0  0.20874723530E+02 -0.34055858051E+01 -0.10392939495E+02  0.23566426384E+02  0.10566000000E+00 0.  1.
         13    1    1    0    0    0  0.33675927942E+02 -0.76044755364E+01 -0.18025830135E+02  0.38946603023E+02  0.10566000000E+00 0. -1.
         22    1    1    0    0    0 -0.54550651471E+02  0.11010061341E+02  0.28418769630E+02  0.62486970594E+02  0.00000000000E+00 0. -1.
</event>
<event>
 4    1  0.9925048E-003  0.9118800E+02  0.7818608E-02  0.1130116E+00
         25   -1    0    0    0    0  0.00000000000E+00  0.00000000000E+00  0.99999998245E-14  0.12500000000E+03  0.12500000000E+03 0.  0.
        -13    1    1    0    0    0  0.30839971130E+02 -0.24678305487E+02  0.98936370303E+01  0.40718764700E+02  0.10566000000E+00 0. -1.
         13    1    1    0    0    0 -0.57349985372E+01 -0.25656436317E+02  0.33294133146E+01  0.26499794146E+02  0.10566000000E+00 0.  1.
         22    1    1    0    0    0 -0.25104972593E+02  0.50334741804E+02 -0.13223050345E+02  0.57781441154E+02  0.00000000000E+00 0. -1.
</event>
<event>
 4    1  0.9925048E-003  0.9118800E+02  0.7818608E-02  0.1130116E+00
         25   -1    0    0    0    0  0.00000000000E+00  0.00000000000E+00  0.99999998245E-14  0.12500000000E+03  0.12500000000E+03 0.  0.
        -13    1    1    0    0    0  0.16458228452E+02  0.24360793180E+02  0.11895888285E+02  0.31715057154E+02  0.10566000000E+00 0. -1.
         13    1    1    0    0    0  0.32901241826E+02  0.42151660678E+01 -0.14477196902E+02  0.36191984372E+02  0.10566000000E+00 0.  1.
         22    1    1    0    0    0 -0.49359470278E+02 -0.28575959248E+02  0.25813086168E+01  0.57092958473E+02  0.00000000000E+00 0. -1.
</event>
<event>
 4    1  0.9925048E-003  0.9118800E+02  0.7818608E-02  0.1130116E+00
         25   -1    0    0    0    0  0.00000000000E+00  0.00000000000E+00  0.99999998245E-14  0.12500000000E+03  0.12500000000E+03 0.  0.
        -13    1    1    0    0    0 -0.61034405503E+01  0.10130227829E+02 -0.43194652636E+02  0.44784625518E+02  0.10566000000E+00 0. -1.
         13    1    1    0    0    0  0.47893831494E+01 -0.38423476042E+01 -0.17827741828E+02  0.18855804644E+02  0.10566000000E+00 0.  1.
         22    1    1    0    0    0  0.13140574008E+01 -0.62878802245E+01  0.61022394464E+02  0.61359569838E+02  0.00000000000E+00 0. -1.
</event>
<event>
 4    1  0.9925048E-003  0.9118800E+02  0.7818608E-02  0.1130116E+00
         25   -1    0    0    0    0  0.00000000000E+00  0.00000000000E+00  0.99999998245E-14  0.12500000000E+03  0.12500000000E+03 0.  0.
        -13    1    1    0    0    0  0.23485108296E+02 -0.28534034620E+01  0.15076974601E+02  0.28053850898E+02  0.10566000000E+00 0. -1.
         13    1    1    0    0    0  0.27991169631E+02 -0.17396167096E+01  0.20034610882E+02  0.34466340694E+02  0.10566000000E+00 0.  1.
         22    1    1    0    0    0 -0.51476277928E+02  0.45930201716E+01 -0.35111585483E+02  0.62479808408E+02  0.00000000000E+00 0.  1.
</event>
<event>
 4    1  0.9925048E-003  0.9118800E+02  0.7818608E-02  0.1130116E+00
         25   -1    0    0    0    0  0.00000000000E+00  0.00000000000E+00  0.99999998245E-14  0.12500000000E+03  0.12500000000E+03 0.  0.
        -13    1    1    0    0    0 -0.13088902557E+01 -0.24667574274E+00  0.68510944066E+01  0.69801648424E+01  0.10566000000E+00 0.  1.
         13    1    1    0    0    0 -0.10601188023E+02 -0.42083867768E+01  0.54338571491E+02  0.55522853155E+02  0.10566000000E+00 0. -1.
         22    1    1    0    0    0  0.11910078279E+02  0.44550625195E+01 -0.61189665898E+02  0.62496982002E+02  0.00000000000E+00 0. -1.
</event>
<event>
 4    1  0.9925048E-003  0.9118800E+02  0.7818608E-02  0.1130116E+00
         25   -1    0    0    0    0  0.00000000000E+00  0.00000000000E+00  0.99999998245E-14  0.12500000000E+03  0.12500000000E+03 0.  0.
        -13    1    1    0    0    0 -0.25943464863E+02  0.54723415509E+02 -0.95965180368E+01  0.61317370267E+02  0.10566000000E+00 0. -1.
         13    1    1    0    0    0  0.58023508736E+01 -0.25500520790E+02 -0.22924953925E+01  0.26252819570E+02  0.10566000000E+00 0.  1.
         22    1    1    0    0    0  0.20141113990E+02 -0.29222894719E+02  0.11889013429E+02  0.37429810163E+02  0.00000000000E+00 0. -1.
</event>
<event>
 4    1  0.9925048E-003  0.9118800E+02  0.7818608E-02  0.1130116E+00
         25   -1    0    0    0    0  0.00000000000E+00  0.00000000000E+00  0.99999998245E-14  0.12500000000E+03  0.12500000000E+03 0.  0.
        -13    1    1    0    0    0 -0.16755876350E+01 -0.53878923679E+01  0.67065550363E+01  0.87650454980E+01  0.10566000000E+00 0. -1.
         13    1    1    0    0    0 -0.10238777800E+02 -0.31845640859E+02  0.42055405780E+02  0.53736819146E+02  0.10566000000E+00 0. -1.
         22    1    1    0    0    0  0.11914365435E+02  0.37233533227E+02 -0.48761960817E+02  0.62498135356E+02  0.00000000000E+00 0. -1.
</event>
<event>
 4    1  0.9925048E-003  0.9118800E+02  0.7818608E-02  0.1130116E+00
         25   -1    0    0    0    0  0.00000000000E+00  0.00000000000E+00  0.99999998245E-14  0.12500000000E+03  0.12500000000E+03 0.  0.
        -13    1    1    0    0    0  0.65167956019E+01  0.74260426711E+01  0.49596906915E+01  0.11055515839E+02  0.10566000000E+00 0. -1.
         13    1    1    0    0    0  0.46162650630E+02 -0.29163860460E+02  0.88271277236E+01  0.55312298976E+02  0.10566000000E+00 0.  1.
         22    1    1    0    0    0 -0.52679446232E+02  0.21737817789E+02 -0.13786818415E+02  0.58632185185E+02  0.00000000000E+00 0.  1.
</event>
<event>
 4    1  0.9925048E-003  0.9118800E+02  0.7818608E-02  0.1130116E+00
         25   -1    0    0    0    0  0.00000000000E+00  0.00000000000E+00  0.99999998245E-14  0.12500000000E+03  0.12500000000E+03 0.  0.
        -13    1    1    0    0    0  0.55754357955E+01 -0.16920337924E+02  0.25545005630E+01  0.17997776444E+02  0.10566000000E+00 0. -1.
         13    1    1    0    0    0  0.13385330586E+02 -0.41930266970E+02  0.65708011974E+01  0.44502819636E+02  0.10566000000E+00 0.  1.
         22    1    1    0    0    0 -0.18960766382E+02  0.58850604894E+02 -0.91253017604E+01  0.62499403920E+02  0.00000000000E+00 0.  1.
</event>
<event>
 4    1  0.9925048E-003  0.9118800E+02  0.7818608E-02  0.1130116E+00
         25   -1    0    0    0    0  0.00000000000E+00  0.00000000000E+00  0.99999998245E-14  0.12500000000E+03  0.12500000000E+03 0.  0.
        -13    1    1    0    0    0 -0.52291773738E+02 -0.28357472996E+01 -0.38560282368E+01  0.52510486393E+02  0.10566000000E+00 0. -1.
         13    1    1    0    0    0 -0.99407101293E+01 -0.68798635429E+00 -0.71016693931E+00  0.99903225281E+01  0.10566000000E+00 0. -1.
         22    1    1    0    0    0  0.62232483867E+02  0.35237336539E+01  0.45661951761E+01  0.62499191079E+02  0.00000000000E+00 0. -1.
</event>
<event>
 4    1  0.9925048E-003  0.9118800E+02  0.7818608E-02  0.1130116E+00
         25   -1    0    0    0    0  0.00000000000E+00  0.00000000000E+00  0.99999998245E-14  0.12500000000E+03  0.12500000000E+03 0.  0.
        -13    1    1    0    0    0 -0.54469342609E+02 -0.29259263554E+02  0.60343211846E+01  0.62124375121E+02  0.10566000000E+00 0.  1.
         13    1    1    0    0    0  0.37807230564E+01  0.59672338529E+00  0.15926970223E+01  0.41470222411E+01  0.10566000000E+00 0. -1.
         22    1    1    0    0    0  0.50688619552E+02  0.28662540169E+02 -0.76270182069E+01  0.58728602638E+02  0.00000000000E+00 0.  1.
</event>
<event>
 4    1  0.9925048E-003  0.9118800E+02  0.7818608E-02  0.1130116E+00
         25   -1    0    0    0    0  0.00000000000E+00  0.00000000000E+00  0.99999998245E-14  0.12500000000E+03  0.12500000000E+03 0.  0.
        -13    1    1    0    0    0  0.59029495505E+01  0.92806823414E+00  0.16707540267E+01  0.62055384211E+01  0.10566000000E+00 0.  1.
         13    1    1    0    0    0  0.53244268499E+02  0.84425049473E+01  0.16215541181E+02  0.56295496779E+02  0.10566000000E+00 0.  1.
         22    1    1    0    0    0 -0.59147218050E+02 -0.93705731815E+01 -0.17886295208E+02  0.62498964800E+02  0.00000000000E+00 0.  1.
</event>
<event>
 4    1  0.9925048E-003  0.9118800E+02  0.7818608E-02  0.1130116E+00
         25   -1    0    0    0    0  0.00000000000E+00  0.00000000000E+00  0.99999998245E-14  0.12500000000E+03  0.12500000000E+03 0.  0.
        -13    1    1    0    0    0 -0.35162987623E+02 -0.10068090003E+02 -0.12097257993E+02  0.38524757622E+02  0.10566000000E+00 0. -1.
         13    1    1    0    0    0 -0.21428635776E+02 -0.76395176402E+01 -0.76097947327E+01  0.23988930800E+02  0.10566000000E+00 0.  1.
         22    1    1    0    0    0  0.56591623400E+02  0.17707607643E+02  0.19707052725E+02  0.62486311578E+02  0.00000000000E+00 0. -1.
</event>
<event>
 4    1  0.9925048E-003  0.9118800E+02  0.7818608E-02  0.1130116E+00
         25   -1    0    0    0    0  0.00000000000E+00  0.00000000000E+00  0.99999998245E-14  0.12500000000E+03  0.12500000000E+03 0.  0.
        -13    1    1    0    0    0 -0.78280243923E+01  0.30646338009E+02  0.19101035020E+02  0.36950462814E+02  0.10566000000E+00 0.  1.
         13    1    1    0    0    0 -0.50248357617E+01  0.21358467561E+02  0.13092011732E+02  0.25550832594E+02  0.10566000000E+00 0. -1.
         22    1    1    0    0    0  0.12852860154E+02 -0.52004805571E+02 -0.32193046752E+02  0.62498704593E+02  0.00000000000E+00 0.  1.
</event>
<event>
 4    1  0.9925048E-003  0.9118800E+02  0.7818608E-02  0.1130116E+00
         25   -1    0    0    0    0  0.00000000000E+00  0.00000000000E+00  0.99999998245E-14  0.12500000000E+03  0.12500000000E+03 0.  0.
        -13    1    1    0    0    0 -0.17236361348E+02  0.96824221427E+01  0.79405417846E+01  0.21305042101E+02  0.10566000000E+00 0.  1.
         13    1    1    0    0    0 -0.21222792947E+02  0.29329547605E+02  0.20882072399E+02  0.41793557098E+02  0.10566000000E+00 0. -1.
         22    1    1    0    0    0  0.38459154295E+02 -0.39011969748E+02 -0.28822614183E+02  0.61901400801E+02  0.00000000000E+00 0. -1.
</event>
<event>
 4    1  0.9925048E-003  0.9118800E+02  0.7818608E-02  0.1130116E+00
         25   -1    0    0    0    0  0.00000000000E+00  0.00000000000E+00  0.99999998245E-14  0.12500000000E+03  0.12500000000E+03 0.  0.
        -13    1    1    0    0    0  0.26981724794E+02  0.10886842105E+02 -0.45695045260E+01  0.29452136417E+02  0.10566000000E+00 0.  1.
         13    1    1    0    0    0  0.30390168133E+02  0.11868463418E+02 -0.52702534025E+01  0.33048592679E+02  0.10566000000E+00 0. -1.
         22    1    1    0    0    0 -0.57371892927E+02 -0.22755305522E+02  0.98397579285E+01  0.62499270904E+02  0.00000000000E+00 0. -1.
</event>
<event>
 4    1  0.9925048E-003  0.9118800E+02  0.7818608E-02  0.1130116E+00
         25   -1    0    0    0    0  0.00000000000E+00  0.00000000000E+00  0.99999998245E-14  0.12500000000E+03  0.12500000000E+03 0.  0.
        -13    1    1    0    0    0  0.18791686409E+02 -0.14101999858E+02 -0.56257999311E+01  0.24158945900E+02  0.10566000000E+00 0. -1.
         13    1    1    0    0    0  0.29663928710E+02 -0.22533037162E+02 -0.90756194039E+01  0.38341419665E+02  0.10566000000E+00 0.  1.
         22    1    1    0    0    0 -0.48455615120E+02  0.36635037020E+02  0.14701419335E+02  0.62499634435E+02  0.00000000000E+00 0.  1.
</event>
<event>
 4    1  0.9925048E-003  0.9118800E+02  0.7818608E-02  0.1130116E+00
         25   -1    0    0    0    0  0.00000000000E+00  0.00000000000E+00  0.99999998245E-14  0.12500000000E+03  0.12500000000E+03 0.  0.
        -13    1    1    0    0    0  0.49350685368E+02  0.25885288507E+02 -0.10154592447E+02  0.56645081156E+02  0.10566000000E+00 0. -1.
         13    1    1    0    0    0  0.51324238669E+01  0.25631318177E+01 -0.11733574279E+01  0.58565647912E+01  0.10566000000E+00 0.  1.
         22    1    1    0    0    0 -0.54483109235E+02 -0.28448420325E+02  0.11327949875E+02  0.62498354052E+02  0.00000000000E+00 0. -1.
</event>
<event>
 4    1  0.9925048E-003  0.9118800E+02  0.7818608E-02  0.1130116E+00
         25   -1    0    0    0    0  0.00000000000E+00  0.00000000000E+00  0.99999998245E-14  0.12500000000E+03  0.12500000000E+03 0.  0.
        -13    1    1    0    0    0 -0.10491998081E+02  0.36815454214E+01 -0.43649813610E+02  0.45043902946E+02  0.10566000000E+00 0.  1.
         13    1    1    0    0    0 -0.44660002365E+01  0.17488354099E+01 -0.16787177605E+02  0.17459211877E+02  0.10566000000E+00 0. -1.
         22    1    1    0    0    0  0.14957998318E+02 -0.54303808313E+01  0.60436991215E+02  0.62496885176E+02  0.00000000000E+00 0.  1.
</event>
<event>
 4    1  0.9925048E-003  0.9118800E+02  0.7818608E-02  0.1130116E+00
         25   -1    0    0    0    0  0.00000000000E+00  0.00000000000E+00  0.99999998245E-14  0.12500000000E+03  0.12500000000E+03 0.  0.
        -13    1    1    0    0    0 -0.16450418380E+02 -0.21921639259E+02 -0.11286602657E+02  0.29640733733E+02  0.10566000000E+00 0. -1.
         13    1    1    0    0    0 -0.18341705258E+02 -0.23991507066E+02 -0.12953497087E+02  0.32860535813E+02  0.10566000000E+00 0.  1.
         22    1    1    0    0    0  0.34792123638E+02  0.45913146325E+02  0.24240099744E+02  0.62498730454E+02  0.00000000000E+00 0.  1.
</event>
<event>
 4    1  0.9925048E-003  0.9118800E+02  0.7818608E-02  0.1130116E+00
         25   -1    0    0    0    0  0.00000000000E+00  0.00000000000E+00  0.99999998245E-14  0.12500000000E+03  0.12500000000E+03 0.  0.
        -13    1    1    0    0    0  0.35497721436E+02 -0.21684026119E+02  0.33372401581E+02  0.53329293706E+02  0.10566000000E+00 0.  1.
         13    1    1    0    0    0  0.60559545604E+01 -0.38152534032E+01  0.57332959856E+01  0.91712916791E+01  0.10566000000E+00 0.  1.
         22    1    1    0    0    0 -0.41553675997E+02  0.25499279522E+02 -0.39105697566E+02  0.62499414615E+02  0.00000000000E+00 0.  1.
</event>
<event>
 4    1  0.9925048E-003  0.9118800E+02  0.7818608E-02  0.1130116E+00
         25   -1    0    0    0    0  0.00000000000E+00  0.00000000000E+00  0.99999998245E-14  0.12500000000E+03  0.12500000000E+03 0.  0.
        -13    1    1    0    0    0 -0.23887314571E+01  0.10074071500E+02 -0.42437658599E+01  0.11189891299E+02  0.10566000000E+00 0. -1.
         13    1    1    0    0    0 -0.38921373065E+02  0.22590612773E+02 -0.27092424150E+02  0.52528275025E+02  0.10566000000E+00 0.  1.
         22    1    1    0    0    0  0.41310104523E+02 -0.32664684274E+02  0.31336190010E+02  0.61281833676E+02  0.00000000000E+00 0.  1.
</event>
<event>
 4    1  0.9925048E-003  0.9118800E+02  0.7818608E-02  0.1130116E+00
         25   -1    0    0    0    0  0.00000000000E+00  0.00000000000E+00  0.99999998245E-14  0.12500000000E+03  0.12500000000E+03 0.  0.
        -13    1    1    0    0    0  0.16846380038E+02  0.19013850380E+01 -0.25084601726E+01  0.17138241506E+02  0.10566000000E+00 0. -1.
         13    1    1    0    0    0 -0.28669672260E+02 -0.19758457050E+01  0.50679760418E+02  0.58260650132E+02  0.10566000000E+00 0.  1.
         22    1    1    0    0    0  0.11823292222E+02  0.74460666977E-01 -0.48171300246E+02  0.49601108362E+02  0.00000000000E+00 0.  1.
</event>
<event>
 4    1  0.9925048E-003  0.9118800E+02  0.7818608E-02  0.1130116E+00
         25   -1    0    0    0    0  0.00000000000E+00  0.00000000000E+00  0.99999998245E-14  0.12500000000E+03  0.12500000000E+03 0.  0.
        -13    1    1    0    0    0 -0.14947190733E+01 -0.20925713040E+02 -0.35535037830E+02  0.41265842157E+02  0.10566000000E+00 0.  1.
         13    1    1    0    0    0 -0.18992250862E+01 -0.10977383733E+02 -0.18089378039E+02  0.21244923427E+02  0.10566000000E+00 0. -1.
         22    1    1    0    0    0  0.33939441595E+01  0.31903096773E+02  0.53624415868E+02  0.62489234416E+02  0.00000000000E+00 0.  1.
</event>
<event>
 4    1  0.9925048E-003  0.9118800E+02  0.7818608E-02  0.1130116E+00
         25   -1    0    0    0    0  0.00000000000E+00  0.00000000000E+00  0.99999998245E-14  0.12500000000E+03  0.12500000000E+03 0.  0.
        -13    1    1    0    0    0  0.22669809741E+02  0.19182570246E+02  0.14897361046E+02  0.33223994418E+02  0.10566000000E+00 0.  1.
         13    1    1    0    0    0  0.81923558648E+01  0.20188347052E+02  0.20955443070E+02  0.30229551925E+02  0.10566000000E+00 0. -1.
         22    1    1    0    0    0 -0.30862165605E+02 -0.39370917298E+02 -0.35852804116E+02  0.61546453657E+02  0.00000000000E+00 0. -1.
</event>
<event>
 4    1  0.9925048E-003  0.9118800E+02  0.7818608E-02  0.1130116E+00
         25   -1    0    0    0    0  0.00000000000E+00  0.00000000000E+00  0.99999998245E-14  0.12500000000E+03  0.12500000000E+03 0.  0.
        -13    1    1    0    0    0  0.32308402120E+02 -0.21671604095E+02  0.19979250393E+02  0.43734115766E+02  0.10566000000E+00 0.  1.
         13    1    1    0    0    0  0.29621332447E+01 -0.18556070211E+02  0.85378594709E+01  0.20639965684E+02  0.10566000000E+00 0. -1.
         22    1    1    0    0    0 -0.35270535364E+02  0.40227674307E+02 -0.28517109863E+02  0.60625918550E+02  0.00000000000E+00 0.  1.
</event>
<event>
 4    1  0.9925048E-003  0.9118800E+02  0.7818608E-02  0.1130116E+00
         25   -1    0    0    0    0  0.00000000000E+00  0.00000000000E+00  0.99999998245E-14  0.12500000000E+03  0.12500000000E+03 0.  0.
        -13    1    1    0    0    0 -0.12306690492E+02  0.35375601132E+02  0.11055237241E+01  0.37471604357E+02  0.10566000000E+00 0.  1.
         13    1    1    0    0    0  0.21590101831E+02  0.20799802900E+02  0.45015419642E+01  0.30315661659E+02  0.10566000000E+00 0. -1.
         22    1    1    0    0    0 -0.92834113391E+01 -0.56175404032E+02 -0.56070656883E+01  0.57212733984E+02  0.00000000000E+00 0.  1.
</event>
<event>
 4    1  0.9925048E-003  0.9118800E+02  0.7818608E-02  0.1130116E+00
         25   -1    0    0    0    0  0.00000000000E+00  0.00000000000E+00  0.99999998245E-14  0.12500000000E+03  0.12500000000E+03 0.  0.
        -13    1    1    0    0    0  0.11995059673E+02  0.17732712197E+02 -0.93190248851E+01  0.23349216844E+02  0.10566000000E+00 0.  1.
         13    1    1    0    0    0  0.20386376399E+02  0.30347125485E+02 -0.14028406869E+02  0.39158137484E+02  0.10566000000E+00 0. -1.
         22    1    1    0    0    0 -0.32381436072E+02 -0.48079837682E+02  0.23347431754E+02  0.62492645672E+02  0.00000000000E+00 0. -1.
</event>
<event>
 4    1  0.9925048E-003  0.9118800E+02  0.7818608E-02  0.1130116E+00
         25   -1    0    0    0    0  0.00000000000E+00  0.00000000000E+00  0.99999998245E-14  0.12500000000E+03  0.12500000000E+03 0.  0.
        -13    1    1    0    0    0 -0.49056500502E+02  0.15061854180E+02 -0.21736870984E+02  0.55730623691E+02  0.10566000000E+00 0.  1.
         13    1    1    0    0    0 -0.28004155045E+01  0.75383067019E+01  0.73634550169E+01  0.10904128977E+02  0.10566000000E+00 0. -1.
         22    1    1    0    0    0  0.51856916006E+02 -0.22600160882E+02  0.14373415967E+02  0.58365247332E+02  0.00000000000E+00 0.  1.
</event>
<event>
 4    1  0.9925048E-003  0.9118800E+02  0.7818608E-02  0.1130116E+00
         25   -1    0    0    0    0  0.00000000000E+00  0.00000000000E+00  0.99999998245E-14  0.12500000000E+03  0.12500000000E+03 0.  0.
        -13    1    1    0    0    0  0.12346658044E+02  0.32427703425E+01  0.18867124755E+02  0.22780146727E+02  0.10566000000E+00 0. -1.
         13    1    1    0    0    0 -0.26722227929E+00 -0.46518341399E+02 -0.30726984977E+02  0.55751109981E+02  0.10566000000E+00 0.  1.
         22    1    1    0    0    0 -0.12079435765E+02  0.43275571057E+02  0.11859860223E+02  0.46468743292E+02  0.00000000000E+00 0. -1.
</event>
<event>
 4    1  0.9925048E-003  0.9118800E+02  0.7818608E-02  0.1130116E+00
         25   -1    0    0    0    0  0.00000000000E+00  0.00000000000E+00  0.99999998245E-14  0.12500000000E+03  0.12500000000E+03 0.  0.
        -13    1    1    0    0    0 -0.13102721931E+02  0.13377432328E+01  0.51365818876E+02  0.53027628571E+02  0.10566000000E+00 0. -1.
         13    1    1    0    0    0 -0.15448148424E+01  0.11615901010E+00  0.93600689489E+01  0.94879924419E+01  0.10566000000E+00 0.  1.
         22    1    1    0    0    0  0.14647536774E+02 -0.14539022429E+01 -0.60725887825E+02  0.62484378987E+02  0.00000000000E+00 0.  1.
</event>
<event>
 4    1  0.9925048E-003  0.9118800E+02  0.7818608E-02  0.1130116E+00
         25   -1    0    0    0    0  0.00000000000E+00  0.00000000000E+00  0.99999998245E-14  0.12500000000E+03  0.12500000000E+03 0.  0.
        -13    1    1    0    0    0 -0.82114480566E+01  0.14291922989E+02 -0.28923165166E+01  0.16735100860E+02  0.10566000000E+00 0.  1.
         13    1    1    0    0    0 -0.16904348564E+02  0.42706873959E+02  0.56023993185E+00  0.45934291293E+02  0.10566000000E+00 0. -1.
         22    1    1    0    0    0  0.25115796621E+02 -0.56998796948E+02  0.23320765847E+01  0.62330607848E+02  0.00000000000E+00 0. -1.
</event>
<event>
 4    1  0.9925048E-003  0.9118800E+02  0.7818608E-02  0.1130116E+00
         25   -1    0    0    0    0  0.00000000000E+00  0.00000000000E+00  0.99999998245E-14  0.12500000000E+03  0.12500000000E+03 0.  0.
        -13    1    1    0    0    0  0.44994726589E+02  0.30873822794E+02  0.11478953544E+02  0.55762854063E+02  0.10566000000E+00 0.  1.
         13    1    1    0    0    0  0.53471477340E+01  0.38651140880E+01  0.13656498793E+01  0.67384908867E+01  0.10566000000E+00 0.  1.
         22    1    1    0    0    0 -0.50341874323E+02 -0.34738936882E+02 -0.12844603423E+02  0.62498655051E+02  0.00000000000E+00 0.  1.
</event>
<event>
 4    1  0.9925048E-003  0.9118800E+02  0.7818608E-02  0.1130116E+00
         25   -1    0    0    0    0  0.00000000000E+00  0.00000000000E+00  0.99999998245E-14  0.12500000000E+03  0.12500000000E+03 0.  0.
        -13    1    1    0    0    0 -0.13275634891E+02 -0.38637088253E+02  0.27179126397E+02  0.49069166961E+02  0.10566000000E+00 0. -1.
         13    1    1    0    0    0 -0.37165694772E+01 -0.10546718665E+02  0.74390912265E+01  0.13431210131E+02  0.10566000000E+00 0. -1.
         22    1    1    0    0    0  0.16992204369E+02  0.49183806918E+02 -0.34618217624E+02  0.62499622908E+02  0.00000000000E+00 0. -1.
</event>
<event>
 4    1  0.9925048E-003  0.9118800E+02  0.7818608E-02  0.1130116E+00
         25   -1    0    0    0    0  0.00000000000E+00  0.00000000000E+00  0.99999998245E-14  0.12500000000E+03  0.12500000000E+03 0.  0.
        -13    1    1    0    0    0 -0.86240340187E+01 -0.32824040961E+02 -0.18419243893E+02  0.38614392878E+02  0.10566000000E+00 0.  1.
         13    1    1    0    0    0 -0.65065935449E+01 -0.20164916809E+02 -0.11046630077E+02  0.23895581800E+02  0.10566000000E+00 0. -1.
         22    1    1    0    0    0  0.15130627564E+02  0.52988957769E+02  0.29465873969E+02  0.62490025322E+02  0.00000000000E+00 0.  1.
</event>
<event>
 4    1  0.9925048E-003  0.9118800E+02  0.7818608E-02  0.1130116E+00
         25   -1    0    0    0    0  0.00000000000E+00  0.00000000000E+00  0.99999998245E-14  0.12500000000E+03  0.12500000000E+03 0.  0.
        -13    1    1    0    0    0 -0.31495626426E+01  0.45556452560E+01 -0.16371975276E+01  0.57762642182E+01  0.10566000000E+00 0.  1.
         13    1    1    0    0    0 -0.31359418086E+02  0.45355422943E+02 -0.13322199327E+02  0.56727591629E+02  0.10566000000E+00 0. -1.
         22    1    1    0    0    0  0.34508980728E+02 -0.49911068200E+02  0.14959396855E+02  0.62496144153E+02  0.00000000000E+00 0. -1.
</event>
<event>
 4    1  0.9925048E-003  0.9118800E+02  0.7818608E-02  0.1130116E+00
         25   -1    0    0    0    0  0.00000000000E+00  0.00000000000E+00  0.99999998245E-14  0.12500000000E+03  0.12500000000E+03 0.  0.
        -13    1    1    0    0    0  0.93774463293E+01  0.53832166178E+02  0.13372468069E+01  0.54659290227E+02  0.10566000000E+00 0. -1.
         13    1    1    0    0    0  0.10735247651E+01  0.77513147111E+01 -0.87739470224E+00  0.78750441695E+01  0.10566000000E+00 0.  1.
         22    1    1    0    0    0 -0.10450971094E+02 -0.61583480889E+02 -0.45985210464E+00  0.62465665603E+02  0.00000000000E+00 0. -1.
</event>
<event>
 4    1  0.9925048E-003  0.9118800E+02  0.7818608E-02  0.1130116E+00
         25   -1    0    0    0    0  0.00000000000E+00  0.00000000000E+00  0.99999998245E-14  0.12500000000E+03  0.12500000000E+03 0.  0.
        -13    1    1    0    0    0  0.27026166260E+02 -0.11215246739E+01  0.32489219028E+02  0.42275666729E+02  0.10566000000E+00 0.  1.
         13    1    1    0    0    0  0.14832207551E+02  0.34899623722E+00  0.13834171160E+02  0.20285749553E+02  0.10566000000E+00 0. -1.
         22    1    1    0    0    0 -0.41858373811E+02  0.77252843673E+00 -0.46323390188E+02  0.62438583718E+02  0.00000000000E+00 0.  1.
</event>
<event>
 4    1  0.9925048E-003  0.9118800E+02  0.7818608E-02  0.1130116E+00
         25   -1    0    0    0    0  0.00000000000E+00  0.00000000000E+00  0.99999998245E-14  0.12500000000E+03  0.12500000000E+03 0.  0.
        -13    1    1    0    0    0 -0.21416818276E+02  0.16342122703E+02  0.48750701104E+01  0.27377409522E+02  0.10566000000E+00 0. -1.
         13    1    1    0    0    0 -0.27536646455E+02  0.21623325094E+02  0.31561713165E+01  0.35154056203E+02  0.10566000000E+00 0.  1.
         22    1    1    0    0    0  0.48953464731E+02 -0.37965447798E+02 -0.80312414269E+01  0.62468534275E+02  0.00000000000E+00 0. -1.
</event>
<event>
 4    1  0.9925048E-003  0.9118800E+02  0.7818608E-02  0.1130116E+00
         25   -1    0    0    0    0  0.00000000000E+00  0.00000000000E+00  0.99999998245E-14  0.12500000000E+03  0.12500000000E+03 0.  0.
        -13    1    1    0    0    0  0.10503095520E+01 -0.60807730420E-01 -0.10249031977E+01  0.14725618274E+01  0.10566000000E+00 0.  1.
         13    1    1    0    0    0 -0.10453130972E+02  0.52771475600E+02 -0.30049734648E+02  0.61620567188E+02  0.10566000000E+00 0. -1.
         22    1    1    0    0    0  0.94028214198E+01 -0.52710667869E+02  0.31074637846E+02  0.61906870985E+02  0.00000000000E+00 0. -1.
</event>
<event>
 4    1  0.9925048E-003  0.9118800E+02  0.7818608E-02  0.1130116E+00
         25   -1    0    0    0    0  0.00000000000E+00  0.00000000000E+00  0.99999998245E-14  0.12500000000E+03  0.12500000000E+03 0.  0.
        -13    1    1    0    0    0  0.36540827353E+01 -0.15354897946E+02  0.23611656561E+01  0.15959682919E+02  0.10566000000E+00 0. -1.
         13    1    1    0    0    0  0.10254005050E+02 -0.44913292948E+02  0.66102920488E+01  0.46540902741E+02  0.10566000000E+00 0.  1.
         22    1    1    0    0    0 -0.13908087786E+02  0.60268190894E+02 -0.89714577049E+01  0.62499414340E+02  0.00000000000E+00 0.  1.
</event>
<event>
 4    1  0.9925048E-003  0.9118800E+02  0.7818608E-02  0.1130116E+00
         25   -1    0    0    0    0  0.00000000000E+00  0.00000000000E+00  0.99999998245E-14  0.12500000000E+03  0.12500000000E+03 0.  0.
        -13    1    1    0    0    0 -0.22397188205E+01  0.33108359441E+01  0.37680303525E+01  0.54942871982E+01  0.10566000000E+00 0.  1.
         13    1    1    0    0    0 -0.56498255213E+02 -0.17216046965E+02 -0.30021714361E+01  0.59139405751E+02  0.10566000000E+00 0. -1.
         22    1    1    0    0    0  0.58737974033E+02  0.13905211021E+02 -0.76585891631E+00  0.60366307051E+02  0.00000000000E+00 0. -1.
</event>
<event>
 4    1  0.9925048E-003  0.9118800E+02  0.7818608E-02  0.1130116E+00
         25   -1    0    0    0    0  0.00000000000E+00  0.00000000000E+00  0.99999998245E-14  0.12500000000E+03  0.12500000000E+03 0.  0.
        -13    1    1    0    0    0  0.41777074486E+01  0.34559133619E+02  0.45890808243E+02  0.57600038205E+02  0.10566000000E+00 0. -1.
         13    1    1    0    0    0  0.70786944536E+00  0.27524592589E+01  0.40006502553E+01  0.49085107338E+01  0.10566000000E+00 0.  1.
         22    1    1    0    0    0 -0.48855768940E+01 -0.37311592878E+02 -0.49891458498E+02  0.62491451061E+02  0.00000000000E+00 0. -1.
</event>
<event>
 4    1  0.9925048E-003  0.9118800E+02  0.7818608E-02  0.1130116E+00
         25   -1    0    0    0    0  0.00000000000E+00  0.00000000000E+00  0.99999998245E-14  0.12500000000E+03  0.12500000000E+03 0.  0.
        -13    1    1    0    0    0 -0.21367870393E+02 -0.32402454911E+02 -0.19749584849E+02  0.43549537714E+02  0.10566000000E+00 0. -1.
         13    1    1    0    0    0 -0.85897725780E+01 -0.14853101874E+02 -0.80737202008E+01  0.18962988955E+02  0.10566000000E+00 0.  1.
         22    1    1    0    0    0  0.29957642971E+02  0.47255556784E+02  0.27823305049E+02  0.62487473331E+02  0.00000000000E+00 0.  1.
</event>
<event>
 4    1  0.9925048E-003  0.9118800E+02  0.7818608E-02  0.1130116E+00
         25   -1    0    0    0    0  0.00000000000E+00  0.00000000000E+00  0.99999998245E-14  0.12500000000E+03  0.12500000000E+03 0.  0.
        -13    1    1    0    0    0 -0.10508730150E+01  0.32921423286E+02 -0.38338951632E+02  0.50545136478E+02  0.10566000000E+00 0.  1.
         13    1    1    0    0    0 -0.59757680375E+01  0.51914248617E+01 -0.98360281250E+01  0.12626135951E+02  0.10566000000E+00 0. -1.
         22    1    1    0    0    0  0.70266410525E+01 -0.38112848148E+02  0.48174979757E+02  0.61828727571E+02  0.00000000000E+00 0.  1.
</event>
<event>
 4    1  0.9925048E-003  0.9118800E+02  0.7818608E-02  0.1130116E+00
         25   -1    0    0    0    0  0.00000000000E+00  0.00000000000E+00  0.99999998245E-14  0.12500000000E+03  0.12500000000E+03 0.  0.
        -13    1    1    0    0    0 -0.21012359604E+01 -0.74025010591E+01 -0.10282385642E+02  0.12843318614E+02  0.10566000000E+00 0.  1.
         13    1    1    0    0    0 -0.45577871832E+01 -0.32378569849E+02 -0.37416276104E+02  0.49690382278E+02  0.10566000000E+00 0. -1.
         22    1    1    0    0    0  0.66590231436E+01  0.39781070908E+02  0.47698661746E+02  0.62466299107E+02  0.00000000000E+00 0. -1.
</event>
<event>
 4    1  0.9925048E-003  0.9118800E+02  0.7818608E-02  0.1130116E+00
         25   -1    0    0    0    0  0.00000000000E+00  0.00000000000E+00  0.99999998245E-14  0.12500000000E+03  0.12500000000E+03 0.  0.
        -13    1    1    0    0    0 -0.23653348462E+01 -0.60380588471E+01 -0.14456047133E+01  0.66448401484E+01  0.10566000000E+00 0.  1.
         13    1    1    0    0    0  0.31127381408E+01  0.22128294377E+02 -0.55153535191E+02  0.59508605755E+02  0.10566000000E+00 0. -1.
         22    1    1    0    0    0 -0.74740329461E+00 -0.16090235530E+02  0.56599139905E+02  0.58846554097E+02  0.00000000000E+00 0. -1.
</event>
<event>
 4    1  0.9925048E-003  0.9118800E+02  0.7818608E-02  0.1130116E+00
         25   -1    0    0    0    0  0.00000000000E+00  0.00000000000E+00  0.99999998245E-14  0.12500000000E+03  0.12500000000E+03 0.  0.
        -13    1    1    0    0    0  0.38398691957E+02 -0.15523759647E+01 -0.37341616781E+02  0.53584297354E+02  0.10566000000E+00 0.  1.
         13    1    1    0    0    0  0.53348327991E+01 -0.38063749814E+01 -0.65200813923E+01  0.92450828493E+01  0.10566000000E+00 0. -1.
         22    1    1    0    0    0 -0.43733524756E+02  0.53587509461E+01  0.43861698173E+02  0.62170619796E+02  0.00000000000E+00 0.  1.
</event>
<event>
 4    1  0.9925048E-003  0.9118800E+02  0.7818608E-02  0.1130116E+00
         25   -1    0    0    0    0  0.00000000000E+00  0.00000000000E+00  0.99999998245E-14  0.12500000000E+03  0.12500000000E+03 0.  0.
        -13    1    1    0    0    0 -0.55534079912E+02  0.19362697280E+02  0.19168870937E+02  0.61857940919E+02  0.10566000000E+00 0. -1.
         13    1    1    0    0    0 -0.23162633223E+00  0.55200699633E+00  0.45589117676E+00  0.75984424879E+00  0.10566000000E+00 0.  1.
         22    1    1    0    0    0  0.55765706245E+02 -0.19914704276E+02 -0.19624762114E+02  0.62382214832E+02  0.00000000000E+00 0. -1.
</event>
<event>
 4    1  0.9925048E-003  0.9118800E+02  0.7818608E-02  0.1130116E+00
         25   -1    0    0    0    0  0.00000000000E+00  0.00000000000E+00  0.99999998245E-14  0.12500000000E+03  0.12500000000E+03 0.  0.
        -13    1    1    0    0    0 -0.44959713718E+01 -0.36737119277E+01  0.10931490374E+02  0.12378148639E+02  0.10566000000E+00 0. -1.
         13    1    1    0    0    0 -0.18775333954E+02 -0.14666033371E+02  0.44098192374E+02  0.50122524225E+02  0.10566000000E+00 0.  1.
         22    1    1    0    0    0  0.23271305326E+02  0.18339745298E+02 -0.55029682748E+02  0.62499327137E+02  0.00000000000E+00 0.  1.
</event>
<event>
 4    1  0.9925048E-003  0.9118800E+02  0.7818608E-02  0.1130116E+00
         25   -1    0    0    0    0  0.00000000000E+00  0.00000000000E+00  0.99999998245E-14  0.12500000000E+03  0.12500000000E+03 0.  0.
        -13    1    1    0    0    0  0.13366742928E+02  0.42220651260E+01 -0.96695104571E+00  0.14051398820E+02  0.10566000000E+00 0. -1.
         13    1    1    0    0    0  0.46392183490E+02  0.13700225022E+02 -0.27355164715E+01  0.48450232909E+02  0.10566000000E+00 0.  1.
         22    1    1    0    0    0 -0.59758926418E+02 -0.17922290148E+02  0.37024675172E+01  0.62498368271E+02  0.00000000000E+00 0.  1.
</event>
<event>
 4    1  0.9925048E-003  0.9118800E+02  0.7818608E-02  0.1130116E+00
         25   -1    0    0    0    0  0.00000000000E+00  0.00000000000E+00  0.99999998245E-14  0.12500000000E+03  0.12500000000E+03 0.  0.
        -13    1    1    0    0    0  0.34430937286E+02 -0.27312917096E+02  0.30439015639E+02  0.53460543579E+02  0.10566000000E+00 0.  1.
         13    1    1    0    0    0  0.63190959410E+01  0.41613352626E+01  0.79361176821E+01  0.10965437181E+02  0.10566000000E+00 0. -1.
         22    1    1    0    0    0 -0.40750033227E+02  0.23151581834E+02 -0.38375133321E+02  0.60574019239E+02  0.00000000000E+00 0.  1.
</event>
<event>
 4    1  0.9925048E-003  0.9118800E+02  0.7818608E-02  0.1130116E+00
         25   -1    0    0    0    0  0.00000000000E+00  0.00000000000E+00  0.99999998245E-14  0.12500000000E+03  0.12500000000E+03 0.  0.
        -13    1    1    0    0    0 -0.34962615871E+01  0.13453377347E+01  0.60931656824E+00  0.37968683704E+01  0.10566000000E+00 0.  1.
         13    1    1    0    0    0 -0.55169787468E+02  0.19219707118E+02  0.57921766034E+01  0.58708287871E+02  0.10566000000E+00 0. -1.
         22    1    1    0    0    0  0.58666049055E+02 -0.20565044852E+02 -0.64014931717E+01  0.62494843758E+02  0.00000000000E+00 0. -1.
</event>
<event>
 4    1  0.9925048E-003  0.9118800E+02  0.7818608E-02  0.1130116E+00
         25   -1    0    0    0    0  0.00000000000E+00  0.00000000000E+00  0.99999998245E-14  0.12500000000E+03  0.12500000000E+03 0.  0.
        -13    1    1    0    0    0  0.33359105313E+01  0.10195715601E+02 -0.18296733494E+02  0.21209963137E+02  0.10566000000E+00 0. -1.
         13    1    1    0    0    0  0.41108407467E+02 -0.32528100450E+02  0.98274898077E+01  0.53334502935E+02  0.10566000000E+00 0.  1.
         22    1    1    0    0    0 -0.44444317998E+02  0.22332384850E+02  0.84692436863E+01  0.50455533928E+02  0.00000000000E+00 0.  1.
</event>
<event>
 4    1  0.9925048E-003  0.9118800E+02  0.7818608E-02  0.1130116E+00
         25   -1    0    0    0    0  0.00000000000E+00  0.00000000000E+00  0.99999998245E-14  0.12500000000E+03  0.12500000000E+03 0.  0.
        -13    1    1    0    0    0  0.21508753400E+02 -0.31388467513E+02 -0.36333303717E+02  0.52611619332E+02  0.10566000000E+00 0. -1.
         13    1    1    0    0    0  0.50914084879E+01 -0.39671969819E+01 -0.76443972935E+01  0.10005451829E+02  0.10566000000E+00 0.  1.
         22    1    1    0    0    0 -0.26600161888E+02  0.35355664495E+02  0.43977701011E+02  0.62382928839E+02  0.00000000000E+00 0. -1.
</event>
<event>
 4    1  0.9925048E-003  0.9118800E+02  0.7818608E-02  0.1130116E+00
         25   -1    0    0    0    0  0.00000000000E+00  0.00000000000E+00  0.99999998245E-14  0.12500000000E+03  0.12500000000E+03 0.  0.
        -13    1    1    0    0    0 -0.19285312201E+02 -0.67735527688E+01 -0.19008460009E+02  0.27913025629E+02  0.10566000000E+00 0.  1.
         13    1    1    0    0    0 -0.24021613293E+02 -0.86576743830E+01 -0.23330176914E+02  0.34587592425E+02  0.10566000000E+00 0.  1.
         22    1    1    0    0    0  0.43306925494E+02  0.15431227152E+02  0.42338636923E+02  0.62499381946E+02  0.00000000000E+00 0.  1.
</event>
<event>
 4    1  0.9925048E-003  0.9118800E+02  0.7818608E-02  0.1130116E+00
         25   -1    0    0    0    0  0.00000000000E+00  0.00000000000E+00  0.99999998245E-14  0.12500000000E+03  0.12500000000E+03 0.  0.
        -13    1    1    0    0    0 -0.43843169884E+02  0.32866585459E+00 -0.22250070878E+02  0.49167147414E+02  0.10566000000E+00 0.  1.
         13    1    1    0    0    0 -0.11793647635E+02 -0.55340801696E+00 -0.62082608375E+01  0.13339792038E+02  0.10566000000E+00 0. -1.
         22    1    1    0    0    0  0.55636817519E+02  0.22474216238E+00  0.28458331715E+02  0.62493060548E+02  0.00000000000E+00 0.  1.
</event>
<event>
 4    1  0.9925048E-003  0.9118800E+02  0.7818608E-02  0.1130116E+00
         25   -1    0    0    0    0  0.00000000000E+00  0.00000000000E+00  0.99999998245E-14  0.12500000000E+03  0.12500000000E+03 0.  0.
        -13    1    1    0    0    0  0.25275570452E+02  0.48423345528E+02 -0.19952401488E+02  0.58153111206E+02  0.10566000000E+00 0. -1.
         13    1    1    0    0    0 -0.18430646267E+02 -0.70503054089E+01 -0.14102041290E+01  0.19783714714E+02  0.10566000000E+00 0.  1.
         22    1    1    0    0    0 -0.68449241851E+01 -0.41373040119E+02  0.21362605617E+02  0.47063174080E+02  0.00000000000E+00 0. -1.
</event>
<event>
 4    1  0.9925048E-003  0.9118800E+02  0.7818608E-02  0.1130116E+00
         25   -1    0    0    0    0  0.00000000000E+00  0.00000000000E+00  0.99999998245E-14  0.12500000000E+03  0.12500000000E+03 0.  0.
        -13    1    1    0    0    0 -0.47020920961E+02  0.11510179683E+02 -0.18383535378E+02  0.51782398374E+02  0.10566000000E+00 0.  1.
         13    1    1    0    0    0 -0.35687753066E+01  0.85248769614E+00 -0.12256514112E+02  0.12794381372E+02  0.10566000000E+00 0. -1.
         22    1    1    0    0    0  0.50589696267E+02 -0.12362667379E+02  0.30640049490E+02  0.60423220254E+02  0.00000000000E+00 0.  1.
</event>
<event>
 4    1  0.9925048E-003  0.9118800E+02  0.7818608E-02  0.1130116E+00
         25   -1    0    0    0    0  0.00000000000E+00  0.00000000000E+00  0.99999998245E-14  0.12500000000E+03  0.12500000000E+03 0.  0.
        -13    1    1    0    0    0  0.34362059392E+01  0.11333530544E+01 -0.27040913217E+01  0.45183264949E+01  0.10566000000E+00 0.  1.
         13    1    1    0    0    0  0.16173489816E+02  0.29540346716E+02 -0.47646872477E+02  0.58347660431E+02  0.10566000000E+00 0. -1.
         22    1    1    0    0    0 -0.19609695755E+02 -0.30673699770E+02  0.50350963799E+02  0.62134013074E+02  0.00000000000E+00 0. -1.
</event>
<event>
 4    1  0.9925048E-003  0.9118800E+02  0.7818608E-02  0.1130116E+00
         25   -1    0    0    0    0  0.00000000000E+00  0.00000000000E+00  0.99999998245E-14  0.12500000000E+03  0.12500000000E+03 0.  0.
        -13    1    1    0    0    0  0.61527538185E+01  0.19978518739E+02 -0.45317247146E+02  0.49906529066E+02  0.10566000000E+00 0. -1.
         13    1    1    0    0    0  0.11630624759E+01  0.41333737889E+01 -0.11858126505E+02  0.12612050644E+02  0.10566000000E+00 0.  1.
         22    1    1    0    0    0 -0.73158162944E+01 -0.24111892528E+02  0.57175373650E+02  0.62481420290E+02  0.00000000000E+00 0. -1.
</event>
<event>
 4    1  0.9925048E-003  0.9118800E+02  0.7818608E-02  0.1130116E+00
         25   -1    0    0    0    0  0.00000000000E+00  0.00000000000E+00  0.99999998245E-14  0.12500000000E+03  0.12500000000E+03 0.  0.
        -13    1    1    0    0    0  0.18474442383E+01  0.19470182171E+01  0.23042245850E+02  0.23198279850E+02  0.10566000000E+00 0.  1.
         13    1    1    0    0    0  0.23894520532E+02  0.36059959747E+02 -0.33510035191E+02  0.54719305833E+02  0.10566000000E+00 0. -1.
         22    1    1    0    0    0 -0.25741964770E+02 -0.38006977964E+02  0.10467789340E+02  0.47082414316E+02  0.00000000000E+00 0. -1.
</event>
<event>
 4    1  0.9925048E-003  0.9118800E+02  0.7818608E-02  0.1130116E+00
         25   -1    0    0    0    0  0.00000000000E+00  0.00000000000E+00  0.99999998245E-14  0.12500000000E+03  0.12500000000E+03 0.  0.
        -13    1    1    0    0    0 -0.10914206228E+00 -0.22674344376E+02  0.19020477954E+02  0.29596073228E+02  0.10566000000E+00 0.  1.
         13    1    1    0    0    0  0.34167054945E+02 -0.11686528402E+02 -0.28624926253E+02  0.46079932256E+02  0.10566000000E+00 0. -1.
         22    1    1    0    0    0 -0.34057912882E+02  0.34360872778E+02  0.96044482982E+01  0.49323994517E+02  0.00000000000E+00 0. -1.
</event>
<event>
 4    1  0.9925048E-003  0.9118800E+02  0.7818608E-02  0.1130116E+00
         25   -1    0    0    0    0  0.00000000000E+00  0.00000000000E+00  0.99999998245E-14  0.12500000000E+03  0.12500000000E+03 0.  0.
        -13    1    1    0    0    0  0.18106193331E+02 -0.39174002955E+02  0.36303763036E+02  0.56395133824E+02  0.10566000000E+00 0. -1.
         13    1    1    0    0    0  0.19397382311E+01 -0.49832830902E+01  0.30450534937E+01  0.61546088078E+01  0.10566000000E+00 0.  1.
         22    1    1    0    0    0 -0.20045931562E+02  0.44157286045E+02 -0.39348816530E+02  0.62450257368E+02  0.00000000000E+00 0. -1.
</event>
<event>
 4    1  0.9925048E-003  0.9118800E+02  0.7818608E-02  0.1130116E+00
         25   -1    0    0    0    0  0.00000000000E+00  0.00000000000E+00  0.99999998245E-14  0.12500000000E+03  0.12500000000E+03 0.  0.
        -13    1    1    0    0    0  0.57581730530E+00  0.74053990258E+01  0.33719478043E+01  0.81579835947E+01  0.10566000000E+00 0. -1.
         13    1    1    0    0    0 -0.45233943345E+01  0.38918345569E+02  0.38019448284E+02  0.54594764676E+02  0.10566000000E+00 0.  1.
         22    1    1    0    0    0  0.39475770292E+01 -0.46323744595E+02 -0.41391396088E+02  0.62247251729E+02  0.00000000000E+00 0.  1.
</event>
<event>
 4    1  0.9925048E-003  0.9118800E+02  0.7818608E-02  0.1130116E+00
         25   -1    0    0    0    0  0.00000000000E+00  0.00000000000E+00  0.99999998245E-14  0.12500000000E+03  0.12500000000E+03 0.  0.
        -13    1    1    0    0    0  0.91428852519E+01 -0.14031954628E+02 -0.18980700925E+02  0.25313361552E+02  0.10566000000E+00 0.  1.
         13    1    1    0    0    0  0.13561837538E+02 -0.20749712144E+02 -0.27719800438E+02  0.37186993584E+02  0.10566000000E+00 0. -1.
         22    1    1    0    0    0 -0.22704722790E+02  0.34781666773E+02  0.46700501363E+02  0.62499644863E+02  0.00000000000E+00 0.  1.
</event>
<event>
 4    1  0.9925048E-003  0.9118800E+02  0.7818608E-02  0.1130116E+00
         25   -1    0    0    0    0  0.00000000000E+00  0.00000000000E+00  0.99999998245E-14  0.12500000000E+03  0.12500000000E+03 0.  0.
        -13    1    1    0    0    0  0.81925874575E+00 -0.93558875123E+01 -0.72630209983E+01  0.11872929466E+02  0.10566000000E+00 0. -1.
         13    1    1    0    0    0 -0.34886016183E+02  0.21282044138E+02  0.45083002051E+02  0.60847742488E+02  0.10566000000E+00 0.  1.
         22    1    1    0    0    0  0.34066757438E+02 -0.11926156626E+02 -0.37819981053E+02  0.52279328047E+02  0.00000000000E+00 0.  1.
</event>
<event>
 4    1  0.9925048E-003  0.9118800E+02  0.7818608E-02  0.1130116E+00
         25   -1    0    0    0    0  0.00000000000E+00  0.00000000000E+00  0.99999998245E-14  0.12500000000E+03  0.12500000000E+03 0.  0.
        -13    1    1    0    0    0  0.74890352972E+01 -0.49973408769E+01  0.82470428979E+01  0.12209993699E+02  0.10566000000E+00 0.  1.
         13    1    1    0    0    0  0.31965123595E+02 -0.20681130734E+02  0.32861326501E+02  0.50292705617E+02  0.10566000000E+00 0. -1.
         22    1    1    0    0    0 -0.39454158892E+02  0.25678471611E+02 -0.41108369399E+02  0.62497300684E+02  0.00000000000E+00 0. -1.
</event>
<event>
 4    1  0.9925048E-003  0.9118800E+02  0.7818608E-02  0.1130116E+00
         25   -1    0    0    0    0  0.00000000000E+00  0.00000000000E+00  0.99999998245E-14  0.12500000000E+03  0.12500000000E+03 0.  0.
        -13    1    1    0    0    0 -0.34053931372E+00  0.77951575040E+01  0.39149021270E+01  0.87302961139E+01  0.10566000000E+00 0.  1.
         13    1    1    0    0    0  0.20572137750E+01  0.49343214310E+02  0.21309698096E+02  0.53787538742E+02  0.10566000000E+00 0. -1.
         22    1    1    0    0    0 -0.17166744613E+01 -0.57138371814E+02 -0.25224600223E+02  0.62482165144E+02  0.00000000000E+00 0. -1.
</event>
<event>
 4    1  0.9925048E-003  0.9118800E+02  0.7818608E-02  0.1130116E+00
         25   -1    0    0    0    0  0.00000000000E+00  0.00000000000E+00  0.99999998245E-14  0.12500000000E+03  0.12500000000E+03 0.  0.
        -13    1    1    0    0    0  0.25245382900E+01  0.28894304958E+02  0.45650753673E+02  0.54085641602E+02  0.10566000000E+00 0. -1.
         13    1    1    0    0    0  0.25152808938E+00  0.46445440953E+01  0.70130852670E+01  0.84160314419E+01  0.10566000000E+00 0. -1.
         22    1    1    0    0    0 -0.27760663793E+01 -0.33538849053E+02 -0.52663838940E+02  0.62498326956E+02  0.00000000000E+00 0. -1.
</event>
<event>
 4    1  0.9925048E-003  0.9118800E+02  0.7818608E-02  0.1130116E+00
         25   -1    0    0    0    0  0.00000000000E+00  0.00000000000E+00  0.99999998245E-14  0.12500000000E+03  0.12500000000E+03 0.  0.
        -13    1    1    0    0    0  0.26761538128E-01  0.13976400565E+02 -0.31092101332E+01  0.14318478991E+02  0.10566000000E+00 0. -1.
         13    1    1    0    0    0 -0.12076702547E+01  0.46951108335E+02 -0.10761552302E+02  0.48183889561E+02  0.10566000000E+00 0.  1.
         22    1    1    0    0    0  0.11809087166E+01 -0.60927508899E+02  0.13870762435E+02  0.62497631448E+02  0.00000000000E+00 0.  1.
</event>
<event>
 4    1  0.9925048E-003  0.9118800E+02  0.7818608E-02  0.1130116E+00
         25   -1    0    0    0    0  0.00000000000E+00  0.00000000000E+00  0.99999998245E-14  0.12500000000E+03  0.12500000000E+03 0.  0.
        -13    1    1    0    0    0 -0.44124865096E+01  0.28090629161E+02  0.64038208694E+01  0.29147445336E+02  0.10566000000E+00 0. -1.
         13    1    1    0    0    0 -0.51673471832E+01  0.32141085610E+02  0.72558468551E+01  0.33352801063E+02  0.10566000000E+00 0. -1.
         22    1    1    0    0    0  0.95798336928E+01 -0.60231714771E+02 -0.13659667725E+02  0.62499753601E+02  0.00000000000E+00 0. -1.
</event>
<event>
 4    1  0.9925048E-003  0.9118800E+02  0.7818608E-02  0.1130116E+00
         25   -1    0    0    0    0  0.00000000000E+00  0.00000000000E+00  0.99999998245E-14  0.12500000000E+03  0.12500000000E+03 0.  0.
        -13    1    1    0    0    0  0.32563084965E+02  0.42056908125E+01 -0.34064592002E+02  0.47312259828E+02  0.10566000000E+00 0. -1.
         13    1    1    0    0    0  0.10565103026E+02  0.13689112168E+01 -0.10824870583E+02  0.15188295067E+02  0.10566000000E+00 0. -1.
         22    1    1    0    0    0 -0.43128187991E+02 -0.55746020292E+01  0.44889462586E+02  0.62499445105E+02  0.00000000000E+00 0. -1.
</event>
<event>
 4    1  0.9925048E-003  0.9118800E+02  0.7818608E-02  0.1130116E+00
         25   -1    0    0    0    0  0.00000000000E+00  0.00000000000E+00  0.99999998245E-14  0.12500000000E+03  0.12500000000E+03 0.  0.
        -13    1    1    0    0    0  0.25135706149E+02 -0.32846179932E+02  0.20380978170E+01  0.41410629873E+02  0.10566000000E+00 0.  1.
         13    1    1    0    0    0  0.12550019877E+02 -0.16932826446E+02  0.77050651176E+00  0.21090956704E+02  0.10566000000E+00 0. -1.
         22    1    1    0    0    0 -0.37685726026E+02  0.49779006378E+02 -0.28086043288E+01  0.62498413423E+02  0.00000000000E+00 0.  1.
</event>
<event>
 4    1  0.9925048E-003  0.9118800E+02  0.7818608E-02  0.1130116E+00
         25   -1    0    0    0    0  0.00000000000E+00  0.00000000000E+00  0.99999998245E-14  0.12500000000E+03  0.12500000000E+03 0.  0.
        -13    1    1    0    0    0 -0.27240489404E+02  0.50948038868E+02 -0.64801387337E+01  0.58135619800E+02  0.10566000000E+00 0.  1.
         13    1    1    0    0    0 -0.19854139685E+01  0.38263707581E+01 -0.69376634260E+00  0.43675459446E+01  0.10566000000E+00 0. -1.
         22    1    1    0    0    0  0.29225903373E+02 -0.54774409626E+02  0.71739050763E+01  0.62496834255E+02  0.00000000000E+00 0.  1.
</event>
<event>
 4    1  0.9925048E-003  0.9118800E+02  0.7818608E-02  0.1130116E+00
         25   -1    0    0    0    0  0.00000000000E+00  0.00000000000E+00  0.99999998245E-14  0.12500000000E+03  0.12500000000E+03 0.  0.
        -13    1    1    0    0    0  0.74258850351E+01  0.46963423356E+01 -0.18438672437E+02  0.20425356917E+02  0.10566000000E+00 0. -1.
         13    1    1    0    0    0 -0.72979492968E+01  0.27450657228E+02 -0.33233781908E+02  0.43718349353E+02  0.10566000000E+00 0.  1.
         22    1    1    0    0    0 -0.12793573837E+00 -0.32146999564E+02  0.51672454346E+02  0.60856293730E+02  0.00000000000E+00 0.  1.
</event>
<event>
 4    1  0.9925048E-003  0.9118800E+02  0.7818608E-02  0.1130116E+00
         25   -1    0    0    0    0  0.00000000000E+00  0.00000000000E+00  0.99999998245E-14  0.12500000000E+03  0.12500000000E+03 0.  0.
        -13    1    1    0    0    0  0.41371272633E+02 -0.87579836756E+01  0.57220712711E+01  0.42673618794E+02  0.10566000000E+00 0.  1.
         13    1    1    0    0    0  0.19207019026E+02 -0.39044333062E+01  0.29960712225E+01  0.19827803361E+02  0.10566000000E+00 0. -1.
         22    1    1    0    0    0 -0.60578291659E+02  0.12662416982E+02 -0.87181424936E+01  0.62498577845E+02  0.00000000000E+00 0.  1.
</event>
<event>
 4    1  0.9925048E-003  0.9118800E+02  0.7818608E-02  0.1130116E+00
         25   -1    0    0    0    0  0.00000000000E+00  0.00000000000E+00  0.99999998245E-14  0.12500000000E+03  0.12500000000E+03 0.  0.
        -13    1    1    0    0    0 -0.33830346420E+01  0.16643635048E+01 -0.28935156775E+00  0.37828451767E+01  0.10566000000E+00 0.  1.
         13    1    1    0    0    0 -0.55004876151E+02 -0.10063318197E+02 -0.19152455671E+02  0.59106975018E+02  0.10566000000E+00 0. -1.
         22    1    1    0    0    0  0.58387910793E+02  0.83989546923E+01  0.19441807238E+02  0.62110179805E+02  0.00000000000E+00 0. -1.
</event>
<event>
 4    1  0.9925048E-003  0.9118800E+02  0.7818608E-02  0.1130116E+00
         25   -1    0    0    0    0  0.00000000000E+00  0.00000000000E+00  0.99999998245E-14  0.12500000000E+03  0.12500000000E+03 0.  0.
        -13    1    1    0    0    0 -0.32384592445E+02  0.22934132905E+02  0.43780274506E+02  0.59088576559E+02  0.10566000000E+00 0.  1.
         13    1    1    0    0    0 -0.25277949439E+01  0.13374829263E+01  0.19534801320E+01  0.34649468276E+01  0.10566000000E+00 0. -1.
         22    1    1    0    0    0  0.34912387388E+02 -0.24271615831E+02 -0.45733754638E+02  0.62446476614E+02  0.00000000000E+00 0.  1.
</event>
<event>
 4    1  0.9925048E-003  0.9118800E+02  0.7818608E-02  0.1130116E+00
         25   -1    0    0    0    0  0.00000000000E+00  0.00000000000E+00  0.99999998245E-14  0.12500000000E+03  0.12500000000E+03 0.  0.
        -13    1    1    0    0    0  0.42248841111E+01  0.37886966520E+01  0.22873468152E+01  0.61193943787E+01  0.10566000000E+00 0.  1.
         13    1    1    0    0    0  0.29745179096E+02  0.42608080323E+02  0.22037991689E+02  0.56443852012E+02  0.10566000000E+00 0. -1.
         22    1    1    0    0    0 -0.33970063207E+02 -0.46396776975E+02 -0.24325338504E+02  0.62436753609E+02  0.00000000000E+00 0. -1.
</event>
<event>
 4    1  0.9925048E-003  0.9118800E+02  0.7818608E-02  0.1130116E+00
         25   -1    0    0    0    0  0.00000000000E+00  0.00000000000E+00  0.99999998245E-14  0.12500000000E+03  0.12500000000E+03 0.  0.
        -13    1    1    0    0    0  0.29481730630E+02  0.20683102774E+01 -0.31704110093E+02  0.43342959165E+02  0.10566000000E+00 0.  1.
         13    1    1    0    0    0  0.12670529473E+02  0.10516461830E+01 -0.14332753256E+02  0.19159521308E+02  0.10566000000E+00 0.  1.
         22    1    1    0    0    0 -0.42152260103E+02 -0.31199564604E+01  0.46036863348E+02  0.62497519527E+02  0.00000000000E+00 0.  1.
</event>
<event>
 4    1  0.9925048E-003  0.9118800E+02  0.7818608E-02  0.1130116E+00
         25   -1    0    0    0    0  0.00000000000E+00  0.00000000000E+00  0.99999998245E-14  0.12500000000E+03  0.12500000000E+03 0.  0.
        -13    1    1    0    0    0 -0.18332386684E+02  0.39580343548E+01 -0.12773480441E+02  0.22691747489E+02  0.10566000000E+00 0.  1.
         13    1    1    0    0    0 -0.32156746165E+02  0.70476382141E+01 -0.22382532052E+02  0.39808471880E+02  0.10566000000E+00 0.  1.
         22    1    1    0    0    0  0.50489132849E+02 -0.11005672569E+02  0.35156012493E+02  0.62499780631E+02  0.00000000000E+00 0.  1.
</event>
<event>
 4    1  0.9925048E-003  0.9118800E+02  0.7818608E-02  0.1130116E+00
         25   -1    0    0    0    0  0.00000000000E+00  0.00000000000E+00  0.99999998245E-14  0.12500000000E+03  0.12500000000E+03 0.  0.
        -13    1    1    0    0    0  0.26539823706E+00 -0.44343622486E+02 -0.96913292907E+00  0.44355131316E+02  0.10566000000E+00 0.  1.
         13    1    1    0    0    0  0.72699036082E+00 -0.18098193516E+02 -0.12459102556E+01  0.18155896561E+02  0.10566000000E+00 0. -1.
         22    1    1    0    0    0 -0.99238859787E+00  0.62441816002E+02  0.22150431847E+01  0.62488972123E+02  0.00000000000E+00 0.  1.
</event>
<event>
 4    1  0.9925048E-003  0.9118800E+02  0.7818608E-02  0.1130116E+00
         25   -1    0    0    0    0  0.00000000000E+00  0.00000000000E+00  0.99999998245E-14  0.12500000000E+03  0.12500000000E+03 0.  0.
        -13    1    1    0    0    0  0.13213471215E+02 -0.21975230046E+02  0.80615371770E+01  0.26879473634E+02  0.10566000000E+00 0.  1.
         13    1    1    0    0    0  0.20831158738E+02 -0.28019421256E+02  0.73995451180E+01  0.35690188763E+02  0.10566000000E+00 0. -1.
         22    1    1    0    0    0 -0.34044629954E+02  0.49994651303E+02 -0.15461082295E+02  0.62430337603E+02  0.00000000000E+00 0. -1.
</event>
<event>
 4    1  0.9925048E-003  0.9118800E+02  0.7818608E-02  0.1130116E+00
         25   -1    0    0    0    0  0.00000000000E+00  0.00000000000E+00  0.99999998245E-14  0.12500000000E+03  0.12500000000E+03 0.  0.
        -13    1    1    0    0    0 -0.15975502644E+02 -0.17164487987E+02 -0.27245809480E+02  0.35946927975E+02  0.10566000000E+00 0.  1.
         13    1    1    0    0    0 -0.11997406090E+02 -0.13250135304E+02 -0.19640089804E+02  0.26556508242E+02  0.10566000000E+00 0. -1.
         22    1    1    0    0    0  0.27972908734E+02  0.30414623290E+02  0.46885899285E+02  0.62496563783E+02  0.00000000000E+00 0.  1.
</event>
<event>
 4    1  0.9925048E-003  0.9118800E+02  0.7818608E-02  0.1130116E+00
         25   -1    0    0    0    0  0.00000000000E+00  0.00000000000E+00  0.99999998245E-14  0.12500000000E+03  0.12500000000E+03 0.  0.
        -13    1    1    0    0    0 -0.17584035374E+02 -0.12033381356E+02 -0.29674569566E+02  0.36532065502E+02  0.10566000000E+00 0.  1.
         13    1    1    0    0    0 -0.94444098753E+01 -0.84933452106E+01 -0.22726845279E+02  0.26035638097E+02  0.10566000000E+00 0. -1.
         22    1    1    0    0    0  0.27028445249E+02  0.20526726567E+02  0.52401414845E+02  0.62432296401E+02  0.00000000000E+00 0.  1.
</event>
<event>
 4    1  0.9925048E-003  0.9118800E+02  0.7818608E-02  0.1130116E+00
         25   -1    0    0    0    0  0.00000000000E+00  0.00000000000E+00  0.99999998245E-14  0.12500000000E+03  0.12500000000E+03 0.  0.
        -13    1    1    0    0    0 -0.26847157829E+02 -0.19558916242E+02 -0.35272720398E+02  0.48450975804E+02  0.10566000000E+00 0.  1.
         13    1    1    0    0    0 -0.83989681661E+01 -0.39922875725E+01 -0.10591588192E+02  0.14095174025E+02  0.10566000000E+00 0. -1.
         22    1    1    0    0    0  0.35246125995E+02  0.23551203815E+02  0.45864308590E+02  0.62453850171E+02  0.00000000000E+00 0.  1.
</event>
<event>
 4    1  0.9925048E-003  0.9118800E+02  0.7818608E-02  0.1130116E+00
         25   -1    0    0    0    0  0.00000000000E+00  0.00000000000E+00  0.99999998245E-14  0.12500000000E+03  0.12500000000E+03 0.  0.
        -13    1    1    0    0    0 -0.33366611416E+01  0.21101440374E+02 -0.43645031338E+02  0.48593250745E+02  0.10566000000E+00 0.  1.
         13    1    1    0    0    0  0.13559034265E+01  0.74566031952E+01 -0.11790227452E+02  0.14016420111E+02  0.10566000000E+00 0. -1.
         22    1    1    0    0    0  0.19807577151E+01 -0.28558043569E+02  0.55435258790E+02  0.62390329144E+02  0.00000000000E+00 0.  1.
</event>
<event>
 4    1  0.9925048E-003  0.9118800E+02  0.7818608E-02  0.1130116E+00
         25   -1    0    0    0    0  0.00000000000E+00  0.00000000000E+00  0.99999998245E-14  0.12500000000E+03  0.12500000000E+03 0.  0.
        -13    1    1    0    0    0 -0.21094310426E+00  0.88484548227E+01 -0.50927052993E+01  0.10212074277E+02  0.10566000000E+00 0.  1.
         13    1    1    0    0    0  0.92923727804E+01  0.61447572083E+01 -0.52974131820E+02  0.54132947815E+02  0.10566000000E+00 0. -1.
         22    1    1    0    0    0 -0.90814296762E+01 -0.14993212031E+02  0.58066837119E+02  0.60654977908E+02  0.00000000000E+00 0. -1.
</event>
<event>
 4    1  0.9925048E-003  0.9118800E+02  0.7818608E-02  0.1130116E+00
         25   -1    0    0    0    0  0.00000000000E+00  0.00000000000E+00  0.99999998245E-14  0.12500000000E+03  0.12500000000E+03 0.  0.
        -13    1    1    0    0    0 -0.40924646803E+00 -0.13220389291E+01 -0.60119186054E+00  0.15125691027E+01  0.10566000000E+00 0. -1.
         13    1    1    0    0    0 -0.10896082987E+02 -0.58044958005E+02 -0.15276418099E+02  0.61002638371E+02  0.10566000000E+00 0.  1.
         22    1    1    0    0    0  0.11305329455E+02  0.59366996934E+02  0.15877609959E+02  0.62484792526E+02  0.00000000000E+00 0.  1.
</event>
<event>
 4    1  0.9925048E-003  0.9118800E+02  0.7818608E-02  0.1130116E+00
         25   -1    0    0    0    0  0.00000000000E+00  0.00000000000E+00  0.99999998245E-14  0.12500000000E+03  0.12500000000E+03 0.  0.
        -13    1    1    0    0    0  0.27595820779E+02  0.20179045441E+02 -0.51584957039E+02  0.61884910569E+02  0.10566000000E+00 0.  1.
         13    1    1    0    0    0 -0.76940505154E+01 -0.16573240897E+01  0.54790433510E+01  0.95904231684E+01  0.10566000000E+00 0. -1.
         22    1    1    0    0    0 -0.19901770264E+02 -0.18521721352E+02  0.46105913688E+02  0.53524666262E+02  0.00000000000E+00 0.  1.
</event>
<event>
 4    1  0.9925048E-003  0.9118800E+02  0.7818608E-02  0.1130116E+00
         25   -1    0    0    0    0  0.00000000000E+00  0.00000000000E+00  0.99999998245E-14  0.12500000000E+03  0.12500000000E+03 0.  0.
        -13    1    1    0    0    0  0.49678123471E+01  0.14981522478E+02 -0.42279404649E+01  0.16340496317E+02  0.10566000000E+00 0. -1.
         13    1    1    0    0    0  0.53268208130E+01  0.40436696017E+02 -0.22165288394E+02  0.46419958837E+02  0.10566000000E+00 0.  1.
         22    1    1    0    0    0 -0.10294633160E+02 -0.55418218495E+02  0.26393228859E+02  0.62239544846E+02  0.00000000000E+00 0.  1.
</event>
<event>
 4    1  0.9925048E-003  0.9118800E+02  0.7818608E-02  0.1130116E+00
         25   -1    0    0    0    0  0.00000000000E+00  0.00000000000E+00  0.99999998245E-14  0.12500000000E+03  0.12500000000E+03 0.  0.
        -13    1    1    0    0    0  0.34950128988E+02  0.32707552863E+02 -0.28547032768E+02  0.55733650288E+02  0.10566000000E+00 0.  1.
         13    1    1    0    0    0 -0.63591345456E+01 -0.54802186498E+01 -0.10697524294E+02  0.13598513841E+02  0.10566000000E+00 0. -1.
         22    1    1    0    0    0 -0.28590994442E+02 -0.27227334213E+02  0.39244557062E+02  0.55667835871E+02  0.00000000000E+00 0.  1.
</event>
<event>
 4    1  0.9925048E-003  0.9118800E+02  0.7818608E-02  0.1130116E+00
         25   -1    0    0    0    0  0.00000000000E+00  0.00000000000E+00  0.99999998245E-14  0.12500000000E+03  0.12500000000E+03 0.  0.
        -13    1    1    0    0    0 -0.60749806454E+01 -0.13528215536E+02  0.10316918449E+02  0.18065657357E+02  0.10566000000E+00 0. -1.
         13    1    1    0    0    0 -0.79391303229E+01 -0.40594427184E+02  0.16986822703E+02  0.44715775944E+02  0.10566000000E+00 0.  1.
         22    1    1    0    0    0  0.14014110968E+02  0.54122642720E+02 -0.27303741152E+02  0.62218566699E+02  0.00000000000E+00 0.  1.
</event>
<event>
 4    1  0.9925048E-003  0.9118800E+02  0.7818608E-02  0.1130116E+00
         25   -1    0    0    0    0  0.00000000000E+00  0.00000000000E+00  0.99999998245E-14  0.12500000000E+03  0.12500000000E+03 0.  0.
        -13    1    1    0    0    0 -0.30381086547E+02 -0.37323052207E+02  0.22164921608E+02  0.52984106671E+02  0.10566000000E+00 0.  1.
         13    1    1    0    0    0 -0.63068471001E+01 -0.60028788954E+01  0.39056420390E+01  0.95433788120E+01  0.10566000000E+00 0. -1.
         22    1    1    0    0    0  0.36687933647E+02  0.43325931102E+02 -0.26070563647E+02  0.62472514517E+02  0.00000000000E+00 0.  1.
</event>
<event>
 4    1  0.9925048E-003  0.9118800E+02  0.7818608E-02  0.1130116E+00
         25   -1    0    0    0    0  0.00000000000E+00  0.00000000000E+00  0.99999998245E-14  0.12500000000E+03  0.12500000000E+03 0.  0.
        -13    1    1    0    0    0  0.48935098086E+00  0.31047678807E+01  0.55476346049E+01  0.63770260875E+01  0.10566000000E+00 0. -1.
         13    1    1    0    0    0 -0.46028355637E+02 -0.38697641634E+02 -0.85894303880E+01  0.60744600329E+02  0.10566000000E+00 0.  1.
         22    1    1    0    0    0  0.45539004657E+02  0.35592873753E+02  0.30417957831E+01  0.57878373584E+02  0.00000000000E+00 0.  1.
</event>
<event>
 4    1  0.9925048E-003  0.9118800E+02  0.7818608E-02  0.1130116E+00
         25   -1    0    0    0    0  0.00000000000E+00  0.00000000000E+00  0.99999998245E-14  0.12500000000E+03  0.12500000000E+03 0.  0.
        -13    1    1    0    0    0 -0.20130103442E+00 -0.38556699575E+02 -0.10970690426E+02  0.40087738982E+02  0.10566000000E+00 0. -1.
         13    1    1    0    0    0 -0.12080099446E+02 -0.20312059250E+02 -0.74813298703E+00  0.23644860342E+02  0.10566000000E+00 0.  1.
         22    1    1    0    0    0  0.12281400481E+02  0.58868758825E+02  0.11718823413E+02  0.61267400676E+02  0.00000000000E+00 0.  1.
</event>
<event>
 4    1  0.9925048E-003  0.9118800E+02  0.7818608E-02  0.1130116E+00
         25   -1    0    0    0    0  0.00000000000E+00  0.00000000000E+00  0.99999998245E-14  0.12500000000E+03  0.12500000000E+03 0.  0.
        -13    1    1    0    0    0 -0.50447362751E+02 -0.65284752740E-01  0.20392189821E+02  0.54413171571E+02  0.10566000000E+00 0. -1.
         13    1    1    0    0    0 -0.75216102350E+01  0.50268205388E+00  0.29465880046E+01  0.80944953319E+01  0.10566000000E+00 0.  1.
         22    1    1    0    0    0  0.57968972986E+02 -0.43739730114E+00 -0.23338777826E+02  0.62492333097E+02  0.00000000000E+00 0. -1.
</event>
<event>
 4    1  0.9925048E-003  0.9118800E+02  0.7818608E-02  0.1130116E+00
         25   -1    0    0    0    0  0.00000000000E+00  0.00000000000E+00  0.99999998245E-14  0.12500000000E+03  0.12500000000E+03 0.  0.
        -13    1    1    0    0    0  0.20862024369E+02  0.41192725036E+02 -0.15847148483E+02  0.48818110735E+02  0.10566000000E+00 0. -1.
         13    1    1    0    0    0  0.62094830616E+01  0.11383533690E+02 -0.43716100894E+01  0.13684467763E+02  0.10566000000E+00 0.  1.
         22    1    1    0    0    0 -0.27071507430E+02 -0.52576258726E+02  0.20218758573E+02  0.62497421502E+02  0.00000000000E+00 0. -1.
</event>
<event>
 4    1  0.9925048E-003  0.9118800E+02  0.7818608E-02  0.1130116E+00
         25   -1    0    0    0    0  0.00000000000E+00  0.00000000000E+00  0.99999998245E-14  0.12500000000E+03  0.12500000000E+03 0.  0.
        -13    1    1    0    0    0  0.20532227817E+02 -0.16504517418E+02 -0.11781669809E+02  0.28858107732E+02  0.10566000000E+00 0. -1.
         13    1    1    0    0    0  0.90530892468E+01 -0.24999253133E+02 -0.22404942129E+02  0.34769435975E+02  0.10566000000E+00 0.  1.
         22    1    1    0    0    0 -0.29585317064E+02  0.41503770551E+02  0.34186611938E+02  0.61372456294E+02  0.00000000000E+00 0. -1.
</event>
<event>
 4    1  0.9925048E-003  0.9118800E+02  0.7818608E-02  0.1130116E+00
         25   -1    0    0    0    0  0.00000000000E+00  0.00000000000E+00  0.99999998245E-14  0.12500000000E+03  0.12500000000E+03 0.  0.
        -13    1    1    0    0    0  0.38211521047E+01 -0.22432694481E+01  0.17616725649E+01  0.47694984522E+01  0.10566000000E+00 0.  1.
         13    1    1    0    0    0  0.44898315102E+02 -0.29362118271E+02  0.21333922392E+02  0.57733353419E+02  0.10566000000E+00 0. -1.
         22    1    1    0    0    0 -0.48719467207E+02  0.31605387719E+02 -0.23095594957E+02  0.62497148129E+02  0.00000000000E+00 0. -1.
</event>
<event>
 4    1  0.9925048E-003  0.9118800E+02  0.7818608E-02  0.1130116E+00
         25   -1    0    0    0    0  0.00000000000E+00  0.00000000000E+00  0.99999998245E-14  0.12500000000E+03  0.12500000000E+03 0.  0.
        -13    1    1    0    0    0  0.48247412819E+01 -0.17493853070E+02  0.65846656292E+01  0.19304973690E+02  0.10566000000E+00 0.  1.
         13    1    1    0    0    0  0.10177055671E+02 -0.39407989458E+02  0.14468443752E+02  0.43196170245E+02  0.10566000000E+00 0.  1.
         22    1    1    0    0    0 -0.15001796953E+02  0.56901842528E+02 -0.21053109381E+02  0.62498856065E+02  0.00000000000E+00 0.  1.
</event>
<event>
 4    1  0.9925048E-003  0.9118800E+02  0.7818608E-02  0.1130116E+00
         25   -1    0    0    0    0  0.00000000000E+00  0.00000000000E+00  0.99999998245E-14  0.12500000000E+03  0.12500000000E+03 0.  0.
        -13    1    1    0    0    0  0.27574846934E+02  0.22207548512E+02  0.18773838741E+02  0.40075124197E+02  0.10566000000E+00 0. -1.
         13    1    1    0    0    0  0.13700082741E+02  0.12077496971E+02  0.13135218432E+02  0.22496740374E+02  0.10566000000E+00 0.  1.
         22    1    1    0    0    0 -0.41274929675E+02 -0.34285045482E+02 -0.31909057173E+02  0.62428135428E+02  0.00000000000E+00 0. -1.
</event>
<event>
 4    1  0.9925048E-003  0.9118800E+02  0.7818608E-02  0.1130116E+00
         25   -1    0    0    0    0  0.00000000000E+00  0.00000000000E+00  0.99999998245E-14  0.12500000000E+03  0.12500000000E+03 0.  0.
        -13    1    1    0    0    0  0.23148299464E+02 -0.42793247748E+02 -0.15447288024E+02  0.51046407241E+02  0.10566000000E+00 0. -1.
         13    1    1    0    0    0  0.53532805797E+01 -0.94645683889E+01 -0.36014358669E+01  0.11455006420E+02  0.10566000000E+00 0. -1.
         22    1    1    0    0    0 -0.28501580044E+02  0.52257816137E+02  0.19048723891E+02  0.62498586338E+02  0.00000000000E+00 0. -1.
</event>
<event>
 4    1  0.9925048E-003  0.9118800E+02  0.7818608E-02  0.1130116E+00
         25   -1    0    0    0    0  0.00000000000E+00  0.00000000000E+00  0.99999998245E-14  0.12500000000E+03  0.12500000000E+03 0.  0.
        -13    1    1    0    0    0 -0.37649617839E+01  0.82501490469E+01 -0.84134612819E+01  0.12370828239E+02  0.10566000000E+00 0. -1.
         13    1    1    0    0    0 -0.45376190023E+01  0.34049555280E+02 -0.36675195846E+02  0.50249809506E+02  0.10566000000E+00 0.  1.
         22    1    1    0    0    0  0.83025807862E+01 -0.42299704327E+02  0.45088657128E+02  0.62379362256E+02  0.00000000000E+00 0.  1.
</event>
<event>
 4    1  0.9925048E-003  0.9118800E+02  0.7818608E-02  0.1130116E+00
         25   -1    0    0    0    0  0.00000000000E+00  0.00000000000E+00  0.99999998245E-14  0.12500000000E+03  0.12500000000E+03 0.  0.
        -13    1    1    0    0    0  0.30747197505E+02  0.21403848246E+02 -0.39952892786E+02  0.54770061896E+02  0.10566000000E+00 0. -1.
         13    1    1    0    0    0  0.43014953799E+01  0.33016121708E+01 -0.55123341494E+01  0.77330781220E+01  0.10566000000E+00 0.  1.
         22    1    1    0    0    0 -0.35048692885E+02 -0.24705460417E+02  0.45465226935E+02  0.62496859982E+02  0.00000000000E+00 0. -1.
</event>
<event>
 4    1  0.9925048E-003  0.9118800E+02  0.7818608E-02  0.1130116E+00
         25   -1    0    0    0    0  0.00000000000E+00  0.00000000000E+00  0.99999998245E-14  0.12500000000E+03  0.12500000000E+03 0.  0.
        -13    1    1    0    0    0  0.12960423432E+01 -0.76475660618E+01 -0.25268594887E+02  0.26432518685E+02  0.10566000000E+00 0.  1.
         13    1    1    0    0    0 -0.33977455643E+02 -0.19360215557E+02 -0.13245953957E+02  0.41288641279E+02  0.10566000000E+00 0. -1.
         22    1    1    0    0    0  0.32681413300E+02  0.27007781619E+02  0.38514548844E+02  0.57278840036E+02  0.00000000000E+00 0. -1.
</event>
<event>
 4    1  0.9925048E-003  0.9118800E+02  0.7818608E-02  0.1130116E+00
         25   -1    0    0    0    0  0.00000000000E+00  0.00000000000E+00  0.99999998245E-14  0.12500000000E+03  0.12500000000E+03 0.  0.
        -13    1    1    0    0    0 -0.38568892471E+02 -0.40872635978E+02  0.83805259291E+01  0.56818801616E+02  0.10566000000E+00 0.  1.
         13    1    1    0    0    0 -0.38398796796E+01 -0.40890840691E+01  0.89861367604E+00  0.56818971350E+01  0.10566000000E+00 0.  1.
         22    1    1    0    0    0  0.42408772150E+02  0.44961720047E+02 -0.92791396052E+01  0.62499301249E+02  0.00000000000E+00 0.  1.
</event>
<event>
 4    1  0.9925048E-003  0.9118800E+02  0.7818608E-02  0.1130116E+00
         25   -1    0    0    0    0  0.00000000000E+00  0.00000000000E+00  0.99999998245E-14  0.12500000000E+03  0.12500000000E+03 0.  0.
        -13    1    1    0    0    0  0.26798018734E+01  0.32742978964E+02  0.18100096390E+02  0.37508781144E+02  0.10566000000E+00 0.  1.
         13    1    1    0    0    0  0.35188420368E+01  0.23342348507E+02  0.85246814298E+01  0.25098383227E+02  0.10566000000E+00 0. -1.
         22    1    1    0    0    0 -0.61986439101E+01 -0.56085327471E+02 -0.26624777819E+02  0.62392835629E+02  0.00000000000E+00 0.  1.
</event>
<event>
 4    1  0.9925048E-003  0.9118800E+02  0.7818608E-02  0.1130116E+00
         25   -1    0    0    0    0  0.00000000000E+00  0.00000000000E+00  0.99999998245E-14  0.12500000000E+03  0.12500000000E+03 0.  0.
        -13    1    1    0    0    0 -0.58640265977E+00 -0.19744964711E+02  0.11249875654E+02  0.22732759748E+02  0.10566000000E+00 0. -1.
         13    1    1    0    0    0 -0.24759685110E+02  0.11474666952E+02 -0.48979163791E+02  0.56068526270E+02  0.10566000000E+00 0.  1.
         22    1    1    0    0    0  0.25346087769E+02  0.82702977591E+01  0.37729288137E+02  0.46198713982E+02  0.00000000000E+00 0.  1.
</event>
<event>
 4    1  0.9925048E-003  0.9118800E+02  0.7818608E-02  0.1130116E+00
         25   -1    0    0    0    0  0.00000000000E+00  0.00000000000E+00  0.99999998245E-14  0.12500000000E+03  0.12500000000E+03 0.  0.
        -13    1    1    0    0    0 -0.62714071565E+01  0.28052665210E+01  0.85155409561E+01  0.10941922582E+02  0.10566000000E+00 0. -1.
         13    1    1    0    0    0 -0.28726384463E+02  0.11445018861E+02  0.41261486609E+02  0.51562729391E+02  0.10566000000E+00 0.  1.
         22    1    1    0    0    0  0.34997791620E+02 -0.14250285382E+02 -0.49777027565E+02  0.62495348027E+02  0.00000000000E+00 0.  1.
</event>
<event>
 4    1  0.9925048E-003  0.9118800E+02  0.7818608E-02  0.1130116E+00
         25   -1    0    0    0    0  0.00000000000E+00  0.00000000000E+00  0.99999998245E-14  0.12500000000E+03  0.12500000000E+03 0.  0.
        -13    1    1    0    0    0  0.28716545553E+02  0.55164679174E+01 -0.47266059431E+02  0.55580238799E+02  0.10566000000E+00 0. -1.
         13    1    1    0    0    0  0.42314929050E+01  0.62941486149E+00 -0.54633880818E+01  0.69398464422E+01  0.10566000000E+00 0.  1.
         22    1    1    0    0    0 -0.32948038458E+02 -0.61458827789E+01  0.52729447513E+02  0.62479914759E+02  0.00000000000E+00 0. -1.
</event>
<event>
 4    1  0.9925048E-003  0.9118800E+02  0.7818608E-02  0.1130116E+00
         25   -1    0    0    0    0  0.00000000000E+00  0.00000000000E+00  0.99999998245E-14  0.12500000000E+03  0.12500000000E+03 0.  0.
        -13    1    1    0    0    0 -0.31888210207E+01  0.20230334671E+01  0.79052234608E+01  0.87615618420E+01  0.10566000000E+00 0.  1.
         13    1    1    0    0    0 -0.16283078528E+02  0.35245931534E+02  0.37762028516E+02  0.54160837307E+02  0.10566000000E+00 0. -1.
         22    1    1    0    0    0  0.19471899549E+02 -0.37268965001E+02 -0.45667251977E+02  0.62077600851E+02  0.00000000000E+00 0. -1.
</event>
<event>
 4    1  0.9925048E-003  0.9118800E+02  0.7818608E-02  0.1130116E+00
         25   -1    0    0    0    0  0.00000000000E+00  0.00000000000E+00  0.99999998245E-14  0.12500000000E+03  0.12500000000E+03 0.  0.
        -13    1    1    0    0    0  0.45926375740E+01  0.26248311973E+02 -0.33434197552E+02  0.42754215363E+02  0.10566000000E+00 0. -1.
         13    1    1    0    0    0  0.41723440526E+01  0.19270266194E+01 -0.20369614834E+02  0.20881912245E+02  0.10566000000E+00 0.  1.
         22    1    1    0    0    0 -0.87649816266E+01 -0.28175338592E+02  0.53803812386E+02  0.61363872392E+02  0.00000000000E+00 0. -1.
</event>
<event>
 4    1  0.9925048E-003  0.9118800E+02  0.7818608E-02  0.1130116E+00
         25   -1    0    0    0    0  0.00000000000E+00  0.00000000000E+00  0.99999998245E-14  0.12500000000E+03  0.12500000000E+03 0.  0.
        -13    1    1    0    0    0  0.13056502805E+02  0.35750480230E+02  0.20254801514E+01  0.38114076613E+02  0.10566000000E+00 0. -1.
         13    1    1    0    0    0  0.81815403203E+01  0.22802627374E+02  0.29328543862E+01  0.24403078003E+02  0.10566000000E+00 0.  1.
         22    1    1    0    0    0 -0.21238043125E+02 -0.58553107604E+02 -0.49583345376E+01  0.62482845384E+02  0.00000000000E+00 0.  1.
</event>
<event>
 4    1  0.9925048E-003  0.9118800E+02  0.7818608E-02  0.1130116E+00
         25   -1    0    0    0    0  0.00000000000E+00  0.00000000000E+00  0.99999998245E-14  0.12500000000E+03  0.12500000000E+03 0.  0.
        -13    1    1    0    0    0  0.55028955990E+01  0.43932792787E+02  0.14534615880E+02  0.46600840817E+02  0.10566000000E+00 0.  1.
         13    1    1    0    0    0 -0.74175137029E+01  0.98183719909E+01 -0.20884543591E+02  0.24240364336E+02  0.10566000000E+00 0. -1.
         22    1    1    0    0    0  0.19146181039E+01 -0.53751164777E+02  0.63499277111E+01  0.54158794848E+02  0.00000000000E+00 0.  1.
</event>
<event>
 4    1  0.9925048E-003  0.9118800E+02  0.7818608E-02  0.1130116E+00
         25   -1    0    0    0    0  0.00000000000E+00  0.00000000000E+00  0.99999998245E-14  0.12500000000E+03  0.12500000000E+03 0.  0.
        -13    1    1    0    0    0  0.73187949372E+00  0.26571824243E+00 -0.36110416512E+00  0.86476241324E+00  0.10566000000E+00 0.  1.
         13    1    1    0    0    0  0.27311040529E+02 -0.33904525172E+02 -0.43929615945E+02  0.61848460636E+02  0.10566000000E+00 0. -1.
         22    1    1    0    0    0 -0.28042920022E+02  0.33638806930E+02  0.44290720110E+02  0.62286776951E+02  0.00000000000E+00 0. -1.
</event>
<event>
 4    1  0.9925048E-003  0.9118800E+02  0.7818608E-02  0.1130116E+00
         25   -1    0    0    0    0  0.00000000000E+00  0.00000000000E+00  0.99999998245E-14  0.12500000000E+03  0.12500000000E+03 0.  0.
        -13    1    1    0    0    0  0.27456668995E+02 -0.26786638898E+02 -0.14426522914E+00  0.38359153696E+02  0.10566000000E+00 0. -1.
         13    1    1    0    0    0  0.20073968199E+02 -0.13607620994E+02  0.69672246276E+00  0.24261659765E+02  0.10566000000E+00 0.  1.
         22    1    1    0    0    0 -0.47530637194E+02  0.40394259892E+02 -0.55245723362E+00  0.62379186539E+02  0.00000000000E+00 0.  1.
</event>
<event>
 4    1  0.9925048E-003  0.9118800E+02  0.7818608E-02  0.1130116E+00
         25   -1    0    0    0    0  0.00000000000E+00  0.00000000000E+00  0.99999998245E-14  0.12500000000E+03  0.12500000000E+03 0.  0.
        -13    1    1    0    0    0 -0.92919823605E+00  0.19604917226E+01  0.23041007429E+01  0.31665409243E+01  0.10566000000E+00 0.  1.
         13    1    1    0    0    0 -0.16205984519E+02  0.38840896327E+02  0.41827075778E+02  0.59336031161E+02  0.10566000000E+00 0. -1.
         22    1    1    0    0    0  0.17135182755E+02 -0.40801388050E+02 -0.44131176521E+02  0.62497427915E+02  0.00000000000E+00 0. -1.
</event>
<event>
 4    1  0.9925048E-003  0.9118800E+02  0.7818608E-02  0.1130116E+00
         25   -1    0    0    0    0  0.00000000000E+00  0.00000000000E+00  0.99999998245E-14  0.12500000000E+03  0.12500000000E+03 0.  0.
        -13    1    1    0    0    0 -0.28331622727E+02 -0.22486212473E+02 -0.14619191894E+02  0.39013363523E+02  0.10566000000E+00 0. -1.
         13    1    1    0    0    0 -0.17361319205E+02 -0.16181830699E+02 -0.21297718503E+01  0.23828851031E+02  0.10566000000E+00 0.  1.
         22    1    1    0    0    0  0.45692941931E+02  0.38668043171E+02  0.16748963745E+02  0.62157785446E+02  0.00000000000E+00 0. -1.
</event>
<event>
 4    1  0.9925048E-003  0.9118800E+02  0.7818608E-02  0.1130116E+00
         25   -1    0    0    0    0  0.00000000000E+00  0.00000000000E+00  0.99999998245E-14  0.12500000000E+03  0.12500000000E+03 0.  0.
        -13    1    1    0    0    0  0.31737273580E+02 -0.40952903511E+02 -0.31965164755E+02  0.60878385016E+02  0.10566000000E+00 0.  1.
         13    1    1    0    0    0  0.27912851414E+01  0.17302475733E+01  0.25226159424E+01  0.41424370404E+01  0.10566000000E+00 0. -1.
         22    1    1    0    0    0 -0.34528558722E+02  0.39222655938E+02  0.29442548812E+02  0.59979177944E+02  0.00000000000E+00 0.  1.
</event>
<event>
 4    1  0.9925048E-003  0.9118800E+02  0.7818608E-02  0.1130116E+00
         25   -1    0    0    0    0  0.00000000000E+00  0.00000000000E+00  0.99999998245E-14  0.12500000000E+03  0.12500000000E+03 0.  0.
        -13    1    1    0    0    0  0.15284466998E+02  0.13395193312E+02 -0.39884595543E+02  0.44764252043E+02  0.10566000000E+00 0. -1.
         13    1    1    0    0    0  0.60109472598E+01  0.51849204416E+01 -0.15860194501E+02  0.17736172659E+02  0.10566000000E+00 0. -1.
         22    1    1    0    0    0 -0.21295414257E+02 -0.18580113753E+02  0.55744790044E+02  0.62499575299E+02  0.00000000000E+00 0. -1.
</event>
<event>
 4    1  0.9925048E-003  0.9118800E+02  0.7818608E-02  0.1130116E+00
         25   -1    0    0    0    0  0.00000000000E+00  0.00000000000E+00  0.99999998245E-14  0.12500000000E+03  0.12500000000E+03 0.  0.
        -13    1    1    0    0    0 -0.33237477861E+02  0.23812050644E+02 -0.11474222214E+02  0.42466606056E+02  0.10566000000E+00 0.  1.
         13    1    1    0    0    0 -0.10423391712E+02  0.27487454077E+01 -0.19852657847E+02  0.22590747746E+02  0.10566000000E+00 0. -1.
         22    1    1    0    0    0  0.43660869574E+02 -0.26560796052E+02  0.31326880061E+02  0.59942646198E+02  0.00000000000E+00 0.  1.
</event>
<event>
 4    1  0.9925048E-003  0.9118800E+02  0.7818608E-02  0.1130116E+00
         25   -1    0    0    0    0  0.00000000000E+00  0.00000000000E+00  0.99999998245E-14  0.12500000000E+03  0.12500000000E+03 0.  0.
        -13    1    1    0    0    0  0.17207551877E+02 -0.40172907270E+02 -0.25465065953E+02  0.50581054439E+02  0.10566000000E+00 0. -1.
         13    1    1    0    0    0  0.28085740115E+01 -0.98576289634E+01 -0.61396085749E+01  0.11948510127E+02  0.10566000000E+00 0.  1.
         22    1    1    0    0    0 -0.20016125889E+02  0.50030536233E+02  0.31604674528E+02  0.62470435435E+02  0.00000000000E+00 0. -1.
</event>
<event>
 4    1  0.9925048E-003  0.9118800E+02  0.7818608E-02  0.1130116E+00
         25   -1    0    0    0    0  0.00000000000E+00  0.00000000000E+00  0.99999998245E-14  0.12500000000E+03  0.12500000000E+03 0.  0.
        -13    1    1    0    0    0  0.45893795192E+02 -0.18112198193E+02  0.12437950633E+02  0.50882275308E+02  0.10566000000E+00 0. -1.
         13    1    1    0    0    0  0.10479379014E+02 -0.41244073043E+01  0.28529315846E+01  0.11618024909E+02  0.10566000000E+00 0. -1.
         22    1    1    0    0    0 -0.56373174205E+02  0.22236605498E+02 -0.15290882217E+02  0.62499699784E+02  0.00000000000E+00 0. -1.
</event>
<event>
 4    1  0.9925048E-003  0.9118800E+02  0.7818608E-02  0.1130116E+00
         25   -1    0    0    0    0  0.00000000000E+00  0.00000000000E+00  0.99999998245E-14  0.12500000000E+03  0.12500000000E+03 0.  0.
        -13    1    1    0    0    0 -0.34083867699E+01  0.61855138885E+01 -0.58280383991E+01  0.91572309163E+01  0.10566000000E+00 0.  1.
         13    1    1    0    0    0 -0.42432387529E+02 -0.80684845432E+01 -0.34092788997E+02  0.55026696974E+02  0.10566000000E+00 0. -1.
         22    1    1    0    0    0  0.45840774299E+02  0.18829706547E+01  0.39920827396E+02  0.60816072109E+02  0.00000000000E+00 0. -1.
</event>
<event>
 4    1  0.9925048E-003  0.9118800E+02  0.7818608E-02  0.1130116E+00
         25   -1    0    0    0    0  0.00000000000E+00  0.00000000000E+00  0.99999998245E-14  0.12500000000E+03  0.12500000000E+03 0.  0.
        -13    1    1    0    0    0  0.57221277443E-03 -0.14531136449E+02  0.14995786815E+02  0.20881540007E+02  0.10566000000E+00 0.  1.
         13    1    1    0    0    0 -0.52852977103E+00 -0.29415139267E+02  0.29439544383E+02  0.41620039636E+02  0.10566000000E+00 0. -1.
         22    1    1    0    0    0  0.52795755826E+00  0.43946275716E+02 -0.44435331198E+02  0.62498420357E+02  0.00000000000E+00 0.  1.
</event>
<event>
 4    1  0.9925048E-003  0.9118800E+02  0.7818608E-02  0.1130116E+00
         25   -1    0    0    0    0  0.00000000000E+00  0.00000000000E+00  0.99999998245E-14  0.12500000000E+03  0.12500000000E+03 0.  0.
        -13    1    1    0    0    0  0.28136874919E+02 -0.26509840131E+02 -0.24508042562E+02  0.45772378879E+02  0.10566000000E+00 0. -1.
         13    1    1    0    0    0  0.10070775695E+02 -0.10265056782E+02 -0.85565645226E+01  0.16733734619E+02  0.10566000000E+00 0.  1.
         22    1    1    0    0    0 -0.38207650614E+02  0.36774896913E+02  0.33064607085E+02  0.62493886502E+02  0.00000000000E+00 0. -1.
</event>
<event>
 4    1  0.9925048E-003  0.9118800E+02  0.7818608E-02  0.1130116E+00
         25   -1    0    0    0    0  0.00000000000E+00  0.00000000000E+00  0.99999998245E-14  0.12500000000E+03  0.12500000000E+03 0.  0.
        -13    1    1    0    0    0 -0.12541262760E+02 -0.92007113334E+01 -0.93366944453E+01  0.18141703003E+02  0.10566000000E+00 0.  1.
         13    1    1    0    0    0 -0.30514866220E+02 -0.21984622895E+02 -0.23522264061E+02  0.44359765271E+02  0.10566000000E+00 0. -1.
         22    1    1    0    0    0  0.43056128981E+02  0.31185334228E+02  0.32858958507E+02  0.62498531726E+02  0.00000000000E+00 0. -1.
</event>
<event>
 4    1  0.9925048E-003  0.9118800E+02  0.7818608E-02  0.1130116E+00
         25   -1    0    0    0    0  0.00000000000E+00  0.00000000000E+00  0.99999998245E-14  0.12500000000E+03  0.12500000000E+03 0.  0.
        -13    1    1    0    0    0  0.22079103547E+02  0.84691675288E+00 -0.31295195653E+02  0.38309326755E+02  0.10566000000E+00 0. -1.
         13    1    1    0    0    0  0.20726297510E+02 -0.57766891195E+01 -0.12802042340E+02  0.25037032527E+02  0.10566000000E+00 0.  1.
         22    1    1    0    0    0 -0.42805401057E+02  0.49297723666E+01  0.44097237993E+02  0.61653640718E+02  0.00000000000E+00 0. -1.
</event>
<event>
 4    1  0.9925048E-003  0.9118800E+02  0.7818608E-02  0.1130116E+00
         25   -1    0    0    0    0  0.00000000000E+00  0.00000000000E+00  0.99999998245E-14  0.12500000000E+03  0.12500000000E+03 0.  0.
        -13    1    1    0    0    0  0.48439175263E+00 -0.84316978610E+01  0.13742646290E+02  0.16130705356E+02  0.10566000000E+00 0. -1.
         13    1    1    0    0    0 -0.17809036878E+02 -0.35160729037E+02  0.26142795566E+02  0.47295830524E+02  0.10566000000E+00 0.  1.
         22    1    1    0    0    0  0.17324645126E+02  0.43592426898E+02 -0.39885441856E+02  0.61573464119E+02  0.00000000000E+00 0.  1.
</event>
<event>
 4    1  0.9925048E-003  0.9118800E+02  0.7818608E-02  0.1130116E+00
         25   -1    0    0    0    0  0.00000000000E+00  0.00000000000E+00  0.99999998245E-14  0.12500000000E+03  0.12500000000E+03 0.  0.
        -13    1    1    0    0    0  0.37085744977E+02  0.49018304066E+01 -0.16459100700E+02  0.40869225363E+02  0.10566000000E+00 0. -1.
         13    1    1    0    0    0  0.20181111448E+02  0.20689441179E+01 -0.75473983897E+01  0.21645604070E+02  0.10566000000E+00 0.  1.
         22    1    1    0    0    0 -0.57266856425E+02 -0.69707745245E+01  0.24006499090E+02  0.62485170568E+02  0.00000000000E+00 0. -1.
</event>
<event>
 4    1  0.9925048E-003  0.9118800E+02  0.7818608E-02  0.1130116E+00
         25   -1    0    0    0    0  0.00000000000E+00  0.00000000000E+00  0.99999998245E-14  0.12500000000E+03  0.12500000000E+03 0.  0.
        -13    1    1    0    0    0 -0.76494760649E+01  0.40221103731E+02 -0.31022791912E+02  0.51368048936E+02  0.10566000000E+00 0. -1.
         13    1    1    0    0    0 -0.22099678011E+01  0.87381164197E+01 -0.65434030578E+01  0.11138488401E+02  0.10566000000E+00 0.  1.
         22    1    1    0    0    0  0.98594438661E+01 -0.48959220151E+02  0.37566194970E+02  0.62493462663E+02  0.00000000000E+00 0. -1.
</event>
<event>
 4    1  0.9925048E-003  0.9118800E+02  0.7818608E-02  0.1130116E+00
         25   -1    0    0    0    0  0.00000000000E+00  0.00000000000E+00  0.99999998245E-14  0.12500000000E+03  0.12500000000E+03 0.  0.
        -13    1    1    0    0    0  0.21972187915E+02 -0.24446828471E+02  0.18487538008E+01  0.32921930665E+02  0.10566000000E+00 0.  1.
         13    1    1    0    0    0  0.20648176420E+02 -0.21179975050E+02  0.72863473533E+00  0.29588521511E+02  0.10566000000E+00 0. -1.
         22    1    1    0    0    0 -0.42620364335E+02  0.45626803521E+02 -0.25773885362E+01  0.62489547824E+02  0.00000000000E+00 0. -1.
</event>
<event>
 4    1  0.9925048E-003  0.9118800E+02  0.7818608E-02  0.1130116E+00
         25   -1    0    0    0    0  0.00000000000E+00  0.00000000000E+00  0.99999998245E-14  0.12500000000E+03  0.12500000000E+03 0.  0.
        -13    1    1    0    0    0 -0.23088338451E+02  0.10952739047E+02  0.15515526567E+02  0.29896096631E+02  0.10566000000E+00 0. -1.
         13    1    1    0    0    0 -0.25751754879E+02  0.12144206472E+02  0.15897134116E+02  0.32609272719E+02  0.10566000000E+00 0.  1.
         22    1    1    0    0    0  0.48840093330E+02 -0.23096945519E+02 -0.31412660683E+02  0.62494630649E+02  0.00000000000E+00 0.  1.
</event>
<event>
 4    1  0.9925048E-003  0.9118800E+02  0.7818608E-02  0.1130116E+00
         25   -1    0    0    0    0  0.00000000000E+00  0.00000000000E+00  0.99999998245E-14  0.12500000000E+03  0.12500000000E+03 0.  0.
        -13    1    1    0    0    0  0.17432015084E+02 -0.91564796640E+01  0.13181306612E+02  0.23695448461E+02  0.10566000000E+00 0.  1.
         13    1    1    0    0    0 -0.17489889777E+02  0.11326796439E+01  0.42017030987E+02  0.45526050395E+02  0.10566000000E+00 0. -1.
         22    1    1    0    0    0  0.57874693084E-01  0.80238000202E+01 -0.55198337598E+02  0.55778501144E+02  0.00000000000E+00 0. -1.
</event>
<event>
 4    1  0.9925048E-003  0.9118800E+02  0.7818608E-02  0.1130116E+00
         25   -1    0    0    0    0  0.00000000000E+00  0.00000000000E+00  0.99999998245E-14  0.12500000000E+03  0.12500000000E+03 0.  0.
        -13    1    1    0    0    0  0.13632677371E+02  0.28317904653E+02 -0.15061116419E+02  0.34851140700E+02  0.10566000000E+00 0. -1.
         13    1    1    0    0    0  0.10900271519E+02  0.22094391135E+02 -0.12554805962E+02  0.27651624827E+02  0.10566000000E+00 0.  1.
         22    1    1    0    0    0 -0.24532948890E+02 -0.50412295788E+02  0.27615922381E+02  0.62497234473E+02  0.00000000000E+00 0. -1.
</event>
<event>
 4    1  0.9925048E-003  0.9118800E+02  0.7818608E-02  0.1130116E+00
         25   -1    0    0    0    0  0.00000000000E+00  0.00000000000E+00  0.99999998245E-14  0.12500000000E+03  0.12500000000E+03 0.  0.
        -13    1    1    0    0    0 -0.92252801292E+01 -0.94520606051E+01  0.47454518860E+01  0.14034875161E+02  0.10566000000E+00 0. -1.
         13    1    1    0    0    0 -0.23865770772E+02 -0.27496743142E+02  0.32604519054E+02  0.48874448588E+02  0.10566000000E+00 0. -1.
         22    1    1    0    0    0  0.33091050902E+02  0.36948803747E+02 -0.37349970940E+02  0.62090676251E+02  0.00000000000E+00 0. -1.
</event>
<event>
 4    1  0.9925048E-003  0.9118800E+02  0.7818608E-02  0.1130116E+00
         25   -1    0    0    0    0  0.00000000000E+00  0.00000000000E+00  0.99999998245E-14  0.12500000000E+03  0.12500000000E+03 0.  0.
        -13    1    1    0    0    0  0.22375740778E+01 -0.11786168479E+02  0.55205462720E+01  0.13206365902E+02  0.10566000000E+00 0.  1.
         13    1    1    0    0    0  0.25300823451E+02 -0.37719460254E+02  0.20040944757E+02  0.49644133389E+02  0.10566000000E+00 0. -1.
         22    1    1    0    0    0 -0.27538397529E+02  0.49505628733E+02 -0.25561491029E+02  0.62149500709E+02  0.00000000000E+00 0. -1.
</event>
<event>
 4    1  0.9925048E-003  0.9118800E+02  0.7818608E-02  0.1130116E+00
         25   -1    0    0    0    0  0.00000000000E+00  0.00000000000E+00  0.99999998245E-14  0.12500000000E+03  0.12500000000E+03 0.  0.
        -13    1    1    0    0    0 -0.16841518180E+02  0.19830328313E+02  0.54614996339E+02  0.60495352257E+02  0.10566000000E+00 0. -1.
         13    1    1    0    0    0 -0.50872445678E+00  0.10937062117E+01  0.16331455372E+01  0.20330573607E+01  0.10566000000E+00 0.  1.
         22    1    1    0    0    0  0.17350242637E+02 -0.20924034525E+02 -0.56248141876E+02  0.62471590382E+02  0.00000000000E+00 0. -1.
</event>
<event>
 4    1  0.9925048E-003  0.9118800E+02  0.7818608E-02  0.1130116E+00
         25   -1    0    0    0    0  0.00000000000E+00  0.00000000000E+00  0.99999998245E-14  0.12500000000E+03  0.12500000000E+03 0.  0.
        -13    1    1    0    0    0  0.19844970182E+02 -0.32716401130E+02 -0.45561735851E+02  0.59498476302E+02  0.10566000000E+00 0. -1.
         13    1    1    0    0    0  0.12783192733E+01 -0.15514794927E+01 -0.22373431233E+01  0.30096606234E+01  0.10566000000E+00 0. -1.
         22    1    1    0    0    0 -0.21123289455E+02  0.34267880623E+02  0.47799078975E+02  0.62491863075E+02  0.00000000000E+00 0. -1.
</event>
<event>
 4    1  0.9925048E-003  0.9118800E+02  0.7818608E-02  0.1130116E+00
         25   -1    0    0    0    0  0.00000000000E+00  0.00000000000E+00  0.99999998245E-14  0.12500000000E+03  0.12500000000E+03 0.  0.
        -13    1    1    0    0    0  0.28790973749E+02 -0.15013063159E+02 -0.11201000159E+02  0.34348010182E+02  0.10566000000E+00 0. -1.
         13    1    1    0    0    0  0.19320014333E+02 -0.20555759388E+02 -0.50366682568E+01  0.28656262649E+02  0.10566000000E+00 0.  1.
         22    1    1    0    0    0 -0.48110988083E+02  0.35568822547E+02  0.16237668416E+02  0.61995727169E+02  0.00000000000E+00 0.  1.
</event>
<event>
 4    1  0.9925048E-003  0.9118800E+02  0.7818608E-02  0.1130116E+00
         25   -1    0    0    0    0  0.00000000000E+00  0.00000000000E+00  0.99999998245E-14  0.12500000000E+03  0.12500000000E+03 0.  0.
        -13    1    1    0    0    0  0.55165737317E+01 -0.29365216834E+02  0.63938662540E+01  0.30555543444E+02  0.10566000000E+00 0. -1.
         13    1    1    0    0    0  0.51331957444E+01 -0.30747595531E+02  0.69860801185E+01  0.31946530468E+02  0.10566000000E+00 0. -1.
         22    1    1    0    0    0 -0.10649769476E+02  0.60112812365E+02 -0.13379946372E+02  0.62497926088E+02  0.00000000000E+00 0. -1.
</event>
<event>
 4    1  0.9925048E-003  0.9118800E+02  0.7818608E-02  0.1130116E+00
         25   -1    0    0    0    0  0.00000000000E+00  0.00000000000E+00  0.99999998245E-14  0.12500000000E+03  0.12500000000E+03 0.  0.
        -13    1    1    0    0    0  0.16300616042E+01  0.13401555325E+02  0.28958695685E+02  0.31951150305E+02  0.10566000000E+00 0. -1.
         13    1    1    0    0    0 -0.45716459438E+01  0.12400602683E+02  0.27716871276E+02  0.30706856090E+02  0.10566000000E+00 0.  1.
         22    1    1    0    0    0  0.29415843396E+01 -0.25802158008E+02 -0.56675566961E+02  0.62341993606E+02  0.00000000000E+00 0.  1.
</event>
<event>
 4    1  0.9925048E-003  0.9118800E+02  0.7818608E-02  0.1130116E+00
         25   -1    0    0    0    0  0.00000000000E+00  0.00000000000E+00  0.99999998245E-14  0.12500000000E+03  0.12500000000E+03 0.  0.
        -13    1    1    0    0    0 -0.20936218318E+02 -0.12448804856E+02  0.46740947683E+01  0.24802344763E+02  0.10566000000E+00 0.  1.
         13    1    1    0    0    0 -0.35569627191E+02 -0.11862225726E+02  0.53406106899E+01  0.37874055292E+02  0.10566000000E+00 0. -1.
         22    1    1    0    0    0  0.56505845509E+02  0.24311030582E+02 -0.10014705458E+02  0.62323599945E+02  0.00000000000E+00 0. -1.
</event>
<event>
 4    1  0.9925048E-003  0.9118800E+02  0.7818608E-02  0.1130116E+00
         25   -1    0    0    0    0  0.00000000000E+00  0.00000000000E+00  0.99999998245E-14  0.12500000000E+03  0.12500000000E+03 0.  0.
        -13    1    1    0    0    0 -0.12541124215E+01 -0.14564774782E+01  0.45796897393E+00  0.19786420158E+01  0.10566000000E+00 0. -1.
         13    1    1    0    0    0  0.59664239088E+02  0.31174616643E+01 -0.17315999099E+02  0.62204461110E+02  0.10566000000E+00 0.  1.
         22    1    1    0    0    0 -0.58410126666E+02 -0.16609841861E+01  0.16858030125E+02  0.60816896874E+02  0.00000000000E+00 0.  1.
</event>
<event>
 4    1  0.9925048E-003  0.9118800E+02  0.7818608E-02  0.1130116E+00
         25   -1    0    0    0    0  0.00000000000E+00  0.00000000000E+00  0.99999998245E-14  0.12500000000E+03  0.12500000000E+03 0.  0.
        -13    1    1    0    0    0  0.10211097359E+01  0.41778477761E+01  0.57140622096E+02  0.57302346677E+02  0.10566000000E+00 0. -1.
         13    1    1    0    0    0 -0.81382273767E-02  0.20388263535E+00  0.51949652170E+01  0.52000444230E+01  0.10566000000E+00 0. -1.
         22    1    1    0    0    0 -0.10129715085E+01 -0.43817304115E+01 -0.62335587313E+02  0.62497608900E+02  0.00000000000E+00 0. -1.
</event>
<event>
 4    1  0.9925048E-003  0.9118800E+02  0.7818608E-02  0.1130116E+00
         25   -1    0    0    0    0  0.00000000000E+00  0.00000000000E+00  0.99999998245E-14  0.12500000000E+03  0.12500000000E+03 0.  0.
        -13    1    1    0    0    0 -0.45224839635E+01  0.11090833782E+02 -0.17287131905E+01  0.12102027455E+02  0.10566000000E+00 0. -1.
         13    1    1    0    0    0 -0.17637078149E+02  0.46692768024E+02 -0.69899780498E+01  0.50399921315E+02  0.10566000000E+00 0.  1.
         22    1    1    0    0    0  0.22159562113E+02 -0.57783601806E+02  0.87186912403E+01  0.62498051231E+02  0.00000000000E+00 0.  1.
</event>
<event>
 4    1  0.9925048E-003  0.9118800E+02  0.7818608E-02  0.1130116E+00
         25   -1    0    0    0    0  0.00000000000E+00  0.00000000000E+00  0.99999998245E-14  0.12500000000E+03  0.12500000000E+03 0.  0.
        -13    1    1    0    0    0  0.71805058188E+01  0.15494696215E+01 -0.66875689855E+01  0.99345489527E+01  0.10566000000E+00 0.  1.
         13    1    1    0    0    0  0.32533552015E+02 -0.73324557294E+01 -0.40926543127E+02  0.52793844434E+02  0.10566000000E+00 0. -1.
         22    1    1    0    0    0 -0.39714057834E+02  0.57829861079E+01  0.47614112113E+02  0.62271606613E+02  0.00000000000E+00 0. -1.
</event>
<event>
 4    1  0.9925048E-003  0.9118800E+02  0.7818608E-02  0.1130116E+00
         25   -1    0    0    0    0  0.00000000000E+00  0.00000000000E+00  0.99999998245E-14  0.12500000000E+03  0.12500000000E+03 0.  0.
        -13    1    1    0    0    0  0.77268747403E+00 -0.18814319386E+01 -0.14306285283E+01  0.24889142399E+01  0.10566000000E+00 0. -1.
         13    1    1    0    0    0 -0.45710780497E+02 -0.28386384024E+02  0.29634801085E+02  0.61428778687E+02  0.10566000000E+00 0.  1.
         22    1    1    0    0    0  0.44938093023E+02  0.30267815963E+02 -0.28204172557E+02  0.61082307073E+02  0.00000000000E+00 0.  1.
</event>
<event>
 4    1  0.9925048E-003  0.9118800E+02  0.7818608E-02  0.1130116E+00
         25   -1    0    0    0    0  0.00000000000E+00  0.00000000000E+00  0.99999998245E-14  0.12500000000E+03  0.12500000000E+03 0.  0.
        -13    1    1    0    0    0  0.72476528882E+01 -0.12615433646E+00 -0.48560544480E+02  0.49098696841E+02  0.10566000000E+00 0. -1.
         13    1    1    0    0    0  0.28280526350E+01  0.13656966188E+01 -0.13068895975E+02  0.13441362096E+02  0.10566000000E+00 0.  1.
         22    1    1    0    0    0 -0.10075705523E+02 -0.12395422824E+01  0.61629440454E+02  0.62459941063E+02  0.00000000000E+00 0. -1.
</event>
<event>
 4    1  0.9925048E-003  0.9118800E+02  0.7818608E-02  0.1130116E+00
         25   -1    0    0    0    0  0.00000000000E+00  0.00000000000E+00  0.99999998245E-14  0.12500000000E+03  0.12500000000E+03 0.  0.
        -13    1    1    0    0    0 -0.61944160544E+01 -0.13792965755E+01  0.30088508208E+01  0.70240726503E+01  0.10566000000E+00 0. -1.
         13    1    1    0    0    0 -0.50036525836E+02 -0.10253161921E+02  0.21660495494E+02  0.55479450936E+02  0.10566000000E+00 0.  1.
         22    1    1    0    0    0  0.56230941890E+02  0.11632458496E+02 -0.24669346315E+02  0.62496476414E+02  0.00000000000E+00 0.  1.
</event>
<event>
 4    1  0.9925048E-003  0.9118800E+02  0.7818608E-02  0.1130116E+00
         25   -1    0    0    0    0  0.00000000000E+00  0.00000000000E+00  0.99999998245E-14  0.12500000000E+03  0.12500000000E+03 0.  0.
        -13    1    1    0    0    0 -0.12556140119E+02  0.42239537400E+01  0.14582222922E+02  0.19701543830E+02  0.10566000000E+00 0.  1.
         13    1    1    0    0    0 -0.26546799655E+02  0.12192620573E+01  0.33707863491E+02  0.42923774264E+02  0.10566000000E+00 0. -1.
         22    1    1    0    0    0  0.39102939774E+02 -0.54432157973E+01 -0.48290086413E+02  0.62374681907E+02  0.00000000000E+00 0. -1.
</event>
<event>
 4    1  0.9925048E-003  0.9118800E+02  0.7818608E-02  0.1130116E+00
         25   -1    0    0    0    0  0.00000000000E+00  0.00000000000E+00  0.99999998245E-14  0.12500000000E+03  0.12500000000E+03 0.  0.
        -13    1    1    0    0    0  0.15283896817E+02 -0.36562354636E+01 -0.91017058744E+01  0.18160885813E+02  0.10566000000E+00 0. -1.
         13    1    1    0    0    0  0.41871273872E+02 -0.97490000360E+01 -0.11702508521E+02  0.44555655613E+02  0.10566000000E+00 0.  1.
         22    1    1    0    0    0 -0.57155170689E+02  0.13405235500E+02  0.20804214396E+02  0.62283458574E+02  0.00000000000E+00 0.  1.
</event>
<event>
 4    1  0.9925048E-003  0.9118800E+02  0.7818608E-02  0.1130116E+00
         25   -1    0    0    0    0  0.00000000000E+00  0.00000000000E+00  0.99999998245E-14  0.12500000000E+03  0.12500000000E+03 0.  0.
        -13    1    1    0    0    0  0.27033490918E+02  0.18118123001E+02  0.12245485985E+02  0.34771239600E+02  0.10566000000E+00 0. -1.
         13    1    1    0    0    0  0.19335126089E+02  0.19048455228E+02  0.65130354854E+01  0.27912748749E+02  0.10566000000E+00 0.  1.
         22    1    1    0    0    0 -0.46368617006E+02 -0.37166578229E+02 -0.18758521471E+02  0.62316011651E+02  0.00000000000E+00 0.  1.
</event>
<event>
 4    1  0.9925048E-003  0.9118800E+02  0.7818608E-02  0.1130116E+00
         25   -1    0    0    0    0  0.00000000000E+00  0.00000000000E+00  0.99999998245E-14  0.12500000000E+03  0.12500000000E+03 0.  0.
        -13    1    1    0    0    0 -0.16470245968E+01  0.13474535070E+02  0.44296749888E+02  0.46330216922E+02  0.10566000000E+00 0.  1.
         13    1    1    0    0    0 -0.90638015168E+00  0.50054461534E+01  0.15351264655E+02  0.16172461369E+02  0.10566000000E+00 0.  1.
         22    1    1    0    0    0  0.25534047485E+01 -0.18479981223E+02 -0.59648014543E+02  0.62497321709E+02  0.00000000000E+00 0.  1.
</event>
<event>
 4    1  0.9925048E-003  0.9118800E+02  0.7818608E-02  0.1130116E+00
         25   -1    0    0    0    0  0.00000000000E+00  0.00000000000E+00  0.99999998245E-14  0.12500000000E+03  0.12500000000E+03 0.  0.
        -13    1    1    0    0    0  0.25015022639E+02 -0.26366654818E+02 -0.47464353621E+02  0.59781501091E+02  0.10566000000E+00 0.  1.
         13    1    1    0    0    0 -0.58495324293E+01  0.11851041008E+02  0.14422153066E+01  0.13294937068E+02  0.10566000000E+00 0. -1.
         22    1    1    0    0    0 -0.19165490210E+02  0.14515613810E+02  0.46022138315E+02  0.51923561842E+02  0.00000000000E+00 0.  1.
</event>
<event>
 4    1  0.9925048E-003  0.9118800E+02  0.7818608E-02  0.1130116E+00
         25   -1    0    0    0    0  0.00000000000E+00  0.00000000000E+00  0.99999998245E-14  0.12500000000E+03  0.12500000000E+03 0.  0.
        -13    1    1    0    0    0 -0.31991000436E+02 -0.94596377166E+01 -0.11958419350E+02  0.35439015392E+02  0.10566000000E+00 0. -1.
         13    1    1    0    0    0 -0.15098218900E+02 -0.12024364441E+02 -0.20745476484E+02  0.28335975592E+02  0.10566000000E+00 0.  1.
         22    1    1    0    0    0  0.47089219335E+02  0.21484002158E+02  0.32703895834E+02  0.61225009016E+02  0.00000000000E+00 0. -1.
</event>
<event>
 4    1  0.9925048E-003  0.9118800E+02  0.7818608E-02  0.1130116E+00
         25   -1    0    0    0    0  0.00000000000E+00  0.00000000000E+00  0.99999998245E-14  0.12500000000E+03  0.12500000000E+03 0.  0.
        -13    1    1    0    0    0 -0.30268162181E+02  0.56968178492E+01  0.32449800228E+02  0.44739424162E+02  0.10566000000E+00 0. -1.
         13    1    1    0    0    0 -0.12023243691E+02  0.20683741132E+01  0.12907817010E+02  0.17761178574E+02  0.10566000000E+00 0. -1.
         22    1    1    0    0    0  0.42291405872E+02 -0.77651919624E+01 -0.45357617239E+02  0.62499397264E+02  0.00000000000E+00 0. -1.
</event>
<event>
 4    1  0.9925048E-003  0.9118800E+02  0.7818608E-02  0.1130116E+00
         25   -1    0    0    0    0  0.00000000000E+00  0.00000000000E+00  0.99999998245E-14  0.12500000000E+03  0.12500000000E+03 0.  0.
        -13    1    1    0    0    0  0.32077905483E+00 -0.14864896571E+02  0.23158552504E+01  0.15048003151E+02  0.10566000000E+00 0. -1.
         13    1    1    0    0    0 -0.28577226030E+01 -0.43925998717E+02 -0.20222900463E+02  0.48442097487E+02  0.10566000000E+00 0.  1.
         22    1    1    0    0    0  0.25369435482E+01  0.58790895288E+02  0.17907045212E+02  0.61509899362E+02  0.00000000000E+00 0.  1.
</event>
<event>
 4    1  0.9925048E-003  0.9118800E+02  0.7818608E-02  0.1130116E+00
         25   -1    0    0    0    0  0.00000000000E+00  0.00000000000E+00  0.99999998245E-14  0.12500000000E+03  0.12500000000E+03 0.  0.
        -13    1    1    0    0    0 -0.27423037687E+00 -0.58104205410E+01  0.95594516170E+01  0.11190642002E+02  0.10566000000E+00 0.  1.
         13    1    1    0    0    0 -0.67189056515E+01 -0.28847143754E+02  0.41938009067E+02  0.51343053711E+02  0.10566000000E+00 0. -1.
         22    1    1    0    0    0  0.69931360284E+01  0.34657564295E+02 -0.51497460684E+02  0.62466304287E+02  0.00000000000E+00 0. -1.
</event>
<event>
 4    1  0.9925048E-003  0.9118800E+02  0.7818608E-02  0.1130116E+00
         25   -1    0    0    0    0  0.00000000000E+00  0.00000000000E+00  0.99999998245E-14  0.12500000000E+03  0.12500000000E+03 0.  0.
        -13    1    1    0    0    0 -0.72719029038E+01  0.99193492451E+01 -0.10423553041E+02  0.16122520998E+02  0.10566000000E+00 0.  1.
         13    1    1    0    0    0 -0.17248802409E+02  0.32018634305E+02 -0.28838178223E+02  0.46415146392E+02  0.10566000000E+00 0. -1.
         22    1    1    0    0    0  0.24520705312E+02 -0.41937983550E+02  0.39261731265E+02  0.62462332610E+02  0.00000000000E+00 0. -1.
</event>
<event>
 4    1  0.9925048E-003  0.9118800E+02  0.7818608E-02  0.1130116E+00
         25   -1    0    0    0    0  0.00000000000E+00  0.00000000000E+00  0.99999998245E-14  0.12500000000E+03  0.12500000000E+03 0.  0.
        -13    1    1    0    0    0 -0.11982280552E+01  0.13861587725E+02  0.44008119225E+02  0.46155228160E+02  0.10566000000E+00 0. -1.
         13    1    1    0    0    0 -0.24108278779E+02  0.89772000646E+01 -0.35965973359E+01  0.25975871556E+02  0.10566000000E+00 0.  1.
         22    1    1    0    0    0  0.25306506834E+02 -0.22838787789E+02 -0.40411521889E+02  0.52868900284E+02  0.00000000000E+00 0. -1.
</event>
<event>
 4    1  0.9925048E-003  0.9118800E+02  0.7818608E-02  0.1130116E+00
         25   -1    0    0    0    0  0.00000000000E+00  0.00000000000E+00  0.99999998245E-14  0.12500000000E+03  0.12500000000E+03 0.  0.
        -13    1    1    0    0    0 -0.85986693475E+01  0.18718386772E+02  0.52126330426E+01  0.21248478185E+02  0.10566000000E+00 0.  1.
         13    1    1    0    0    0 -0.16476138727E+02  0.36289599359E+02  0.10646632116E+02  0.41252395185E+02  0.10566000000E+00 0. -1.
         22    1    1    0    0    0  0.25074808074E+02 -0.55007986131E+02 -0.15859265159E+02  0.62499126631E+02  0.00000000000E+00 0. -1.
</event>
<event>
 4    1  0.9925048E-003  0.9118800E+02  0.7818608E-02  0.1130116E+00
         25   -1    0    0    0    0  0.00000000000E+00  0.00000000000E+00  0.99999998245E-14  0.12500000000E+03  0.12500000000E+03 0.  0.
        -13    1    1    0    0    0 -0.72567608761E+01 -0.52663960411E+01  0.71742670908E+00  0.89956306501E+01  0.10566000000E+00 0.  1.
         13    1    1    0    0    0 -0.42439183088E+02 -0.32468741107E+02  0.27807749595E+01  0.53507450730E+02  0.10566000000E+00 0.  1.
         22    1    1    0    0    0  0.49695943964E+02  0.37735137148E+02 -0.34982016686E+01  0.62496918620E+02  0.00000000000E+00 0.  1.
</event>
<event>
 4    1  0.9925048E-003  0.9118800E+02  0.7818608E-02  0.1130116E+00
         25   -1    0    0    0    0  0.00000000000E+00  0.00000000000E+00  0.99999998245E-14  0.12500000000E+03  0.12500000000E+03 0.  0.
        -13    1    1    0    0    0  0.90439903347E+01  0.21286722669E+02  0.24098510269E+02  0.33401612002E+02  0.10566000000E+00 0. -1.
         13    1    1    0    0    0  0.63727384788E+01  0.18591137706E+02  0.21474210987E+02  0.29110051502E+02  0.10566000000E+00 0.  1.
         22    1    1    0    0    0 -0.15416728814E+02 -0.39877860374E+02 -0.45572721256E+02  0.62488336496E+02  0.00000000000E+00 0.  1.
</event>
<event>
 4    1  0.9925048E-003  0.9118800E+02  0.7818608E-02  0.1130116E+00
         25   -1    0    0    0    0  0.00000000000E+00  0.00000000000E+00  0.99999998245E-14  0.12500000000E+03  0.12500000000E+03 0.  0.
        -13    1    1    0    0    0  0.49207285888E+02  0.22647352448E+02 -0.26342556132E+02  0.60234549761E+02  0.10566000000E+00 0. -1.
         13    1    1    0    0    0 -0.23465412142E+02  0.13554927054E+01  0.66166931229E+01  0.24418327531E+02  0.10566000000E+00 0.  1.
         22    1    1    0    0    0 -0.25741873746E+02 -0.24002845153E+02  0.19725863009E+02  0.40347122708E+02  0.00000000000E+00 0. -1.
</event>
<event>
 4    1  0.9925048E-003  0.9118800E+02  0.7818608E-02  0.1130116E+00
         25   -1    0    0    0    0  0.00000000000E+00  0.00000000000E+00  0.99999998245E-14  0.12500000000E+03  0.12500000000E+03 0.  0.
        -13    1    1    0    0    0  0.81706394807E+01 -0.17029681918E+01 -0.79719708711E+00  0.83848755159E+01  0.10566000000E+00 0.  1.
         13    1    1    0    0    0  0.53099447962E+02 -0.87190582676E+01 -0.57693292062E+01  0.54119032460E+02  0.10566000000E+00 0. -1.
         22    1    1    0    0    0 -0.61270087442E+02  0.10422026459E+02  0.65665262933E+01  0.62496092024E+02  0.00000000000E+00 0. -1.
</event>
<event>
 4    1  0.9925048E-003  0.9118800E+02  0.7818608E-02  0.1130116E+00
         25   -1    0    0    0    0  0.00000000000E+00  0.00000000000E+00  0.99999998245E-14  0.12500000000E+03  0.12500000000E+03 0.  0.
        -13    1    1    0    0    0  0.81559516471E+01 -0.12856352931E+02  0.59414410630E+00  0.15237110265E+02  0.10566000000E+00 0. -1.
         13    1    1    0    0    0  0.36858720797E+02 -0.30038276359E+02 -0.15970088364E+01  0.47575465806E+02  0.10566000000E+00 0.  1.
         22    1    1    0    0    0 -0.45014672444E+02  0.42894629291E+02  0.10028647301E+01  0.62187423929E+02  0.00000000000E+00 0.  1.
</event>
<event>
 4    1  0.9925048E-003  0.9118800E+02  0.7818608E-02  0.1130116E+00
         25   -1    0    0    0    0  0.00000000000E+00  0.00000000000E+00  0.99999998245E-14  0.12500000000E+03  0.12500000000E+03 0.  0.
        -13    1    1    0    0    0  0.27672908267E+02 -0.26487029713E+02 -0.26014138935E+02  0.46304418618E+02  0.10566000000E+00 0.  1.
         13    1    1    0    0    0 -0.58886032566E+01 -0.12031984830E+02 -0.13753915814E+02  0.19199626858E+02  0.10566000000E+00 0. -1.
         22    1    1    0    0    0 -0.21784305011E+02  0.38519014543E+02  0.39768054748E+02  0.59495954523E+02  0.00000000000E+00 0.  1.
</event>
<event>
 4    1  0.9925048E-003  0.9118800E+02  0.7818608E-02  0.1130116E+00
         25   -1    0    0    0    0  0.00000000000E+00  0.00000000000E+00  0.99999998245E-14  0.12500000000E+03  0.12500000000E+03 0.  0.
        -13    1    1    0    0    0 -0.42673251943E+02  0.19438772797E+02 -0.91899425838E+01  0.47784291645E+02  0.10566000000E+00 0.  1.
         13    1    1    0    0    0 -0.13292868172E+02  0.57319860923E+01 -0.26528650094E+01  0.14717502016E+02  0.10566000000E+00 0.  1.
         22    1    1    0    0    0  0.55966120116E+02 -0.25170758889E+02  0.11842807593E+02  0.62498206339E+02  0.00000000000E+00 0.  1.
</event>
<event>
 4    1  0.9925048E-003  0.9118800E+02  0.7818608E-02  0.1130116E+00
         25   -1    0    0    0    0  0.00000000000E+00  0.00000000000E+00  0.99999998245E-14  0.12500000000E+03  0.12500000000E+03 0.  0.
        -13    1    1    0    0    0 -0.13759436760E+02  0.39671866170E+02 -0.19585867678E+02  0.46333534747E+02  0.10566000000E+00 0. -1.
         13    1    1    0    0    0 -0.30968737884E+01  0.13916745693E+02 -0.77103025924E+01  0.16208836110E+02  0.10566000000E+00 0.  1.
         22    1    1    0    0    0  0.16856310549E+02 -0.53588611864E+02  0.27296170270E+02  0.62457629143E+02  0.00000000000E+00 0. -1.
</event>
<event>
 4    1  0.9925048E-003  0.9118800E+02  0.7818608E-02  0.1130116E+00
         25   -1    0    0    0    0  0.00000000000E+00  0.00000000000E+00  0.99999998245E-14  0.12500000000E+03  0.12500000000E+03 0.  0.
        -13    1    1    0    0    0  0.26973340537E+02 -0.41257980956E+02 -0.32933514934E+02  0.59282456614E+02  0.10566000000E+00 0.  1.
         13    1    1    0    0    0  0.14352733361E+01 -0.22482333804E+01 -0.17981175220E+01  0.32185328242E+01  0.10566000000E+00 0.  1.
         22    1    1    0    0    0 -0.28408613874E+02  0.43506214336E+02  0.34731632456E+02  0.62499010561E+02  0.00000000000E+00 0.  1.
</event>
<event>
 4    1  0.9925048E-003  0.9118800E+02  0.7818608E-02  0.1130116E+00
         25   -1    0    0    0    0  0.00000000000E+00  0.00000000000E+00  0.99999998245E-14  0.12500000000E+03  0.12500000000E+03 0.  0.
        -13    1    1    0    0    0  0.15725873693E+02  0.20552557881E+02 -0.29493994864E+01  0.26046513399E+02  0.10566000000E+00 0.  1.
         13    1    1    0    0    0  0.22532290585E+02  0.28363091665E+02 -0.40964141943E+01  0.36454915459E+02  0.10566000000E+00 0. -1.
         22    1    1    0    0    0 -0.38258164278E+02 -0.48915649546E+02  0.70458136807E+01  0.62498571143E+02  0.00000000000E+00 0.  1.
</event>
<event>
 4    1  0.9925048E-003  0.9118800E+02  0.7818608E-02  0.1130116E+00
         25   -1    0    0    0    0  0.00000000000E+00  0.00000000000E+00  0.99999998245E-14  0.12500000000E+03  0.12500000000E+03 0.  0.
        -13    1    1    0    0    0  0.67986770506E+01  0.46405241254E+01 -0.14993549799E+02  0.17104799719E+02  0.10566000000E+00 0. -1.
         13    1    1    0    0    0  0.69875252566E+01  0.69335141250E+01 -0.44583917042E+02  0.45657813682E+02  0.10566000000E+00 0.  1.
         22    1    1    0    0    0 -0.13786202307E+02 -0.11574038250E+02  0.59577466842E+02  0.62237386600E+02  0.00000000000E+00 0. -1.
</event>
<event>
 4    1  0.9925048E-003  0.9118800E+02  0.7818608E-02  0.1130116E+00
         25   -1    0    0    0    0  0.00000000000E+00  0.00000000000E+00  0.99999998245E-14  0.12500000000E+03  0.12500000000E+03 0.  0.
        -13    1    1    0    0    0 -0.44312555405E+01  0.71415969539E+01 -0.18250048649E+02  0.20092632293E+02  0.10566000000E+00 0.  1.
         13    1    1    0    0    0 -0.19902279764E+02 -0.27688008964E+01 -0.38265494006E+02  0.43220668595E+02  0.10566000000E+00 0. -1.
         22    1    1    0    0    0  0.24333535305E+02 -0.43727960575E+01  0.56515542655E+02  0.61686699113E+02  0.00000000000E+00 0. -1.
</event>
<event>
 4    1  0.9925048E-003  0.9118800E+02  0.7818608E-02  0.1130116E+00
         25   -1    0    0    0    0  0.00000000000E+00  0.00000000000E+00  0.99999998245E-14  0.12500000000E+03  0.12500000000E+03 0.  0.
        -13    1    1    0    0    0  0.72650328115E+01 -0.10767016171E+02 -0.15400238101E+02  0.20146658199E+02  0.10566000000E+00 0. -1.
         13    1    1    0    0    0  0.11676807354E+02 -0.20084104642E+02 -0.35479307618E+02  0.42408861366E+02  0.10566000000E+00 0.  1.
         22    1    1    0    0    0 -0.18941840165E+02  0.30851120813E+02  0.50879545719E+02  0.62444480435E+02  0.00000000000E+00 0.  1.
</event>
<event>
 4    1  0.9925048E-003  0.9118800E+02  0.7818608E-02  0.1130116E+00
         25   -1    0    0    0    0  0.00000000000E+00  0.00000000000E+00  0.99999998245E-14  0.12500000000E+03  0.12500000000E+03 0.  0.
        -13    1    1    0    0    0  0.26714456153E+02 -0.44368352479E+02  0.23009165985E+01  0.51841279407E+02  0.10566000000E+00 0. -1.
         13    1    1    0    0    0 -0.11346467578E+02  0.13800910111E+02 -0.25994292351E+02  0.31542381731E+02  0.10566000000E+00 0.  1.
         22    1    1    0    0    0 -0.15367988575E+02  0.30567442368E+02  0.23693375752E+02  0.41616338862E+02  0.00000000000E+00 0. -1.
</event>
<event>
 4    1  0.9925048E-003  0.9118800E+02  0.7818608E-02  0.1130116E+00
         25   -1    0    0    0    0  0.00000000000E+00  0.00000000000E+00  0.99999998245E-14  0.12500000000E+03  0.12500000000E+03 0.  0.
        -13    1    1    0    0    0 -0.60513956665E+00 -0.67725149808E+00  0.24599697274E+01  0.26244006139E+01  0.10566000000E+00 0.  1.
         13    1    1    0    0    0 -0.41678296110E+02  0.43237198317E+01  0.43099544276E+02  0.60111203620E+02  0.10566000000E+00 0. -1.
         22    1    1    0    0    0  0.42283435676E+02 -0.36464683336E+01 -0.45559514003E+02  0.62264395766E+02  0.00000000000E+00 0. -1.
</event>
<event>
 4    1  0.9925048E-003  0.9118800E+02  0.7818608E-02  0.1130116E+00
         25   -1    0    0    0    0  0.00000000000E+00  0.00000000000E+00  0.99999998245E-14  0.12500000000E+03  0.12500000000E+03 0.  0.
        -13    1    1    0    0    0  0.71061940424E+01 -0.18193505934E+02  0.20851868421E+02  0.28571195856E+02  0.10566000000E+00 0. -1.
         13    1    1    0    0    0  0.52479568085E+01 -0.22452267620E+02  0.24940306058E+02  0.33965797536E+02  0.10566000000E+00 0.  1.
         22    1    1    0    0    0 -0.12354150851E+02  0.40645773554E+02 -0.45792174479E+02  0.62463006608E+02  0.00000000000E+00 0. -1.
</event>
<event>
 4    1  0.9925048E-003  0.9118800E+02  0.7818608E-02  0.1130116E+00
         25   -1    0    0    0    0  0.00000000000E+00  0.00000000000E+00  0.99999998245E-14  0.12500000000E+03  0.12500000000E+03 0.  0.
        -13    1    1    0    0    0  0.18990649489E+02 -0.32786361519E+02 -0.29982623047E+02  0.48317275570E+02  0.10566000000E+00 0. -1.
         13    1    1    0    0    0  0.59455987485E+01 -0.76101258471E+01 -0.10518990833E+02  0.14280213306E+02  0.10566000000E+00 0.  1.
         22    1    1    0    0    0 -0.24936248237E+02  0.40396487366E+02  0.40501613880E+02  0.62402511124E+02  0.00000000000E+00 0. -1.
</event>
<event>
 4    1  0.9925048E-003  0.9118800E+02  0.7818608E-02  0.1130116E+00
         25   -1    0    0    0    0  0.00000000000E+00  0.00000000000E+00  0.99999998245E-14  0.12500000000E+03  0.12500000000E+03 0.  0.
        -13    1    1    0    0    0 -0.44830260736E+02 -0.23691871490E+02 -0.97680803543E+01  0.51638005482E+02  0.10566000000E+00 0. -1.
         13    1    1    0    0    0 -0.10072624677E+02 -0.99419608504E+00 -0.51308095166E+01  0.11348240572E+02  0.10566000000E+00 0.  1.
         22    1    1    0    0    0  0.54902885414E+02  0.24686067575E+02  0.14898889871E+02  0.62013753946E+02  0.00000000000E+00 0. -1.
</event>
<event>
 4    1  0.9925048E-003  0.9118800E+02  0.7818608E-02  0.1130116E+00
         25   -1    0    0    0    0  0.00000000000E+00  0.00000000000E+00  0.99999998245E-14  0.12500000000E+03  0.12500000000E+03 0.  0.
        -13    1    1    0    0    0  0.17657151031E+00  0.12655283140E+01  0.14004116575E+01  0.18986985695E+01  0.10566000000E+00 0.  1.
         13    1    1    0    0    0 -0.32041830399E+02  0.50229075181E+02  0.12716920277E+02  0.60921015374E+02  0.10566000000E+00 0. -1.
         22    1    1    0    0    0  0.31865258889E+02 -0.51494603495E+02 -0.14117331935E+02  0.62180286057E+02  0.00000000000E+00 0. -1.
</event>
<event>
 4    1  0.9925048E-003  0.9118800E+02  0.7818608E-02  0.1130116E+00
         25   -1    0    0    0    0  0.00000000000E+00  0.00000000000E+00  0.99999998245E-14  0.12500000000E+03  0.12500000000E+03 0.  0.
        -13    1    1    0    0    0 -0.30988739930E+00  0.58226009959E+01 -0.37472959890E+00  0.58438257046E+01  0.10566000000E+00 0. -1.
         13    1    1    0    0    0  0.47325741262E+02  0.33219212911E+02 -0.34522102360E+01  0.57923836302E+02  0.10566000000E+00 0.  1.
         22    1    1    0    0    0 -0.47015853863E+02 -0.39041813907E+02  0.38269398349E+01  0.61232337993E+02  0.00000000000E+00 0.  1.
</event>
<event>
 4    1  0.9925048E-003  0.9118800E+02  0.7818608E-02  0.1130116E+00
         25   -1    0    0    0    0  0.00000000000E+00  0.00000000000E+00  0.99999998245E-14  0.12500000000E+03  0.12500000000E+03 0.  0.
        -13    1    1    0    0    0 -0.57336587317E+01  0.10471214396E+02  0.49576939008E+01  0.12927144550E+02  0.10566000000E+00 0.  1.
         13    1    1    0    0    0 -0.21388433454E+02  0.40401707684E+02  0.19177251747E+02  0.49573593959E+02  0.10566000000E+00 0. -1.
         22    1    1    0    0    0  0.27122092185E+02 -0.50872922080E+02 -0.24134945647E+02  0.62499261491E+02  0.00000000000E+00 0. -1.
</event>
<event>
 4    1  0.9925048E-003  0.9118800E+02  0.7818608E-02  0.1130116E+00
         25   -1    0    0    0    0  0.00000000000E+00  0.00000000000E+00  0.99999998245E-14  0.12500000000E+03  0.12500000000E+03 0.  0.
        -13    1    1    0    0    0  0.25587658805E+02  0.22403017342E+02 -0.35640828373E+02  0.49263610102E+02  0.10566000000E+00 0. -1.
         13    1    1    0    0    0  0.70160106957E+01  0.63173842291E+01 -0.92812343236E+01  0.13239570393E+02  0.10566000000E+00 0.  1.
         22    1    1    0    0    0 -0.32603669501E+02 -0.28720401571E+02  0.44922062697E+02  0.62496819505E+02  0.00000000000E+00 0. -1.
</event>
<event>
 4    1  0.9925048E-003  0.9118800E+02  0.7818608E-02  0.1130116E+00
         25   -1    0    0    0    0  0.00000000000E+00  0.00000000000E+00  0.99999998245E-14  0.12500000000E+03  0.12500000000E+03 0.  0.
        -13    1    1    0    0    0 -0.28245047238E+02  0.28178781261E+02 -0.42329047442E+02  0.58168598300E+02  0.10566000000E+00 0. -1.
         13    1    1    0    0    0  0.14011915215E+02 -0.51749258852E+00 -0.34040046923E+00  0.14025997400E+02  0.10566000000E+00 0.  1.
         22    1    1    0    0    0  0.14233132023E+02 -0.27661288672E+02  0.42669447911E+02  0.52805404299E+02  0.00000000000E+00 0. -1.
</event>
<event>
 4    1  0.9925048E-003  0.9118800E+02  0.7818608E-02  0.1130116E+00
         25   -1    0    0    0    0  0.00000000000E+00  0.00000000000E+00  0.99999998245E-14  0.12500000000E+03  0.12500000000E+03 0.  0.
        -13    1    1    0    0    0  0.32967738833E+01 -0.14715213663E+02 -0.59458788374E+02  0.61341380080E+02  0.10566000000E+00 0. -1.
         13    1    1    0    0    0  0.30399057975E+01  0.15615968113E+01  0.12401804189E+01  0.36371449471E+01  0.10566000000E+00 0.  1.
         22    1    1    0    0    0 -0.63366796808E+01  0.13153616852E+02  0.58218607955E+02  0.60021474973E+02  0.00000000000E+00 0. -1.
</event>
<event>
 4    1  0.9925048E-003  0.9118800E+02  0.7818608E-02  0.1130116E+00
         25   -1    0    0    0    0  0.00000000000E+00  0.00000000000E+00  0.99999998245E-14  0.12500000000E+03  0.12500000000E+03 0.  0.
        -13    1    1    0    0    0  0.22159545927E+02 -0.19370068182E+02  0.41192157595E+02  0.50626574331E+02  0.10566000000E+00 0.  1.
         13    1    1    0    0    0  0.50329878480E+01 -0.46960860512E+01  0.96752401822E+01  0.11874579045E+02  0.10566000000E+00 0.  1.
         22    1    1    0    0    0 -0.27192533775E+02  0.24066154233E+02 -0.50867397778E+02  0.62498846624E+02  0.00000000000E+00 0.  1.
</event>
<event>
 4    1  0.9925048E-003  0.9118800E+02  0.7818608E-02  0.1130116E+00
         25   -1    0    0    0    0  0.00000000000E+00  0.00000000000E+00  0.99999998245E-14  0.12500000000E+03  0.12500000000E+03 0.  0.
        -13    1    1    0    0    0 -0.19463907522E+01  0.39969312875E+02 -0.26453742769E+02  0.47970262446E+02  0.10566000000E+00 0.  1.
         13    1    1    0    0    0 -0.53467869948E+01  0.13351576453E+02 -0.43424249232E+01  0.15023998909E+02  0.10566000000E+00 0. -1.
         22    1    1    0    0    0  0.72931777470E+01 -0.53320889328E+02  0.30796167692E+02  0.62005738645E+02  0.00000000000E+00 0.  1.
</event>
<event>
 4    1  0.9925048E-003  0.9118800E+02  0.7818608E-02  0.1130116E+00
         25   -1    0    0    0    0  0.00000000000E+00  0.00000000000E+00  0.99999998245E-14  0.12500000000E+03  0.12500000000E+03 0.  0.
        -13    1    1    0    0    0  0.18590878509E+02  0.15781459687E+02 -0.31606566129E+02  0.39920689123E+02  0.10566000000E+00 0.  1.
         13    1    1    0    0    0  0.10620888910E+02  0.81008774405E+01 -0.18211319511E+02  0.22585190257E+02  0.10566000000E+00 0. -1.
         22    1    1    0    0    0 -0.29211767419E+02 -0.23882337128E+02  0.49817885640E+02  0.62494120620E+02  0.00000000000E+00 0.  1.
</event>
<event>
 4    1  0.9925048E-003  0.9118800E+02  0.7818608E-02  0.1130116E+00
         25   -1    0    0    0    0  0.00000000000E+00  0.00000000000E+00  0.99999998245E-14  0.12500000000E+03  0.12500000000E+03 0.  0.
        -13    1    1    0    0    0  0.10246193276E+01 -0.14958409077E+01 -0.11082381754E+00  0.18195688340E+01  0.10566000000E+00 0. -1.
         13    1    1    0    0    0  0.52695096887E+02  0.25225454618E+02 -0.18980678717E+02  0.61427796031E+02  0.10566000000E+00 0.  1.
         22    1    1    0    0    0 -0.53719716215E+02 -0.23729613710E+02  0.19091502535E+02  0.61752635135E+02  0.00000000000E+00 0.  1.
</event>
<event>
 4    1  0.9925048E-003  0.9118800E+02  0.7818608E-02  0.1130116E+00
         25   -1    0    0    0    0  0.00000000000E+00  0.00000000000E+00  0.99999998245E-14  0.12500000000E+03  0.12500000000E+03 0.  0.
        -13    1    1    0    0    0  0.81146822798E+01 -0.28305318649E+02  0.36196216127E+02  0.46660651070E+02  0.10566000000E+00 0. -1.
         13    1    1    0    0    0 -0.26788020079E+02 -0.81828029336E+01 -0.19241556605E+02  0.33982421165E+02  0.10566000000E+00 0.  1.
         22    1    1    0    0    0  0.18673337800E+02  0.36488121583E+02 -0.16954659522E+02  0.44356927765E+02  0.00000000000E+00 0.  1.
</event>
<event>
 4    1  0.9925048E-003  0.9118800E+02  0.7818608E-02  0.1130116E+00
         25   -1    0    0    0    0  0.00000000000E+00  0.00000000000E+00  0.99999998245E-14  0.12500000000E+03  0.12500000000E+03 0.  0.
        -13    1    1    0    0    0 -0.18660677958E+01 -0.12004620893E+02  0.18283016205E+02  0.21951605349E+02  0.10566000000E+00 0. -1.
         13    1    1    0    0    0 -0.39403072134E+02 -0.19537207500E+02 -0.25133919626E+02  0.50655993231E+02  0.10566000000E+00 0.  1.
         22    1    1    0    0    0  0.41269139929E+02  0.31541828393E+02  0.68509034206E+01  0.52392401420E+02  0.00000000000E+00 0.  1.
</event>
<event>
 4    1  0.9925048E-003  0.9118800E+02  0.7818608E-02  0.1130116E+00
         25   -1    0    0    0    0  0.00000000000E+00  0.00000000000E+00  0.99999998245E-14  0.12500000000E+03  0.12500000000E+03 0.  0.
        -13    1    1    0    0    0  0.77643830297E+00  0.31429761879E+02 -0.36562655260E+02  0.48221071244E+02  0.10566000000E+00 0. -1.
         13    1    1    0    0    0 -0.62478463212E+01  0.11500586367E+02 -0.74441220218E+01  0.15057396427E+02  0.10566000000E+00 0.  1.
         22    1    1    0    0    0  0.54714080182E+01 -0.42930348247E+02  0.44006777282E+02  0.61721532329E+02  0.00000000000E+00 0. -1.
</event>
<event>
 4    1  0.9925048E-003  0.9118800E+02  0.7818608E-02  0.1130116E+00
         25   -1    0    0    0    0  0.00000000000E+00  0.00000000000E+00  0.99999998245E-14  0.12500000000E+03  0.12500000000E+03 0.  0.
        -13    1    1    0    0    0  0.50457250576E+00 -0.14864500652E+01  0.63040545453E+01  0.64974144824E+01  0.10566000000E+00 0. -1.
         13    1    1    0    0    0  0.95821454165E+01 -0.31101180975E+02  0.45824077493E+02  0.56204610229E+02  0.10566000000E+00 0.  1.
         22    1    1    0    0    0 -0.10086717922E+02  0.32587631040E+02 -0.52128132039E+02  0.62297975289E+02  0.00000000000E+00 0.  1.
</event>
<event>
 4    1  0.9925048E-003  0.9118800E+02  0.7818608E-02  0.1130116E+00
         25   -1    0    0    0    0  0.00000000000E+00  0.00000000000E+00  0.99999998245E-14  0.12500000000E+03  0.12500000000E+03 0.  0.
        -13    1    1    0    0    0 -0.24980623042E+02  0.33550584006E+02 -0.28341461045E+02  0.50526456366E+02  0.10566000000E+00 0. -1.
         13    1    1    0    0    0 -0.41783414388E+01  0.83538091122E+01 -0.75977050747E+01  0.12040803557E+02  0.10566000000E+00 0.  1.
         22    1    1    0    0    0  0.29158964481E+02 -0.41904393118E+02  0.35939166119E+02  0.62432740077E+02  0.00000000000E+00 0. -1.
</event>
<event>
 4    1  0.9925048E-003  0.9118800E+02  0.7818608E-02  0.1130116E+00
         25   -1    0    0    0    0  0.00000000000E+00  0.00000000000E+00  0.99999998245E-14  0.12500000000E+03  0.12500000000E+03 0.  0.
        -13    1    1    0    0    0 -0.65303701608E+01  0.24485754950E+02  0.10505831413E+02  0.27433220511E+02  0.10566000000E+00 0. -1.
         13    1    1    0    0    0 -0.16293234424E+02  0.31233455523E+02 -0.12338889211E+02  0.37326365788E+02  0.10566000000E+00 0.  1.
         22    1    1    0    0    0  0.22823604585E+02 -0.55719210473E+02  0.18330577986E+01  0.60240413701E+02  0.00000000000E+00 0. -1.
</event>
<event>
 4    1  0.9925048E-003  0.9118800E+02  0.7818608E-02  0.1130116E+00
         25   -1    0    0    0    0  0.00000000000E+00  0.00000000000E+00  0.99999998245E-14  0.12500000000E+03  0.12500000000E+03 0.  0.
        -13    1    1    0    0    0  0.13712196795E+01 -0.80866072714E+00 -0.10452865584E+01  0.19073446479E+01  0.10566000000E+00 0.  1.
         13    1    1    0    0    0  0.45303871865E+02 -0.20875773838E+02 -0.34406755551E+02  0.60597646249E+02  0.10566000000E+00 0.  1.
         22    1    1    0    0    0 -0.46675091544E+02  0.21684434565E+02  0.35452042110E+02  0.62495009103E+02  0.00000000000E+00 0.  1.
</event>
<event>
 4    1  0.9925048E-003  0.9118800E+02  0.7818608E-02  0.1130116E+00
         25   -1    0    0    0    0  0.00000000000E+00  0.00000000000E+00  0.99999998245E-14  0.12500000000E+03  0.12500000000E+03 0.  0.
        -13    1    1    0    0    0 -0.11459127221E+02  0.16611640655E+02  0.15227707891E+02  0.25281464625E+02  0.10566000000E+00 0.  1.
         13    1    1    0    0    0 -0.17078313183E+02  0.32183426141E+02  0.10052737712E+02  0.37795639946E+02  0.10566000000E+00 0. -1.
         22    1    1    0    0    0  0.28537440404E+02 -0.48795066797E+02 -0.25280445603E+02  0.61922895429E+02  0.00000000000E+00 0. -1.
</event>
<event>
 4    1  0.9925048E-003  0.9118800E+02  0.7818608E-02  0.1130116E+00
         25   -1    0    0    0    0  0.00000000000E+00  0.00000000000E+00  0.99999998245E-14  0.12500000000E+03  0.12500000000E+03 0.  0.
        -13    1    1    0    0    0  0.18825071578E+02 -0.22560410720E+02  0.39880973264E+02  0.49536437541E+02  0.10566000000E+00 0. -1.
         13    1    1    0    0    0  0.49403500229E+01 -0.60369593626E+01  0.10354114248E+02  0.12964211607E+02  0.10566000000E+00 0.  1.
         22    1    1    0    0    0 -0.23765421601E+02  0.28597370082E+02 -0.50235087513E+02  0.62499350852E+02  0.00000000000E+00 0. -1.
</event>
<event>
 4    1  0.9925048E-003  0.9118800E+02  0.7818608E-02  0.1130116E+00
         25   -1    0    0    0    0  0.00000000000E+00  0.00000000000E+00  0.99999998245E-14  0.12500000000E+03  0.12500000000E+03 0.  0.
        -13    1    1    0    0    0 -0.30384348474E+02 -0.47224765471E+01  0.41697349368E+02  0.51809174143E+02  0.10566000000E+00 0.  1.
         13    1    1    0    0    0 -0.16439030773E+01  0.21588384126E+02 -0.25731307690E+02  0.33628441920E+02  0.10566000000E+00 0. -1.
         22    1    1    0    0    0  0.32028251552E+02 -0.16865907579E+02 -0.15966041679E+02  0.39562383937E+02  0.00000000000E+00 0.  1.
</event>
<event>
 4    1  0.9925048E-003  0.9118800E+02  0.7818608E-02  0.1130116E+00
         25   -1    0    0    0    0  0.00000000000E+00  0.00000000000E+00  0.99999998245E-14  0.12500000000E+03  0.12500000000E+03 0.  0.
        -13    1    1    0    0    0  0.17300379774E+01 -0.11845342683E+02  0.55572130644E+01  0.13198445203E+02  0.10566000000E+00 0.  1.
         13    1    1    0    0    0  0.33333068669E+02 -0.18772784724E+02  0.33642972769E+02  0.50944790646E+02  0.10566000000E+00 0. -1.
         22    1    1    0    0    0 -0.35063106647E+02  0.30618127407E+02 -0.39200185833E+02  0.60856764151E+02  0.00000000000E+00 0. -1.
</event>
<event>
 4    1  0.9925048E-003  0.9118800E+02  0.7818608E-02  0.1130116E+00
         25   -1    0    0    0    0  0.00000000000E+00  0.00000000000E+00  0.99999998245E-14  0.12500000000E+03  0.12500000000E+03 0.  0.
        -13    1    1    0    0    0 -0.46132196299E+02  0.22791115965E+02  0.21303054106E+02  0.55690625607E+02  0.10566000000E+00 0. -1.
         13    1    1    0    0    0 -0.55167964179E+01  0.29573682635E+01  0.26840690127E+01  0.68114947158E+01  0.10566000000E+00 0. -1.
         22    1    1    0    0    0  0.51648992716E+02 -0.25748484228E+02 -0.23987123118E+02  0.62497879677E+02  0.00000000000E+00 0. -1.
</event>
<event>
 4    1  0.9925048E-003  0.9118800E+02  0.7818608E-02  0.1130116E+00
         25   -1    0    0    0    0  0.00000000000E+00  0.00000000000E+00  0.99999998245E-14  0.12500000000E+03  0.12500000000E+03 0.  0.
        -13    1    1    0    0    0  0.36289748096E+01  0.51065132338E+01  0.23258573639E+02  0.24087721921E+02  0.10566000000E+00 0.  1.
         13    1    1    0    0    0 -0.17339731836E+01  0.21844487721E+02  0.32358423959E+02  0.39080264481E+02  0.10566000000E+00 0. -1.
         22    1    1    0    0    0 -0.18950016260E+01 -0.26951000955E+02 -0.55616997598E+02  0.61832013597E+02  0.00000000000E+00 0. -1.
</event>
<event>
 4    1  0.9925048E-003  0.9118800E+02  0.7818608E-02  0.1130116E+00
         25   -1    0    0    0    0  0.00000000000E+00  0.00000000000E+00  0.99999998245E-14  0.12500000000E+03  0.12500000000E+03 0.  0.
        -13    1    1    0    0    0 -0.30805574959E+02 -0.50854169464E+01 -0.41195085247E+02  0.51690338814E+02  0.10566000000E+00 0. -1.
         13    1    1    0    0    0 -0.11498801160E+02  0.13050016697E+00 -0.30466740689E+01  0.11896757766E+02  0.10566000000E+00 0.  1.
         22    1    1    0    0    0  0.42304376120E+02  0.49549167795E+01  0.44241759316E+02  0.61412903421E+02  0.00000000000E+00 0. -1.
</event>
<event>
 4    1  0.9925048E-003  0.9118800E+02  0.7818608E-02  0.1130116E+00
         25   -1    0    0    0    0  0.00000000000E+00  0.00000000000E+00  0.99999998245E-14  0.12500000000E+03  0.12500000000E+03 0.  0.
        -13    1    1    0    0    0 -0.31126078529E+01 -0.13908311461E+02 -0.12854634787E+02  0.19193286714E+02  0.10566000000E+00 0.  1.
         13    1    1    0    0    0 -0.10330542297E+02 -0.34098791781E+02 -0.24731573813E+02  0.43371760540E+02  0.10566000000E+00 0. -1.
         22    1    1    0    0    0  0.13443150150E+02  0.48007103241E+02  0.37586208600E+02  0.62434952746E+02  0.00000000000E+00 0. -1.
</event>
<event>
 4    1  0.9925048E-003  0.9118800E+02  0.7818608E-02  0.1130116E+00
         25   -1    0    0    0    0  0.00000000000E+00  0.00000000000E+00  0.99999998245E-14  0.12500000000E+03  0.12500000000E+03 0.  0.
        -13    1    1    0    0    0  0.11899593861E+02  0.11804129574E+02 -0.16263049723E+02  0.23354566136E+02  0.10566000000E+00 0.  1.
         13    1    1    0    0    0  0.20678043271E+02  0.18887507000E+02 -0.27355109478E+02  0.39148851487E+02  0.10566000000E+00 0. -1.
         22    1    1    0    0    0 -0.32577637132E+02 -0.30691636574E+02  0.43618159201E+02  0.62496582377E+02  0.00000000000E+00 0. -1.
</event>
<event>
 4    1  0.9925048E-003  0.9118800E+02  0.7818608E-02  0.1130116E+00
         25   -1    0    0    0    0  0.00000000000E+00  0.00000000000E+00  0.99999998245E-14  0.12500000000E+03  0.12500000000E+03 0.  0.
        -13    1    1    0    0    0  0.17069153541E+02 -0.69493584149E+01 -0.46819311266E+02  0.50316087452E+02  0.10566000000E+00 0.  1.
         13    1    1    0    0    0  0.69555319158E+01 -0.34669687554E+01 -0.96783676758E+01  0.12412947333E+02  0.10566000000E+00 0. -1.
         22    1    1    0    0    0 -0.24024685457E+02  0.10416327170E+02  0.56497678942E+02  0.62270965215E+02  0.00000000000E+00 0.  1.
</event>
<event>
 4    1  0.9925048E-003  0.9118800E+02  0.7818608E-02  0.1130116E+00
         25   -1    0    0    0    0  0.00000000000E+00  0.00000000000E+00  0.99999998245E-14  0.12500000000E+03  0.12500000000E+03 0.  0.
        -13    1    1    0    0    0  0.54128942287E+01 -0.29371708157E+02  0.46917355825E+02  0.55616958796E+02  0.10566000000E+00 0.  1.
         13    1    1    0    0    0  0.29334905051E+01 -0.66540742719E+01  0.24739061292E+01  0.76820209926E+01  0.10566000000E+00 0. -1.
         22    1    1    0    0    0 -0.83463847338E+01  0.36025782429E+02 -0.49391261954E+02  0.61701020212E+02  0.00000000000E+00 0.  1.
</event>
<event>
 4    1  0.9925048E-003  0.9118800E+02  0.7818608E-02  0.1130116E+00
         25   -1    0    0    0    0  0.00000000000E+00  0.00000000000E+00  0.99999998245E-14  0.12500000000E+03  0.12500000000E+03 0.  0.
        -13    1    1    0    0    0  0.49137465803E+01 -0.48142348523E+01  0.41054781864E+01  0.80117337601E+01  0.10566000000E+00 0.  1.
         13    1    1    0    0    0  0.33774697857E+02 -0.30905981726E+02  0.29554843248E+02  0.54492291613E+02  0.10566000000E+00 0. -1.
         22    1    1    0    0    0 -0.38688444438E+02  0.35720216579E+02 -0.33660321435E+02  0.62495974626E+02  0.00000000000E+00 0. -1.
</event>
<event>
 4    1  0.9925048E-003  0.9118800E+02  0.7818608E-02  0.1130116E+00
         25   -1    0    0    0    0  0.00000000000E+00  0.00000000000E+00  0.99999998245E-14  0.12500000000E+03  0.12500000000E+03 0.  0.
        -13    1    1    0    0    0  0.19223148912E+02  0.22022447268E+02  0.12877575546E+01  0.29260675339E+02  0.10566000000E+00 0.  1.
         13    1    1    0    0    0  0.21890204388E+02  0.24955685997E+02  0.17032981610E+01  0.33239730751E+02  0.10566000000E+00 0.  1.
         22    1    1    0    0    0 -0.41113353300E+02 -0.46978133265E+02 -0.29910557156E+01  0.62499593910E+02  0.00000000000E+00 0.  1.
</event>
<event>
 4    1  0.9925048E-003  0.9118800E+02  0.7818608E-02  0.1130116E+00
         25   -1    0    0    0    0  0.00000000000E+00  0.00000000000E+00  0.99999998245E-14  0.12500000000E+03  0.12500000000E+03 0.  0.
        -13    1    1    0    0    0  0.22501817611E+01  0.66009541674E-01 -0.40663069856E+01  0.46490527803E+01  0.10566000000E+00 0. -1.
         13    1    1    0    0    0  0.29190629232E+02  0.51364771980E+01 -0.49689996668E+02  0.57858302480E+02  0.10566000000E+00 0.  1.
         22    1    1    0    0    0 -0.31440810993E+02 -0.52024867397E+01  0.53756303653E+02  0.62492644740E+02  0.00000000000E+00 0.  1.
</event>
<event>
 4    1  0.9925048E-003  0.9118800E+02  0.7818608E-02  0.1130116E+00
         25   -1    0    0    0    0  0.00000000000E+00  0.00000000000E+00  0.99999998245E-14  0.12500000000E+03  0.12500000000E+03 0.  0.
        -13    1    1    0    0    0  0.23105835938E+02 -0.36914988482E+02 -0.33524647003E+02  0.54959158925E+02  0.10566000000E+00 0.  1.
         13    1    1    0    0    0  0.66037502267E+00 -0.60002516334E+01 -0.48610189721E+01  0.77511150370E+01  0.10566000000E+00 0. -1.
         22    1    1    0    0    0 -0.23766210961E+02  0.42915240115E+02  0.38385665975E+02  0.62289726038E+02  0.00000000000E+00 0.  1.
</event>
<event>
 4    1  0.9925048E-003  0.9118800E+02  0.7818608E-02  0.1130116E+00
         25   -1    0    0    0    0  0.00000000000E+00  0.00000000000E+00  0.99999998245E-14  0.12500000000E+03  0.12500000000E+03 0.  0.
        -13    1    1    0    0    0  0.46163416325E+01 -0.94300082953E+00  0.12782264913E+01  0.48831227335E+01  0.10566000000E+00 0. -1.
         13    1    1    0    0    0  0.11740106986E+02 -0.21932106649E+02  0.53244448390E+02  0.58769293534E+02  0.10566000000E+00 0.  1.
         22    1    1    0    0    0 -0.16356448619E+02  0.22875107478E+02 -0.54522674881E+02  0.61347583732E+02  0.00000000000E+00 0.  1.
</event>
<event>
 4    1  0.9925048E-003  0.9118800E+02  0.7818608E-02  0.1130116E+00
         25   -1    0    0    0    0  0.00000000000E+00  0.00000000000E+00  0.99999998245E-14  0.12500000000E+03  0.12500000000E+03 0.  0.
        -13    1    1    0    0    0  0.82054039698E+01 -0.17385208001E+02 -0.62900467427E+01  0.20227455688E+02  0.10566000000E+00 0.  1.
         13    1    1    0    0    0  0.17115070312E+02 -0.36407187728E+02 -0.12983468380E+02  0.42272811182E+02  0.10566000000E+00 0.  1.
         22    1    1    0    0    0 -0.25320474282E+02  0.53792395729E+02  0.19273515123E+02  0.62499733130E+02  0.00000000000E+00 0.  1.
</event>
<event>
 4    1  0.9925048E-003  0.9118800E+02  0.7818608E-02  0.1130116E+00
         25   -1    0    0    0    0  0.00000000000E+00  0.00000000000E+00  0.99999998245E-14  0.12500000000E+03  0.12500000000E+03 0.  0.
        -13    1    1    0    0    0 -0.75706946764E+01 -0.38042046322E+02  0.83128015469E+01  0.39668961921E+02  0.10566000000E+00 0. -1.
         13    1    1    0    0    0 -0.31156167737E+02  0.30606795010E+02  0.44058946847E+01  0.43896534724E+02  0.10566000000E+00 0.  1.
         22    1    1    0    0    0  0.38726862413E+02  0.74352513128E+01 -0.12718696232E+02  0.41434503355E+02  0.00000000000E+00 0. -1.
</event>
<event>
 4    1  0.9925048E-003  0.9118800E+02  0.7818608E-02  0.1130116E+00
         25   -1    0    0    0    0  0.00000000000E+00  0.00000000000E+00  0.99999998245E-14  0.12500000000E+03  0.12500000000E+03 0.  0.
        -13    1    1    0    0    0  0.40166579012E+01 -0.29773460051E+02  0.22930935555E+02  0.37794595296E+02  0.10566000000E+00 0. -1.
         13    1    1    0    0    0  0.38683301999E+01 -0.19256362304E+02  0.15002116730E+02  0.24715301701E+02  0.10566000000E+00 0.  1.
         22    1    1    0    0    0 -0.78849881011E+01  0.49029822356E+02 -0.37933052286E+02  0.62490103003E+02  0.00000000000E+00 0.  1.
</event>
<event>
 4    1  0.9925048E-003  0.9118800E+02  0.7818608E-02  0.1130116E+00
         25   -1    0    0    0    0  0.00000000000E+00  0.00000000000E+00  0.99999998245E-14  0.12500000000E+03  0.12500000000E+03 0.  0.
        -13    1    1    0    0    0 -0.85878337848E+00  0.68954263657E+01 -0.53173172746E+01  0.87503966019E+01  0.10566000000E+00 0.  1.
         13    1    1    0    0    0 -0.23920210732E+02 -0.52239898724E+02 -0.17065708179E+02  0.59936908994E+02  0.10566000000E+00 0. -1.
         22    1    1    0    0    0  0.24778994110E+02  0.45344472358E+02  0.22383025454E+02  0.56312694404E+02  0.00000000000E+00 0. -1.
</event>
<event>
 4    1  0.9925048E-003  0.9118800E+02  0.7818608E-02  0.1130116E+00
         25   -1    0    0    0    0  0.00000000000E+00  0.00000000000E+00  0.99999998245E-14  0.12500000000E+03  0.12500000000E+03 0.  0.
        -13    1    1    0    0    0 -0.40699530207E+02  0.45083322110E+01 -0.45130727927E+02  0.60939072734E+02  0.10566000000E+00 0.  1.
         13    1    1    0    0    0 -0.85111739628E+00 -0.62910772086E-01 -0.13227899397E+01  0.15777502489E+01  0.10566000000E+00 0. -1.
         22    1    1    0    0    0  0.41550647604E+02 -0.44454214390E+01  0.46453517866E+02  0.62483177018E+02  0.00000000000E+00 0.  1.
</event>
<event>
 4    1  0.9925048E-003  0.9118800E+02  0.7818608E-02  0.1130116E+00
         25   -1    0    0    0    0  0.00000000000E+00  0.00000000000E+00  0.99999998245E-14  0.12500000000E+03  0.12500000000E+03 0.  0.
        -13    1    1    0    0    0 -0.40366240528E+02  0.22967435923E+01 -0.20017932572E+02  0.45115819776E+02  0.10566000000E+00 0. -1.
         13    1    1    0    0    0 -0.15763122770E+02  0.75382365262E+00 -0.72970238986E+01  0.17386834426E+02  0.10566000000E+00 0. -1.
         22    1    1    0    0    0  0.56129363298E+02 -0.30505672449E+01  0.27314956471E+02  0.62497345798E+02  0.00000000000E+00 0. -1.
</event>
<event>
 4    1  0.9925048E-003  0.9118800E+02  0.7818608E-02  0.1130116E+00
         25   -1    0    0    0    0  0.00000000000E+00  0.00000000000E+00  0.99999998245E-14  0.12500000000E+03  0.12500000000E+03 0.  0.
        -13    1    1    0    0    0  0.23898495260E+02  0.47828657555E+02  0.17409140898E+02  0.56229955629E+02  0.10566000000E+00 0. -1.
         13    1    1    0    0    0 -0.10819222176E+02  0.47362002701E+01  0.19819782274E+00  0.11812603773E+02  0.10566000000E+00 0.  1.
         22    1    1    0    0    0 -0.13079273084E+02 -0.52564857825E+02 -0.17607338721E+02  0.56957440598E+02  0.00000000000E+00 0. -1.
</event>
<event>
 4    1  0.9925048E-003  0.9118800E+02  0.7818608E-02  0.1130116E+00
         25   -1    0    0    0    0  0.00000000000E+00  0.00000000000E+00  0.99999998245E-14  0.12500000000E+03  0.12500000000E+03 0.  0.
        -13    1    1    0    0    0 -0.26555969216E+02 -0.79067958918E+01 -0.30151665081E+02  0.40949615303E+02  0.10566000000E+00 0. -1.
         13    1    1    0    0    0 -0.14188166205E+02 -0.45822448846E+01 -0.15563376768E+02  0.21552978655E+02  0.10566000000E+00 0.  1.
         22    1    1    0    0    0  0.40744135421E+02  0.12489040776E+02  0.45715041849E+02  0.62497406042E+02  0.00000000000E+00 0. -1.
</event>
<event>
 4    1  0.9925048E-003  0.9118800E+02  0.7818608E-02  0.1130116E+00
         25   -1    0    0    0    0  0.00000000000E+00  0.00000000000E+00  0.99999998245E-14  0.12500000000E+03  0.12500000000E+03 0.  0.
        -13    1    1    0    0    0 -0.13640074744E+02 -0.12631933923E+02  0.54137219653E+00  0.18598968830E+02  0.10566000000E+00 0.  1.
         13    1    1    0    0    0 -0.31571573313E+02 -0.30481425988E+02  0.12452081065E+01  0.43902656856E+02  0.10566000000E+00 0. -1.
         22    1    1    0    0    0  0.45211648056E+02  0.43113359911E+02 -0.17865803031E+01  0.62498374315E+02  0.00000000000E+00 0. -1.
</event>
<event>
 4    1  0.9925048E-003  0.9118800E+02  0.7818608E-02  0.1130116E+00
         25   -1    0    0    0    0  0.00000000000E+00  0.00000000000E+00  0.99999998245E-14  0.12500000000E+03  0.12500000000E+03 0.  0.
        -13    1    1    0    0    0 -0.14459878822E+01  0.25525247999E+02  0.34280662257E+01  0.25795192739E+02  0.10566000000E+00 0. -1.
         13    1    1    0    0    0 -0.21086580644E+01  0.36296526562E+02  0.50365475155E+01  0.36705071233E+02  0.10566000000E+00 0.  1.
         22    1    1    0    0    0  0.35546459466E+01 -0.61821774561E+02 -0.84646137411E+01  0.62499736028E+02  0.00000000000E+00 0.  1.
</event>
<event>
 4    1  0.9925048E-003  0.9118800E+02  0.7818608E-02  0.1130116E+00
         25   -1    0    0    0    0  0.00000000000E+00  0.00000000000E+00  0.99999998245E-14  0.12500000000E+03  0.12500000000E+03 0.  0.
        -13    1    1    0    0    0 -0.17424672058E+02 -0.57733025292E+01  0.89934845489E+00  0.18378525787E+02  0.10566000000E+00 0.  1.
         13    1    1    0    0    0 -0.98819728855E+01 -0.43306095974E+02  0.17169379111E+02  0.47622159545E+02  0.10566000000E+00 0. -1.
         22    1    1    0    0    0  0.27306644943E+02  0.49079398503E+02 -0.18068727566E+02  0.58999314668E+02  0.00000000000E+00 0. -1.
</event>
<event>
 4    1  0.9925048E-003  0.9118800E+02  0.7818608E-02  0.1130116E+00
         25   -1    0    0    0    0  0.00000000000E+00  0.00000000000E+00  0.99999998245E-14  0.12500000000E+03  0.12500000000E+03 0.  0.
        -13    1    1    0    0    0 -0.14186496714E+02  0.14556627829E+02 -0.12620736511E+01  0.20365561537E+02  0.10566000000E+00 0. -1.
         13    1    1    0    0    0 -0.26354492125E+02  0.31422736578E+02 -0.10226050689E+02  0.42267374013E+02  0.10566000000E+00 0.  1.
         22    1    1    0    0    0  0.40540988839E+02 -0.45979364407E+02  0.11488124340E+02  0.62367064450E+02  0.00000000000E+00 0.  1.
</event>
<event>
 4    1  0.9925048E-003  0.9118800E+02  0.7818608E-02  0.1130116E+00
         25   -1    0    0    0    0  0.00000000000E+00  0.00000000000E+00  0.99999998245E-14  0.12500000000E+03  0.12500000000E+03 0.  0.
        -13    1    1    0    0    0 -0.59574746415E+01 -0.62317372389E+01  0.30505185551E+02  0.31700213921E+02  0.10566000000E+00 0. -1.
         13    1    1    0    0    0 -0.59347977536E+01 -0.59576092044E+01  0.29629707907E+02  0.30800092314E+02  0.10566000000E+00 0. -1.
         22    1    1    0    0    0  0.11892272395E+02  0.12189346443E+02 -0.60134893459E+02  0.62499693765E+02  0.00000000000E+00 0. -1.
</event>
<event>
 4    1  0.9925048E-003  0.9118800E+02  0.7818608E-02  0.1130116E+00
         25   -1    0    0    0    0  0.00000000000E+00  0.00000000000E+00  0.99999998245E-14  0.12500000000E+03  0.12500000000E+03 0.  0.
        -13    1    1    0    0    0  0.14837838033E+02  0.35920437297E+02  0.30952300722E+02  0.49683954524E+02  0.10566000000E+00 0.  1.
         13    1    1    0    0    0  0.11684996254E+02  0.47113046776E+01 -0.22890202883E+02  0.26128683114E+02  0.10566000000E+00 0. -1.
         22    1    1    0    0    0 -0.26522834288E+02 -0.40631741975E+02 -0.80620978392E+01  0.49187362362E+02  0.00000000000E+00 0.  1.
</event>
<event>
 4    1  0.9925048E-003  0.9118800E+02  0.7818608E-02  0.1130116E+00
         25   -1    0    0    0    0  0.00000000000E+00  0.00000000000E+00  0.99999998245E-14  0.12500000000E+03  0.12500000000E+03 0.  0.
        -13    1    1    0    0    0 -0.20233802892E+00  0.95048213889E+00 -0.62100355838E+00  0.11580874015E+01  0.10566000000E+00 0. -1.
         13    1    1    0    0    0 -0.34255829950E+02 -0.59633206160E+01 -0.50908807935E+02  0.61650149779E+02  0.10566000000E+00 0.  1.
         22    1    1    0    0    0  0.34458167979E+02  0.50128384771E+01  0.51529811493E+02  0.62191762820E+02  0.00000000000E+00 0.  1.
</event>
<event>
 4    1  0.9925048E-003  0.9118800E+02  0.7818608E-02  0.1130116E+00
         25   -1    0    0    0    0  0.00000000000E+00  0.00000000000E+00  0.99999998245E-14  0.12500000000E+03  0.12500000000E+03 0.  0.
        -13    1    1    0    0    0 -0.23624187991E+01 -0.92259033038E+01  0.39048122521E+02  0.40192851986E+02  0.10566000000E+00 0.  1.
         13    1    1    0    0    0 -0.15172225029E+01 -0.43027657519E+01  0.21840980951E+02  0.22312672861E+02  0.10566000000E+00 0. -1.
         22    1    1    0    0    0  0.38796413019E+01  0.13528669056E+02 -0.60889103472E+02  0.62494475153E+02  0.00000000000E+00 0.  1.
</event>
<event>
 4    1  0.9925048E-003  0.9118800E+02  0.7818608E-02  0.1130116E+00
         25   -1    0    0    0    0  0.00000000000E+00  0.00000000000E+00  0.99999998245E-14  0.12500000000E+03  0.12500000000E+03 0.  0.
        -13    1    1    0    0    0  0.21284403931E+01 -0.14903743171E+02  0.73358653034E+01  0.16747474520E+02  0.10566000000E+00 0. -1.
         13    1    1    0    0    0 -0.54185183531E+01 -0.42769844890E+02  0.15951056899E+02  0.45968112353E+02  0.10566000000E+00 0.  1.
         22    1    1    0    0    0  0.32900779601E+01  0.57673588061E+02 -0.23286922203E+02  0.62284413127E+02  0.00000000000E+00 0.  1.
</event>
<event>
 4    1  0.9925048E-003  0.9118800E+02  0.7818608E-02  0.1130116E+00
         25   -1    0    0    0    0  0.00000000000E+00  0.00000000000E+00  0.99999998245E-14  0.12500000000E+03  0.12500000000E+03 0.  0.
        -13    1    1    0    0    0  0.96922527676E+01 -0.52504047849E+00 -0.16506526480E+02  0.19149203944E+02  0.10566000000E+00 0. -1.
         13    1    1    0    0    0  0.28708273021E+02  0.26473922167E+01 -0.32572008504E+02  0.43498511784E+02  0.10566000000E+00 0.  1.
         22    1    1    0    0    0 -0.38400525788E+02 -0.21223517382E+01  0.49078534984E+02  0.62352284272E+02  0.00000000000E+00 0.  1.
</event>
<event>
 4    1  0.9925048E-003  0.9118800E+02  0.7818608E-02  0.1130116E+00
         25   -1    0    0    0    0  0.00000000000E+00  0.00000000000E+00  0.99999998245E-14  0.12500000000E+03  0.12500000000E+03 0.  0.
        -13    1    1    0    0    0  0.12158170560E+02  0.27527842819E+02 -0.35946640695E+02  0.46880437103E+02  0.10566000000E+00 0.  1.
         13    1    1    0    0    0 -0.91432215016E+01  0.82730497311E+01 -0.12662226170E+02  0.17674416168E+02  0.10566000000E+00 0. -1.
         22    1    1    0    0    0 -0.30149490583E+01 -0.35800892550E+02  0.48608866865E+02  0.60445146729E+02  0.00000000000E+00 0.  1.
</event>
<event>
 4    1  0.9925048E-003  0.9118800E+02  0.7818608E-02  0.1130116E+00
         25   -1    0    0    0    0  0.00000000000E+00  0.00000000000E+00  0.99999998245E-14  0.12500000000E+03  0.12500000000E+03 0.  0.
        -13    1    1    0    0    0 -0.15702557752E+01  0.28045677819E+00 -0.48901123083E+01  0.51447761494E+01  0.10566000000E+00 0.  1.
         13    1    1    0    0    0  0.45398677173E+02 -0.29258305391E+02  0.29823870537E+02  0.61697347927E+02  0.10566000000E+00 0. -1.
         22    1    1    0    0    0 -0.43828421398E+02  0.28977848613E+02 -0.24933758229E+02  0.58157875923E+02  0.00000000000E+00 0. -1.
</event>
<event>
 4    1  0.9925048E-003  0.9118800E+02  0.7818608E-02  0.1130116E+00
         25   -1    0    0    0    0  0.00000000000E+00  0.00000000000E+00  0.99999998245E-14  0.12500000000E+03  0.12500000000E+03 0.  0.
        -13    1    1    0    0    0  0.77375628386E+01  0.35826543678E+01  0.38499655965E+00  0.85360809150E+01  0.10566000000E+00 0. -1.
         13    1    1    0    0    0  0.49438602297E+02  0.21548416723E+02  0.19346880535E+01  0.53965394859E+02  0.10566000000E+00 0. -1.
         22    1    1    0    0    0 -0.57176165136E+02 -0.25131071090E+02 -0.23196846132E+01  0.62498524226E+02  0.00000000000E+00 0. -1.
</event>
<event>
 4    1  0.9925048E-003  0.9118800E+02  0.7818608E-02  0.1130116E+00
         25   -1    0    0    0    0  0.00000000000E+00  0.00000000000E+00  0.99999998245E-14  0.12500000000E+03  0.12500000000E+03 0.  0.
        -13    1    1    0    0    0 -0.12731681971E+02  0.24685412451E+01  0.17586078547E+00  0.12970409121E+02  0.10566000000E+00 0. -1.
         13    1    1    0    0    0 -0.48221889258E+02  0.11280129278E+02  0.99386942690E+00  0.49533734572E+02  0.10566000000E+00 0.  1.
         22    1    1    0    0    0  0.60953571230E+02 -0.13748670524E+02 -0.11697302124E+01  0.62495856307E+02  0.00000000000E+00 0.  1.
</event>
<event>
 4    1  0.9925048E-003  0.9118800E+02  0.7818608E-02  0.1130116E+00
         25   -1    0    0    0    0  0.00000000000E+00  0.00000000000E+00  0.99999998245E-14  0.12500000000E+03  0.12500000000E+03 0.  0.
        -13    1    1    0    0    0  0.39090326052E+00  0.18187740752E+02 -0.33129569452E+02  0.37795849708E+02  0.10566000000E+00 0.  1.
         13    1    1    0    0    0 -0.14472385250E+02 -0.17203570944E+01 -0.22892365694E+02  0.27138185910E+02  0.10566000000E+00 0. -1.
         22    1    1    0    0    0  0.14081481989E+02 -0.16467383658E+02  0.56021935147E+02  0.60065964382E+02  0.00000000000E+00 0.  1.
</event>
<event>
 4    1  0.9925048E-003  0.9118800E+02  0.7818608E-02  0.1130116E+00
         25   -1    0    0    0    0  0.00000000000E+00  0.00000000000E+00  0.99999998245E-14  0.12500000000E+03  0.12500000000E+03 0.  0.
        -13    1    1    0    0    0  0.54712692159E+01 -0.30066210445E+00 -0.13245999703E+02  0.14335022033E+02  0.10566000000E+00 0.  1.
         13    1    1    0    0    0 -0.33070958676E+01  0.23262093418E+02 -0.43484028616E+02  0.49426043560E+02  0.10566000000E+00 0. -1.
         22    1    1    0    0    0 -0.21641733483E+01 -0.22961431313E+02  0.56730028319E+02  0.61238934407E+02  0.00000000000E+00 0. -1.
</event>
<event>
 4    1  0.9925048E-003  0.9118800E+02  0.7818608E-02  0.1130116E+00
         25   -1    0    0    0    0  0.00000000000E+00  0.00000000000E+00  0.99999998245E-14  0.12500000000E+03  0.12500000000E+03 0.  0.
        -13    1    1    0    0    0  0.14632821387E+01 -0.58032725947E+00  0.18220925133E+00  0.15881872032E+01  0.10566000000E+00 0. -1.
         13    1    1    0    0    0  0.60440688542E+02 -0.78004376975E+01  0.14754898501E+00  0.60942239821E+02  0.10566000000E+00 0.  1.
         22    1    1    0    0    0 -0.61903970680E+02  0.83807649570E+01 -0.32975823633E+00  0.62469572976E+02  0.00000000000E+00 0.  1.
</event>
<event>
 4    1  0.9925048E-003  0.9118800E+02  0.7818608E-02  0.1130116E+00
         25   -1    0    0    0    0  0.00000000000E+00  0.00000000000E+00  0.99999998245E-14  0.12500000000E+03  0.12500000000E+03 0.  0.
        -13    1    1    0    0    0 -0.41979944078E+01  0.50612227164E+02  0.58487159795E+01  0.51121808832E+02  0.10566000000E+00 0. -1.
         13    1    1    0    0    0  0.16756585626E+01  0.10642358896E+02  0.45512355959E+01  0.11695834471E+02  0.10566000000E+00 0.  1.
         22    1    1    0    0    0  0.25223358452E+01 -0.61254586061E+02 -0.10399951575E+02  0.62182356697E+02  0.00000000000E+00 0. -1.
</event>
<event>
 4    1  0.9925048E-003  0.9118800E+02  0.7818608E-02  0.1130116E+00
         25   -1    0    0    0    0  0.00000000000E+00  0.00000000000E+00  0.99999998245E-14  0.12500000000E+03  0.12500000000E+03 0.  0.
        -13    1    1    0    0    0 -0.10096345374E+02 -0.29602237699E+02 -0.17669965389E+02  0.35923077646E+02  0.10566000000E+00 0. -1.
         13    1    1    0    0    0 -0.60097347304E+01 -0.21225148262E+02 -0.14879165807E+02  0.26608731075E+02  0.10566000000E+00 0.  1.
         22    1    1    0    0    0  0.16106080104E+02  0.50827385961E+02  0.32549131196E+02  0.62468191278E+02  0.00000000000E+00 0.  1.
</event>
<event>
 4    1  0.9925048E-003  0.9118800E+02  0.7818608E-02  0.1130116E+00
         25   -1    0    0    0    0  0.00000000000E+00  0.00000000000E+00  0.99999998245E-14  0.12500000000E+03  0.12500000000E+03 0.  0.
        -13    1    1    0    0    0  0.49597041413E+02 -0.25058207737E+02 -0.90600414065E+01  0.56301650120E+02  0.10566000000E+00 0.  1.
         13    1    1    0    0    0  0.52664060237E+01 -0.33851606219E+01  0.16827171471E+00  0.62636909445E+01  0.10566000000E+00 0. -1.
         22    1    1    0    0    0 -0.54863447436E+02  0.28443368359E+02  0.88917696918E+01  0.62434658936E+02  0.00000000000E+00 0.  1.
</event>
<event>
 4    1  0.9925048E-003  0.9118800E+02  0.7818608E-02  0.1130116E+00
         25   -1    0    0    0    0  0.00000000000E+00  0.00000000000E+00  0.99999998245E-14  0.12500000000E+03  0.12500000000E+03 0.  0.
        -13    1    1    0    0    0 -0.79104979410E+01 -0.36618443407E+02 -0.17785811742E+02  0.41470864936E+02  0.10566000000E+00 0. -1.
         13    1    1    0    0    0 -0.75237341119E+01 -0.17820491443E+02 -0.85098328148E+01  0.21133028861E+02  0.10566000000E+00 0.  1.
         22    1    1    0    0    0  0.15434232053E+02  0.54438934850E+02  0.26295644557E+02  0.62396106203E+02  0.00000000000E+00 0. -1.
</event>
<event>
 4    1  0.9925048E-003  0.9118800E+02  0.7818608E-02  0.1130116E+00
         25   -1    0    0    0    0  0.00000000000E+00  0.00000000000E+00  0.99999998245E-14  0.12500000000E+03  0.12500000000E+03 0.  0.
        -13    1    1    0    0    0 -0.15032832175E+02  0.43598766905E+02  0.75970660247E+01  0.46739331350E+02  0.10566000000E+00 0. -1.
         13    1    1    0    0    0 -0.46796370296E+01  0.14885547009E+02  0.22414719578E+01  0.15764322791E+02  0.10566000000E+00 0.  1.
         22    1    1    0    0    0  0.19712469205E+02 -0.58484313914E+02 -0.98385379826E+01  0.62496345859E+02  0.00000000000E+00 0. -1.
</event>
<event>
 4    1  0.9925048E-003  0.9118800E+02  0.7818608E-02  0.1130116E+00
         25   -1    0    0    0    0  0.00000000000E+00  0.00000000000E+00  0.99999998245E-14  0.12500000000E+03  0.12500000000E+03 0.  0.
        -13    1    1    0    0    0  0.19676053777E+02 -0.19097122005E+02  0.32485479397E+02  0.42510759777E+02  0.10566000000E+00 0.  1.
         13    1    1    0    0    0  0.19532047293E+02  0.42331540672E+01  0.10384109035E+02  0.22522463215E+02  0.10566000000E+00 0. -1.
         22    1    1    0    0    0 -0.39208101070E+02  0.14863967938E+02 -0.42869588432E+02  0.59966777008E+02  0.00000000000E+00 0.  1.
</event>
<event>
 4    1  0.9925048E-003  0.9118800E+02  0.7818608E-02  0.1130116E+00
         25   -1    0    0    0    0  0.00000000000E+00  0.00000000000E+00  0.99999998245E-14  0.12500000000E+03  0.12500000000E+03 0.  0.
        -13    1    1    0    0    0 -0.55536509513E-01 -0.33169198875E+00 -0.16316362387E+00  0.38844598472E+00  0.10566000000E+00 0. -1.
         13    1    1    0    0    0 -0.12203676682E+02 -0.35444371857E+02 -0.49560142204E+02  0.62140583198E+02  0.10566000000E+00 0. -1.
         22    1    1    0    0    0  0.12259213192E+02  0.35776063846E+02  0.49723305828E+02  0.62470970817E+02  0.00000000000E+00 0. -1.
</event>
<event>
 4    1  0.9925048E-003  0.9118800E+02  0.7818608E-02  0.1130116E+00
         25   -1    0    0    0    0  0.00000000000E+00  0.00000000000E+00  0.99999998245E-14  0.12500000000E+03  0.12500000000E+03 0.  0.
        -13    1    1    0    0    0  0.18671064467E+02  0.49065804519E+01  0.85153235616E+01  0.21099883399E+02  0.10566000000E+00 0.  1.
         13    1    1    0    0    0  0.31325552169E+01  0.45079093607E+02  0.10050900294E+02  0.46292216877E+02  0.10566000000E+00 0. -1.
         22    1    1    0    0    0 -0.21803619684E+02 -0.49985674059E+02 -0.18566223855E+02  0.57607899724E+02  0.00000000000E+00 0. -1.
</event>
<event>
 4    1  0.9925048E-003  0.9118800E+02  0.7818608E-02  0.1130116E+00
         25   -1    0    0    0    0  0.00000000000E+00  0.00000000000E+00  0.99999998245E-14  0.12500000000E+03  0.12500000000E+03 0.  0.
        -13    1    1    0    0    0  0.30995693062E+02 -0.80501604649E+00 -0.41844956363E+02  0.52080635329E+02  0.10566000000E+00 0. -1.
         13    1    1    0    0    0  0.61852791197E+01 -0.20211816123E+00 -0.83821845958E+01  0.10419727068E+02  0.10566000000E+00 0. -1.
         22    1    1    0    0    0 -0.37180972181E+02  0.10071342077E+01  0.50227140959E+02  0.62499637603E+02  0.00000000000E+00 0. -1.
</event>
<event>
 4    1  0.9925048E-003  0.9118800E+02  0.7818608E-02  0.1130116E+00
         25   -1    0    0    0    0  0.00000000000E+00  0.00000000000E+00  0.99999998245E-14  0.12500000000E+03  0.12500000000E+03 0.  0.
        -13    1    1    0    0    0 -0.33211870000E+02 -0.42866833255E+01 -0.24304934098E+02  0.41378073280E+02  0.10566000000E+00 0. -1.
         13    1    1    0    0    0 -0.16309592929E+02  0.10844416391E+01 -0.13529992657E+02  0.21219111680E+02  0.10566000000E+00 0.  1.
         22    1    1    0    0    0  0.49521462928E+02  0.32022416864E+01  0.37834926755E+02  0.62402815040E+02  0.00000000000E+00 0. -1.
</event>
<event>
 4    1  0.9925048E-003  0.9118800E+02  0.7818608E-02  0.1130116E+00
         25   -1    0    0    0    0  0.00000000000E+00  0.00000000000E+00  0.99999998245E-14  0.12500000000E+03  0.12500000000E+03 0.  0.
        -13    1    1    0    0    0  0.42027659754E+01 -0.39113636321E+02  0.30936152982E+02  0.50045944026E+02  0.10566000000E+00 0. -1.
         13    1    1    0    0    0  0.10338804746E+01 -0.96475359333E+01  0.78078976155E+01  0.12454649238E+02  0.10566000000E+00 0. -1.
         22    1    1    0    0    0 -0.52366464500E+01  0.48761172255E+02 -0.38744050598E+02  0.62499406736E+02  0.00000000000E+00 0. -1.
</event>
<event>
 4    1  0.9925048E-003  0.9118800E+02  0.7818608E-02  0.1130116E+00
         25   -1    0    0    0    0  0.00000000000E+00  0.00000000000E+00  0.99999998245E-14  0.12500000000E+03  0.12500000000E+03 0.  0.
        -13    1    1    0    0    0 -0.25474209077E+02  0.56712539749E+00 -0.19804946337E+02  0.32272341451E+02  0.10566000000E+00 0.  1.
         13    1    1    0    0    0 -0.22637536536E+02  0.22615904798E+01 -0.19944923846E+02  0.30255313635E+02  0.10566000000E+00 0. -1.
         22    1    1    0    0    0  0.48111745613E+02 -0.28287158773E+01  0.39749870183E+02  0.62472344913E+02  0.00000000000E+00 0.  1.
</event>
<event>
 4    1  0.9925048E-003  0.9118800E+02  0.7818608E-02  0.1130116E+00
         25   -1    0    0    0    0  0.00000000000E+00  0.00000000000E+00  0.99999998245E-14  0.12500000000E+03  0.12500000000E+03 0.  0.
        -13    1    1    0    0    0 -0.23599903563E+02  0.25404258244E+02 -0.41429943481E+02  0.54025763909E+02  0.10566000000E+00 0.  1.
         13    1    1    0    0    0 -0.41453167403E+01  0.38271041600E+01 -0.63313093800E+01  0.84809798744E+01  0.10566000000E+00 0. -1.
         22    1    1    0    0    0  0.27745220303E+02 -0.29231362404E+02  0.47761252861E+02  0.62493256216E+02  0.00000000000E+00 0.  1.
</event>
<event>
 4    1  0.9925048E-003  0.9118800E+02  0.7818608E-02  0.1130116E+00
         25   -1    0    0    0    0  0.00000000000E+00  0.00000000000E+00  0.99999998245E-14  0.12500000000E+03  0.12500000000E+03 0.  0.
        -13    1    1    0    0    0  0.22167126589E+02 -0.42099443151E+02  0.19491274937E+02  0.51416588544E+02  0.10566000000E+00 0. -1.
         13    1    1    0    0    0  0.73288276638E+01 -0.92063470462E+01 -0.36198215793E+01  0.12311897220E+02  0.10566000000E+00 0.  1.
         22    1    1    0    0    0 -0.29495954253E+02  0.51305790197E+02 -0.15871453358E+02  0.61271514235E+02  0.00000000000E+00 0. -1.
</event>
<event>
 4    1  0.9925048E-003  0.9118800E+02  0.7818608E-02  0.1130116E+00
         25   -1    0    0    0    0  0.00000000000E+00  0.00000000000E+00  0.99999998245E-14  0.12500000000E+03  0.12500000000E+03 0.  0.
        -13    1    1    0    0    0  0.22689614914E+01 -0.75683731932E+00  0.12155506752E+02  0.12389047477E+02  0.10566000000E+00 0.  1.
         13    1    1    0    0    0  0.19121256708E+02  0.10562380790E+02 -0.57508168562E+02  0.61517371217E+02  0.10566000000E+00 0. -1.
         22    1    1    0    0    0 -0.21390218199E+02 -0.98055434710E+01  0.45352661810E+02  0.51093581306E+02  0.00000000000E+00 0. -1.
</event>
<event>
 4    1  0.9925048E-003  0.9118800E+02  0.7818608E-02  0.1130116E+00
         25   -1    0    0    0    0  0.00000000000E+00  0.00000000000E+00  0.99999998245E-14  0.12500000000E+03  0.12500000000E+03 0.  0.
        -13    1    1    0    0    0  0.43731102666E+02  0.12988015930E+02  0.33175756297E+02  0.56406913301E+02  0.10566000000E+00 0.  1.
         13    1    1    0    0    0  0.54986618272E+01  0.18723576804E+01  0.21609190987E+01  0.61985272896E+01  0.10566000000E+00 0. -1.
         22    1    1    0    0    0 -0.49229764494E+02 -0.14860373610E+02 -0.35336675395E+02  0.62394559410E+02  0.00000000000E+00 0.  1.
</event>
<event>
 4    1  0.9925048E-003  0.9118800E+02  0.7818608E-02  0.1130116E+00
         25   -1    0    0    0    0  0.00000000000E+00  0.00000000000E+00  0.99999998245E-14  0.12500000000E+03  0.12500000000E+03 0.  0.
        -13    1    1    0    0    0  0.17807422256E+02 -0.58103165319E+01  0.11333311670E+02  0.21893359337E+02  0.10566000000E+00 0. -1.
         13    1    1    0    0    0  0.32198058844E+02 -0.17791473359E+02  0.17509032212E+02  0.40740997664E+02  0.10566000000E+00 0.  1.
         22    1    1    0    0    0 -0.50005481100E+02  0.23601789891E+02 -0.28842343882E+02  0.62365642999E+02  0.00000000000E+00 0.  1.
</event>
<event>
 4    1  0.9925048E-003  0.9118800E+02  0.7818608E-02  0.1130116E+00
         25   -1    0    0    0    0  0.00000000000E+00  0.00000000000E+00  0.99999998245E-14  0.12500000000E+03  0.12500000000E+03 0.  0.
        -13    1    1    0    0    0  0.57311811276E+01  0.24544095425E+02 -0.23175731362E+02  0.34240104345E+02  0.10566000000E+00 0.  1.
         13    1    1    0    0    0  0.11035470342E+02  0.11027478373E+02 -0.24445936679E+02  0.29000032225E+02  0.10566000000E+00 0. -1.
         22    1    1    0    0    0 -0.16766651469E+02 -0.35571573798E+02  0.47621668041E+02  0.61759863430E+02  0.00000000000E+00 0.  1.
</event>
<event>
 4    1  0.9925048E-003  0.9118800E+02  0.7818608E-02  0.1130116E+00
         25   -1    0    0    0    0  0.00000000000E+00  0.00000000000E+00  0.99999998245E-14  0.12500000000E+03  0.12500000000E+03 0.  0.
        -13    1    1    0    0    0 -0.84354490210E+01 -0.40194123830E+02 -0.87089678810E+00  0.41079118977E+02  0.10566000000E+00 0.  1.
         13    1    1    0    0    0 -0.59552008105E+01 -0.20588505692E+02  0.10352821841E+01  0.21457724869E+02  0.10566000000E+00 0. -1.
         22    1    1    0    0    0  0.14390649831E+02  0.60782629522E+02 -0.16438539604E+00  0.62463156154E+02  0.00000000000E+00 0. -1.
</event>
<event>
 4    1  0.9925048E-003  0.9118800E+02  0.7818608E-02  0.1130116E+00
         25   -1    0    0    0    0  0.00000000000E+00  0.00000000000E+00  0.99999998245E-14  0.12500000000E+03  0.12500000000E+03 0.  0.
        -13    1    1    0    0    0  0.11004141821E+02 -0.30001396435E+02  0.40663170721E+02  0.51717304091E+02  0.10566000000E+00 0.  1.
         13    1    1    0    0    0  0.17682486543E+01 -0.64089126252E+01  0.84962160068E+01  0.10788777262E+02  0.10566000000E+00 0. -1.
         22    1    1    0    0    0 -0.12772390476E+02  0.36410309061E+02 -0.49159386728E+02  0.62493918647E+02  0.00000000000E+00 0.  1.
</event>
<event>
 4    1  0.9925048E-003  0.9118800E+02  0.7818608E-02  0.1130116E+00
         25   -1    0    0    0    0  0.00000000000E+00  0.00000000000E+00  0.99999998245E-14  0.12500000000E+03  0.12500000000E+03 0.  0.
        -13    1    1    0    0    0 -0.81438018100E+01  0.75626154567E+01  0.16644703674E+02  0.20014294514E+02  0.10566000000E+00 0. -1.
         13    1    1    0    0    0 -0.25394682173E+02 -0.35591404688E+02  0.19875640828E+02  0.48028015082E+02  0.10566000000E+00 0.  1.
         22    1    1    0    0    0  0.33538483983E+02  0.28028789231E+02 -0.36520344502E+02  0.56957690404E+02  0.00000000000E+00 0.  1.
</event>
<event>
 4    1  0.9925048E-003  0.9118800E+02  0.7818608E-02  0.1130116E+00
         25   -1    0    0    0    0  0.00000000000E+00  0.00000000000E+00  0.99999998245E-14  0.12500000000E+03  0.12500000000E+03 0.  0.
        -13    1    1    0    0    0  0.11216185511E+01 -0.16009610560E+02 -0.20960001352E+02  0.26398834807E+02  0.10566000000E+00 0.  1.
         13    1    1    0    0    0  0.82703355521E+01 -0.23343204686E+02 -0.26477310031E+02  0.36254141359E+02  0.10566000000E+00 0. -1.
         22    1    1    0    0    0 -0.93919541033E+01  0.39352815246E+02  0.47437311383E+02  0.62347023834E+02  0.00000000000E+00 0. -1.
</event>
<event>
 4    1  0.9925048E-003  0.9118800E+02  0.7818608E-02  0.1130116E+00
         25   -1    0    0    0    0  0.00000000000E+00  0.00000000000E+00  0.99999998245E-14  0.12500000000E+03  0.12500000000E+03 0.  0.
        -13    1    1    0    0    0  0.25588906061E+02 -0.16960344448E+02  0.11590484788E+02  0.32814568394E+02  0.10566000000E+00 0. -1.
         13    1    1    0    0    0  0.22435827850E+02 -0.16171204355E+02  0.10802314901E+02  0.29691335316E+02  0.10566000000E+00 0.  1.
         22    1    1    0    0    0 -0.48024733911E+02  0.33131548803E+02 -0.22392799688E+02  0.62494096291E+02  0.00000000000E+00 0. -1.
</event>
<event>
 4    1  0.9925048E-003  0.9118800E+02  0.7818608E-02  0.1130116E+00
         25   -1    0    0    0    0  0.00000000000E+00  0.00000000000E+00  0.99999998245E-14  0.12500000000E+03  0.12500000000E+03 0.  0.
        -13    1    1    0    0    0  0.96645210156E+01  0.31002340174E+02  0.76506593722E+01  0.33363030672E+02  0.10566000000E+00 0. -1.
         13    1    1    0    0    0  0.61737081344E+01  0.28497372580E+02  0.23718851698E+01  0.29254946922E+02  0.10566000000E+00 0.  1.
         22    1    1    0    0    0 -0.15838229150E+02 -0.59499712754E+02 -0.10022544542E+02  0.62382022407E+02  0.00000000000E+00 0.  1.
</event>
<event>
 4    1  0.9925048E-003  0.9118800E+02  0.7818608E-02  0.1130116E+00
         25   -1    0    0    0    0  0.00000000000E+00  0.00000000000E+00  0.99999998245E-14  0.12500000000E+03  0.12500000000E+03 0.  0.
        -13    1    1    0    0    0  0.41179190671E+01  0.16810200879E+02  0.18115598045E+01  0.17402098264E+02  0.10566000000E+00 0.  1.
         13    1    1    0    0    0  0.12115058064E+02  0.43356537409E+02  0.28359704041E+01  0.45106738522E+02  0.10566000000E+00 0. -1.
         22    1    1    0    0    0 -0.16232977131E+02 -0.60166738288E+02 -0.46475302086E+01  0.62491163213E+02  0.00000000000E+00 0. -1.
</event>
<event>
 4    1  0.9925048E-003  0.9118800E+02  0.7818608E-02  0.1130116E+00
         25   -1    0    0    0    0  0.00000000000E+00  0.00000000000E+00  0.99999998245E-14  0.12500000000E+03  0.12500000000E+03 0.  0.
        -13    1    1    0    0    0  0.25174121841E+01 -0.24456671522E+02  0.25437586031E+02  0.35377225628E+02  0.10566000000E+00 0. -1.
         13    1    1    0    0    0 -0.12751853412E+01 -0.19254654838E+02  0.19138833315E+02  0.27178556534E+02  0.10566000000E+00 0.  1.
         22    1    1    0    0    0 -0.12422268429E+01  0.43711326360E+02 -0.44576419346E+02  0.62444217838E+02  0.00000000000E+00 0.  1.
</event>
<event>
 4    1  0.9925048E-003  0.9118800E+02  0.7818608E-02  0.1130116E+00
         25   -1    0    0    0    0  0.00000000000E+00  0.00000000000E+00  0.99999998245E-14  0.12500000000E+03  0.12500000000E+03 0.  0.
        -13    1    1    0    0    0 -0.26281539982E+01  0.47011555561E+01 -0.59121014433E+00  0.54192942779E+01  0.10566000000E+00 0. -1.
         13    1    1    0    0    0  0.26614895241E+02 -0.34784840615E+01 -0.53799206447E+02  0.60123358842E+02  0.10566000000E+00 0.  1.
         22    1    1    0    0    0 -0.23986741243E+02 -0.12226714946E+01  0.54390416591E+02  0.59457346880E+02  0.00000000000E+00 0.  1.
</event>
<event>
 4    1  0.9925048E-003  0.9118800E+02  0.7818608E-02  0.1130116E+00
         25   -1    0    0    0    0  0.00000000000E+00  0.00000000000E+00  0.99999998245E-14  0.12500000000E+03  0.12500000000E+03 0.  0.
        -13    1    1    0    0    0  0.13296681194E+02  0.81861389135E+01 -0.30937835102E+02  0.34655092063E+02  0.10566000000E+00 0. -1.
         13    1    1    0    0    0  0.10884966789E+02  0.61732821494E+01 -0.24875741033E+02  0.27846105122E+02  0.10566000000E+00 0. -1.
         22    1    1    0    0    0 -0.24181647982E+02 -0.14359421063E+02  0.55813576135E+02  0.62498802815E+02  0.00000000000E+00 0. -1.
</event>
<event>
 4    1  0.9925048E-003  0.9118800E+02  0.7818608E-02  0.1130116E+00
         25   -1    0    0    0    0  0.00000000000E+00  0.00000000000E+00  0.99999998245E-14  0.12500000000E+03  0.12500000000E+03 0.  0.
        -13    1    1    0    0    0 -0.56569324691E+02 -0.46149059893E+01  0.20519423327E+01  0.56794431811E+02  0.10566000000E+00 0.  1.
         13    1    1    0    0    0 -0.57118039752E+01 -0.11089167652E+00 -0.87992612770E-01  0.57145348324E+01  0.10566000000E+00 0. -1.
         22    1    1    0    0    0  0.62281128666E+02  0.47257976658E+01 -0.19639497199E+01  0.62491033357E+02  0.00000000000E+00 0.  1.
</event>
<event>
 4    1  0.9925048E-003  0.9118800E+02  0.7818608E-02  0.1130116E+00
         25   -1    0    0    0    0  0.00000000000E+00  0.00000000000E+00  0.99999998245E-14  0.12500000000E+03  0.12500000000E+03 0.  0.
        -13    1    1    0    0    0 -0.12120158779E+02 -0.15349347250E+02  0.25169599879E+02  0.31875078540E+02  0.10566000000E+00 0.  1.
         13    1    1    0    0    0 -0.12508714156E+02 -0.16015433975E+02  0.22932993752E+02  0.30641400453E+02  0.10566000000E+00 0. -1.
         22    1    1    0    0    0  0.24628872935E+02  0.31364781224E+02 -0.48102593632E+02  0.62483521007E+02  0.00000000000E+00 0.  1.
</event>
<event>
 4    1  0.9925048E-003  0.9118800E+02  0.7818608E-02  0.1130116E+00
         25   -1    0    0    0    0  0.00000000000E+00  0.00000000000E+00  0.99999998245E-14  0.12500000000E+03  0.12500000000E+03 0.  0.
        -13    1    1    0    0    0  0.38511881398E+01 -0.10318643016E+02  0.23100397361E+02  0.25591904307E+02  0.10566000000E+00 0. -1.
         13    1    1    0    0    0  0.54840669056E+01 -0.15122217140E+02  0.33218493983E+02  0.36908480700E+02  0.10566000000E+00 0. -1.
         22    1    1    0    0    0 -0.93352550454E+01  0.25440860156E+02 -0.56318891343E+02  0.62499614994E+02  0.00000000000E+00 0. -1.
</event>
<event>
 4    1  0.9925048E-003  0.9118800E+02  0.7818608E-02  0.1130116E+00
         25   -1    0    0    0    0  0.00000000000E+00  0.00000000000E+00  0.99999998245E-14  0.12500000000E+03  0.12500000000E+03 0.  0.
        -13    1    1    0    0    0 -0.30008954537E-01  0.13066558322E+02  0.48421173437E+01  0.13935318845E+02  0.10566000000E+00 0. -1.
         13    1    1    0    0    0  0.15575147560E+01  0.29785250116E+02  0.39424425154E+02  0.49435649480E+02  0.10566000000E+00 0.  1.
         22    1    1    0    0    0 -0.15275058015E+01 -0.42851808438E+02 -0.44266542498E+02  0.61629031675E+02  0.00000000000E+00 0.  1.
</event>
<event>
 4    1  0.9925048E-003  0.9118800E+02  0.7818608E-02  0.1130116E+00
         25   -1    0    0    0    0  0.00000000000E+00  0.00000000000E+00  0.99999998245E-14  0.12500000000E+03  0.12500000000E+03 0.  0.
        -13    1    1    0    0    0 -0.15639132829E+02  0.23274027141E+02  0.85912176785E+01  0.29327171705E+02  0.10566000000E+00 0. -1.
         13    1    1    0    0    0 -0.18474642190E+02  0.25103014227E+02  0.11407407532E+02  0.33190568509E+02  0.10566000000E+00 0.  1.
         22    1    1    0    0    0  0.34113775019E+02 -0.48377041368E+02 -0.19998625211E+02  0.62482259785E+02  0.00000000000E+00 0. -1.
</event>
<event>
 4    1  0.9925048E-003  0.9118800E+02  0.7818608E-02  0.1130116E+00
         25   -1    0    0    0    0  0.00000000000E+00  0.00000000000E+00  0.99999998245E-14  0.12500000000E+03  0.12500000000E+03 0.  0.
        -13    1    1    0    0    0 -0.18745727847E+00  0.10299574032E+01 -0.17126243717E+00  0.10660428423E+01  0.10566000000E+00 0.  1.
         13    1    1    0    0    0 -0.18828996018E+02  0.56916973272E+02  0.13626614756E+02  0.61479823774E+02  0.10566000000E+00 0. -1.
         22    1    1    0    0    0  0.19016453297E+02 -0.57946930676E+02 -0.13455352319E+02  0.62454133384E+02  0.00000000000E+00 0. -1.
</event>
<event>
 4    1  0.9925048E-003  0.9118800E+02  0.7818608E-02  0.1130116E+00
         25   -1    0    0    0    0  0.00000000000E+00  0.00000000000E+00  0.99999998245E-14  0.12500000000E+03  0.12500000000E+03 0.  0.
        -13    1    1    0    0    0 -0.18939559126E+02  0.48118429029E+01 -0.57442927658E+01  0.20368328244E+02  0.10566000000E+00 0.  1.
         13    1    1    0    0    0 -0.38373665796E+02  0.11159315874E+02 -0.13368518565E+02  0.42140206574E+02  0.10566000000E+00 0. -1.
         22    1    1    0    0    0  0.57313224923E+02 -0.15971158777E+02  0.19112811331E+02  0.62491465183E+02  0.00000000000E+00 0. -1.
</event>
<event>
 4    1  0.9925048E-003  0.9118800E+02  0.7818608E-02  0.1130116E+00
         25   -1    0    0    0    0  0.00000000000E+00  0.00000000000E+00  0.99999998245E-14  0.12500000000E+03  0.12500000000E+03 0.  0.
        -13    1    1    0    0    0  0.26533303482E+02 -0.11988098309E+01  0.31403466936E+02  0.41129578630E+02  0.10566000000E+00 0.  1.
         13    1    1    0    0    0  0.12081915179E+02  0.63747216452E+01  0.16952618485E+02  0.21771820962E+02  0.10566000000E+00 0. -1.
         22    1    1    0    0    0 -0.38615218661E+02 -0.51759118143E+01 -0.48356085422E+02  0.62098600408E+02  0.00000000000E+00 0.  1.
</event>
<event>
 4    1  0.9925048E-003  0.9118800E+02  0.7818608E-02  0.1130116E+00
         25   -1    0    0    0    0  0.00000000000E+00  0.00000000000E+00  0.99999998245E-14  0.12500000000E+03  0.12500000000E+03 0.  0.
        -13    1    1    0    0    0  0.17039387651E+02  0.10451453082E+02  0.53442899036E+02  0.57058988989E+02  0.10566000000E+00 0.  1.
         13    1    1    0    0    0  0.20571193219E+01  0.15404375669E+01  0.48218081238E+01  0.54649506330E+01  0.10566000000E+00 0. -1.
         22    1    1    0    0    0 -0.19096506973E+02 -0.11991890649E+02 -0.58264707160E+02  0.62476060378E+02  0.00000000000E+00 0.  1.
</event>
<event>
 4    1  0.9925048E-003  0.9118800E+02  0.7818608E-02  0.1130116E+00
         25   -1    0    0    0    0  0.00000000000E+00  0.00000000000E+00  0.99999998245E-14  0.12500000000E+03  0.12500000000E+03 0.  0.
        -13    1    1    0    0    0 -0.11842967091E+02  0.17098443479E+02  0.94101984240E+01  0.22829271503E+02  0.10566000000E+00 0. -1.
         13    1    1    0    0    0 -0.20601332743E+02  0.29440049481E+02  0.16813442704E+02  0.39671582321E+02  0.10566000000E+00 0. -1.
         22    1    1    0    0    0  0.32444299834E+02 -0.46538492960E+02 -0.26223641128E+02  0.62499146176E+02  0.00000000000E+00 0. -1.
</event>
<event>
 4    1  0.9925048E-003  0.9118800E+02  0.7818608E-02  0.1130116E+00
         25   -1    0    0    0    0  0.00000000000E+00  0.00000000000E+00  0.99999998245E-14  0.12500000000E+03  0.12500000000E+03 0.  0.
        -13    1    1    0    0    0  0.92368694109E+01 -0.33116871707E+02  0.11608071010E+01  0.34400662571E+02  0.10566000000E+00 0. -1.
         13    1    1    0    0    0  0.16469244402E+02  0.21219725166E+02  0.35344649157E+02  0.44393334357E+02  0.10566000000E+00 0.  1.
         22    1    1    0    0    0 -0.25706113813E+02  0.11897146541E+02 -0.36505456258E+02  0.46206003071E+02  0.00000000000E+00 0.  1.
</event>
<event>
 4    1  0.9925048E-003  0.9118800E+02  0.7818608E-02  0.1130116E+00
         25   -1    0    0    0    0  0.00000000000E+00  0.00000000000E+00  0.99999998245E-14  0.12500000000E+03  0.12500000000E+03 0.  0.
        -13    1    1    0    0    0 -0.90434738192E+01 -0.33686611653E+01  0.27524586005E+01  0.10035909981E+02  0.10566000000E+00 0.  1.
         13    1    1    0    0    0 -0.47013727849E+02 -0.17323062893E+02  0.15564327911E+02  0.52465594265E+02  0.10566000000E+00 0. -1.
         22    1    1    0    0    0  0.56057201668E+02  0.20691724058E+02 -0.18316786512E+02  0.62498495754E+02  0.00000000000E+00 0. -1.
</event>
<event>
 4    1  0.9925048E-003  0.9118800E+02  0.7818608E-02  0.1130116E+00
         25   -1    0    0    0    0  0.00000000000E+00  0.00000000000E+00  0.99999998245E-14  0.12500000000E+03  0.12500000000E+03 0.  0.
        -13    1    1    0    0    0 -0.28834047735E+02 -0.21382507157E+02  0.34102454394E+02  0.49513659538E+02  0.10566000000E+00 0.  1.
         13    1    1    0    0    0 -0.96616716675E+01 -0.83936762261E+01  0.42894494512E+01  0.13498601432E+02  0.10566000000E+00 0. -1.
         22    1    1    0    0    0  0.38495719402E+02  0.29776183383E+02 -0.38391903846E+02  0.61987739030E+02  0.00000000000E+00 0.  1.
</event>
<event>
 4    1  0.9925048E-003  0.9118800E+02  0.7818608E-02  0.1130116E+00
         25   -1    0    0    0    0  0.00000000000E+00  0.00000000000E+00  0.99999998245E-14  0.12500000000E+03  0.12500000000E+03 0.  0.
        -13    1    1    0    0    0  0.20799694858E+02 -0.40347268691E+02 -0.23542799923E+02  0.51135154143E+02  0.10566000000E+00 0. -1.
         13    1    1    0    0    0  0.69695700998E+01 -0.76458496207E+01 -0.50118717922E+01  0.11496257943E+02  0.10566000000E+00 0.  1.
         22    1    1    0    0    0 -0.27769264957E+02  0.47993118312E+02  0.28554671715E+02  0.62368587914E+02  0.00000000000E+00 0. -1.
</event>
<event>
 4    1  0.9925048E-003  0.9118800E+02  0.7818608E-02  0.1130116E+00
         25   -1    0    0    0    0  0.00000000000E+00  0.00000000000E+00  0.99999998245E-14  0.12500000000E+03  0.12500000000E+03 0.  0.
        -13    1    1    0    0    0 -0.72575088447E+01  0.27386437562E+01  0.65639645098E+01  0.10162106001E+02  0.10566000000E+00 0. -1.
         13    1    1    0    0    0 -0.36894579406E+02  0.15672745020E+02  0.33654927436E+02  0.52340330824E+02  0.10566000000E+00 0.  1.
         22    1    1    0    0    0  0.44152088251E+02 -0.18411388776E+02 -0.40218891945E+02  0.62497563175E+02  0.00000000000E+00 0.  1.
</event>
<event>
 4    1  0.9925048E-003  0.9118800E+02  0.7818608E-02  0.1130116E+00
         25   -1    0    0    0    0  0.00000000000E+00  0.00000000000E+00  0.99999998245E-14  0.12500000000E+03  0.12500000000E+03 0.  0.
        -13    1    1    0    0    0 -0.28937639935E+02  0.42545019923E+02 -0.13577906307E+02  0.53215001917E+02  0.10566000000E+00 0. -1.
         13    1    1    0    0    0 -0.61789026614E+01  0.46655477512E+01 -0.59770348552E+01  0.97817321377E+01  0.10566000000E+00 0.  1.
         22    1    1    0    0    0  0.35116542597E+02 -0.47210567674E+02  0.19554941162E+02  0.62003265946E+02  0.00000000000E+00 0. -1.
</event>
<event>
 4    1  0.9925048E-003  0.9118800E+02  0.7818608E-02  0.1130116E+00
         25   -1    0    0    0    0  0.00000000000E+00  0.00000000000E+00  0.99999998245E-14  0.12500000000E+03  0.12500000000E+03 0.  0.
        -13    1    1    0    0    0 -0.16161421757E+02  0.26027587183E+02  0.33815245286E+02  0.45630130676E+02  0.10566000000E+00 0. -1.
         13    1    1    0    0    0  0.23811807438E+02  0.38908433661E+01  0.97049569048E+01  0.26006502804E+02  0.10566000000E+00 0.  1.
         22    1    1    0    0    0 -0.76503856811E+01 -0.29918430549E+02 -0.43520202190E+02  0.53363366519E+02  0.00000000000E+00 0. -1.
</event>
<event>
 4    1  0.9925048E-003  0.9118800E+02  0.7818608E-02  0.1130116E+00
         25   -1    0    0    0    0  0.00000000000E+00  0.00000000000E+00  0.99999998245E-14  0.12500000000E+03  0.12500000000E+03 0.  0.
        -13    1    1    0    0    0 -0.20830753347E+02 -0.13487927446E+01  0.32468983543E+02  0.38600331387E+02  0.10566000000E+00 0. -1.
         13    1    1    0    0    0 -0.13117451106E+02 -0.19458769557E+01  0.19893407964E+02  0.23908425400E+02  0.10566000000E+00 0.  1.
         22    1    1    0    0    0  0.33948204453E+02  0.32946697003E+01 -0.52362391506E+02  0.62491243213E+02  0.00000000000E+00 0.  1.
</event>
<event>
 4    1  0.9925048E-003  0.9118800E+02  0.7818608E-02  0.1130116E+00
         25   -1    0    0    0    0  0.00000000000E+00  0.00000000000E+00  0.99999998245E-14  0.12500000000E+03  0.12500000000E+03 0.  0.
        -13    1    1    0    0    0 -0.59664612363E+01  0.48222189078E+01  0.23273458053E+01  0.80174907179E+01  0.10566000000E+00 0. -1.
         13    1    1    0    0    0 -0.40110374150E+02  0.32785903704E+02  0.16873128330E+02  0.54483678472E+02  0.10566000000E+00 0. -1.
         22    1    1    0    0    0  0.46076835387E+02 -0.37608122611E+02 -0.19200474136E+02  0.62498830810E+02  0.00000000000E+00 0. -1.
</event>
<event>
 4    1  0.9925048E-003  0.9118800E+02  0.7818608E-02  0.1130116E+00
         25   -1    0    0    0    0  0.00000000000E+00  0.00000000000E+00  0.99999998245E-14  0.12500000000E+03  0.12500000000E+03 0.  0.
        -13    1    1    0    0    0  0.37898552273E+02 -0.11630168672E+02  0.62056347558E+01  0.40125829020E+02  0.10566000000E+00 0. -1.
         13    1    1    0    0    0  0.21521620947E+02 -0.58825421797E+01  0.19318280148E+01  0.22394811770E+02  0.10566000000E+00 0.  1.
         22    1    1    0    0    0 -0.59420173221E+02  0.17512710852E+02 -0.81374627706E+01  0.62479359210E+02  0.00000000000E+00 0. -1.
</event>
<event>
 4    1  0.9925048E-003  0.9118800E+02  0.7818608E-02  0.1130116E+00
         25   -1    0    0    0    0  0.00000000000E+00  0.00000000000E+00  0.99999998245E-14  0.12500000000E+03  0.12500000000E+03 0.  0.
        -13    1    1    0    0    0 -0.14912512068E+00  0.39811774125E+01  0.10851693849E+01  0.41304683174E+01  0.10566000000E+00 0. -1.
         13    1    1    0    0    0 -0.21230520730E+02  0.52838593467E+02 -0.14357972839E+02  0.58726608264E+02  0.10566000000E+00 0.  1.
         22    1    1    0    0    0  0.21379645850E+02 -0.56819770880E+02  0.13272803454E+02  0.62142923419E+02  0.00000000000E+00 0.  1.
</event>
<event>
 4    1  0.9925048E-003  0.9118800E+02  0.7818608E-02  0.1130116E+00
         25   -1    0    0    0    0  0.00000000000E+00  0.00000000000E+00  0.99999998245E-14  0.12500000000E+03  0.12500000000E+03 0.  0.
        -13    1    1    0    0    0 -0.20073554101E+02 -0.46408699197E+01 -0.78999602403E+00  0.20618450612E+02  0.10566000000E+00 0. -1.
         13    1    1    0    0    0 -0.40836632104E+02 -0.84125219823E+01 -0.41076469550E+01  0.41896121243E+02  0.10566000000E+00 0. -1.
         22    1    1    0    0    0  0.60910186205E+02  0.13053391902E+02  0.48976429791E+01  0.62485428145E+02  0.00000000000E+00 0. -1.
</event>
<event>
 4    1  0.9925048E-003  0.9118800E+02  0.7818608E-02  0.1130116E+00
         25   -1    0    0    0    0  0.00000000000E+00  0.00000000000E+00  0.99999998245E-14  0.12500000000E+03  0.12500000000E+03 0.  0.
        -13    1    1    0    0    0 -0.16268510262E+02  0.57116240395E+01 -0.28034682459E+02  0.32912636782E+02  0.10566000000E+00 0.  1.
         13    1    1    0    0    0 -0.14617817173E+02  0.56273521831E+01 -0.25102398435E+02  0.29588667471E+02  0.10566000000E+00 0. -1.
         22    1    1    0    0    0  0.30886327434E+02 -0.11338976223E+02  0.53137080894E+02  0.62498695747E+02  0.00000000000E+00 0. -1.
</event>
<event>
 4    1  0.9925048E-003  0.9118800E+02  0.7818608E-02  0.1130116E+00
         25   -1    0    0    0    0  0.00000000000E+00  0.00000000000E+00  0.99999998245E-14  0.12500000000E+03  0.12500000000E+03 0.  0.
        -13    1    1    0    0    0  0.58012830666E+02 -0.16317442646E+02  0.47942064283E+00  0.60265980989E+02  0.10566000000E+00 0. -1.
         13    1    1    0    0    0  0.22626194062E+01 -0.26164272891E-01 -0.27404547992E+00  0.22817528585E+01  0.10566000000E+00 0.  1.
         22    1    1    0    0    0 -0.60275450072E+02  0.16343606919E+02 -0.20537516290E+00  0.62452266152E+02  0.00000000000E+00 0. -1.
</event>
<event>
 4    1  0.9925048E-003  0.9118800E+02  0.7818608E-02  0.1130116E+00
         25   -1    0    0    0    0  0.00000000000E+00  0.00000000000E+00  0.99999998245E-14  0.12500000000E+03  0.12500000000E+03 0.  0.
        -13    1    1    0    0    0  0.11123181129E+01 -0.31731761281E+01  0.64901208359E+01  0.73102073038E+01  0.10566000000E+00 0. -1.
         13    1    1    0    0    0 -0.10137199771E+02 -0.36437584477E+02  0.40606585718E+02  0.55492038613E+02  0.10566000000E+00 0.  1.
         22    1    1    0    0    0  0.90248816577E+01  0.39610760606E+02 -0.47096706554E+02  0.62197754083E+02  0.00000000000E+00 0.  1.
</event>
<event>
 4    1  0.9925048E-003  0.9118800E+02  0.7818608E-02  0.1130116E+00
         25   -1    0    0    0    0  0.00000000000E+00  0.00000000000E+00  0.99999998245E-14  0.12500000000E+03  0.12500000000E+03 0.  0.
        -13    1    1    0    0    0  0.42556448401E+01 -0.30662981457E+02  0.36829569783E+02  0.48111924918E+02  0.10566000000E+00 0. -1.
         13    1    1    0    0    0  0.71278705495E+01 -0.14002912629E+02  0.29679522293E+01  0.15990872557E+02  0.10566000000E+00 0.  1.
         22    1    1    0    0    0 -0.11383515390E+02  0.44665894086E+02 -0.39797522012E+02  0.60897202526E+02  0.00000000000E+00 0. -1.
</event>
<event>
 4    1  0.9925048E-003  0.9118800E+02  0.7818608E-02  0.1130116E+00
         25   -1    0    0    0    0  0.00000000000E+00  0.00000000000E+00  0.99999998245E-14  0.12500000000E+03  0.12500000000E+03 0.  0.
        -13    1    1    0    0    0 -0.65971867423E+01 -0.95159705138E+01  0.13380406491E+02  0.17695282129E+02  0.10566000000E+00 0.  1.
         13    1    1    0    0    0 -0.11092176675E+02 -0.40812656769E+02  0.17379651557E+02  0.45724968980E+02  0.10566000000E+00 0. -1.
         22    1    1    0    0    0  0.17689363417E+02  0.50328627283E+02 -0.30760058048E+02  0.61579748891E+02  0.00000000000E+00 0. -1.
</event>
<event>
 4    1  0.9925048E-003  0.9118800E+02  0.7818608E-02  0.1130116E+00
         25   -1    0    0    0    0  0.00000000000E+00  0.00000000000E+00  0.99999998245E-14  0.12500000000E+03  0.12500000000E+03 0.  0.
        -13    1    1    0    0    0  0.15483948842E+02  0.59182045937E+00 -0.12946019683E+02  0.20191917018E+02  0.10566000000E+00 0.  1.
         13    1    1    0    0    0  0.34998423382E+02  0.51014493139E+01 -0.23341921732E+02  0.42376537123E+02  0.10566000000E+00 0. -1.
         22    1    1    0    0    0 -0.50482372225E+02 -0.56932697733E+01  0.36287941415E+02  0.62431545859E+02  0.00000000000E+00 0.  1.
</event>
<event>
 4    1  0.9925048E-003  0.9118800E+02  0.7818608E-02  0.1130116E+00
         25   -1    0    0    0    0  0.00000000000E+00  0.00000000000E+00  0.99999998245E-14  0.12500000000E+03  0.12500000000E+03 0.  0.
        -13    1    1    0    0    0  0.46908873508E+01  0.86318940585E+01  0.76899183165E+01  0.12476378758E+02  0.10566000000E+00 0. -1.
         13    1    1    0    0    0  0.20275955103E+02  0.38219237716E+02  0.25203867165E+02  0.50070655788E+02  0.10566000000E+00 0.  1.
         22    1    1    0    0    0 -0.24966842454E+02 -0.46851131775E+02 -0.32893785481E+02  0.62452965454E+02  0.00000000000E+00 0.  1.
</event>
<event>
 4    1  0.9925048E-003  0.9118800E+02  0.7818608E-02  0.1130116E+00
         25   -1    0    0    0    0  0.00000000000E+00  0.00000000000E+00  0.99999998245E-14  0.12500000000E+03  0.12500000000E+03 0.  0.
        -13    1    1    0    0    0  0.83003830174E+01  0.37816714124E+01  0.10133146690E+01  0.91779827610E+01  0.10566000000E+00 0.  1.
         13    1    1    0    0    0  0.30597688656E+02  0.32935006638E+02  0.29948714865E+02  0.54017311109E+02  0.10566000000E+00 0. -1.
         22    1    1    0    0    0 -0.38898071673E+02 -0.36716678050E+02 -0.30962029534E+02  0.61804706130E+02  0.00000000000E+00 0. -1.
</event>
<event>
 4    1  0.9925048E-003  0.9118800E+02  0.7818608E-02  0.1130116E+00
         25   -1    0    0    0    0  0.00000000000E+00  0.00000000000E+00  0.99999998245E-14  0.12500000000E+03  0.12500000000E+03 0.  0.
        -13    1    1    0    0    0 -0.11865999956E+02 -0.25767070761E+01  0.16063946466E+02  0.20137102930E+02  0.10566000000E+00 0.  1.
         13    1    1    0    0    0 -0.25008550676E+02 -0.48168570739E+01  0.33853376943E+02  0.42363805465E+02  0.10566000000E+00 0. -1.
         22    1    1    0    0    0  0.36874550632E+02  0.73935641499E+01 -0.49917323409E+02  0.62499091605E+02  0.00000000000E+00 0.  1.
</event>
<event>
 4    1  0.9925048E-003  0.9118800E+02  0.7818608E-02  0.1130116E+00
         25   -1    0    0    0    0  0.00000000000E+00  0.00000000000E+00  0.99999998245E-14  0.12500000000E+03  0.12500000000E+03 0.  0.
        -13    1    1    0    0    0 -0.98128445789E+01 -0.34077710029E+02 -0.15350307152E+02  0.38642273914E+02  0.10566000000E+00 0.  1.
         13    1    1    0    0    0 -0.18856225256E+02 -0.13382041496E+02 -0.10242491020E+02  0.25289445463E+02  0.10566000000E+00 0. -1.
         22    1    1    0    0    0  0.28669069835E+02  0.47459751525E+02  0.25592798171E+02  0.61068280623E+02  0.00000000000E+00 0.  1.
</event>
<event>
 4    1  0.9925048E-003  0.9118800E+02  0.7818608E-02  0.1130116E+00
         25   -1    0    0    0    0  0.00000000000E+00  0.00000000000E+00  0.99999998245E-14  0.12500000000E+03  0.12500000000E+03 0.  0.
        -13    1    1    0    0    0  0.16302004639E+01  0.33756536765E+00 -0.29145146680E+01  0.33581339633E+01  0.10566000000E+00 0. -1.
         13    1    1    0    0    0  0.29507973426E+02  0.11025966181E+02 -0.50063103782E+02  0.59149116225E+02  0.10566000000E+00 0.  1.
         22    1    1    0    0    0 -0.31138173890E+02 -0.11363531548E+02  0.52977618449E+02  0.62492749812E+02  0.00000000000E+00 0.  1.
</event>
<event>
 4    1  0.9925048E-003  0.9118800E+02  0.7818608E-02  0.1130116E+00
         25   -1    0    0    0    0  0.00000000000E+00  0.00000000000E+00  0.99999998245E-14  0.12500000000E+03  0.12500000000E+03 0.  0.
        -13    1    1    0    0    0  0.16830850098E+02  0.14150475321E+02  0.36761326639E+02  0.42835963478E+02  0.10566000000E+00 0.  1.
         13    1    1    0    0    0 -0.96270207034E-01  0.85872132524E+01  0.18339904208E+02  0.20251240698E+02  0.10566000000E+00 0. -1.
         22    1    1    0    0    0 -0.16734579891E+02 -0.22737688574E+02 -0.55101230847E+02  0.61912795824E+02  0.00000000000E+00 0.  1.
</event>
<event>
 4    1  0.9925048E-003  0.9118800E+02  0.7818608E-02  0.1130116E+00
         25   -1    0    0    0    0  0.00000000000E+00  0.00000000000E+00  0.99999998245E-14  0.12500000000E+03  0.12500000000E+03 0.  0.
        -13    1    1    0    0    0  0.53897879635E+00 -0.80727916879E+00  0.95981093927E+00  0.13691599154E+01  0.10566000000E+00 0. -1.
         13    1    1    0    0    0  0.26373110213E+02 -0.27964072611E+02  0.47546900030E+02  0.61141223130E+02  0.10566000000E+00 0.  1.
         22    1    1    0    0    0 -0.26912089010E+02  0.28771351780E+02 -0.48506710969E+02  0.62489616955E+02  0.00000000000E+00 0.  1.
</event>
<event>
 4    1  0.9925048E-003  0.9118800E+02  0.7818608E-02  0.1130116E+00
         25   -1    0    0    0    0  0.00000000000E+00  0.00000000000E+00  0.99999998245E-14  0.12500000000E+03  0.12500000000E+03 0.  0.
        -13    1    1    0    0    0 -0.47625635710E+01 -0.13236694641E+02  0.35013342825E+01  0.14496985983E+02  0.10566000000E+00 0. -1.
         13    1    1    0    0    0 -0.20667841430E+02 -0.31320794037E+02  0.31002731712E+02  0.48675788089E+02  0.10566000000E+00 0.  1.
         22    1    1    0    0    0  0.25430405001E+02  0.44557488678E+02 -0.34504065995E+02  0.61827225928E+02  0.00000000000E+00 0. -1.
</event>
<event>
 4    1  0.9925048E-003  0.9118800E+02  0.7818608E-02  0.1130116E+00
         25   -1    0    0    0    0  0.00000000000E+00  0.00000000000E+00  0.99999998245E-14  0.12500000000E+03  0.12500000000E+03 0.  0.
        -13    1    1    0    0    0  0.51576400361E+02 -0.16978971938E+02 -0.41207178041E+01  0.54455505154E+02  0.10566000000E+00 0. -1.
         13    1    1    0    0    0  0.68498252408E+01 -0.42279580213E+01 -0.12922294010E+01  0.81533278923E+01  0.10566000000E+00 0.  1.
         22    1    1    0    0    0 -0.58426225602E+02  0.21206929959E+02  0.54129472051E+01  0.62391166954E+02  0.00000000000E+00 0. -1.
</event>
<event>
 4    1  0.9925048E-003  0.9118800E+02  0.7818608E-02  0.1130116E+00
         25   -1    0    0    0    0  0.00000000000E+00  0.00000000000E+00  0.99999998245E-14  0.12500000000E+03  0.12500000000E+03 0.  0.
        -13    1    1    0    0    0  0.16661888995E+02  0.49031828672E+01 -0.48203408606E+00  0.17375363824E+02  0.10566000000E+00 0.  1.
         13    1    1    0    0    0  0.43807615865E+02  0.10725874950E+02 -0.16468702192E+01  0.45131750983E+02  0.10566000000E+00 0. -1.
         22    1    1    0    0    0 -0.60469504860E+02 -0.15629057817E+02  0.21289043053E+01  0.62492885193E+02  0.00000000000E+00 0. -1.
</event>
<event>
 4    1  0.9925048E-003  0.9118800E+02  0.7818608E-02  0.1130116E+00
         25   -1    0    0    0    0  0.00000000000E+00  0.00000000000E+00  0.99999998245E-14  0.12500000000E+03  0.12500000000E+03 0.  0.
        -13    1    1    0    0    0 -0.15215433651E+02  0.38973762926E+02 -0.33856236991E+02  0.53821181379E+02  0.10566000000E+00 0.  1.
         13    1    1    0    0    0 -0.88964281265E+01 -0.25138581910E+02 -0.88894669406E+00  0.26681381601E+02  0.10566000000E+00 0. -1.
         22    1    1    0    0    0  0.24111861777E+02 -0.13835181015E+02  0.34745183685E+02  0.44497437020E+02  0.00000000000E+00 0.  1.
</event>
<event>
 4    1  0.9925048E-003  0.9118800E+02  0.7818608E-02  0.1130116E+00
         25   -1    0    0    0    0  0.00000000000E+00  0.00000000000E+00  0.99999998245E-14  0.12500000000E+03  0.12500000000E+03 0.  0.
        -13    1    1    0    0    0  0.10004075329E+02 -0.57894366446E+01  0.46182239409E+01  0.12447419662E+02  0.10566000000E+00 0.  1.
         13    1    1    0    0    0  0.39509029315E+02 -0.23865838031E+02  0.19361921761E+02  0.50054338479E+02  0.10566000000E+00 0. -1.
         22    1    1    0    0    0 -0.49513104643E+02  0.29655274676E+02 -0.23980145702E+02  0.62498241858E+02  0.00000000000E+00 0. -1.
</event>
<event>
 4    1  0.9925048E-003  0.9118800E+02  0.7818608E-02  0.1130116E+00
         25   -1    0    0    0    0  0.00000000000E+00  0.00000000000E+00  0.99999998245E-14  0.12500000000E+03  0.12500000000E+03 0.  0.
        -13    1    1    0    0    0  0.56423260974E+01 -0.12862970588E+02 -0.36374634594E+02  0.38992525720E+02  0.10566000000E+00 0. -1.
         13    1    1    0    0    0  0.46684376587E+01 -0.71902430901E+01 -0.21902182310E+02  0.23520430690E+02  0.10566000000E+00 0.  1.
         22    1    1    0    0    0 -0.10310763756E+02  0.20053213678E+02  0.58276816904E+02  0.62487043590E+02  0.00000000000E+00 0. -1.
</event>
<event>
 4    1  0.9925048E-003  0.9118800E+02  0.7818608E-02  0.1130116E+00
         25   -1    0    0    0    0  0.00000000000E+00  0.00000000000E+00  0.99999998245E-14  0.12500000000E+03  0.12500000000E+03 0.  0.
        -13    1    1    0    0    0  0.20280057179E+02  0.24405192463E+02 -0.20871223308E+01  0.31800336193E+02  0.10566000000E+00 0. -1.
         13    1    1    0    0    0  0.16883128112E+02  0.25288259175E+02  0.61194991381E+01  0.31016052306E+02  0.10566000000E+00 0.  1.
         22    1    1    0    0    0 -0.37163185290E+02 -0.49693451638E+02 -0.40323768073E+01  0.62183611501E+02  0.00000000000E+00 0. -1.
</event>
<event>
 4    1  0.9925048E-003  0.9118800E+02  0.7818608E-02  0.1130116E+00
         25   -1    0    0    0    0  0.00000000000E+00  0.00000000000E+00  0.99999998245E-14  0.12500000000E+03  0.12500000000E+03 0.  0.
        -13    1    1    0    0    0 -0.92390100701E+00  0.95116592162E+01  0.20170716203E+01  0.97675481096E+01  0.10566000000E+00 0.  1.
         13    1    1    0    0    0  0.26437190563E+01  0.41234138781E+02  0.33562485694E+02  0.53232462478E+02  0.10566000000E+00 0. -1.
         22    1    1    0    0    0 -0.17198180493E+01 -0.50745797997E+02 -0.35579557315E+02  0.61999989413E+02  0.00000000000E+00 0. -1.
</event>
<event>
 4    1  0.9925048E-003  0.9118800E+02  0.7818608E-02  0.1130116E+00
         25   -1    0    0    0    0  0.00000000000E+00  0.00000000000E+00  0.99999998245E-14  0.12500000000E+03  0.12500000000E+03 0.  0.
        -13    1    1    0    0    0 -0.16295123541E+02  0.71405506347E+01 -0.11514956154E+02  0.21192543355E+02  0.10566000000E+00 0. -1.
         13    1    1    0    0    0 -0.20604169705E+02  0.24138950101E+02  0.37313300640E+02  0.48984837347E+02  0.10566000000E+00 0.  1.
         22    1    1    0    0    0  0.36899293247E+02 -0.31279500736E+02 -0.25798344486E+02  0.54822619297E+02  0.00000000000E+00 0. -1.
</event>
<event>
 4    1  0.9925048E-003  0.9118800E+02  0.7818608E-02  0.1130116E+00
         25   -1    0    0    0    0  0.00000000000E+00  0.00000000000E+00  0.99999998245E-14  0.12500000000E+03  0.12500000000E+03 0.  0.
        -13    1    1    0    0    0  0.30172414891E+01 -0.15122815666E+02  0.21789613989E+02  0.26694601358E+02  0.10566000000E+00 0. -1.
         13    1    1    0    0    0  0.20087465284E+02 -0.32176555863E+02  0.65923871905E+01  0.38500749884E+02  0.10566000000E+00 0.  1.
         22    1    1    0    0    0 -0.23104706773E+02  0.47299371529E+02 -0.28382001179E+02  0.59804648758E+02  0.00000000000E+00 0. -1.
</event>
<event>
 4    1  0.9925048E-003  0.9118800E+02  0.7818608E-02  0.1130116E+00
         25   -1    0    0    0    0  0.00000000000E+00  0.00000000000E+00  0.99999998245E-14  0.12500000000E+03  0.12500000000E+03 0.  0.
        -13    1    1    0    0    0  0.18404815009E+01  0.14453050683E+02 -0.36645104594E+02  0.39435426978E+02  0.10566000000E+00 0. -1.
         13    1    1    0    0    0  0.14344003148E+02  0.19340421660E+02 -0.97068606512E+01  0.25962215700E+02  0.10566000000E+00 0.  1.
         22    1    1    0    0    0 -0.16184484649E+02 -0.33793472342E+02  0.46351965245E+02  0.59602357323E+02  0.00000000000E+00 0. -1.
</event>
<event>
 4    1  0.9925048E-003  0.9118800E+02  0.7818608E-02  0.1130116E+00
         25   -1    0    0    0    0  0.00000000000E+00  0.00000000000E+00  0.99999998245E-14  0.12500000000E+03  0.12500000000E+03 0.  0.
        -13    1    1    0    0    0 -0.31219739156E+02  0.19076346986E+02 -0.31269233365E+02  0.48128528406E+02  0.10566000000E+00 0.  1.
         13    1    1    0    0    0 -0.94849552803E+01  0.60356981531E+01 -0.89582954272E+01  0.14375543463E+02  0.10566000000E+00 0. -1.
         22    1    1    0    0    0  0.40704694436E+02 -0.25112045139E+02  0.40227528792E+02  0.62495928131E+02  0.00000000000E+00 0.  1.
</event>
<event>
 4    1  0.9925048E-003  0.9118800E+02  0.7818608E-02  0.1130116E+00
         25   -1    0    0    0    0  0.00000000000E+00  0.00000000000E+00  0.99999998245E-14  0.12500000000E+03  0.12500000000E+03 0.  0.
        -13    1    1    0    0    0  0.15516643704E+02 -0.14706015596E+02 -0.43013401357E+02  0.48033290402E+02  0.10566000000E+00 0. -1.
         13    1    1    0    0    0  0.80601193065E+01 -0.60456620720E+01 -0.10729410890E+02  0.14718932543E+02  0.10566000000E+00 0.  1.
         22    1    1    0    0    0 -0.23576763011E+02  0.20751677668E+02  0.53742812247E+02  0.62247777055E+02  0.00000000000E+00 0. -1.
</event>
<event>
 4    1  0.9925048E-003  0.9118800E+02  0.7818608E-02  0.1130116E+00
         25   -1    0    0    0    0  0.00000000000E+00  0.00000000000E+00  0.99999998245E-14  0.12500000000E+03  0.12500000000E+03 0.  0.
        -13    1    1    0    0    0  0.12725432549E+02 -0.10250826226E+02 -0.58726616649E+00  0.16351517283E+02  0.10566000000E+00 0. -1.
         13    1    1    0    0    0  0.11517656207E+02  0.55549595373E+02 -0.50832172653E+01  0.56958442854E+02  0.10566000000E+00 0.  1.
         22    1    1    0    0    0 -0.24243088756E+02 -0.45298769147E+02  0.56704834318E+01  0.51690039863E+02  0.00000000000E+00 0.  1.
</event>
<event>
 4    1  0.9925048E-003  0.9118800E+02  0.7818608E-02  0.1130116E+00
         25   -1    0    0    0    0  0.00000000000E+00  0.00000000000E+00  0.99999998245E-14  0.12500000000E+03  0.12500000000E+03 0.  0.
        -13    1    1    0    0    0  0.35070946747E+02  0.17236151131E+02  0.16593544106E+02  0.42454835785E+02  0.10566000000E+00 0. -1.
         13    1    1    0    0    0  0.16535948262E+02  0.81823248477E+01  0.78369944093E+01  0.20045390249E+02  0.10566000000E+00 0. -1.
         22    1    1    0    0    0 -0.51606895009E+02 -0.25418475979E+02 -0.24430538515E+02  0.62499773965E+02  0.00000000000E+00 0. -1.
</event>
<event>
 4    1  0.9925048E-003  0.9118800E+02  0.7818608E-02  0.1130116E+00
         25   -1    0    0    0    0  0.00000000000E+00  0.00000000000E+00  0.99999998245E-14  0.12500000000E+03  0.12500000000E+03 0.  0.
        -13    1    1    0    0    0 -0.10845111645E+02  0.33536959327E+02 -0.10904368389E+02  0.36895263944E+02  0.10566000000E+00 0.  1.
         13    1    1    0    0    0 -0.72890311294E+01  0.23317734872E+02 -0.76664294453E+01  0.25605312707E+02  0.10566000000E+00 0. -1.
         22    1    1    0    0    0  0.18134142775E+02 -0.56854694199E+02  0.18570797834E+02  0.62499423348E+02  0.00000000000E+00 0.  1.
</event>
<event>
 4    1  0.9925048E-003  0.9118800E+02  0.7818608E-02  0.1130116E+00
         25   -1    0    0    0    0  0.00000000000E+00  0.00000000000E+00  0.99999998245E-14  0.12500000000E+03  0.12500000000E+03 0.  0.
        -13    1    1    0    0    0  0.57549401847E+01  0.38395448130E+01 -0.52329902679E+01  0.86750672666E+01  0.10566000000E+00 0.  1.
         13    1    1    0    0    0  0.52391746396E+02  0.14703359108E+02 -0.41594122473E+01  0.54574680336E+02  0.10566000000E+00 0. -1.
         22    1    1    0    0    0 -0.58146686581E+02 -0.18542903921E+02  0.93924025151E+01  0.61750252397E+02  0.00000000000E+00 0. -1.
</event>
<event>
 4    1  0.9925048E-003  0.9118800E+02  0.7818608E-02  0.1130116E+00
         25   -1    0    0    0    0  0.00000000000E+00  0.00000000000E+00  0.99999998245E-14  0.12500000000E+03  0.12500000000E+03 0.  0.
        -13    1    1    0    0    0 -0.48139268929E+02  0.11449582089E+02  0.37831347175E+02  0.62287271060E+02  0.10566000000E+00 0.  1.
         13    1    1    0    0    0  0.27283209775E+01 -0.11301211969E+01 -0.47340987201E+01  0.55806598179E+01  0.10566000000E+00 0. -1.
         22    1    1    0    0    0  0.45410947951E+02 -0.10319460892E+02 -0.33097248455E+02  0.57132069122E+02  0.00000000000E+00 0.  1.
</event>
<event>
 4    1  0.9925048E-003  0.9118800E+02  0.7818608E-02  0.1130116E+00
         25   -1    0    0    0    0  0.00000000000E+00  0.00000000000E+00  0.99999998245E-14  0.12500000000E+03  0.12500000000E+03 0.  0.
        -13    1    1    0    0    0  0.50843385275E+00 -0.18240181289E-01  0.50845882867E+00  0.72700213403E+00  0.10566000000E+00 0.  1.
         13    1    1    0    0    0 -0.88543274247E+01 -0.56328433758E+02 -0.25011938338E+02  0.62264755578E+02  0.10566000000E+00 0. -1.
         22    1    1    0    0    0  0.83458935719E+01  0.56346673939E+02  0.24503479509E+02  0.62008242288E+02  0.00000000000E+00 0. -1.
</event>
<event>
 4    1  0.9925048E-003  0.9118800E+02  0.7818608E-02  0.1130116E+00
         25   -1    0    0    0    0  0.00000000000E+00  0.00000000000E+00  0.99999998245E-14  0.12500000000E+03  0.12500000000E+03 0.  0.
        -13    1    1    0    0    0 -0.87131878412E+01  0.63702344934E+01  0.19977600976E+02  0.22707162629E+02  0.10566000000E+00 0. -1.
         13    1    1    0    0    0 -0.15272464819E+02  0.11717500855E+02  0.34827975144E+02  0.39793806359E+02  0.10566000000E+00 0. -1.
         22    1    1    0    0    0  0.23985652660E+02 -0.18087735349E+02 -0.54805576120E+02  0.62499031012E+02  0.00000000000E+00 0. -1.
</event>
<event>
 4    1  0.9925048E-003  0.9118800E+02  0.7818608E-02  0.1130116E+00
         25   -1    0    0    0    0  0.00000000000E+00  0.00000000000E+00  0.99999998245E-14  0.12500000000E+03  0.12500000000E+03 0.  0.
        -13    1    1    0    0    0 -0.80460804805E+01 -0.51106983875E+02  0.34752069901E+02  0.62324800348E+02  0.10566000000E+00 0. -1.
         13    1    1    0    0    0 -0.35414142881E+00  0.35639196080E-01 -0.86705913062E-01  0.38127189099E+00  0.10566000000E+00 0.  1.
         22    1    1    0    0    0  0.84002219093E+01  0.51071344679E+02 -0.34665363988E+02  0.62293927761E+02  0.00000000000E+00 0. -1.
</event>
<event>
 4    1  0.9925048E-003  0.9118800E+02  0.7818608E-02  0.1130116E+00
         25   -1    0    0    0    0  0.00000000000E+00  0.00000000000E+00  0.99999998245E-14  0.12500000000E+03  0.12500000000E+03 0.  0.
        -13    1    1    0    0    0  0.59665572923E+01 -0.32778154883E+01  0.40803982057E+01  0.79375496125E+01  0.10566000000E+00 0.  1.
         13    1    1    0    0    0  0.35253077128E+02 -0.24331559702E+02  0.33863721506E+02  0.54603727371E+02  0.10566000000E+00 0. -1.
         22    1    1    0    0    0 -0.41219634420E+02  0.27609375191E+02 -0.37944119712E+02  0.62458723017E+02  0.00000000000E+00 0. -1.
</event>
<event>
 4    1  0.9925048E-003  0.9118800E+02  0.7818608E-02  0.1130116E+00
         25   -1    0    0    0    0  0.00000000000E+00  0.00000000000E+00  0.99999998245E-14  0.12500000000E+03  0.12500000000E+03 0.  0.
        -13    1    1    0    0    0 -0.72904653113E+01  0.42604239007E+01  0.22723506691E+02  0.24241926834E+02  0.10566000000E+00 0.  1.
         13    1    1    0    0    0 -0.11624465977E+02  0.70745350214E+01  0.35756606185E+02  0.38258636998E+02  0.10566000000E+00 0. -1.
         22    1    1    0    0    0  0.18914931288E+02 -0.11334958922E+02 -0.58480112876E+02  0.62499436168E+02  0.00000000000E+00 0. -1.
</event>
<event>
 4    1  0.9925048E-003  0.9118800E+02  0.7818608E-02  0.1130116E+00
         25   -1    0    0    0    0  0.00000000000E+00  0.00000000000E+00  0.99999998245E-14  0.12500000000E+03  0.12500000000E+03 0.  0.
        -13    1    1    0    0    0 -0.16970473630E+02  0.14781623011E+02  0.40857572460E+02  0.46645961727E+02  0.10566000000E+00 0.  1.
         13    1    1    0    0    0 -0.24228087700E+01  0.13460510666E+02  0.10063652476E+02  0.16980683583E+02  0.10566000000E+00 0. -1.
         22    1    1    0    0    0  0.19393282400E+02 -0.28242133677E+02 -0.50921224936E+02  0.61373354690E+02  0.00000000000E+00 0.  1.
</event>
<event>
 4    1  0.9925048E-003  0.9118800E+02  0.7818608E-02  0.1130116E+00
         25   -1    0    0    0    0  0.00000000000E+00  0.00000000000E+00  0.99999998245E-14  0.12500000000E+03  0.12500000000E+03 0.  0.
        -13    1    1    0    0    0  0.11915258989E+02  0.35690506898E+01 -0.13549937173E+02  0.18393571731E+02  0.10566000000E+00 0. -1.
         13    1    1    0    0    0  0.28378828168E+02  0.89048819576E+01 -0.32569219357E+02  0.44106915835E+02  0.10566000000E+00 0. -1.
         22    1    1    0    0    0 -0.40294087157E+02 -0.12473932647E+02  0.46119156530E+02  0.62499512434E+02  0.00000000000E+00 0. -1.
</event>
<event>
 4    1  0.9925048E-003  0.9118800E+02  0.7818608E-02  0.1130116E+00
         25   -1    0    0    0    0  0.00000000000E+00  0.00000000000E+00  0.99999998245E-14  0.12500000000E+03  0.12500000000E+03 0.  0.
        -13    1    1    0    0    0 -0.47559992610E+01  0.23285624491E+00 -0.93354662111E+01  0.10480259749E+02  0.10566000000E+00 0. -1.
         13    1    1    0    0    0 -0.24553176408E+02  0.23622682558E+00 -0.45862033997E+02  0.52021645507E+02  0.10566000000E+00 0. -1.
         22    1    1    0    0    0  0.29309175669E+02 -0.46908307050E+00  0.55197500208E+02  0.62498094744E+02  0.00000000000E+00 0. -1.
</event>
<event>
 4    1  0.9925048E-003  0.9118800E+02  0.7818608E-02  0.1130116E+00
         25   -1    0    0    0    0  0.00000000000E+00  0.00000000000E+00  0.99999998245E-14  0.12500000000E+03  0.12500000000E+03 0.  0.
        -13    1    1    0    0    0  0.14814479959E+02  0.14630016273E+02  0.29558341660E+02  0.36155399574E+02  0.10566000000E+00 0.  1.
         13    1    1    0    0    0  0.12457882196E+01  0.12346683707E+01  0.27461969479E+02  0.27518127225E+02  0.10566000000E+00 0. -1.
         22    1    1    0    0    0 -0.16060268178E+02 -0.15864684643E+02 -0.57020311140E+02  0.61326473201E+02  0.00000000000E+00 0.  1.
</event>
<event>
 4    1  0.9925048E-003  0.9118800E+02  0.7818608E-02  0.1130116E+00
         25   -1    0    0    0    0  0.00000000000E+00  0.00000000000E+00  0.99999998245E-14  0.12500000000E+03  0.12500000000E+03 0.  0.
        -13    1    1    0    0    0  0.65087104393E+01 -0.17282912740E+02 -0.19953952502E+02  0.27188853761E+02  0.10566000000E+00 0. -1.
         13    1    1    0    0    0  0.60758681973E+01 -0.25077365034E+02 -0.24176085424E+02  0.35359364840E+02  0.10566000000E+00 0.  1.
         22    1    1    0    0    0 -0.12584578637E+02  0.42360277774E+02  0.44130037926E+02  0.62451781399E+02  0.00000000000E+00 0. -1.
</event>
<event>
 4    1  0.9925048E-003  0.9118800E+02  0.7818608E-02  0.1130116E+00
         25   -1    0    0    0    0  0.00000000000E+00  0.00000000000E+00  0.99999998245E-14  0.12500000000E+03  0.12500000000E+03 0.  0.
        -13    1    1    0    0    0  0.20304816487E+02  0.28448234507E+01 -0.32693917452E+02  0.38591216558E+02  0.10566000000E+00 0. -1.
         13    1    1    0    0    0  0.12378710263E+02  0.17892571409E+01 -0.20376730361E+02  0.23909333180E+02  0.10566000000E+00 0. -1.
         22    1    1    0    0    0 -0.32683526750E+02 -0.46340805916E+01  0.53070647813E+02  0.62499450262E+02  0.00000000000E+00 0. -1.
</event>
<event>
 4    1  0.9925048E-003  0.9118800E+02  0.7818608E-02  0.1130116E+00
         25   -1    0    0    0    0  0.00000000000E+00  0.00000000000E+00  0.99999998245E-14  0.12500000000E+03  0.12500000000E+03 0.  0.
        -13    1    1    0    0    0 -0.35715103954E+02 -0.23796617118E+01  0.19895771697E+02  0.40952220156E+02  0.10566000000E+00 0.  1.
         13    1    1    0    0    0 -0.22642184560E+02 -0.60337311556E+00 -0.11444854905E+01  0.22679364891E+02  0.10566000000E+00 0. -1.
         22    1    1    0    0    0  0.58357288514E+02  0.29830348273E+01 -0.18751286206E+02  0.61368414953E+02  0.00000000000E+00 0. -1.
</event>
<event>
 4    1  0.9925048E-003  0.9118800E+02  0.7818608E-02  0.1130116E+00
         25   -1    0    0    0    0  0.00000000000E+00  0.00000000000E+00  0.99999998245E-14  0.12500000000E+03  0.12500000000E+03 0.  0.
        -13    1    1    0    0    0  0.37644598489E+01 -0.75130287859E+01  0.15655117196E+01  0.85486110258E+01  0.10566000000E+00 0. -1.
         13    1    1    0    0    0  0.24218102929E+02 -0.47417815239E+02  0.87134310311E+01  0.53952764117E+02  0.10566000000E+00 0.  1.
         22    1    1    0    0    0 -0.27982562778E+02  0.54930844025E+02 -0.10278942751E+02  0.62498624857E+02  0.00000000000E+00 0.  1.
</event>
<event>
 4    1  0.9925048E-003  0.9118800E+02  0.7818608E-02  0.1130116E+00
         25   -1    0    0    0    0  0.00000000000E+00  0.00000000000E+00  0.99999998245E-14  0.12500000000E+03  0.12500000000E+03 0.  0.
        -13    1    1    0    0    0 -0.12949776919E+02  0.13914797340E+02  0.10701901869E+02  0.21814219558E+02  0.10566000000E+00 0. -1.
         13    1    1    0    0    0  0.44148461126E+02 -0.14434180551E+01  0.27716621465E+02  0.52147793289E+02  0.10566000000E+00 0.  1.
         22    1    1    0    0    0 -0.31198684207E+02 -0.12471379285E+02 -0.38418523334E+02  0.51037987153E+02  0.00000000000E+00 0.  1.
</event>
<event>
 4    1  0.9925048E-003  0.9118800E+02  0.7818608E-02  0.1130116E+00
         25   -1    0    0    0    0  0.00000000000E+00  0.00000000000E+00  0.99999998245E-14  0.12500000000E+03  0.12500000000E+03 0.  0.
        -13    1    1    0    0    0 -0.14760998197E+02 -0.18076941308E+02  0.30328207135E+02  0.38268448974E+02  0.10566000000E+00 0.  1.
         13    1    1    0    0    0 -0.93448371056E+01 -0.10985399361E+02  0.19474303063E+02  0.24233543354E+02  0.10566000000E+00 0. -1.
         22    1    1    0    0    0  0.24105835303E+02  0.29062340669E+02 -0.49802510199E+02  0.62498007671E+02  0.00000000000E+00 0. -1.
</event>
<event>
 4    1  0.9925048E-003  0.9118800E+02  0.7818608E-02  0.1130116E+00
         25   -1    0    0    0    0  0.00000000000E+00  0.00000000000E+00  0.99999998245E-14  0.12500000000E+03  0.12500000000E+03 0.  0.
        -13    1    1    0    0    0 -0.12597656860E+02 -0.98615789567E+01 -0.20232083471E+02  0.25793411242E+02  0.10566000000E+00 0.  1.
         13    1    1    0    0    0 -0.10331869939E+02 -0.32161499618E+02 -0.17692314734E+02  0.38133171371E+02  0.10566000000E+00 0. -1.
         22    1    1    0    0    0  0.22929526799E+02  0.42023078575E+02  0.37924398205E+02  0.61073417387E+02  0.00000000000E+00 0. -1.
</event>
<event>
 4    1  0.9925048E-003  0.9118800E+02  0.7818608E-02  0.1130116E+00
         25   -1    0    0    0    0  0.00000000000E+00  0.00000000000E+00  0.99999998245E-14  0.12500000000E+03  0.12500000000E+03 0.  0.
        -13    1    1    0    0    0  0.21080214678E+02 -0.32245733702E+02 -0.10918065480E+02  0.40042204119E+02  0.10566000000E+00 0.  1.
         13    1    1    0    0    0  0.76792735067E+01 -0.19137177919E+02 -0.94065993505E+01  0.22664908905E+02  0.10566000000E+00 0. -1.
         22    1    1    0    0    0 -0.28759488185E+02  0.51382911621E+02  0.20324664830E+02  0.62292886976E+02  0.00000000000E+00 0.  1.
</event>
<event>
 4    1  0.9925048E-003  0.9118800E+02  0.7818608E-02  0.1130116E+00
         25   -1    0    0    0    0  0.00000000000E+00  0.00000000000E+00  0.99999998245E-14  0.12500000000E+03  0.12500000000E+03 0.  0.
        -13    1    1    0    0    0  0.99019008892E+00 -0.12673269428E+01 -0.47829693452E+02  0.47856842078E+02  0.10566000000E+00 0.  1.
         13    1    1    0    0    0  0.16681962509E+00  0.24815856145E+00 -0.14645503774E+02  0.14648937036E+02  0.10566000000E+00 0. -1.
         22    1    1    0    0    0 -0.11570097140E+01  0.10191683814E+01  0.62475197226E+02  0.62494220885E+02  0.00000000000E+00 0.  1.
</event>
<event>
 4    1  0.9925048E-003  0.9118800E+02  0.7818608E-02  0.1130116E+00
         25   -1    0    0    0    0  0.00000000000E+00  0.00000000000E+00  0.99999998245E-14  0.12500000000E+03  0.12500000000E+03 0.  0.
        -13    1    1    0    0    0  0.14489140508E+02  0.32039740158E+02 -0.29787144176E+02  0.46084327751E+02  0.10566000000E+00 0.  1.
         13    1    1    0    0    0  0.48387427769E+01  0.11366925930E+02 -0.10812232941E+02  0.16417551034E+02  0.10566000000E+00 0. -1.
         22    1    1    0    0    0 -0.19327883285E+02 -0.43406666088E+02  0.40599377117E+02  0.62498121215E+02  0.00000000000E+00 0. -1.
</event>
<event>
 4    1  0.9925048E-003  0.9118800E+02  0.7818608E-02  0.1130116E+00
         25   -1    0    0    0    0  0.00000000000E+00  0.00000000000E+00  0.99999998245E-14  0.12500000000E+03  0.12500000000E+03 0.  0.
        -13    1    1    0    0    0 -0.22697081584E+02  0.31414538611E+02 -0.17420534563E+02  0.42491374855E+02  0.10566000000E+00 0. -1.
         13    1    1    0    0    0 -0.99785065502E+01  0.15701178889E+02 -0.74101289191E+01  0.20025453456E+02  0.10566000000E+00 0.  1.
         22    1    1    0    0    0  0.32675588134E+02 -0.47115717500E+02  0.24830663482E+02  0.62483171689E+02  0.00000000000E+00 0. -1.
</event>
<event>
 4    1  0.9925048E-003  0.9118800E+02  0.7818608E-02  0.1130116E+00
         25   -1    0    0    0    0  0.00000000000E+00  0.00000000000E+00  0.99999998245E-14  0.12500000000E+03  0.12500000000E+03 0.  0.
        -13    1    1    0    0    0  0.54260055676E+01  0.54695427045E+01 -0.14238351438E+01  0.78355538648E+01  0.10566000000E+00 0. -1.
         13    1    1    0    0    0  0.36524472980E+02  0.39648593293E+02 -0.90819887909E+01  0.54667556750E+02  0.10566000000E+00 0.  1.
         22    1    1    0    0    0 -0.41950478548E+02 -0.45118135997E+02  0.10505823935E+02  0.62496889385E+02  0.00000000000E+00 0.  1.
</event>
<event>
 4    1  0.9925048E-003  0.9118800E+02  0.7818608E-02  0.1130116E+00
         25   -1    0    0    0    0  0.00000000000E+00  0.00000000000E+00  0.99999998245E-14  0.12500000000E+03  0.12500000000E+03 0.  0.
        -13    1    1    0    0    0  0.10067770451E+02 -0.63864658243E+01 -0.72160112271E+01  0.13936603949E+02  0.10566000000E+00 0.  1.
         13    1    1    0    0    0  0.31554645089E+02 -0.22541757951E+02 -0.29289999412E+02  0.48597754143E+02  0.10566000000E+00 0. -1.
         22    1    1    0    0    0 -0.41622415539E+02  0.28928223775E+02  0.36506010639E+02  0.62465641907E+02  0.00000000000E+00 0. -1.
</event>
<event>
 4    1  0.9925048E-003  0.9118800E+02  0.7818608E-02  0.1130116E+00
         25   -1    0    0    0    0  0.00000000000E+00  0.00000000000E+00  0.99999998245E-14  0.12500000000E+03  0.12500000000E+03 0.  0.
        -13    1    1    0    0    0 -0.51989312960E+02 -0.22459216725E+02 -0.24868432165E+01  0.56687746746E+02  0.10566000000E+00 0.  1.
         13    1    1    0    0    0  0.17878235993E+02  0.54113475217E+01  0.19100762234E+02  0.26716367384E+02  0.10566000000E+00 0. -1.
         22    1    1    0    0    0  0.34111076967E+02  0.17047869203E+02 -0.16613919017E+02  0.41595885870E+02  0.00000000000E+00 0.  1.
</event>
<event>
 4    1  0.9925048E-003  0.9118800E+02  0.7818608E-02  0.1130116E+00
         25   -1    0    0    0    0  0.00000000000E+00  0.00000000000E+00  0.99999998245E-14  0.12500000000E+03  0.12500000000E+03 0.  0.
        -13    1    1    0    0    0  0.13276566949E+02  0.94519041087E+01 -0.14086316041E+01  0.16358518523E+02  0.10566000000E+00 0.  1.
         13    1    1    0    0    0  0.55140063627E+01  0.28451793243E+02  0.41326741138E+02  0.50475929927E+02  0.10566000000E+00 0. -1.
         22    1    1    0    0    0 -0.18790573312E+02 -0.37903697352E+02 -0.39918109534E+02  0.58165551550E+02  0.00000000000E+00 0. -1.
</event>
<event>
 4    1  0.9925048E-003  0.9118800E+02  0.7818608E-02  0.1130116E+00
         25   -1    0    0    0    0  0.00000000000E+00  0.00000000000E+00  0.99999998245E-14  0.12500000000E+03  0.12500000000E+03 0.  0.
        -13    1    1    0    0    0 -0.22197896248E+02 -0.20759615266E+01 -0.36088594957E+02  0.42419972467E+02  0.10566000000E+00 0. -1.
         13    1    1    0    0    0  0.10179938247E+02  0.10116749533E+02 -0.20022821410E+02  0.24635427844E+02  0.10566000000E+00 0.  1.
         22    1    1    0    0    0  0.12017958001E+02 -0.80407880067E+01  0.56111416367E+02  0.57944599688E+02  0.00000000000E+00 0.  1.
</event>
<event>
 4    1  0.9925048E-003  0.9118800E+02  0.7818608E-02  0.1130116E+00
         25   -1    0    0    0    0  0.00000000000E+00  0.00000000000E+00  0.99999998245E-14  0.12500000000E+03  0.12500000000E+03 0.  0.
        -13    1    1    0    0    0  0.10682146699E+02 -0.11114461917E+02 -0.29498867870E+02  0.33284138737E+02  0.10566000000E+00 0. -1.
         13    1    1    0    0    0  0.92027419721E+01 -0.94745210310E+01 -0.26060418782E+02  0.29216666471E+02  0.10566000000E+00 0. -1.
         22    1    1    0    0    0 -0.19884888671E+02  0.20588982948E+02  0.55559286652E+02  0.62499194792E+02  0.00000000000E+00 0. -1.
</event>
<event>
 4    1  0.9925048E-003  0.9118800E+02  0.7818608E-02  0.1130116E+00
         25   -1    0    0    0    0  0.00000000000E+00  0.00000000000E+00  0.99999998245E-14  0.12500000000E+03  0.12500000000E+03 0.  0.
        -13    1    1    0    0    0 -0.27082269997E+01 -0.47121841109E+01 -0.56122436696E+02  0.56385088785E+02  0.10566000000E+00 0. -1.
         13    1    1    0    0    0 -0.46110843111E+00 -0.42556095257E+00 -0.60835336235E+01  0.61167204034E+01  0.10566000000E+00 0.  1.
         22    1    1    0    0    0  0.31693354308E+01  0.51377450635E+01  0.62205970319E+02  0.62498190812E+02  0.00000000000E+00 0. -1.
</event>
<event>
 4    1  0.9925048E-003  0.9118800E+02  0.7818608E-02  0.1130116E+00
         25   -1    0    0    0    0  0.00000000000E+00  0.00000000000E+00  0.99999998245E-14  0.12500000000E+03  0.12500000000E+03 0.  0.
        -13    1    1    0    0    0  0.86122387631E+01 -0.33097187972E+02  0.35156405623E+02  0.49046697427E+02  0.10566000000E+00 0. -1.
         13    1    1    0    0    0  0.22316735964E+01 -0.91324330585E+01  0.96235955047E+01  0.13453863946E+02  0.10566000000E+00 0. -1.
         22    1    1    0    0    0 -0.10843912360E+02  0.42229621030E+02 -0.44780001128E+02  0.62499438627E+02  0.00000000000E+00 0. -1.
</event>
<event>
 4    1  0.9925048E-003  0.9118800E+02  0.7818608E-02  0.1130116E+00
         25   -1    0    0    0    0  0.00000000000E+00  0.00000000000E+00  0.99999998245E-14  0.12500000000E+03  0.12500000000E+03 0.  0.
        -13    1    1    0    0    0  0.41248688129E+01 -0.14105177663E+02  0.75720121377E+00  0.14715811134E+02  0.10566000000E+00 0.  1.
         13    1    1    0    0    0  0.13070151072E+02 -0.45905636769E+02  0.22808473093E+01  0.47784618495E+02  0.10566000000E+00 0.  1.
         22    1    1    0    0    0 -0.17195019885E+02  0.60010814432E+02 -0.30380485231E+01  0.62499570371E+02  0.00000000000E+00 0.  1.
</event>
<event>
 4    1  0.9925048E-003  0.9118800E+02  0.7818608E-02  0.1130116E+00
         25   -1    0    0    0    0  0.00000000000E+00  0.00000000000E+00  0.99999998245E-14  0.12500000000E+03  0.12500000000E+03 0.  0.
        -13    1    1    0    0    0  0.34662663381E+02  0.12370105601E+02 -0.29304335079E+02  0.47045456355E+02  0.10566000000E+00 0. -1.
         13    1    1    0    0    0  0.11432041157E+02  0.40346576836E+01 -0.95849299437E+01  0.15454839815E+02  0.10566000000E+00 0. -1.
         22    1    1    0    0    0 -0.46094704538E+02 -0.16404763285E+02  0.38889265023E+02  0.62499703830E+02  0.00000000000E+00 0. -1.
</event>
<event>
 4    1  0.9925048E-003  0.9118800E+02  0.7818608E-02  0.1130116E+00
         25   -1    0    0    0    0  0.00000000000E+00  0.00000000000E+00  0.99999998245E-14  0.12500000000E+03  0.12500000000E+03 0.  0.
        -13    1    1    0    0    0  0.81759012784E+01  0.94047782297E+01  0.29974610732E+02  0.32462034252E+02  0.10566000000E+00 0.  1.
         13    1    1    0    0    0  0.12451393293E+02 -0.11151894422E+02  0.27091367077E+02  0.31833241718E+02  0.10566000000E+00 0. -1.
         22    1    1    0    0    0 -0.20627294571E+02  0.17471161921E+01 -0.57065977808E+02  0.60704724030E+02  0.00000000000E+00 0.  1.
</event>
<event>
 4    1  0.9925048E-003  0.9118800E+02  0.7818608E-02  0.1130116E+00
         25   -1    0    0    0    0  0.00000000000E+00  0.00000000000E+00  0.99999998245E-14  0.12500000000E+03  0.12500000000E+03 0.  0.
        -13    1    1    0    0    0  0.70260990869E+01  0.10548795585E-01  0.15157799889E+01  0.71885278511E+01  0.10566000000E+00 0. -1.
         13    1    1    0    0    0  0.53398128004E+02  0.44334373653E+01  0.13775057698E+02  0.55324305869E+02  0.10566000000E+00 0. -1.
         22    1    1    0    0    0 -0.60424227091E+02 -0.44439861609E+01 -0.15290837687E+02  0.62487166280E+02  0.00000000000E+00 0. -1.
</event>
<event>
 4    1  0.9925048E-003  0.9118800E+02  0.7818608E-02  0.1130116E+00
         25   -1    0    0    0    0  0.00000000000E+00  0.00000000000E+00  0.99999998245E-14  0.12500000000E+03  0.12500000000E+03 0.  0.
        -13    1    1    0    0    0 -0.17228327255E+02  0.61423793748E+01 -0.54642414511E+01  0.19089609295E+02  0.10566000000E+00 0.  1.
         13    1    1    0    0    0 -0.40336002383E+02 -0.31133366770E+01  0.21854286406E+02  0.45981593620E+02  0.10566000000E+00 0. -1.
         22    1    1    0    0    0  0.57564329638E+02 -0.30290426978E+01 -0.16390044955E+02  0.59928797084E+02  0.00000000000E+00 0. -1.
</event>
<event>
 4    1  0.9925048E-003  0.9118800E+02  0.7818608E-02  0.1130116E+00
         25   -1    0    0    0    0  0.00000000000E+00  0.00000000000E+00  0.99999998245E-14  0.12500000000E+03  0.12500000000E+03 0.  0.
        -13    1    1    0    0    0  0.10408091635E+01  0.11816950265E+02 -0.84441435718E+00  0.11893182792E+02  0.10566000000E+00 0. -1.
         13    1    1    0    0    0  0.39021474018E+01  0.50469954538E+02  0.26035685246E+00  0.50621359278E+02  0.10566000000E+00 0.  1.
         22    1    1    0    0    0 -0.49429565653E+01 -0.62286904803E+02  0.58405750472E+00  0.62485457930E+02  0.00000000000E+00 0.  1.
</event>
<event>
 4    1  0.9925048E-003  0.9118800E+02  0.7818608E-02  0.1130116E+00
         25   -1    0    0    0    0  0.00000000000E+00  0.00000000000E+00  0.99999998245E-14  0.12500000000E+03  0.12500000000E+03 0.  0.
        -13    1    1    0    0    0 -0.29155553764E+02  0.17858540182E+01 -0.54058229525E+02  0.61445414257E+02  0.10566000000E+00 0. -1.
         13    1    1    0    0    0 -0.46021331692E+00 -0.13717044138E+00 -0.94385653650E+00  0.10642561835E+01  0.10566000000E+00 0. -1.
         22    1    1    0    0    0  0.29615767081E+02 -0.16486835768E+01  0.55002086061E+02  0.62490329559E+02  0.00000000000E+00 0. -1.
</event>
<event>
 4    1  0.9925048E-003  0.9118800E+02  0.7818608E-02  0.1130116E+00
         25   -1    0    0    0    0  0.00000000000E+00  0.00000000000E+00  0.99999998245E-14  0.12500000000E+03  0.12500000000E+03 0.  0.
        -13    1    1    0    0    0  0.21867809034E+02 -0.58543585225E+01 -0.72947809973E+01  0.23784439861E+02  0.10566000000E+00 0. -1.
         13    1    1    0    0    0  0.11383485563E+01 -0.53291746113E+01  0.50614427926E+02  0.50907046838E+02  0.10566000000E+00 0.  1.
         22    1    1    0    0    0 -0.23006157591E+02  0.11183533134E+02 -0.43319646929E+02  0.50308513300E+02  0.00000000000E+00 0.  1.
</event>
<event>
 4    1  0.9925048E-003  0.9118800E+02  0.7818608E-02  0.1130116E+00
         25   -1    0    0    0    0  0.00000000000E+00  0.00000000000E+00  0.99999998245E-14  0.12500000000E+03  0.12500000000E+03 0.  0.
        -13    1    1    0    0    0  0.99749990346E+01 -0.55256908873E+01  0.86334525247E+00  0.11436362821E+02  0.10566000000E+00 0.  1.
         13    1    1    0    0    0  0.50299770651E+02 -0.22185639675E+01  0.11268243401E+02  0.51594315840E+02  0.10566000000E+00 0. -1.
         22    1    1    0    0    0 -0.60274769686E+02  0.77442548548E+01 -0.12131588653E+02  0.61969321339E+02  0.00000000000E+00 0. -1.
</event>
<event>
 4    1  0.9925048E-003  0.9118800E+02  0.7818608E-02  0.1130116E+00
         25   -1    0    0    0    0  0.00000000000E+00  0.00000000000E+00  0.99999998245E-14  0.12500000000E+03  0.12500000000E+03 0.  0.
        -13    1    1    0    0    0  0.55518065656E+01  0.13900459249E+02 -0.11314219142E+02  0.18763476285E+02  0.10566000000E+00 0.  1.
         13    1    1    0    0    0  0.43488834299E+02 -0.53367059775E+01  0.29957360725E+02  0.53077431787E+02  0.10566000000E+00 0. -1.
         22    1    1    0    0    0 -0.49040640865E+02 -0.85637532717E+01 -0.18643141584E+02  0.53159091928E+02  0.00000000000E+00 0. -1.
</event>
<event>
 4    1  0.9925048E-003  0.9118800E+02  0.7818608E-02  0.1130116E+00
         25   -1    0    0    0    0  0.00000000000E+00  0.00000000000E+00  0.99999998245E-14  0.12500000000E+03  0.12500000000E+03 0.  0.
        -13    1    1    0    0    0 -0.10194827500E+01  0.81211310454E+01  0.21329363521E+01  0.84588826716E+01  0.10566000000E+00 0.  1.
         13    1    1    0    0    0 -0.11681527383E+02  0.52878870515E+02  0.86504169225E+00  0.54160802155E+02  0.10566000000E+00 0. -1.
         22    1    1    0    0    0  0.12701010133E+02 -0.61000001560E+02 -0.29979780443E+01  0.62380315173E+02  0.00000000000E+00 0. -1.
</event>
<event>
 4    1  0.9925048E-003  0.9118800E+02  0.7818608E-02  0.1130116E+00
         25   -1    0    0    0    0  0.00000000000E+00  0.00000000000E+00  0.99999998245E-14  0.12500000000E+03  0.12500000000E+03 0.  0.
        -13    1    1    0    0    0 -0.29331424007E+01  0.26252922611E+01  0.61748500076E+01  0.73236207200E+01  0.10566000000E+00 0.  1.
         13    1    1    0    0    0 -0.21425531134E+02  0.19036013895E+02  0.47150059524E+02  0.55177554192E+02  0.10566000000E+00 0. -1.
         22    1    1    0    0    0  0.24358673535E+02 -0.21661306157E+02 -0.53324909532E+02  0.62498825088E+02  0.00000000000E+00 0. -1.
</event>
<event>
 4    1  0.9925048E-003  0.9118800E+02  0.7818608E-02  0.1130116E+00
         25   -1    0    0    0    0  0.00000000000E+00  0.00000000000E+00  0.99999998245E-14  0.12500000000E+03  0.12500000000E+03 0.  0.
        -13    1    1    0    0    0 -0.23030427158E+01 -0.63992128434E+01 -0.78493822604E+01  0.10386428485E+02  0.10566000000E+00 0. -1.
         13    1    1    0    0    0 -0.94291508392E+01 -0.30912697047E+02 -0.40890414342E+02  0.52120445828E+02  0.10566000000E+00 0.  1.
         22    1    1    0    0    0  0.11732193555E+02  0.37311909890E+02  0.48739796602E+02  0.62493125687E+02  0.00000000000E+00 0.  1.
</event>
<event>
 4    1  0.9925048E-003  0.9118800E+02  0.7818608E-02  0.1130116E+00
         25   -1    0    0    0    0  0.00000000000E+00  0.00000000000E+00  0.99999998245E-14  0.12500000000E+03  0.12500000000E+03 0.  0.
        -13    1    1    0    0    0 -0.55675520365E+02 -0.60140781656E+00 -0.10702933839E+02  0.56698229391E+02  0.10566000000E+00 0. -1.
         13    1    1    0    0    0 -0.58103076843E+01  0.28782641305E+00 -0.35289019257E+00  0.58290835432E+01  0.10566000000E+00 0.  1.
         22    1    1    0    0    0  0.61485828049E+02  0.31358140351E+00  0.11055824031E+02  0.62472687066E+02  0.00000000000E+00 0.  1.
</event>
<event>
 4    1  0.9925048E-003  0.9118800E+02  0.7818608E-02  0.1130116E+00
         25   -1    0    0    0    0  0.00000000000E+00  0.00000000000E+00  0.99999998245E-14  0.12500000000E+03  0.12500000000E+03 0.  0.
        -13    1    1    0    0    0 -0.29188763757E+02 -0.28820715745E+02  0.30350778095E+02  0.51027428710E+02  0.10566000000E+00 0.  1.
         13    1    1    0    0    0 -0.69426284458E+01 -0.60056981755E+01  0.68920040683E+01  0.11479520218E+02  0.10566000000E+00 0. -1.
         22    1    1    0    0    0  0.36131392203E+02  0.34826413921E+02 -0.37242782163E+02  0.62493051073E+02  0.00000000000E+00 0.  1.
</event>
<event>
 4    1  0.9925048E-003  0.9118800E+02  0.7818608E-02  0.1130116E+00
         25   -1    0    0    0    0  0.00000000000E+00  0.00000000000E+00  0.99999998245E-14  0.12500000000E+03  0.12500000000E+03 0.  0.
        -13    1    1    0    0    0 -0.68263381047E+01 -0.25194376310E+02 -0.41670851511E+02  0.49171399403E+02  0.10566000000E+00 0.  1.
         13    1    1    0    0    0 -0.18654605262E+01 -0.64880372995E+01 -0.11494977789E+02  0.13331175844E+02  0.10566000000E+00 0. -1.
         22    1    1    0    0    0  0.86917986309E+01  0.31682413610E+02  0.53165829300E+02  0.62497424753E+02  0.00000000000E+00 0.  1.
</event>
<event>
 4    1  0.9925048E-003  0.9118800E+02  0.7818608E-02  0.1130116E+00
         25   -1    0    0    0    0  0.00000000000E+00  0.00000000000E+00  0.99999998245E-14  0.12500000000E+03  0.12500000000E+03 0.  0.
        -13    1    1    0    0    0  0.38136427315E+02 -0.65539966150E+01 -0.45733687907E+02  0.59907623334E+02  0.10566000000E+00 0.  1.
         13    1    1    0    0    0  0.23863671293E+01 -0.41096981822E+00 -0.11923344143E+01  0.27011978192E+01  0.10566000000E+00 0. -1.
         22    1    1    0    0    0 -0.40522794445E+02  0.69649664332E+01  0.46926022321E+02  0.62391178847E+02  0.00000000000E+00 0.  1.
</event>
<event>
 4    1  0.9925048E-003  0.9118800E+02  0.7818608E-02  0.1130116E+00
         25   -1    0    0    0    0  0.00000000000E+00  0.00000000000E+00  0.99999998245E-14  0.12500000000E+03  0.12500000000E+03 0.  0.
        -13    1    1    0    0    0 -0.25472559240E+02  0.78957441800E+01  0.48874598278E+02  0.55677029117E+02  0.10566000000E+00 0. -1.
         13    1    1    0    0    0 -0.32216878940E+01  0.69831498577E+00  0.59764504243E+01  0.68261292410E+01  0.10566000000E+00 0.  1.
         22    1    1    0    0    0  0.28694247134E+02 -0.85940591658E+01 -0.54851048702E+02  0.62496841642E+02  0.00000000000E+00 0. -1.
</event>
<event>
 4    1  0.9925048E-003  0.9118800E+02  0.7818608E-02  0.1130116E+00
         25   -1    0    0    0    0  0.00000000000E+00  0.00000000000E+00  0.99999998245E-14  0.12500000000E+03  0.12500000000E+03 0.  0.
        -13    1    1    0    0    0 -0.15104660160E+02 -0.31819844155E+02  0.67440826116E+01  0.35862892450E+02  0.10566000000E+00 0.  1.
         13    1    1    0    0    0 -0.12721550026E+02 -0.23025928080E+02  0.42901387180E+01  0.26654223929E+02  0.10566000000E+00 0. -1.
         22    1    1    0    0    0  0.27826210186E+02  0.54845772234E+02 -0.11034221330E+02  0.62482883621E+02  0.00000000000E+00 0.  1.
</event>
<event>
 4    1  0.9925048E-003  0.9118800E+02  0.7818608E-02  0.1130116E+00
         25   -1    0    0    0    0  0.00000000000E+00  0.00000000000E+00  0.99999998245E-14  0.12500000000E+03  0.12500000000E+03 0.  0.
        -13    1    1    0    0    0 -0.16538027268E+02  0.31143766366E+02  0.10262221840E+02  0.36725534584E+02  0.10566000000E+00 0.  1.
         13    1    1    0    0    0 -0.11650752222E+02  0.21702373050E+02  0.75921453665E+01  0.25775664078E+02  0.10566000000E+00 0. -1.
         22    1    1    0    0    0  0.28188779490E+02 -0.52846139416E+02 -0.17854367207E+02  0.62498801338E+02  0.00000000000E+00 0.  1.
</event>
<event>
 4    1  0.9925048E-003  0.9118800E+02  0.7818608E-02  0.1130116E+00
         25   -1    0    0    0    0  0.00000000000E+00  0.00000000000E+00  0.99999998245E-14  0.12500000000E+03  0.12500000000E+03 0.  0.
        -13    1    1    0    0    0  0.35173576115E+02 -0.82873657787E+01  0.24239859541E+02  0.43513708677E+02  0.10566000000E+00 0.  1.
         13    1    1    0    0    0  0.15236461948E+02 -0.38097854565E+01  0.10669217692E+02  0.18987037897E+02  0.10566000000E+00 0. -1.
         22    1    1    0    0    0 -0.50410038063E+02  0.12097151235E+02 -0.34909077233E+02  0.62499253426E+02  0.00000000000E+00 0.  1.
</event>
<event>
 4    1  0.9925048E-003  0.9118800E+02  0.7818608E-02  0.1130116E+00
         25   -1    0    0    0    0  0.00000000000E+00  0.00000000000E+00  0.99999998245E-14  0.12500000000E+03  0.12500000000E+03 0.  0.
        -13    1    1    0    0    0  0.25577235520E+02 -0.58539402055E+01 -0.55467806419E+02  0.61360836906E+02  0.10566000000E+00 0. -1.
         13    1    1    0    0    0  0.36373949317E-01 -0.25783356455E+00 -0.11571664704E+01  0.11907978363E+01  0.10566000000E+00 0.  1.
         22    1    1    0    0    0 -0.25613609470E+02  0.61117737700E+01  0.56624972889E+02  0.62448365258E+02  0.00000000000E+00 0. -1.
</event>
<event>
 4    1  0.9925048E-003  0.9118800E+02  0.7818608E-02  0.1130116E+00
         25   -1    0    0    0    0  0.00000000000E+00  0.00000000000E+00  0.99999998245E-14  0.12500000000E+03  0.12500000000E+03 0.  0.
        -13    1    1    0    0    0  0.11041967333E+02  0.52312950287E+00  0.14462223107E+02  0.18203454845E+02  0.10566000000E+00 0.  1.
         13    1    1    0    0    0  0.26503229803E+02  0.44122389039E+00  0.35492385716E+02  0.44298267194E+02  0.10566000000E+00 0.  1.
         22    1    1    0    0    0 -0.37545197136E+02 -0.96435339326E+00 -0.49954608823E+02  0.62498277961E+02  0.00000000000E+00 0.  1.
</event>
<event>
 4    1  0.9925048E-003  0.9118800E+02  0.7818608E-02  0.1130116E+00
         25   -1    0    0    0    0  0.00000000000E+00  0.00000000000E+00  0.99999998245E-14  0.12500000000E+03  0.12500000000E+03 0.  0.
        -13    1    1    0    0    0  0.13902648150E+02 -0.13888683487E+02  0.32606560445E+01  0.19920396493E+02  0.10566000000E+00 0.  1.
         13    1    1    0    0    0  0.29453538079E+02 -0.29834428112E+02  0.74482207375E+01  0.42580408198E+02  0.10566000000E+00 0. -1.
         22    1    1    0    0    0 -0.43356186229E+02  0.43723111599E+02 -0.10708876782E+02  0.62499195308E+02  0.00000000000E+00 0. -1.
</event>
<event>
 4    1  0.9925048E-003  0.9118800E+02  0.7818608E-02  0.1130116E+00
         25   -1    0    0    0    0  0.00000000000E+00  0.00000000000E+00  0.99999998245E-14  0.12500000000E+03  0.12500000000E+03 0.  0.
        -13    1    1    0    0    0  0.83112445328E+01  0.10185195262E+02  0.28058170256E+02  0.30985271830E+02  0.10566000000E+00 0.  1.
         13    1    1    0    0    0  0.30068835771E+02  0.18187326679E+02  0.56366216469E+01  0.35590678611E+02  0.10566000000E+00 0. -1.
         22    1    1    0    0    0 -0.38380080304E+02 -0.28372521941E+02 -0.33694791903E+02  0.58424049559E+02  0.00000000000E+00 0. -1.
</event>
<event>
 4    1  0.9925048E-003  0.9118800E+02  0.7818608E-02  0.1130116E+00
         25   -1    0    0    0    0  0.00000000000E+00  0.00000000000E+00  0.99999998245E-14  0.12500000000E+03  0.12500000000E+03 0.  0.
        -13    1    1    0    0    0  0.73165151414E+01 -0.91354831987E+01  0.26241892429E+00  0.11707624644E+02  0.10566000000E+00 0. -1.
         13    1    1    0    0    0  0.34912996310E+02  0.32249434687E+02  0.30210365651E+02  0.56317143977E+02  0.10566000000E+00 0.  1.
         22    1    1    0    0    0 -0.42229511452E+02 -0.23113951488E+02 -0.30472784575E+02  0.56975231378E+02  0.00000000000E+00 0.  1.
</event>
<event>
 4    1  0.9925048E-003  0.9118800E+02  0.7818608E-02  0.1130116E+00
         25   -1    0    0    0    0  0.00000000000E+00  0.00000000000E+00  0.99999998245E-14  0.12500000000E+03  0.12500000000E+03 0.  0.
        -13    1    1    0    0    0  0.70978130523E+01 -0.87209321188E+01  0.25923321246E+01  0.11539712173E+02  0.10566000000E+00 0. -1.
         13    1    1    0    0    0  0.29283018211E+02 -0.40195400101E+02  0.11156450231E+02  0.50967076536E+02  0.10566000000E+00 0.  1.
         22    1    1    0    0    0 -0.36380831264E+02  0.48916332220E+02 -0.13748782355E+02  0.62493211291E+02  0.00000000000E+00 0.  1.
</event>
<event>
 4    1  0.9925048E-003  0.9118800E+02  0.7818608E-02  0.1130116E+00
         25   -1    0    0    0    0  0.00000000000E+00  0.00000000000E+00  0.99999998245E-14  0.12500000000E+03  0.12500000000E+03 0.  0.
        -13    1    1    0    0    0  0.12035110663E+02  0.79443054004E+01  0.11751564487E+02  0.18602857546E+02  0.10566000000E+00 0.  1.
         13    1    1    0    0    0  0.28445432333E+02  0.18627174993E+02  0.27764276234E+02  0.43897385659E+02  0.10566000000E+00 0.  1.
         22    1    1    0    0    0 -0.40480542996E+02 -0.26571480394E+02 -0.39515840721E+02  0.62499756795E+02  0.00000000000E+00 0.  1.
</event>
<event>
 4    1  0.9925048E-003  0.9118800E+02  0.7818608E-02  0.1130116E+00
         25   -1    0    0    0    0  0.00000000000E+00  0.00000000000E+00  0.99999998245E-14  0.12500000000E+03  0.12500000000E+03 0.  0.
        -13    1    1    0    0    0 -0.20781342220E+02  0.24611977452E+02 -0.82123317489E+01  0.33242550675E+02  0.10566000000E+00 0.  1.
         13    1    1    0    0    0 -0.18628078590E+02  0.21394589627E+02 -0.71634019359E+01  0.29258490539E+02  0.10566000000E+00 0. -1.
         22    1    1    0    0    0  0.39409420810E+02 -0.46006567080E+02  0.15375733685E+02  0.62498958786E+02  0.00000000000E+00 0.  1.
</event>
<event>
 4    1  0.9925048E-003  0.9118800E+02  0.7818608E-02  0.1130116E+00
         25   -1    0    0    0    0  0.00000000000E+00  0.00000000000E+00  0.99999998245E-14  0.12500000000E+03  0.12500000000E+03 0.  0.
        -13    1    1    0    0    0 -0.63265843035E+01 -0.20906792131E+02 -0.23190418285E+02  0.31857907816E+02  0.10566000000E+00 0. -1.
         13    1    1    0    0    0 -0.29637378418E+02 -0.11504772444E+02 -0.11254165128E+02  0.33725381914E+02  0.10566000000E+00 0.  1.
         22    1    1    0    0    0  0.35963962721E+02  0.32411564575E+02  0.34444583413E+02  0.59416710270E+02  0.00000000000E+00 0.  1.
</event>
<event>
 4    1  0.9925048E-003  0.9118800E+02  0.7818608E-02  0.1130116E+00
         25   -1    0    0    0    0  0.00000000000E+00  0.00000000000E+00  0.99999998245E-14  0.12500000000E+03  0.12500000000E+03 0.  0.
        -13    1    1    0    0    0 -0.29673898469E+02 -0.34426278390E+02  0.26531851229E+02  0.52627551604E+02  0.10566000000E+00 0.  1.
         13    1    1    0    0    0 -0.55399582221E+01 -0.66208336228E+01  0.47916661750E+01  0.98740976161E+01  0.10566000000E+00 0.  1.
         22    1    1    0    0    0  0.35213856691E+02  0.41047112013E+02 -0.31323517404E+02  0.62498350780E+02  0.00000000000E+00 0.  1.
</event>
<event>
 4    1  0.9925048E-003  0.9118800E+02  0.7818608E-02  0.1130116E+00
         25   -1    0    0    0    0  0.00000000000E+00  0.00000000000E+00  0.99999998245E-14  0.12500000000E+03  0.12500000000E+03 0.  0.
        -13    1    1    0    0    0  0.58708588524E+00  0.10022985383E+01 -0.23018759412E+01  0.25805172118E+01  0.10566000000E+00 0. -1.
         13    1    1    0    0    0  0.17919796153E+02  0.20249935954E+02 -0.53477637689E+02  0.59925352708E+02  0.10566000000E+00 0.  1.
         22    1    1    0    0    0 -0.18506882038E+02 -0.21252234492E+02  0.55779513630E+02  0.62494130080E+02  0.00000000000E+00 0.  1.
</event>
<event>
 4    1  0.9925048E-003  0.9118800E+02  0.7818608E-02  0.1130116E+00
         25   -1    0    0    0    0  0.00000000000E+00  0.00000000000E+00  0.99999998245E-14  0.12500000000E+03  0.12500000000E+03 0.  0.
        -13    1    1    0    0    0 -0.19435993225E+02 -0.32886312823E+01 -0.21220867387E+02  0.28963931105E+02  0.10566000000E+00 0. -1.
         13    1    1    0    0    0 -0.22288317834E+02 -0.43850506466E+01 -0.24673091732E+02  0.33537596823E+02  0.10566000000E+00 0.  1.
         22    1    1    0    0    0  0.41724311059E+02  0.76736819289E+01  0.45893959119E+02  0.62498472072E+02  0.00000000000E+00 0. -1.
</event>
<event>
 4    1  0.9925048E-003  0.9118800E+02  0.7818608E-02  0.1130116E+00
         25   -1    0    0    0    0  0.00000000000E+00  0.00000000000E+00  0.99999998245E-14  0.12500000000E+03  0.12500000000E+03 0.  0.
        -13    1    1    0    0    0 -0.15400575750E+02 -0.96894132636E+01 -0.23240606220E+01  0.18343251746E+02  0.10566000000E+00 0.  1.
         13    1    1    0    0    0 -0.36832804904E+02 -0.23763080255E+02 -0.53416117097E+01  0.44157484983E+02  0.10566000000E+00 0. -1.
         22    1    1    0    0    0  0.52233380654E+02  0.33452493518E+02  0.76656723317E+01  0.62499263271E+02  0.00000000000E+00 0. -1.
</event>
<event>
 4    1  0.9925048E-003  0.9118800E+02  0.7818608E-02  0.1130116E+00
         25   -1    0    0    0    0  0.00000000000E+00  0.00000000000E+00  0.99999998245E-14  0.12500000000E+03  0.12500000000E+03 0.  0.
        -13    1    1    0    0    0  0.11364180046E+02  0.71086724317E+01 -0.11324829713E+02  0.17548240479E+02  0.10566000000E+00 0. -1.
         13    1    1    0    0    0  0.49766446515E+01  0.24892422908E+02 -0.38443084582E+02  0.46068227950E+02  0.10566000000E+00 0.  1.
         22    1    1    0    0    0 -0.16340824697E+02 -0.32001095340E+02  0.49767914295E+02  0.61383531570E+02  0.00000000000E+00 0.  1.
</event>
<event>
 4    1  0.9925048E-003  0.9118800E+02  0.7818608E-02  0.1130116E+00
         25   -1    0    0    0    0  0.00000000000E+00  0.00000000000E+00  0.99999998245E-14  0.12500000000E+03  0.12500000000E+03 0.  0.
        -13    1    1    0    0    0  0.15834420032E+02 -0.92043831355E+01  0.50900003741E+02  0.54095018916E+02  0.10566000000E+00 0.  1.
         13    1    1    0    0    0  0.32958519776E+01 -0.11669026252E+01  0.76663218363E+01  0.84266218930E+01  0.10566000000E+00 0. -1.
         22    1    1    0    0    0 -0.19130272010E+02  0.10371285761E+02 -0.58566325578E+02  0.62478359191E+02  0.00000000000E+00 0.  1.
</event>
<event>
 4    1  0.9925048E-003  0.9118800E+02  0.7818608E-02  0.1130116E+00
         25   -1    0    0    0    0  0.00000000000E+00  0.00000000000E+00  0.99999998245E-14  0.12500000000E+03  0.12500000000E+03 0.  0.
        -13    1    1    0    0    0  0.23648279013E+01  0.64758245632E+01 -0.44765482688E+00  0.69094336712E+01  0.10566000000E+00 0.  1.
         13    1    1    0    0    0 -0.43034970028E+02  0.39322961776E+01  0.41110490503E+02  0.59645244504E+02  0.10566000000E+00 0. -1.
         22    1    1    0    0    0  0.40670142126E+02 -0.10408120741E+02 -0.40662835676E+02  0.58445321825E+02  0.00000000000E+00 0. -1.
</event>
<event>
 4    1  0.9925048E-003  0.9118800E+02  0.7818608E-02  0.1130116E+00
         25   -1    0    0    0    0  0.00000000000E+00  0.00000000000E+00  0.99999998245E-14  0.12500000000E+03  0.12500000000E+03 0.  0.
        -13    1    1    0    0    0  0.19109002675E+02 -0.62740679830E+00 -0.16579095273E+02  0.25306623375E+02  0.10566000000E+00 0. -1.
         13    1    1    0    0    0  0.28044595262E+02 -0.11392367129E+01 -0.24404156635E+02  0.37193698509E+02  0.10566000000E+00 0. -1.
         22    1    1    0    0    0 -0.47153597937E+02  0.17666435112E+01  0.40983251908E+02  0.62499678116E+02  0.00000000000E+00 0. -1.
</event>
<event>
 4    1  0.9925048E-003  0.9118800E+02  0.7818608E-02  0.1130116E+00
         25   -1    0    0    0    0  0.00000000000E+00  0.00000000000E+00  0.99999998245E-14  0.12500000000E+03  0.12500000000E+03 0.  0.
        -13    1    1    0    0    0 -0.84563158553E+01 -0.17488436168E+02 -0.52744884001E+01  0.20129234198E+02  0.10566000000E+00 0. -1.
         13    1    1    0    0    0 -0.18453060561E+02 -0.35782350245E+02 -0.13242854811E+02  0.42382501114E+02  0.10566000000E+00 0.  1.
         22    1    1    0    0    0  0.26909376417E+02  0.53270786413E+02  0.18517343211E+02  0.62488264688E+02  0.00000000000E+00 0.  1.
</event>
<event>
 4    1  0.9925048E-003  0.9118800E+02  0.7818608E-02  0.1130116E+00
         25   -1    0    0    0    0  0.00000000000E+00  0.00000000000E+00  0.99999998245E-14  0.12500000000E+03  0.12500000000E+03 0.  0.
        -13    1    1    0    0    0 -0.22607104391E+02 -0.34865755410E+01  0.45110348108E+02  0.50578573017E+02  0.10566000000E+00 0.  1.
         13    1    1    0    0    0 -0.53430869821E+01 -0.82638137657E+00  0.10624725389E+02  0.11921721281E+02  0.10566000000E+00 0.  1.
         22    1    1    0    0    0  0.27950191373E+02  0.43129569176E+01 -0.55735073497E+02  0.62499705702E+02  0.00000000000E+00 0.  1.
</event>
<event>
 4    1  0.9925048E-003  0.9118800E+02  0.7818608E-02  0.1130116E+00
         25   -1    0    0    0    0  0.00000000000E+00  0.00000000000E+00  0.99999998245E-14  0.12500000000E+03  0.12500000000E+03 0.  0.
        -13    1    1    0    0    0  0.23660305687E+02 -0.39418610881E+02 -0.18782987205E+02  0.49663353908E+02  0.10566000000E+00 0.  1.
         13    1    1    0    0    0  0.49535676272E+01 -0.10654680440E+02 -0.52340794619E+01  0.12863389886E+02  0.10566000000E+00 0. -1.
         22    1    1    0    0    0 -0.28613873314E+02  0.50073291321E+02  0.24017066666E+02  0.62473256206E+02  0.00000000000E+00 0.  1.
</event>
<event>
 4    1  0.9925048E-003  0.9118800E+02  0.7818608E-02  0.1130116E+00
         25   -1    0    0    0    0  0.00000000000E+00  0.00000000000E+00  0.99999998245E-14  0.12500000000E+03  0.12500000000E+03 0.  0.
        -13    1    1    0    0    0 -0.18426889060E+01 -0.48336527711E+01 -0.11591959486E+02  0.12694266039E+02  0.10566000000E+00 0.  1.
         13    1    1    0    0    0  0.32803047972E+02  0.20049537429E+02 -0.36572107176E+02  0.53061795057E+02  0.10566000000E+00 0. -1.
         22    1    1    0    0    0 -0.30960359066E+02 -0.15215884658E+02  0.48164066662E+02  0.59243938904E+02  0.00000000000E+00 0. -1.
</event>
<event>
 4    1  0.9925048E-003  0.9118800E+02  0.7818608E-02  0.1130116E+00
         25   -1    0    0    0    0  0.00000000000E+00  0.00000000000E+00  0.99999998245E-14  0.12500000000E+03  0.12500000000E+03 0.  0.
        -13    1    1    0    0    0  0.29678780632E+02  0.20774377117E+02  0.72970284162E+01  0.36954871833E+02  0.10566000000E+00 0. -1.
         13    1    1    0    0    0  0.21068133277E+02  0.97531083906E+01  0.11504907574E+02  0.25910681685E+02  0.10566000000E+00 0.  1.
         22    1    1    0    0    0 -0.50746913909E+02 -0.30527485508E+02 -0.18801935990E+02  0.62134446483E+02  0.00000000000E+00 0. -1.
</event>
<event>
 4    1  0.9925048E-003  0.9118800E+02  0.7818608E-02  0.1130116E+00
         25   -1    0    0    0    0  0.00000000000E+00  0.00000000000E+00  0.99999998245E-14  0.12500000000E+03  0.12500000000E+03 0.  0.
        -13    1    1    0    0    0 -0.10730012913E+02 -0.90503492529E+01 -0.67559096618E+01  0.15578686662E+02  0.10566000000E+00 0.  1.
         13    1    1    0    0    0 -0.22868833354E+02 -0.34011265723E+02 -0.23232509190E+02  0.47111679893E+02  0.10566000000E+00 0. -1.
         22    1    1    0    0    0  0.33598846267E+02  0.43061614975E+02  0.29988418852E+02  0.62309633445E+02  0.00000000000E+00 0. -1.
</event>
<event>
 4    1  0.9925048E-003  0.9118800E+02  0.7818608E-02  0.1130116E+00
         25   -1    0    0    0    0  0.00000000000E+00  0.00000000000E+00  0.99999998245E-14  0.12500000000E+03  0.12500000000E+03 0.  0.
        -13    1    1    0    0    0  0.57673539816E+00 -0.78153887787E+01  0.23554479713E+02  0.24824133501E+02  0.10566000000E+00 0.  1.
         13    1    1    0    0    0 -0.93035671906E+01 -0.71711543433E+01  0.36146319899E+02  0.38007228568E+02  0.10566000000E+00 0. -1.
         22    1    1    0    0    0  0.87268317924E+01  0.14986543122E+02 -0.59700799613E+02  0.62168637931E+02  0.00000000000E+00 0. -1.
</event>
<event>
 4    1  0.9925048E-003  0.9118800E+02  0.7818608E-02  0.1130116E+00
         25   -1    0    0    0    0  0.00000000000E+00  0.00000000000E+00  0.99999998245E-14  0.12500000000E+03  0.12500000000E+03 0.  0.
        -13    1    1    0    0    0 -0.31401860459E+02  0.15136821438E+02  0.58075355951E+01  0.35340328766E+02  0.10566000000E+00 0. -1.
         13    1    1    0    0    0 -0.19880268221E+02  0.16186893120E+02 -0.13673119813E+02  0.29055222299E+02  0.10566000000E+00 0.  1.
         22    1    1    0    0    0  0.51282128680E+02 -0.31323714558E+02  0.78655842175E+01  0.60604448935E+02  0.00000000000E+00 0.  1.
</event>
<event>
 4    1  0.9925048E-003  0.9118800E+02  0.7818608E-02  0.1130116E+00
         25   -1    0    0    0    0  0.00000000000E+00  0.00000000000E+00  0.99999998245E-14  0.12500000000E+03  0.12500000000E+03 0.  0.
        -13    1    1    0    0    0  0.17090350412E+02 -0.69932932299E+01 -0.52343264678E+02  0.55505087592E+02  0.10566000000E+00 0. -1.
         13    1    1    0    0    0  0.20693647872E+01 -0.90955370121E+00 -0.66195254488E+01  0.69956300475E+01  0.10566000000E+00 0. -1.
         22    1    1    0    0    0 -0.19159715199E+02  0.79028469311E+01  0.58962790127E+02  0.62499282361E+02  0.00000000000E+00 0. -1.
</event>
<event>
 4    1  0.9925048E-003  0.9118800E+02  0.7818608E-02  0.1130116E+00
         25   -1    0    0    0    0  0.00000000000E+00  0.00000000000E+00  0.99999998245E-14  0.12500000000E+03  0.12500000000E+03 0.  0.
        -13    1    1    0    0    0 -0.37157384590E+02  0.34192665370E+02  0.35016868688E+02  0.61449181048E+02  0.10566000000E+00 0.  1.
         13    1    1    0    0    0 -0.15933422019E+01 -0.15595636418E+01 -0.62140883930E+00  0.23169572949E+01  0.10566000000E+00 0. -1.
         22    1    1    0    0    0  0.38750726792E+02 -0.32633101728E+02 -0.34395459849E+02  0.61233861658E+02  0.00000000000E+00 0.  1.
</event>
<event>
 4    1  0.9925048E-003  0.9118800E+02  0.7818608E-02  0.1130116E+00
         25   -1    0    0    0    0  0.00000000000E+00  0.00000000000E+00  0.99999998245E-14  0.12500000000E+03  0.12500000000E+03 0.  0.
        -13    1    1    0    0    0 -0.10994061352E+01 -0.15871561674E+01 -0.75048523441E+00  0.20741626437E+01  0.10566000000E+00 0. -1.
         13    1    1    0    0    0 -0.23126912055E+02 -0.42434867496E+02 -0.36344228166E+02  0.60468885599E+02  0.10566000000E+00 0.  1.
         22    1    1    0    0    0  0.24226318190E+02  0.44022023664E+02  0.37094713400E+02  0.62456951757E+02  0.00000000000E+00 0.  1.
</event>
<event>
 4    1  0.9925048E-003  0.9118800E+02  0.7818608E-02  0.1130116E+00
         25   -1    0    0    0    0  0.00000000000E+00  0.00000000000E+00  0.99999998245E-14  0.12500000000E+03  0.12500000000E+03 0.  0.
        -13    1    1    0    0    0  0.45249252327E+01  0.25569695297E+01  0.84017622069E+01  0.98799703316E+01  0.10566000000E+00 0. -1.
         13    1    1    0    0    0  0.25141839781E+02  0.13952224867E+02  0.44070918263E+02  0.52621608555E+02  0.10566000000E+00 0.  1.
         22    1    1    0    0    0 -0.29666765013E+02 -0.16509194397E+02 -0.52472680470E+02  0.62498421114E+02  0.00000000000E+00 0.  1.
</event>
<event>
 4    1  0.9925048E-003  0.9118800E+02  0.7818608E-02  0.1130116E+00
         25   -1    0    0    0    0  0.00000000000E+00  0.00000000000E+00  0.99999998245E-14  0.12500000000E+03  0.12500000000E+03 0.  0.
        -13    1    1    0    0    0  0.61946374023E+01 -0.51076495950E+00  0.35599171964E+01  0.71636993147E+01  0.10566000000E+00 0.  1.
         13    1    1    0    0    0  0.47454986471E+02 -0.27916510076E+00  0.28476731070E+02  0.55344277487E+02  0.10566000000E+00 0. -1.
         22    1    1    0    0    0 -0.53649623873E+02  0.78993006026E+00 -0.32036648266E+02  0.62492023198E+02  0.00000000000E+00 0. -1.
</event>
<event>
 4    1  0.9925048E-003  0.9118800E+02  0.7818608E-02  0.1130116E+00
         25   -1    0    0    0    0  0.00000000000E+00  0.00000000000E+00  0.99999998245E-14  0.12500000000E+03  0.12500000000E+03 0.  0.
        -13    1    1    0    0    0 -0.99831934904E+01 -0.45937380941E+01 -0.83292307491E+01  0.13789627655E+02  0.10566000000E+00 0.  1.
         13    1    1    0    0    0 -0.36002504177E+02 -0.15783237613E+02 -0.28767216012E+02  0.48711957236E+02  0.10566000000E+00 0.  1.
         22    1    1    0    0    0  0.45985697668E+02  0.20376975707E+02  0.37096446761E+02  0.62498415110E+02  0.00000000000E+00 0.  1.
</event>
<event>
 4    1  0.9925048E-003  0.9118800E+02  0.7818608E-02  0.1130116E+00
         25   -1    0    0    0    0  0.00000000000E+00  0.00000000000E+00  0.99999998245E-14  0.12500000000E+03  0.12500000000E+03 0.  0.
        -13    1    1    0    0    0  0.21816641510E+02  0.91945198253E+01  0.80243632737E+01  0.24998132162E+02  0.10566000000E+00 0. -1.
         13    1    1    0    0    0  0.31610109271E+02  0.14916318139E+02  0.13627367200E+02  0.37515488212E+02  0.10566000000E+00 0.  1.
         22    1    1    0    0    0 -0.53426750781E+02 -0.24110837964E+02 -0.21651730473E+02  0.62486379626E+02  0.00000000000E+00 0.  1.
</event>
<event>
 4    1  0.9925048E-003  0.9118800E+02  0.7818608E-02  0.1130116E+00
         25   -1    0    0    0    0  0.00000000000E+00  0.00000000000E+00  0.99999998245E-14  0.12500000000E+03  0.12500000000E+03 0.  0.
        -13    1    1    0    0    0 -0.74199680479E+01  0.77048984065E+00 -0.50860187849E+02  0.51404469188E+02  0.10566000000E+00 0.  1.
         13    1    1    0    0    0 -0.14469664942E+01  0.17782245725E+00 -0.10999598667E+02  0.11096290720E+02  0.10566000000E+00 0.  1.
         22    1    1    0    0    0  0.88669345421E+01 -0.94831229789E+00  0.61859786516E+02  0.62499240093E+02  0.00000000000E+00 0.  1.
</event>
<event>
 4    1  0.9925048E-003  0.9118800E+02  0.7818608E-02  0.1130116E+00
         25   -1    0    0    0    0  0.00000000000E+00  0.00000000000E+00  0.99999998245E-14  0.12500000000E+03  0.12500000000E+03 0.  0.
        -13    1    1    0    0    0  0.22209330219E+02  0.29705613364E+02  0.45890134798E+02  0.59005029022E+02  0.10566000000E+00 0. -1.
         13    1    1    0    0    0  0.63061405713E+00  0.22572690602E+01  0.26567029921E+01  0.35443155225E+01  0.10566000000E+00 0.  1.
         22    1    1    0    0    0 -0.22839944276E+02 -0.31962882424E+02 -0.48546837790E+02  0.62450655455E+02  0.00000000000E+00 0. -1.
</event>
<event>
 4    1  0.9925048E-003  0.9118800E+02  0.7818608E-02  0.1130116E+00
         25   -1    0    0    0    0  0.00000000000E+00  0.00000000000E+00  0.99999998245E-14  0.12500000000E+03  0.12500000000E+03 0.  0.
        -13    1    1    0    0    0  0.11395631990E+02 -0.25058854308E+02  0.40777961238E+02  0.49200202179E+02  0.10566000000E+00 0.  1.
         13    1    1    0    0    0  0.26385106696E+01 -0.54522838310E+01  0.11884823909E+02  0.13339765399E+02  0.10566000000E+00 0. -1.
         22    1    1    0    0    0 -0.14034142659E+02  0.30511138139E+02 -0.52662785147E+02  0.62460032422E+02  0.00000000000E+00 0.  1.
</event>
<event>
 4    1  0.9925048E-003  0.9118800E+02  0.7818608E-02  0.1130116E+00
         25   -1    0    0    0    0  0.00000000000E+00  0.00000000000E+00  0.99999998245E-14  0.12500000000E+03  0.12500000000E+03 0.  0.
        -13    1    1    0    0    0 -0.20372267192E+01 -0.92617869850E+01  0.61472549866E+02  0.62199811430E+02  0.10566000000E+00 0.  1.
         13    1    1    0    0    0 -0.87201390275E-01 -0.63382567693E-01  0.27641048487E+00  0.31494162015E+00  0.10566000000E+00 0. -1.
         22    1    1    0    0    0  0.21244281094E+01  0.93251695527E+01 -0.61748960351E+02  0.62485246950E+02  0.00000000000E+00 0.  1.
</event>
<event>
 4    1  0.9925048E-003  0.9118800E+02  0.7818608E-02  0.1130116E+00
         25   -1    0    0    0    0  0.00000000000E+00  0.00000000000E+00  0.99999998245E-14  0.12500000000E+03  0.12500000000E+03 0.  0.
        -13    1    1    0    0    0 -0.21828916012E+01  0.11200264191E+02  0.48426084640E+01  0.12396489602E+02  0.10566000000E+00 0. -1.
         13    1    1    0    0    0  0.95946271887E+01  0.47615008403E+02  0.13741066115E+02  0.50478450433E+02  0.10566000000E+00 0.  1.
         22    1    1    0    0    0 -0.74117355875E+01 -0.58815272594E+02 -0.18583674579E+02  0.62125059965E+02  0.00000000000E+00 0.  1.
</event>
<event>
 4    1  0.9925048E-003  0.9118800E+02  0.7818608E-02  0.1130116E+00
         25   -1    0    0    0    0  0.00000000000E+00  0.00000000000E+00  0.99999998245E-14  0.12500000000E+03  0.12500000000E+03 0.  0.
        -13    1    1    0    0    0  0.13241964360E+02 -0.22861755958E+02 -0.18840813836E+01  0.26487174864E+02  0.10566000000E+00 0.  1.
         13    1    1    0    0    0  0.15673282823E+02 -0.32266872475E+02 -0.34247552391E+01  0.36035301667E+02  0.10566000000E+00 0. -1.
         22    1    1    0    0    0 -0.28915247183E+02  0.55128628433E+02  0.53088366227E+01  0.62477523469E+02  0.00000000000E+00 0.  1.
</event>
<event>
 4    1  0.9925048E-003  0.9118800E+02  0.7818608E-02  0.1130116E+00
         25   -1    0    0    0    0  0.00000000000E+00  0.00000000000E+00  0.99999998245E-14  0.12500000000E+03  0.12500000000E+03 0.  0.
        -13    1    1    0    0    0  0.28274600895E+02  0.68697894378E+01  0.28679982140E+02  0.40855839268E+02  0.10566000000E+00 0. -1.
         13    1    1    0    0    0  0.15231957911E+02  0.39967545209E+01  0.14851980264E+02  0.21646687283E+02  0.10566000000E+00 0.  1.
         22    1    1    0    0    0 -0.43506558806E+02 -0.10866543959E+02 -0.43531962404E+02  0.62497473449E+02  0.00000000000E+00 0. -1.
</event>
<event>
 4    1  0.9925048E-003  0.9118800E+02  0.7818608E-02  0.1130116E+00
         25   -1    0    0    0    0  0.00000000000E+00  0.00000000000E+00  0.99999998245E-14  0.12500000000E+03  0.12500000000E+03 0.  0.
        -13    1    1    0    0    0  0.17926599950E+02  0.81850308431E+00  0.11577824866E+02  0.21356266662E+02  0.10566000000E+00 0.  1.
         13    1    1    0    0    0  0.32279386312E+02  0.10787620664E+01  0.25541985818E+02  0.41176773937E+02  0.10566000000E+00 0. -1.
         22    1    1    0    0    0 -0.50205986263E+02 -0.18972651507E+01 -0.37119810683E+02  0.62466959401E+02  0.00000000000E+00 0. -1.
</event>
<event>
 4    1  0.9925048E-003  0.9118800E+02  0.7818608E-02  0.1130116E+00
         25   -1    0    0    0    0  0.00000000000E+00  0.00000000000E+00  0.99999998245E-14  0.12500000000E+03  0.12500000000E+03 0.  0.
        -13    1    1    0    0    0  0.95708596316E+01  0.17259782604E+02  0.46232215597E+01  0.20270342653E+02  0.10566000000E+00 0. -1.
         13    1    1    0    0    0  0.20493065508E+02  0.35857681908E+02  0.88186999937E+01  0.42231738294E+02  0.10566000000E+00 0.  1.
         22    1    1    0    0    0 -0.30063925139E+02 -0.53117464512E+02 -0.13441921553E+02  0.62497919053E+02  0.00000000000E+00 0. -1.
</event>
<event>
 4    1  0.9925048E-003  0.9118800E+02  0.7818608E-02  0.1130116E+00
         25   -1    0    0    0    0  0.00000000000E+00  0.00000000000E+00  0.99999998245E-14  0.12500000000E+03  0.12500000000E+03 0.  0.
        -13    1    1    0    0    0  0.22759120779E+01 -0.25140201699E+02 -0.77934463991E+01  0.26418903991E+02  0.10566000000E+00 0. -1.
         13    1    1    0    0    0  0.23788920850E+01 -0.34292227466E+02 -0.10971190722E+02  0.36083156487E+02  0.10566000000E+00 0. -1.
         22    1    1    0    0    0 -0.46548041629E+01  0.59432429165E+02  0.18764637121E+02  0.62497939523E+02  0.00000000000E+00 0. -1.
</event>
<event>
 4    1  0.9925048E-003  0.9118800E+02  0.7818608E-02  0.1130116E+00
         25   -1    0    0    0    0  0.00000000000E+00  0.00000000000E+00  0.99999998245E-14  0.12500000000E+03  0.12500000000E+03 0.  0.
        -13    1    1    0    0    0 -0.30962225643E+02 -0.37088752270E+01 -0.55846215645E+01  0.31679872699E+02  0.10566000000E+00 0. -1.
         13    1    1    0    0    0 -0.30095412997E+02 -0.46488604477E+01 -0.47869383169E+01  0.30826477733E+02  0.10566000000E+00 0. -1.
         22    1    1    0    0    0  0.61057638640E+02  0.83577356747E+01  0.10371559881E+02  0.62493649568E+02  0.00000000000E+00 0. -1.
</event>
<event>
 4    1  0.9925048E-003  0.9118800E+02  0.7818608E-02  0.1130116E+00
         25   -1    0    0    0    0  0.00000000000E+00  0.00000000000E+00  0.99999998245E-14  0.12500000000E+03  0.12500000000E+03 0.  0.
        -13    1    1    0    0    0  0.10161770521E+02 -0.23950479113E+02 -0.18920953924E+02  0.32169872416E+02  0.10566000000E+00 0.  1.
         13    1    1    0    0    0  0.95674774715E+01 -0.22307350842E+02 -0.18188251474E+02  0.30331142122E+02  0.10566000000E+00 0. -1.
         22    1    1    0    0    0 -0.19729247992E+02  0.46257829955E+02  0.37109205397E+02  0.62498985461E+02  0.00000000000E+00 0.  1.
</event>
<event>
 4    1  0.9925048E-003  0.9118800E+02  0.7818608E-02  0.1130116E+00
         25   -1    0    0    0    0  0.00000000000E+00  0.00000000000E+00  0.99999998245E-14  0.12500000000E+03  0.12500000000E+03 0.  0.
        -13    1    1    0    0    0 -0.67528230037E+01 -0.10556601196E+02  0.23924420205E+02  0.27007989438E+02  0.10566000000E+00 0. -1.
         13    1    1    0    0    0  0.11235051968E+02 -0.41333096418E+02 -0.84458462477E+01  0.43657699609E+02  0.10566000000E+00 0.  1.
         22    1    1    0    0    0 -0.44822289648E+01  0.51889697614E+02 -0.15478573957E+02  0.54334310953E+02  0.00000000000E+00 0.  1.
</event>
<event>
 4    1  0.9925048E-003  0.9118800E+02  0.7818608E-02  0.1130116E+00
         25   -1    0    0    0    0  0.00000000000E+00  0.00000000000E+00  0.99999998245E-14  0.12500000000E+03  0.12500000000E+03 0.  0.
        -13    1    1    0    0    0 -0.23969327399E+02  0.20325174086E+02 -0.57768837016E+01  0.31953480357E+02  0.10566000000E+00 0. -1.
         13    1    1    0    0    0 -0.30453938223E+02  0.77966743302E+01 -0.71128087484E+00  0.31444356703E+02  0.10566000000E+00 0.  1.
         22    1    1    0    0    0  0.54423265623E+02 -0.28121848416E+02  0.64881645764E+01  0.61602162940E+02  0.00000000000E+00 0. -1.
</event>
<event>
 4    1  0.9925048E-003  0.9118800E+02  0.7818608E-02  0.1130116E+00
         25   -1    0    0    0    0  0.00000000000E+00  0.00000000000E+00  0.99999998245E-14  0.12500000000E+03  0.12500000000E+03 0.  0.
        -13    1    1    0    0    0 -0.11569059333E+02 -0.39657962811E+01  0.63567334930E+01  0.13783682336E+02  0.10566000000E+00 0.  1.
         13    1    1    0    0    0 -0.38774734881E+02 -0.16262134135E+02  0.24635841471E+02  0.48732667901E+02  0.10566000000E+00 0. -1.
         22    1    1    0    0    0  0.50343794214E+02  0.20227930416E+02 -0.30992574964E+02  0.62483649763E+02  0.00000000000E+00 0. -1.
</event>
<event>
 4    1  0.9925048E-003  0.9118800E+02  0.7818608E-02  0.1130116E+00
         25   -1    0    0    0    0  0.00000000000E+00  0.00000000000E+00  0.99999998245E-14  0.12500000000E+03  0.12500000000E+03 0.  0.
        -13    1    1    0    0    0 -0.46106709907E+02  0.21334986401E+02  0.30614161729E+02  0.59314824502E+02  0.10566000000E+00 0. -1.
         13    1    1    0    0    0 -0.28107535889E+01  0.94661948881E+00  0.12245248214E+01  0.32104593547E+01  0.10566000000E+00 0.  1.
         22    1    1    0    0    0  0.48917463496E+02 -0.22281605890E+02 -0.31838686551E+02  0.62474716144E+02  0.00000000000E+00 0. -1.
</event>
<event>
 4    1  0.9925048E-003  0.9118800E+02  0.7818608E-02  0.1130116E+00
         25   -1    0    0    0    0  0.00000000000E+00  0.00000000000E+00  0.99999998245E-14  0.12500000000E+03  0.12500000000E+03 0.  0.
        -13    1    1    0    0    0 -0.19579445032E+01 -0.32511972361E-01  0.23306674437E+01  0.30459445948E+01  0.10566000000E+00 0. -1.
         13    1    1    0    0    0 -0.15583287340E+02 -0.34733934508E+02  0.46114480089E+02  0.59798340182E+02  0.10566000000E+00 0.  1.
         22    1    1    0    0    0  0.17541231843E+02  0.34766446480E+02 -0.48445147532E+02  0.62155715223E+02  0.00000000000E+00 0.  1.
</event>
<event>
 4    1  0.9925048E-003  0.9118800E+02  0.7818608E-02  0.1130116E+00
         25   -1    0    0    0    0  0.00000000000E+00  0.00000000000E+00  0.99999998245E-14  0.12500000000E+03  0.12500000000E+03 0.  0.
        -13    1    1    0    0    0 -0.11795634414E+02  0.19940746093E+02  0.23283012050E-01  0.23168557402E+02  0.10566000000E+00 0.  1.
         13    1    1    0    0    0 -0.19363695713E+02  0.34217310671E+02 -0.12699407961E+01  0.39337017870E+02  0.10566000000E+00 0. -1.
         22    1    1    0    0    0  0.31159330127E+02 -0.54158056764E+02  0.12466577840E+01  0.62494424728E+02  0.00000000000E+00 0. -1.
</event>
<event>
 4    1  0.9925048E-003  0.9118800E+02  0.7818608E-02  0.1130116E+00
         25   -1    0    0    0    0  0.00000000000E+00  0.00000000000E+00  0.99999998245E-14  0.12500000000E+03  0.12500000000E+03 0.  0.
        -13    1    1    0    0    0  0.84696465875E+01  0.74053010559E+01  0.39079803869E+02  0.40667132079E+02  0.10566000000E+00 0. -1.
         13    1    1    0    0    0  0.58066684560E+01 -0.57289460316E+01  0.21014995028E+02  0.22542834810E+02  0.10566000000E+00 0.  1.
         22    1    1    0    0    0 -0.14276315043E+02 -0.16763550243E+01 -0.60094798897E+02  0.61790033111E+02  0.00000000000E+00 0. -1.
</event>
<event>
 4    1  0.9925048E-003  0.9118800E+02  0.7818608E-02  0.1130116E+00
         25   -1    0    0    0    0  0.00000000000E+00  0.00000000000E+00  0.99999998245E-14  0.12500000000E+03  0.12500000000E+03 0.  0.
        -13    1    1    0    0    0 -0.16197410469E+02 -0.54780454893E+01  0.14221496189E+02  0.22240215965E+02  0.10566000000E+00 0. -1.
         13    1    1    0    0    0 -0.53677580688E+01  0.41931100742E+02 -0.35644973262E+02  0.55295617538E+02  0.10566000000E+00 0.  1.
         22    1    1    0    0    0  0.21565168538E+02 -0.36453055253E+02  0.21423477073E+02  0.47464166497E+02  0.00000000000E+00 0.  1.
</event>
<event>
 4    1  0.9925048E-003  0.9118800E+02  0.7818608E-02  0.1130116E+00
         25   -1    0    0    0    0  0.00000000000E+00  0.00000000000E+00  0.99999998245E-14  0.12500000000E+03  0.12500000000E+03 0.  0.
        -13    1    1    0    0    0 -0.18764538128E+02  0.26704873161E+01  0.65614797637E+01  0.20057506685E+02  0.10566000000E+00 0.  1.
         13    1    1    0    0    0 -0.39673943910E+02  0.56968562557E+01  0.13960548463E+02  0.42442715205E+02  0.10566000000E+00 0.  1.
         22    1    1    0    0    0  0.58438482038E+02 -0.83673435718E+01 -0.20522028227E+02  0.62499778111E+02  0.00000000000E+00 0.  1.
</event>
<event>
 4    1  0.9925048E-003  0.9118800E+02  0.7818608E-02  0.1130116E+00
         25   -1    0    0    0    0  0.00000000000E+00  0.00000000000E+00  0.99999998245E-14  0.12500000000E+03  0.12500000000E+03 0.  0.
        -13    1    1    0    0    0  0.14529210273E+02 -0.66060915411E+01  0.16442767452E+02  0.22915369561E+02  0.10566000000E+00 0.  1.
         13    1    1    0    0    0  0.25704686158E+02 -0.11942116438E+02  0.27637450666E+02  0.39587685950E+02  0.10566000000E+00 0. -1.
         22    1    1    0    0    0 -0.40233896431E+02  0.18548207979E+02 -0.44080218118E+02  0.62496944490E+02  0.00000000000E+00 0.  1.
</event>
<event>
 4    1  0.9925048E-003  0.9118800E+02  0.7818608E-02  0.1130116E+00
         25   -1    0    0    0    0  0.00000000000E+00  0.00000000000E+00  0.99999998245E-14  0.12500000000E+03  0.12500000000E+03 0.  0.
        -13    1    1    0    0    0  0.11173762346E+02 -0.96988523308E+01  0.14288765504E+01  0.14865179237E+02  0.10566000000E+00 0. -1.
         13    1    1    0    0    0  0.36362060984E+02 -0.30509418831E+02  0.40220206887E+01  0.47636245978E+02  0.10566000000E+00 0. -1.
         22    1    1    0    0    0 -0.47535823330E+02  0.40208271162E+02 -0.54508972391E+01  0.62498574785E+02  0.00000000000E+00 0. -1.
</event>
<event>
 4    1  0.9925048E-003  0.9118800E+02  0.7818608E-02  0.1130116E+00
         25   -1    0    0    0    0  0.00000000000E+00  0.00000000000E+00  0.99999998245E-14  0.12500000000E+03  0.12500000000E+03 0.  0.
        -13    1    1    0    0    0 -0.46282487414E+00  0.89976238612E+00 -0.47489176146E+00  0.11227045187E+01  0.10566000000E+00 0. -1.
         13    1    1    0    0    0 -0.32979067359E+02  0.48565429240E+02 -0.17954415464E+02  0.61388858923E+02  0.10566000000E+00 0. -1.
         22    1    1    0    0    0  0.33441892234E+02 -0.49465191626E+02  0.18429307225E+02  0.62488436559E+02  0.00000000000E+00 0. -1.
</event>
<event>
 4    1  0.9925048E-003  0.9118800E+02  0.7818608E-02  0.1130116E+00
         25   -1    0    0    0    0  0.00000000000E+00  0.00000000000E+00  0.99999998245E-14  0.12500000000E+03  0.12500000000E+03 0.  0.
        -13    1    1    0    0    0 -0.45657735063E+02 -0.35422435162E+02 -0.54114020620E+01  0.58040262923E+02  0.10566000000E+00 0. -1.
         13    1    1    0    0    0 -0.33834458805E+01 -0.29165488155E+01 -0.82088153815E-01  0.44689893175E+01  0.10566000000E+00 0.  1.
         22    1    1    0    0    0  0.49041180944E+02  0.38338983977E+02  0.54934902158E+01  0.62490747759E+02  0.00000000000E+00 0. -1.
</event>
<event>
 4    1  0.9925048E-003  0.9118800E+02  0.7818608E-02  0.1130116E+00
         25   -1    0    0    0    0  0.00000000000E+00  0.00000000000E+00  0.99999998245E-14  0.12500000000E+03  0.12500000000E+03 0.  0.
        -13    1    1    0    0    0  0.16552297483E+02  0.40604653777E+01  0.69650672893E+00  0.17057614625E+02  0.10566000000E+00 0. -1.
         13    1    1    0    0    0  0.44386863372E+02 -0.62281663567E+01 -0.10871952019E+02  0.46121515597E+02  0.10566000000E+00 0.  1.
         22    1    1    0    0    0 -0.60939160855E+02  0.21677009791E+01  0.10175445290E+02  0.61820869778E+02  0.00000000000E+00 0.  1.
</event>
<event>
 4    1  0.9925048E-003  0.9118800E+02  0.7818608E-02  0.1130116E+00
         25   -1    0    0    0    0  0.00000000000E+00  0.00000000000E+00  0.99999998245E-14  0.12500000000E+03  0.12500000000E+03 0.  0.
        -13    1    1    0    0    0 -0.55023088139E+02  0.36078099766E+00  0.12885535075E+02  0.56512994696E+02  0.10566000000E+00 0.  1.
         13    1    1    0    0    0 -0.56431525518E+01 -0.28719806993E+01 -0.28519700560E+01  0.69453827177E+01  0.10566000000E+00 0. -1.
         22    1    1    0    0    0  0.60666240691E+02  0.25111997016E+01 -0.10033565019E+02  0.61541622586E+02  0.00000000000E+00 0.  1.
</event>
<event>
 4    1  0.9925048E-003  0.9118800E+02  0.7818608E-02  0.1130116E+00
         25   -1    0    0    0    0  0.00000000000E+00  0.00000000000E+00  0.99999998245E-14  0.12500000000E+03  0.12500000000E+03 0.  0.
        -13    1    1    0    0    0 -0.30496710533E+02  0.15141464620E+02  0.21292003384E+02  0.40158110965E+02  0.10566000000E+00 0. -1.
         13    1    1    0    0    0 -0.16819449578E+02  0.85876684499E+01  0.11938758811E+02  0.22342494478E+02  0.10566000000E+00 0. -1.
         22    1    1    0    0    0  0.47316160111E+02 -0.23729133069E+02 -0.33230762195E+02  0.62499394557E+02  0.00000000000E+00 0. -1.
</event>
<event>
 4    1  0.9925048E-003  0.9118800E+02  0.7818608E-02  0.1130116E+00
         25   -1    0    0    0    0  0.00000000000E+00  0.00000000000E+00  0.99999998245E-14  0.12500000000E+03  0.12500000000E+03 0.  0.
        -13    1    1    0    0    0 -0.25174327444E+01  0.35120973836E+02  0.11323443322E+02  0.36987184315E+02  0.10566000000E+00 0.  1.
         13    1    1    0    0    0 -0.16194983896E+01  0.24254634133E+02  0.77458067308E+01  0.25513109138E+02  0.10566000000E+00 0.  1.
         22    1    1    0    0    0  0.41369311340E+01 -0.59375607969E+02 -0.19069250053E+02  0.62499706547E+02  0.00000000000E+00 0.  1.
</event>
<event>
 4    1  0.9925048E-003  0.9118800E+02  0.7818608E-02  0.1130116E+00
         25   -1    0    0    0    0  0.00000000000E+00  0.00000000000E+00  0.99999998245E-14  0.12500000000E+03  0.12500000000E+03 0.  0.
        -13    1    1    0    0    0  0.17801453998E+02 -0.10830660502E+02  0.15313746038E+02  0.25859562121E+02  0.10566000000E+00 0. -1.
         13    1    1    0    0    0  0.18114809647E+02 -0.18104753083E+01  0.32962423901E+02  0.37655765865E+02  0.10566000000E+00 0.  1.
         22    1    1    0    0    0 -0.35916263645E+02  0.12641135810E+02 -0.48276169939E+02  0.61484672014E+02  0.00000000000E+00 0.  1.
</event>
<event>
 4    1  0.9925048E-003  0.9118800E+02  0.7818608E-02  0.1130116E+00
         25   -1    0    0    0    0  0.00000000000E+00  0.00000000000E+00  0.99999998245E-14  0.12500000000E+03  0.12500000000E+03 0.  0.
        -13    1    1    0    0    0 -0.82123507998E+01 -0.11588261433E+01  0.24032971287E+01  0.86355419525E+01  0.10566000000E+00 0.  1.
         13    1    1    0    0    0 -0.49395317129E+02 -0.15991385207E+02  0.14537552747E+02  0.53916355209E+02  0.10566000000E+00 0. -1.
         22    1    1    0    0    0  0.57607667929E+02  0.17150211351E+02 -0.16940849876E+02  0.62448102838E+02  0.00000000000E+00 0. -1.
</event>
<event>
 4    1  0.9925048E-003  0.9118800E+02  0.7818608E-02  0.1130116E+00
         25   -1    0    0    0    0  0.00000000000E+00  0.00000000000E+00  0.99999998245E-14  0.12500000000E+03  0.12500000000E+03 0.  0.
        -13    1    1    0    0    0 -0.19277836742E+02 -0.52125805563E+02 -0.61020771733E+01  0.55910474018E+02  0.10566000000E+00 0. -1.
         13    1    1    0    0    0 -0.21954528810E+01 -0.61424888015E+01 -0.94450146257E+00  0.65919215011E+01  0.10566000000E+00 0.  1.
         22    1    1    0    0    0  0.21473289623E+02  0.58268294365E+02  0.70465786359E+01  0.62497604481E+02  0.00000000000E+00 0. -1.
</event>
<event>
 4    1  0.9925048E-003  0.9118800E+02  0.7818608E-02  0.1130116E+00
         25   -1    0    0    0    0  0.00000000000E+00  0.00000000000E+00  0.99999998245E-14  0.12500000000E+03  0.12500000000E+03 0.  0.
        -13    1    1    0    0    0  0.29736620714E+01  0.10065522904E+02 -0.50141040429E+01  0.11632274964E+02  0.10566000000E+00 0.  1.
         13    1    1    0    0    0  0.26575943282E+02  0.40569423720E+02 -0.16028430495E+02  0.51079160628E+02  0.10566000000E+00 0. -1.
         22    1    1    0    0    0 -0.29549605353E+02 -0.50634946625E+02  0.21042534538E+02  0.62288564408E+02  0.00000000000E+00 0. -1.
</event>
<event>
 4    1  0.9925048E-003  0.9118800E+02  0.7818608E-02  0.1130116E+00
         25   -1    0    0    0    0  0.00000000000E+00  0.00000000000E+00  0.99999998245E-14  0.12500000000E+03  0.12500000000E+03 0.  0.
        -13    1    1    0    0    0 -0.25830772120E+02  0.14557075728E+02  0.50702183159E+02  0.58735507005E+02  0.10566000000E+00 0.  1.
         13    1    1    0    0    0 -0.15754518652E+01  0.25893678852E+01  0.25535094893E+01  0.39646499684E+01  0.10566000000E+00 0. -1.
         22    1    1    0    0    0  0.27406223985E+02 -0.17146443613E+02 -0.53255692648E+02  0.62299843026E+02  0.00000000000E+00 0.  1.
</event>
<event>
 4    1  0.9925048E-003  0.9118800E+02  0.7818608E-02  0.1130116E+00
         25   -1    0    0    0    0  0.00000000000E+00  0.00000000000E+00  0.99999998245E-14  0.12500000000E+03  0.12500000000E+03 0.  0.
        -13    1    1    0    0    0 -0.13886478199E+02 -0.29811869614E+02 -0.30162403682E+02  0.44624697271E+02  0.10566000000E+00 0.  1.
         13    1    1    0    0    0 -0.55051993342E+01 -0.11983174504E+02 -0.12067364011E+02  0.17875573532E+02  0.10566000000E+00 0.  1.
         22    1    1    0    0    0  0.19391677534E+02  0.41795044117E+02  0.42229767692E+02  0.62499729197E+02  0.00000000000E+00 0.  1.
</event>
<event>
 4    1  0.9925048E-003  0.9118800E+02  0.7818608E-02  0.1130116E+00
         25   -1    0    0    0    0  0.00000000000E+00  0.00000000000E+00  0.99999998245E-14  0.12500000000E+03  0.12500000000E+03 0.  0.
        -13    1    1    0    0    0  0.15182826946E+02  0.12743638323E+02 -0.20430314473E+02  0.28466251339E+02  0.10566000000E+00 0. -1.
         13    1    1    0    0    0  0.18223666973E+02 -0.32537082051E+02 -0.18429819367E+02  0.41598475360E+02  0.10566000000E+00 0.  1.
         22    1    1    0    0    0 -0.33406493919E+02  0.19793443728E+02  0.38860133840E+02  0.54935273301E+02  0.00000000000E+00 0.  1.
</event>
<event>
 4    1  0.9925048E-003  0.9118800E+02  0.7818608E-02  0.1130116E+00
         25   -1    0    0    0    0  0.00000000000E+00  0.00000000000E+00  0.99999998245E-14  0.12500000000E+03  0.12500000000E+03 0.  0.
        -13    1    1    0    0    0  0.19129659152E+02  0.37455415850E+02  0.81557279195E+01  0.42841324649E+02  0.10566000000E+00 0.  1.
         13    1    1    0    0    0  0.72702533518E+01  0.17755111779E+02  0.44045852674E+01  0.19685327365E+02  0.10566000000E+00 0. -1.
         22    1    1    0    0    0 -0.26399912504E+02 -0.55210527628E+02 -0.12560313187E+02  0.62473347986E+02  0.00000000000E+00 0.  1.
</event>
<event>
 4    1  0.9925048E-003  0.9118800E+02  0.7818608E-02  0.1130116E+00
         25   -1    0    0    0    0  0.00000000000E+00  0.00000000000E+00  0.99999998245E-14  0.12500000000E+03  0.12500000000E+03 0.  0.
        -13    1    1    0    0    0  0.40076372965E+02 -0.17899945066E+02 -0.40393570186E+02  0.59650443249E+02  0.10566000000E+00 0. -1.
         13    1    1    0    0    0  0.22319660934E+01 -0.70426015357E+00 -0.16530658928E+01  0.28673063818E+01  0.10566000000E+00 0. -1.
         22    1    1    0    0    0 -0.42308339058E+02  0.18604205220E+02  0.42046636078E+02  0.62482250369E+02  0.00000000000E+00 0. -1.
</event>
<event>
 4    1  0.9925048E-003  0.9118800E+02  0.7818608E-02  0.1130116E+00
         25   -1    0    0    0    0  0.00000000000E+00  0.00000000000E+00  0.99999998245E-14  0.12500000000E+03  0.12500000000E+03 0.  0.
        -13    1    1    0    0    0 -0.13669058257E+02 -0.88955915620E+01  0.96530082119E+01  0.18951686849E+02  0.10566000000E+00 0. -1.
         13    1    1    0    0    0 -0.19715336273E+02 -0.30947428436E+02  0.24255100407E+02  0.43985894000E+02  0.10566000000E+00 0.  1.
         22    1    1    0    0    0  0.33384394530E+02  0.39843019998E+02 -0.33908108619E+02  0.62062419151E+02  0.00000000000E+00 0.  1.
</event>
<event>
 4    1  0.9925048E-003  0.9118800E+02  0.7818608E-02  0.1130116E+00
         25   -1    0    0    0    0  0.00000000000E+00  0.00000000000E+00  0.99999998245E-14  0.12500000000E+03  0.12500000000E+03 0.  0.
        -13    1    1    0    0    0  0.19086650645E+02 -0.28985490070E+02  0.32068278252E+02  0.47252984049E+02  0.10566000000E+00 0.  1.
         13    1    1    0    0    0  0.12553928319E+02 -0.57186378043E+01  0.80578862600E+01  0.15976377236E+02  0.10566000000E+00 0. -1.
         22    1    1    0    0    0 -0.31640578964E+02  0.34704127874E+02 -0.40126164512E+02  0.61770638714E+02  0.00000000000E+00 0.  1.
</event>
<event>
 4    1  0.9925048E-003  0.9118800E+02  0.7818608E-02  0.1130116E+00
         25   -1    0    0    0    0  0.00000000000E+00  0.00000000000E+00  0.99999998245E-14  0.12500000000E+03  0.12500000000E+03 0.  0.
        -13    1    1    0    0    0  0.29049691895E+02 -0.12691994162E+02  0.36332167250E+02  0.48218345639E+02  0.10566000000E+00 0.  1.
         13    1    1    0    0    0  0.54299495184E+01 -0.10136694945E+02  0.95979774594E+01  0.14978960963E+02  0.10566000000E+00 0. -1.
         22    1    1    0    0    0 -0.34479641413E+02  0.22828689107E+02 -0.45930144710E+02  0.61802693399E+02  0.00000000000E+00 0.  1.
</event>
<event>
 4    1  0.9925048E-003  0.9118800E+02  0.7818608E-02  0.1130116E+00
         25   -1    0    0    0    0  0.00000000000E+00  0.00000000000E+00  0.99999998245E-14  0.12500000000E+03  0.12500000000E+03 0.  0.
        -13    1    1    0    0    0 -0.11985684838E+02 -0.81925039337E+01 -0.39127960435E+01  0.15036452330E+02  0.10566000000E+00 0. -1.
         13    1    1    0    0    0 -0.34410368609E+02 -0.31120451722E+02 -0.10271584083E+02  0.47519181251E+02  0.10566000000E+00 0.  1.
         22    1    1    0    0    0  0.46396053447E+02  0.39312955656E+02  0.14184380127E+02  0.62444366419E+02  0.00000000000E+00 0.  1.
</event>
<event>
 4    1  0.9925048E-003  0.9118800E+02  0.7818608E-02  0.1130116E+00
         25   -1    0    0    0    0  0.00000000000E+00  0.00000000000E+00  0.99999998245E-14  0.12500000000E+03  0.12500000000E+03 0.  0.
        -13    1    1    0    0    0 -0.42959665404E+01 -0.18552667743E+02 -0.55089653325E+02  0.58288402589E+02  0.10566000000E+00 0. -1.
         13    1    1    0    0    0 -0.27138730454E+00 -0.14462026589E+01 -0.39463506656E+01  0.42130749828E+01  0.10566000000E+00 0.  1.
         22    1    1    0    0    0  0.45673538449E+01  0.19998870402E+02  0.59036003990E+02  0.62498522428E+02  0.00000000000E+00 0. -1.
</event>
<event>
 4    1  0.9925048E-003  0.9118800E+02  0.7818608E-02  0.1130116E+00
         25   -1    0    0    0    0  0.00000000000E+00  0.00000000000E+00  0.99999998245E-14  0.12500000000E+03  0.12500000000E+03 0.  0.
        -13    1    1    0    0    0  0.42965094531E+01  0.68518593577E+00  0.87491164177E+01  0.97717795398E+01  0.10566000000E+00 0.  1.
         13    1    1    0    0    0  0.19617258214E+02  0.28225588592E+01  0.48874913593E+02  0.52740610550E+02  0.10566000000E+00 0.  1.
         22    1    1    0    0    0 -0.23913767668E+02 -0.35077447949E+01 -0.57624030011E+02  0.62487609910E+02  0.00000000000E+00 0.  1.
</event>
<event>
 4    1  0.9925048E-003  0.9118800E+02  0.7818608E-02  0.1130116E+00
         25   -1    0    0    0    0  0.00000000000E+00  0.00000000000E+00  0.99999998245E-14  0.12500000000E+03  0.12500000000E+03 0.  0.
        -13    1    1    0    0    0 -0.13109562637E+02  0.23700865394E+02  0.30872315743E+02  0.41069486195E+02  0.10566000000E+00 0. -1.
         13    1    1    0    0    0 -0.21505124384E+02 -0.18202322322E+02  0.10175007955E+02  0.29955581510E+02  0.10566000000E+00 0.  1.
         22    1    1    0    0    0  0.34614687020E+02 -0.54985430715E+01 -0.41047323698E+02  0.53974932295E+02  0.00000000000E+00 0. -1.
</event>
<event>
 4    1  0.9925048E-003  0.9118800E+02  0.7818608E-02  0.1130116E+00
         25   -1    0    0    0    0  0.00000000000E+00  0.00000000000E+00  0.99999998245E-14  0.12500000000E+03  0.12500000000E+03 0.  0.
        -13    1    1    0    0    0 -0.18147160654E+02 -0.88926371346E+01 -0.28450906642E+02  0.34897903773E+02  0.10566000000E+00 0.  1.
         13    1    1    0    0    0 -0.17736910604E+02 -0.13030492235E+02 -0.17275721491E+02  0.27979518272E+02  0.10566000000E+00 0. -1.
         22    1    1    0    0    0  0.35884071258E+02  0.21923129370E+02  0.45726628132E+02  0.62122577955E+02  0.00000000000E+00 0.  1.
</event>
<event>
 4    1  0.9925048E-003  0.9118800E+02  0.7818608E-02  0.1130116E+00
         25   -1    0    0    0    0  0.00000000000E+00  0.00000000000E+00  0.99999998245E-14  0.12500000000E+03  0.12500000000E+03 0.  0.
        -13    1    1    0    0    0 -0.14618732996E+02  0.16568520852E+02  0.82531203080E+01  0.23587038739E+02  0.10566000000E+00 0.  1.
         13    1    1    0    0    0 -0.22829226676E+02  0.27850468272E+02  0.14765258943E+02  0.38921025286E+02  0.10566000000E+00 0. -1.
         22    1    1    0    0    0  0.37447959673E+02 -0.44418989124E+02 -0.23018379252E+02  0.62491935974E+02  0.00000000000E+00 0. -1.
</event>
<event>
 4    1  0.9925048E-003  0.9118800E+02  0.7818608E-02  0.1130116E+00
         25   -1    0    0    0    0  0.00000000000E+00  0.00000000000E+00  0.99999998245E-14  0.12500000000E+03  0.12500000000E+03 0.  0.
        -13    1    1    0    0    0 -0.11975705362E+02 -0.24512083713E+02 -0.20647837864E+02  0.34214092701E+02  0.10566000000E+00 0. -1.
         13    1    1    0    0    0  0.11781700029E+02 -0.14903499070E+02 -0.24402786000E+02  0.30926200360E+02  0.10566000000E+00 0.  1.
         22    1    1    0    0    0  0.19400533300E+00  0.39415582783E+02  0.45050623864E+02  0.59859706939E+02  0.00000000000E+00 0.  1.
</event>
<event>
 4    1  0.9925048E-003  0.9118800E+02  0.7818608E-02  0.1130116E+00
         25   -1    0    0    0    0  0.00000000000E+00  0.00000000000E+00  0.99999998245E-14  0.12500000000E+03  0.12500000000E+03 0.  0.
        -13    1    1    0    0    0 -0.17381549502E+02  0.46398535392E+01 -0.16054690734E+02  0.24112460732E+02  0.10566000000E+00 0.  1.
         13    1    1    0    0    0 -0.30951646849E+02 -0.48858459595E+01 -0.22899107024E+02  0.38810516615E+02  0.10566000000E+00 0. -1.
         22    1    1    0    0    0  0.48333196351E+02  0.24599242026E+00  0.38953797757E+02  0.62077022653E+02  0.00000000000E+00 0.  1.
</event>
<event>
 4    1  0.9925048E-003  0.9118800E+02  0.7818608E-02  0.1130116E+00
         25   -1    0    0    0    0  0.00000000000E+00  0.00000000000E+00  0.99999998245E-14  0.12500000000E+03  0.12500000000E+03 0.  0.
        -13    1    1    0    0    0  0.28746197087E+02  0.60709963144E+01  0.19411661567E+02  0.35213983190E+02  0.10566000000E+00 0. -1.
         13    1    1    0    0    0  0.22307845304E+02  0.47872442989E+01  0.14965682738E+02  0.27286269330E+02  0.10566000000E+00 0. -1.
         22    1    1    0    0    0 -0.51054042391E+02 -0.10858240613E+02 -0.34377344305E+02  0.62499747481E+02  0.00000000000E+00 0. -1.
</event>
<event>
 4    1  0.9925048E-003  0.9118800E+02  0.7818608E-02  0.1130116E+00
         25   -1    0    0    0    0  0.00000000000E+00  0.00000000000E+00  0.99999998245E-14  0.12500000000E+03  0.12500000000E+03 0.  0.
        -13    1    1    0    0    0 -0.21528167083E+02  0.26316201257E+02 -0.32343533676E+02  0.46926748889E+02  0.10566000000E+00 0. -1.
         13    1    1    0    0    0 -0.65778031978E+01  0.11037865689E+02 -0.89828850350E+01  0.15678181063E+02  0.10566000000E+00 0.  1.
         22    1    1    0    0    0  0.28105970281E+02 -0.37354066946E+02  0.41326418711E+02  0.62395070048E+02  0.00000000000E+00 0. -1.
</event>
<event>
 4    1  0.9925048E-003  0.9118800E+02  0.7818608E-02  0.1130116E+00
         25   -1    0    0    0    0  0.00000000000E+00  0.00000000000E+00  0.99999998245E-14  0.12500000000E+03  0.12500000000E+03 0.  0.
        -13    1    1    0    0    0  0.93103254660E+01  0.14218848354E+01 -0.61636039948E+00  0.94390137698E+01  0.10566000000E+00 0.  1.
         13    1    1    0    0    0  0.52318488384E+02  0.86529590829E+01 -0.19009792779E+01  0.53063384871E+02  0.10566000000E+00 0.  1.
         22    1    1    0    0    0 -0.61628813850E+02 -0.10074843918E+02  0.25173396773E+01  0.62497601359E+02  0.00000000000E+00 0.  1.
</event>
<event>
 4    1  0.9925048E-003  0.9118800E+02  0.7818608E-02  0.1130116E+00
         25   -1    0    0    0    0  0.00000000000E+00  0.00000000000E+00  0.99999998245E-14  0.12500000000E+03  0.12500000000E+03 0.  0.
        -13    1    1    0    0    0  0.24532597863E+01  0.54228792529E+00  0.13963686280E+01  0.28763812602E+01  0.10566000000E+00 0.  1.
         13    1    1    0    0    0  0.47787950229E+02  0.27746012511E+02  0.22560656719E+02  0.59686881247E+02  0.10566000000E+00 0. -1.
         22    1    1    0    0    0 -0.50241210015E+02 -0.28288300436E+02 -0.23957025347E+02  0.62436737493E+02  0.00000000000E+00 0. -1.
</event>
<event>
 4    1  0.9925048E-003  0.9118800E+02  0.7818608E-02  0.1130116E+00
         25   -1    0    0    0    0  0.00000000000E+00  0.00000000000E+00  0.99999998245E-14  0.12500000000E+03  0.12500000000E+03 0.  0.
        -13    1    1    0    0    0  0.26782886102E+01 -0.10816366818E+01  0.25329231796E+01  0.38431798891E+01  0.10566000000E+00 0.  1.
         13    1    1    0    0    0  0.56320907647E+02  0.15088595125E+02  0.10207253031E+02  0.59193830079E+02  0.10566000000E+00 0. -1.
         22    1    1    0    0    0 -0.58999196257E+02 -0.14006958443E+02 -0.12740176211E+02  0.61962990032E+02  0.00000000000E+00 0. -1.
</event>
<event>
 4    1  0.9925048E-003  0.9118800E+02  0.7818608E-02  0.1130116E+00
         25   -1    0    0    0    0  0.00000000000E+00  0.00000000000E+00  0.99999998245E-14  0.12500000000E+03  0.12500000000E+03 0.  0.
        -13    1    1    0    0    0 -0.32893782365E+02  0.15174667427E+02 -0.37018349505E+02  0.51794216027E+02  0.10566000000E+00 0.  1.
         13    1    1    0    0    0 -0.70782068998E+01  0.28654112101E+01 -0.75079358228E+01  0.10709428494E+02  0.10566000000E+00 0. -1.
         22    1    1    0    0    0  0.39971989265E+02 -0.18040078637E+02  0.44526285327E+02  0.62496355478E+02  0.00000000000E+00 0.  1.
</event>
<event>
 4    1  0.9925048E-003  0.9118800E+02  0.7818608E-02  0.1130116E+00
         25   -1    0    0    0    0  0.00000000000E+00  0.00000000000E+00  0.99999998245E-14  0.12500000000E+03  0.12500000000E+03 0.  0.
        -13    1    1    0    0    0  0.32799952132E+01  0.52617246436E+01  0.20393019057E+01  0.65279423344E+01  0.10566000000E+00 0. -1.
         13    1    1    0    0    0  0.31170017792E+02  0.44119148666E+02  0.14689758848E+02  0.55980974153E+02  0.10566000000E+00 0.  1.
         22    1    1    0    0    0 -0.34450013005E+02 -0.49380873309E+02 -0.16729060754E+02  0.62491083512E+02  0.00000000000E+00 0.  1.
</event>
<event>
 4    1  0.9925048E-003  0.9118800E+02  0.7818608E-02  0.1130116E+00
         25   -1    0    0    0    0  0.00000000000E+00  0.00000000000E+00  0.99999998245E-14  0.12500000000E+03  0.12500000000E+03 0.  0.
        -13    1    1    0    0    0  0.27076615688E+01 -0.52678933362E+02  0.81341728439E+01  0.53372065571E+02  0.10566000000E+00 0. -1.
         13    1    1    0    0    0  0.28309635311E+01 -0.88984135772E+01 -0.10170701761E+01  0.93937061101E+01  0.10566000000E+00 0.  1.
         22    1    1    0    0    0 -0.55386250998E+01  0.61577346940E+02 -0.71171026678E+01  0.62234228319E+02  0.00000000000E+00 0. -1.
</event>
<event>
 4    1  0.9925048E-003  0.9118800E+02  0.7818608E-02  0.1130116E+00
         25   -1    0    0    0    0  0.00000000000E+00  0.00000000000E+00  0.99999998245E-14  0.12500000000E+03  0.12500000000E+03 0.  0.
        -13    1    1    0    0    0 -0.50804474970E+02  0.63089265168E+01  0.11700349764E+01  0.51208176853E+02  0.10566000000E+00 0.  1.
         13    1    1    0    0    0 -0.11198206231E+02  0.14509166980E+01  0.92728113882E-01  0.11292685446E+02  0.10566000000E+00 0. -1.
         22    1    1    0    0    0  0.62002681200E+02 -0.77598432148E+01 -0.12627630902E+01  0.62499137701E+02  0.00000000000E+00 0.  1.
</event>
<event>
 4    1  0.9925048E-003  0.9118800E+02  0.7818608E-02  0.1130116E+00
         25   -1    0    0    0    0  0.00000000000E+00  0.00000000000E+00  0.99999998245E-14  0.12500000000E+03  0.12500000000E+03 0.  0.
        -13    1    1    0    0    0  0.49196112139E+02 -0.27871038205E+02  0.73731580673E+01  0.57021284133E+02  0.10566000000E+00 0. -1.
         13    1    1    0    0    0 -0.58985989721E+00 -0.56287321925E+01 -0.69258820652E+01  0.89448067173E+01  0.10566000000E+00 0.  1.
         22    1    1    0    0    0 -0.48606252242E+02  0.33499770397E+02 -0.44727600214E+00  0.59033909150E+02  0.00000000000E+00 0. -1.
</event>
<event>
 4    1  0.9925048E-003  0.9118800E+02  0.7818608E-02  0.1130116E+00
         25   -1    0    0    0    0  0.00000000000E+00  0.00000000000E+00  0.99999998245E-14  0.12500000000E+03  0.12500000000E+03 0.  0.
        -13    1    1    0    0    0 -0.24943255012E+02 -0.98898640925E+00 -0.19506134510E+02  0.31680348992E+02  0.10566000000E+00 0. -1.
         13    1    1    0    0    0 -0.24296780158E+02 -0.93330597188E+00 -0.18937977123E+02  0.30819843082E+02  0.10566000000E+00 0. -1.
         22    1    1    0    0    0  0.49240035170E+02  0.19222923811E+01  0.38444111632E+02  0.62499807926E+02  0.00000000000E+00 0. -1.
</event>
<event>
 4    1  0.9925048E-003  0.9118800E+02  0.7818608E-02  0.1130116E+00
         25   -1    0    0    0    0  0.00000000000E+00  0.00000000000E+00  0.99999998245E-14  0.12500000000E+03  0.12500000000E+03 0.  0.
        -13    1    1    0    0    0  0.14305537492E+01  0.25809810424E+01  0.12867459154E+01  0.32209977114E+01  0.10566000000E+00 0.  1.
         13    1    1    0    0    0  0.24914893666E+02  0.48093212153E+02  0.24092595268E+02  0.59280462990E+02  0.10566000000E+00 0.  1.
         22    1    1    0    0    0 -0.26345447415E+02 -0.50674193195E+02 -0.25379341184E+02  0.62498539298E+02  0.00000000000E+00 0.  1.
</event>
<event>
 4    1  0.9925048E-003  0.9118800E+02  0.7818608E-02  0.1130116E+00
         25   -1    0    0    0    0  0.00000000000E+00  0.00000000000E+00  0.99999998245E-14  0.12500000000E+03  0.12500000000E+03 0.  0.
        -13    1    1    0    0    0  0.14225192197E+01  0.49082451267E+01 -0.98086341197E+01  0.11060510770E+02  0.10566000000E+00 0. -1.
         13    1    1    0    0    0  0.60887477434E+01  0.31001611445E+02 -0.40693453474E+02  0.51518356738E+02  0.10566000000E+00 0.  1.
         22    1    1    0    0    0 -0.75112669631E+01 -0.35909856572E+02  0.50502087593E+02  0.62421132493E+02  0.00000000000E+00 0.  1.
</event>
<event>
 4    1  0.9925048E-003  0.9118800E+02  0.7818608E-02  0.1130116E+00
         25   -1    0    0    0    0  0.00000000000E+00  0.00000000000E+00  0.99999998245E-14  0.12500000000E+03  0.12500000000E+03 0.  0.
        -13    1    1    0    0    0 -0.60252414970E+01  0.56239141551E+01 -0.25154338621E+00  0.82465983067E+01  0.10566000000E+00 0. -1.
         13    1    1    0    0    0 -0.30856579643E+02  0.42961806750E+02 -0.12692872000E+02  0.54396374053E+02  0.10566000000E+00 0.  1.
         22    1    1    0    0    0  0.36881821140E+02 -0.48585720905E+02  0.12944415386E+02  0.62357027640E+02  0.00000000000E+00 0.  1.
</event>
<event>
 4    1  0.9925048E-003  0.9118800E+02  0.7818608E-02  0.1130116E+00
         25   -1    0    0    0    0  0.00000000000E+00  0.00000000000E+00  0.99999998245E-14  0.12500000000E+03  0.12500000000E+03 0.  0.
        -13    1    1    0    0    0  0.29721351806E+02  0.40772601137E+02  0.19905430047E+02  0.54240216317E+02  0.10566000000E+00 0. -1.
         13    1    1    0    0    0  0.25734033669E+01  0.78551752178E+01  0.18353718862E+01  0.84679357926E+01  0.10566000000E+00 0.  1.
         22    1    1    0    0    0 -0.32294755173E+02 -0.48627776355E+02 -0.21740801934E+02  0.62291847891E+02  0.00000000000E+00 0. -1.
</event>
<event>
 4    1  0.9925048E-003  0.9118800E+02  0.7818608E-02  0.1130116E+00
         25   -1    0    0    0    0  0.00000000000E+00  0.00000000000E+00  0.99999998245E-14  0.12500000000E+03  0.12500000000E+03 0.  0.
        -13    1    1    0    0    0  0.14303162059E+02  0.48256147967E+01 -0.15312749571E+02  0.21502522329E+02  0.10566000000E+00 0.  1.
         13    1    1    0    0    0  0.23987941418E+02  0.20570414182E+01 -0.33389003766E+02  0.41164177259E+02  0.10566000000E+00 0. -1.
         22    1    1    0    0    0 -0.38291103477E+02 -0.68826562149E+01  0.48701753338E+02  0.62333300412E+02  0.00000000000E+00 0.  1.
</event>
<event>
 4    1  0.9925048E-003  0.9118800E+02  0.7818608E-02  0.1130116E+00
         25   -1    0    0    0    0  0.00000000000E+00  0.00000000000E+00  0.99999998245E-14  0.12500000000E+03  0.12500000000E+03 0.  0.
        -13    1    1    0    0    0  0.17312742917E+02 -0.16637920908E+02 -0.34081719618E+02  0.41690841388E+02  0.10566000000E+00 0.  1.
         13    1    1    0    0    0  0.87167478314E+01 -0.82416325518E+01 -0.17003391500E+02  0.20809437436E+02  0.10566000000E+00 0.  1.
         22    1    1    0    0    0 -0.26029490749E+02  0.24879553460E+02  0.51085111119E+02  0.62499721175E+02  0.00000000000E+00 0.  1.
</event>
<event>
 4    1  0.9925048E-003  0.9118800E+02  0.7818608E-02  0.1130116E+00
         25   -1    0    0    0    0  0.00000000000E+00  0.00000000000E+00  0.99999998245E-14  0.12500000000E+03  0.12500000000E+03 0.  0.
        -13    1    1    0    0    0 -0.56494664598E+00  0.16039622895E+02  0.43291085231E+02  0.46170530556E+02  0.10566000000E+00 0. -1.
         13    1    1    0    0    0  0.98006872306E+01  0.32184392296E+01  0.14169944289E+02  0.17527415852E+02  0.10566000000E+00 0. -1.
         22    1    1    0    0    0 -0.92357405846E+01 -0.19258062125E+02 -0.57461029521E+02  0.61302053591E+02  0.00000000000E+00 0. -1.
</event>
<event>
 4    1  0.9925048E-003  0.9118800E+02  0.7818608E-02  0.1130116E+00
         25   -1    0    0    0    0  0.00000000000E+00  0.00000000000E+00  0.99999998245E-14  0.12500000000E+03  0.12500000000E+03 0.  0.
        -13    1    1    0    0    0 -0.10782182321E+02  0.42214537422E+02 -0.18982314050E+02  0.47525383071E+02  0.10566000000E+00 0. -1.
         13    1    1    0    0    0  0.10315476928E+01  0.11079181579E+02 -0.10921197688E+02  0.15591538669E+02  0.10566000000E+00 0.  1.
         22    1    1    0    0    0  0.97506346280E+01 -0.53293719001E+02  0.29903511738E+02  0.61883078259E+02  0.00000000000E+00 0. -1.
</event>
<event>
 4    1  0.9925048E-003  0.9118800E+02  0.7818608E-02  0.1130116E+00
         25   -1    0    0    0    0  0.00000000000E+00  0.00000000000E+00  0.99999998245E-14  0.12500000000E+03  0.12500000000E+03 0.  0.
        -13    1    1    0    0    0 -0.37767855562E+02  0.86562215076E+01  0.27738894280E+02  0.47652896076E+02  0.10566000000E+00 0. -1.
         13    1    1    0    0    0 -0.83833430431E+01  0.92666340048E+01  0.92489928997E+01  0.15546896155E+02  0.10566000000E+00 0.  1.
         22    1    1    0    0    0  0.46151198605E+02 -0.17922855512E+02 -0.36987887179E+02  0.61800207769E+02  0.00000000000E+00 0. -1.
</event>
<event>
 4    1  0.9925048E-003  0.9118800E+02  0.7818608E-02  0.1130116E+00
         25   -1    0    0    0    0  0.00000000000E+00  0.00000000000E+00  0.99999998245E-14  0.12500000000E+03  0.12500000000E+03 0.  0.
        -13    1    1    0    0    0 -0.74314778841E+01  0.30478972719E+01 -0.61483721455E+00  0.80564092596E+01  0.10566000000E+00 0.  1.
         13    1    1    0    0    0 -0.49715337193E+02  0.21656723061E+02 -0.48609927073E+01  0.54445099138E+02  0.10566000000E+00 0. -1.
         22    1    1    0    0    0  0.57146815077E+02 -0.24704620333E+02  0.54758299219E+01  0.62498491603E+02  0.00000000000E+00 0. -1.
</event>
<event>
 4    1  0.9925048E-003  0.9118800E+02  0.7818608E-02  0.1130116E+00
         25   -1    0    0    0    0  0.00000000000E+00  0.00000000000E+00  0.99999998245E-14  0.12500000000E+03  0.12500000000E+03 0.  0.
        -13    1    1    0    0    0  0.26007813827E+02 -0.71806769710E+01  0.43683808353E+01  0.27332442572E+02  0.10566000000E+00 0. -1.
         13    1    1    0    0    0  0.33470412878E+02 -0.91523548584E+01  0.57208751034E+01  0.35167793699E+02  0.10566000000E+00 0. -1.
         22    1    1    0    0    0 -0.59478226705E+02  0.16333031829E+02 -0.10089255939E+02  0.62499763728E+02  0.00000000000E+00 0. -1.
</event>
<event>
 4    1  0.9925048E-003  0.9118800E+02  0.7818608E-02  0.1130116E+00
         25   -1    0    0    0    0  0.00000000000E+00  0.00000000000E+00  0.99999998245E-14  0.12500000000E+03  0.12500000000E+03 0.  0.
        -13    1    1    0    0    0 -0.14892558687E+02  0.14880040291E+02  0.40741371759E+02  0.45859289573E+02  0.10566000000E+00 0.  1.
         13    1    1    0    0    0 -0.47193005430E+01  0.58085102814E+01  0.14870618297E+02  0.16648034174E+02  0.10566000000E+00 0. -1.
         22    1    1    0    0    0  0.19611859230E+02 -0.20688550573E+02 -0.55611990056E+02  0.62492676253E+02  0.00000000000E+00 0.  1.
</event>
<event>
 4    1  0.9925048E-003  0.9118800E+02  0.7818608E-02  0.1130116E+00
         25   -1    0    0    0    0  0.00000000000E+00  0.00000000000E+00  0.99999998245E-14  0.12500000000E+03  0.12500000000E+03 0.  0.
        -13    1    1    0    0    0  0.54968025068E+01  0.13027686066E+02 -0.50090606883E+01  0.15001243116E+02  0.10566000000E+00 0.  1.
         13    1    1    0    0    0  0.19725621951E+02  0.40017369232E+02 -0.16325096585E+02  0.47507998738E+02  0.10566000000E+00 0. -1.
         22    1    1    0    0    0 -0.25222424458E+02 -0.53045055297E+02  0.21334157273E+02  0.62490758145E+02  0.00000000000E+00 0. -1.
</event>
<event>
 4    1  0.9925048E-003  0.9118800E+02  0.7818608E-02  0.1130116E+00
         25   -1    0    0    0    0  0.00000000000E+00  0.00000000000E+00  0.99999998245E-14  0.12500000000E+03  0.12500000000E+03 0.  0.
        -13    1    1    0    0    0  0.13394284553E+02  0.32874260471E+02 -0.45590199623E+02  0.57780631062E+02  0.10566000000E+00 0. -1.
         13    1    1    0    0    0 -0.67653003905E+01  0.28720769720E+01 -0.17245274417E+01  0.75500512872E+01  0.10566000000E+00 0.  1.
         22    1    1    0    0    0 -0.66289841628E+01 -0.35746337443E+02  0.47314727065E+02  0.59669317650E+02  0.00000000000E+00 0. -1.
</event>
<event>
 4    1  0.9925048E-003  0.9118800E+02  0.7818608E-02  0.1130116E+00
         25   -1    0    0    0    0  0.00000000000E+00  0.00000000000E+00  0.99999998245E-14  0.12500000000E+03  0.12500000000E+03 0.  0.
        -13    1    1    0    0    0  0.27974514816E+01  0.51089649255E+01 -0.86046688047E+01  0.10391282244E+02  0.10566000000E+00 0. -1.
         13    1    1    0    0    0  0.25386074664E+02  0.16928003508E+02 -0.42442912693E+02  0.52272574946E+02  0.10566000000E+00 0.  1.
         22    1    1    0    0    0 -0.28183526145E+02 -0.22036968433E+02  0.51047581497E+02  0.62336142810E+02  0.00000000000E+00 0.  1.
</event>
<event>
 4    1  0.9925048E-003  0.9118800E+02  0.7818608E-02  0.1130116E+00
         25   -1    0    0    0    0  0.00000000000E+00  0.00000000000E+00  0.99999998245E-14  0.12500000000E+03  0.12500000000E+03 0.  0.
        -13    1    1    0    0    0 -0.24299685543E+02  0.13001890008E+02  0.23356113241E+01  0.27658454504E+02  0.10566000000E+00 0. -1.
         13    1    1    0    0    0 -0.28402042541E+02  0.20340342141E+02  0.26250646164E-02  0.34934463068E+02  0.10566000000E+00 0.  1.
         22    1    1    0    0    0  0.52701728084E+02 -0.33342232149E+02 -0.23382363887E+01  0.62407082428E+02  0.00000000000E+00 0.  1.
</event>
<event>
 4    1  0.9925048E-003  0.9118800E+02  0.7818608E-02  0.1130116E+00
         25   -1    0    0    0    0  0.00000000000E+00  0.00000000000E+00  0.99999998245E-14  0.12500000000E+03  0.12500000000E+03 0.  0.
        -13    1    1    0    0    0 -0.81750307270E+01  0.86914233423E+01  0.51831906759E+01  0.13009557899E+02  0.10566000000E+00 0. -1.
         13    1    1    0    0    0 -0.24222934799E+02  0.36835831963E+02  0.22649321467E+02  0.49564422862E+02  0.10566000000E+00 0.  1.
         22    1    1    0    0    0  0.32397965526E+02 -0.45527255306E+02 -0.27832512142E+02  0.62426019239E+02  0.00000000000E+00 0.  1.
</event>
<event>
 4    1  0.9925048E-003  0.9118800E+02  0.7818608E-02  0.1130116E+00
         25   -1    0    0    0    0  0.00000000000E+00  0.00000000000E+00  0.99999998245E-14  0.12500000000E+03  0.12500000000E+03 0.  0.
        -13    1    1    0    0    0  0.51896118101E+01 -0.11472191597E+00 -0.47395358695E+01  0.70299072648E+01  0.10566000000E+00 0.  1.
         13    1    1    0    0    0  0.40960093987E+02 -0.12020039077E+01 -0.37387170332E+02  0.55470584838E+02  0.10566000000E+00 0.  1.
         22    1    1    0    0    0 -0.46149705797E+02  0.13167258236E+01  0.42126706201E+02  0.62499507897E+02  0.00000000000E+00 0.  1.
</event>
<event>
 4    1  0.9925048E-003  0.9118800E+02  0.7818608E-02  0.1130116E+00
         25   -1    0    0    0    0  0.00000000000E+00  0.00000000000E+00  0.99999998245E-14  0.12500000000E+03  0.12500000000E+03 0.  0.
        -13    1    1    0    0    0 -0.99902007293E+01  0.13436722137E+02  0.25990877675E+01  0.16944498625E+02  0.10566000000E+00 0.  1.
         13    1    1    0    0    0 -0.38098010042E+02  0.25283204410E+02 -0.65457844848E+01  0.46190445472E+02  0.10566000000E+00 0. -1.
         22    1    1    0    0    0  0.48088210771E+02 -0.38719926546E+02  0.39466967173E+01  0.61865055903E+02  0.00000000000E+00 0. -1.
</event>
<event>
 4    1  0.9925048E-003  0.9118800E+02  0.7818608E-02  0.1130116E+00
         25   -1    0    0    0    0  0.00000000000E+00  0.00000000000E+00  0.99999998245E-14  0.12500000000E+03  0.12500000000E+03 0.  0.
        -13    1    1    0    0    0 -0.20877726541E+02 -0.13395126603E+02  0.43451430503E+01  0.25183334060E+02  0.10566000000E+00 0. -1.
         13    1    1    0    0    0 -0.34377677244E+02 -0.15070388249E+02 -0.46179024371E+00  0.37538855989E+02  0.10566000000E+00 0.  1.
         22    1    1    0    0    0  0.55255403785E+02  0.28465514852E+02 -0.38833528066E+01  0.62277809951E+02  0.00000000000E+00 0.  1.
</event>
<event>
 4    1  0.9925048E-003  0.9118800E+02  0.7818608E-02  0.1130116E+00
         25   -1    0    0    0    0  0.00000000000E+00  0.00000000000E+00  0.99999998245E-14  0.12500000000E+03  0.12500000000E+03 0.  0.
        -13    1    1    0    0    0 -0.24047645581E+02  0.12501283633E+02  0.80193899820E+01  0.28264697595E+02  0.10566000000E+00 0. -1.
         13    1    1    0    0    0  0.15603575030E+02 -0.33369316430E+02  0.33315326647E+02  0.49667947273E+02  0.10566000000E+00 0.  1.
         22    1    1    0    0    0  0.84440705505E+01  0.20868032797E+02 -0.41334716629E+02  0.47067355132E+02  0.00000000000E+00 0.  1.
</event>
<event>
 4    1  0.9925048E-003  0.9118800E+02  0.7818608E-02  0.1130116E+00
         25   -1    0    0    0    0  0.00000000000E+00  0.00000000000E+00  0.99999998245E-14  0.12500000000E+03  0.12500000000E+03 0.  0.
        -13    1    1    0    0    0  0.38183442572E+02  0.34618195759E+02 -0.19287812769E+02  0.55031133458E+02  0.10566000000E+00 0. -1.
         13    1    1    0    0    0 -0.89895568325E+01  0.10251717225E+02  0.53987212098E+01  0.14665169377E+02  0.10566000000E+00 0.  1.
         22    1    1    0    0    0 -0.29193885739E+02 -0.44869912984E+02  0.13889091559E+02  0.55303697165E+02  0.00000000000E+00 0. -1.
</event>
<event>
 4    1  0.9925048E-003  0.9118800E+02  0.7818608E-02  0.1130116E+00
         25   -1    0    0    0    0  0.00000000000E+00  0.00000000000E+00  0.99999998245E-14  0.12500000000E+03  0.12500000000E+03 0.  0.
        -13    1    1    0    0    0 -0.53378337559E+02 -0.14127599571E+02  0.27419543805E+02  0.61649643444E+02  0.10566000000E+00 0.  1.
         13    1    1    0    0    0  0.13705227923E+01 -0.25685210197E+00  0.15645441567E+01  0.20983965736E+01  0.10566000000E+00 0. -1.
         22    1    1    0    0    0  0.52007814767E+02  0.14384451673E+02 -0.28984087962E+02  0.61251959983E+02  0.00000000000E+00 0.  1.
</event>
<event>
 4    1  0.9925048E-003  0.9118800E+02  0.7818608E-02  0.1130116E+00
         25   -1    0    0    0    0  0.00000000000E+00  0.00000000000E+00  0.99999998245E-14  0.12500000000E+03  0.12500000000E+03 0.  0.
        -13    1    1    0    0    0 -0.15820714002E+01 -0.27405192436E+00  0.43543904926E+00  0.16669809758E+01  0.10566000000E+00 0.  1.
         13    1    1    0    0    0 -0.95748643239E+01  0.56790029210E+02  0.21806209011E+02  0.61581712870E+02  0.10566000000E+00 0. -1.
         22    1    1    0    0    0  0.11156935724E+02 -0.56515977286E+02 -0.22241648060E+02  0.61751306154E+02  0.00000000000E+00 0. -1.
</event>
<event>
 4    1  0.9925048E-003  0.9118800E+02  0.7818608E-02  0.1130116E+00
         25   -1    0    0    0    0  0.00000000000E+00  0.00000000000E+00  0.99999998245E-14  0.12500000000E+03  0.12500000000E+03 0.  0.
        -13    1    1    0    0    0  0.26922437492E+02 -0.44557337407E+02  0.25436363562E+02  0.57941295399E+02  0.10566000000E+00 0. -1.
         13    1    1    0    0    0  0.22864868487E+01 -0.38594084589E+01  0.10644443529E+01  0.46116441296E+01  0.10566000000E+00 0.  1.
         22    1    1    0    0    0 -0.29208924340E+02  0.48416745866E+02 -0.26500807915E+02  0.62447060471E+02  0.00000000000E+00 0. -1.
</event>
<event>
 4    1  0.9925048E-003  0.9118800E+02  0.7818608E-02  0.1130116E+00
         25   -1    0    0    0    0  0.00000000000E+00  0.00000000000E+00  0.99999998245E-14  0.12500000000E+03  0.12500000000E+03 0.  0.
        -13    1    1    0    0    0  0.60371696924E+01 -0.67564712264E+01 -0.53751808617E+01  0.10535703805E+02  0.10566000000E+00 0.  1.
         13    1    1    0    0    0  0.29126351437E+02 -0.33880046182E+02 -0.26536199217E+02  0.51965208652E+02  0.10566000000E+00 0. -1.
         22    1    1    0    0    0 -0.35163521129E+02  0.40636517408E+02  0.31911380079E+02  0.62499087544E+02  0.00000000000E+00 0. -1.
</event>
<event>
 4    1  0.9925048E-003  0.9118800E+02  0.7818608E-02  0.1130116E+00
         25   -1    0    0    0    0  0.00000000000E+00  0.00000000000E+00  0.99999998245E-14  0.12500000000E+03  0.12500000000E+03 0.  0.
        -13    1    1    0    0    0 -0.52012762471E+01 -0.64451751213E+01 -0.32960703017E+01  0.89145274923E+01  0.10566000000E+00 0.  1.
         13    1    1    0    0    0 -0.30087218898E+02 -0.44524876881E+02  0.57427933011E+01  0.54043466221E+02  0.10566000000E+00 0. -1.
         22    1    1    0    0    0  0.35288495145E+02  0.50970052002E+02 -0.24467229994E+01  0.62042006287E+02  0.00000000000E+00 0. -1.
</event>
<event>
 4    1  0.9925048E-003  0.9118800E+02  0.7818608E-02  0.1130116E+00
         25   -1    0    0    0    0  0.00000000000E+00  0.00000000000E+00  0.99999998245E-14  0.12500000000E+03  0.12500000000E+03 0.  0.
        -13    1    1    0    0    0  0.80430437296E+01 -0.43171682209E+02 -0.30926346766E+02  0.53711588931E+02  0.10566000000E+00 0.  1.
         13    1    1    0    0    0 -0.55719986640E+01  0.14904441461E+02 -0.11931430030E+02  0.19888683490E+02  0.10566000000E+00 0. -1.
         22    1    1    0    0    0 -0.24710450657E+01  0.28267240748E+02  0.42857776796E+02  0.51399727579E+02  0.00000000000E+00 0.  1.
</event>
<event>
 4    1  0.9925048E-003  0.9118800E+02  0.7818608E-02  0.1130116E+00
         25   -1    0    0    0    0  0.00000000000E+00  0.00000000000E+00  0.99999998245E-14  0.12500000000E+03  0.12500000000E+03 0.  0.
        -13    1    1    0    0    0 -0.40780839082E+02  0.21365470456E+02  0.91309088194E+01  0.46935539029E+02  0.10566000000E+00 0.  1.
         13    1    1    0    0    0 -0.13505069862E+02  0.72111936977E+01  0.28079802998E+01  0.15565479239E+02  0.10566000000E+00 0. -1.
         22    1    1    0    0    0  0.54285908945E+02 -0.28576664154E+02 -0.11938889119E+02  0.62498981732E+02  0.00000000000E+00 0.  1.
</event>
<event>
 4    1  0.9925048E-003  0.9118800E+02  0.7818608E-02  0.1130116E+00
         25   -1    0    0    0    0  0.00000000000E+00  0.00000000000E+00  0.99999998245E-14  0.12500000000E+03  0.12500000000E+03 0.  0.
        -13    1    1    0    0    0  0.40908239074E+01  0.80045095563E+01  0.11339983528E+02  0.14471123105E+02  0.10566000000E+00 0. -1.
         13    1    1    0    0    0  0.13731462626E+02  0.26087032145E+02  0.37917517640E+02  0.48029528625E+02  0.10566000000E+00 0.  1.
         22    1    1    0    0    0 -0.17822286533E+02 -0.34091541701E+02 -0.49257501167E+02  0.62499348269E+02  0.00000000000E+00 0.  1.
</event>
<event>
 4    1  0.9925048E-003  0.9118800E+02  0.7818608E-02  0.1130116E+00
         25   -1    0    0    0    0  0.00000000000E+00  0.00000000000E+00  0.99999998245E-14  0.12500000000E+03  0.12500000000E+03 0.  0.
        -13    1    1    0    0    0  0.58144411586E+01  0.12932690705E+02  0.15895056200E+02  0.21300849525E+02  0.10566000000E+00 0. -1.
         13    1    1    0    0    0  0.11228022450E+02  0.24949981191E+02  0.30802702997E+02  0.41199365596E+02  0.10566000000E+00 0. -1.
         22    1    1    0    0    0 -0.17042463608E+02 -0.37882671896E+02 -0.46697759197E+02  0.62499784879E+02  0.00000000000E+00 0. -1.
</event>
<event>
 4    1  0.9925048E-003  0.9118800E+02  0.7818608E-02  0.1130116E+00
         25   -1    0    0    0    0  0.00000000000E+00  0.00000000000E+00  0.99999998245E-14  0.12500000000E+03  0.12500000000E+03 0.  0.
        -13    1    1    0    0    0 -0.42446114134E+01 -0.22512651849E+01  0.37090532501E+01  0.60706804421E+01  0.10566000000E+00 0.  1.
         13    1    1    0    0    0 -0.40015660885E+02 -0.14300162749E+02  0.37162682948E+02  0.56451961336E+02  0.10566000000E+00 0. -1.
         22    1    1    0    0    0  0.44260272298E+02  0.16551427934E+02 -0.40871736198E+02  0.62477358222E+02  0.00000000000E+00 0. -1.
</event>
<event>
 4    1  0.9925048E-003  0.9118800E+02  0.7818608E-02  0.1130116E+00
         25   -1    0    0    0    0  0.00000000000E+00  0.00000000000E+00  0.99999998245E-14  0.12500000000E+03  0.12500000000E+03 0.  0.
        -13    1    1    0    0    0 -0.15185163802E+01 -0.23062452450E+01  0.87085536784E+00  0.28972766928E+01  0.10566000000E+00 0.  1.
         13    1    1    0    0    0 -0.29990753059E+02 -0.47920181863E+02  0.18890955782E+02  0.59604265562E+02  0.10566000000E+00 0.  1.
         22    1    1    0    0    0  0.31509269439E+02  0.50226427108E+02 -0.19761811150E+02  0.62498457745E+02  0.00000000000E+00 0.  1.
</event>
<event>
 4    1  0.9925048E-003  0.9118800E+02  0.7818608E-02  0.1130116E+00
         25   -1    0    0    0    0  0.00000000000E+00  0.00000000000E+00  0.99999998245E-14  0.12500000000E+03  0.12500000000E+03 0.  0.
        -13    1    1    0    0    0 -0.89228343538E+01  0.48020195759E+01  0.63918975251E+01  0.11980980048E+02  0.10566000000E+00 0. -1.
         13    1    1    0    0    0 -0.37802077336E+02  0.19234920992E+02  0.27446949174E+02  0.50520544529E+02  0.10566000000E+00 0.  1.
         22    1    1    0    0    0  0.46724911690E+02 -0.24036940567E+02 -0.33838846699E+02  0.62498475423E+02  0.00000000000E+00 0. -1.
</event>
<event>
 4    1  0.9925048E-003  0.9118800E+02  0.7818608E-02  0.1130116E+00
         25   -1    0    0    0    0  0.00000000000E+00  0.00000000000E+00  0.99999998245E-14  0.12500000000E+03  0.12500000000E+03 0.  0.
        -13    1    1    0    0    0  0.54797157153E+02 -0.51719083269E+01 -0.18436289011E+02  0.58046403716E+02  0.10566000000E+00 0.  1.
         13    1    1    0    0    0  0.39866296032E+01  0.20065042711E+01 -0.16390805936E+01  0.47557359274E+01  0.10566000000E+00 0. -1.
         22    1    1    0    0    0 -0.58783786756E+02  0.31654040558E+01  0.20075369605E+02  0.62197860357E+02  0.00000000000E+00 0.  1.
</event>
<event>
 4    1  0.9925048E-003  0.9118800E+02  0.7818608E-02  0.1130116E+00
         25   -1    0    0    0    0  0.00000000000E+00  0.00000000000E+00  0.99999998245E-14  0.12500000000E+03  0.12500000000E+03 0.  0.
        -13    1    1    0    0    0 -0.40118084194E+01 -0.80697580660E+01 -0.32635043374E+02  0.33856651076E+02  0.10566000000E+00 0. -1.
         13    1    1    0    0    0 -0.36571929483E+01 -0.72793051452E+01 -0.27461924311E+02  0.28644926157E+02  0.10566000000E+00 0.  1.
         22    1    1    0    0    0  0.76690013677E+01  0.15349063211E+02  0.60096967685E+02  0.62498422767E+02  0.00000000000E+00 0. -1.
</event>
<event>
 4    1  0.9925048E-003  0.9118800E+02  0.7818608E-02  0.1130116E+00
         25   -1    0    0    0    0  0.00000000000E+00  0.00000000000E+00  0.99999998245E-14  0.12500000000E+03  0.12500000000E+03 0.  0.
        -13    1    1    0    0    0  0.30743262031E+01  0.34052044893E+00  0.47414262483E+01  0.56621305781E+01  0.10566000000E+00 0.  1.
         13    1    1    0    0    0  0.39296728224E+02  0.80461226984E+01  0.40350901876E+02  0.56896215919E+02  0.10566000000E+00 0. -1.
         22    1    1    0    0    0 -0.42371054427E+02 -0.83866431474E+01 -0.45092328124E+02  0.62441653503E+02  0.00000000000E+00 0. -1.
</event>
<event>
 4    1  0.9925048E-003  0.9118800E+02  0.7818608E-02  0.1130116E+00
         25   -1    0    0    0    0  0.00000000000E+00  0.00000000000E+00  0.99999998245E-14  0.12500000000E+03  0.12500000000E+03 0.  0.
        -13    1    1    0    0    0  0.16071811276E+02  0.70836774612E+01 -0.43456449486E+02  0.46871694764E+02  0.10566000000E+00 0. -1.
         13    1    1    0    0    0  0.52183271542E+01  0.26125442672E+01 -0.14498788443E+02  0.15629534740E+02  0.10566000000E+00 0.  1.
         22    1    1    0    0    0 -0.21290138430E+02 -0.96962217284E+01  0.57955237929E+02  0.62498770496E+02  0.00000000000E+00 0.  1.
</event>
<event>
 4    1  0.9925048E-003  0.9118800E+02  0.7818608E-02  0.1130116E+00
         25   -1    0    0    0    0  0.00000000000E+00  0.00000000000E+00  0.99999998245E-14  0.12500000000E+03  0.12500000000E+03 0.  0.
        -13    1    1    0    0    0 -0.13453547550E+01 -0.90339289442E+01  0.61997130297E+00  0.91551832334E+01  0.10566000000E+00 0. -1.
         13    1    1    0    0    0 -0.67759453294E+01 -0.52663399074E+02  0.51582187405E+01  0.53347590590E+02  0.10566000000E+00 0.  1.
         22    1    1    0    0    0  0.81213000845E+01  0.61697328018E+02 -0.57781900435E+01  0.62497226177E+02  0.00000000000E+00 0.  1.
</event>
<event>
 4    1  0.9925048E-003  0.9118800E+02  0.7818608E-02  0.1130116E+00
         25   -1    0    0    0    0  0.00000000000E+00  0.00000000000E+00  0.99999998245E-14  0.12500000000E+03  0.12500000000E+03 0.  0.
        -13    1    1    0    0    0  0.68130845735E+01 -0.22641970484E+01 -0.19841162478E+02  0.21100417110E+02  0.10566000000E+00 0. -1.
         13    1    1    0    0    0  0.11578650729E+02 -0.33399435027E+01 -0.39617368260E+02  0.41409750147E+02  0.10566000000E+00 0.  1.
         22    1    1    0    0    0 -0.18391735303E+02  0.56041405512E+01  0.59458530738E+02  0.62489832744E+02  0.00000000000E+00 0.  1.
</event>
<event>
 4    1  0.9925048E-003  0.9118800E+02  0.7818608E-02  0.1130116E+00
         25   -1    0    0    0    0  0.00000000000E+00  0.00000000000E+00  0.99999998245E-14  0.12500000000E+03  0.12500000000E+03 0.  0.
        -13    1    1    0    0    0  0.88157362656E+01 -0.36677694282E+02  0.13319458466E+02  0.40004869724E+02  0.10566000000E+00 0.  1.
         13    1    1    0    0    0  0.50168317280E+01 -0.20644238006E+02  0.73945548607E+01  0.22495416624E+02  0.10566000000E+00 0.  1.
         22    1    1    0    0    0 -0.13832567994E+02  0.57321932288E+02 -0.20714013327E+02  0.62499713653E+02  0.00000000000E+00 0.  1.
</event>
<event>
 4    1  0.9925048E-003  0.9118800E+02  0.7818608E-02  0.1130116E+00
         25   -1    0    0    0    0  0.00000000000E+00  0.00000000000E+00  0.99999998245E-14  0.12500000000E+03  0.12500000000E+03 0.  0.
        -13    1    1    0    0    0  0.12602990794E+02 -0.98247750987E+01  0.50219536818E+01  0.16750903424E+02  0.10566000000E+00 0. -1.
         13    1    1    0    0    0 -0.11991814229E+02 -0.45300251346E+02  0.15601108863E+02  0.49389494250E+02  0.10566000000E+00 0.  1.
         22    1    1    0    0    0 -0.61117656490E+00  0.55125026444E+02 -0.20623062544E+02  0.58859602326E+02  0.00000000000E+00 0.  1.
</event>
<event>
 4    1  0.9925048E-003  0.9118800E+02  0.7818608E-02  0.1130116E+00
         25   -1    0    0    0    0  0.00000000000E+00  0.00000000000E+00  0.99999998245E-14  0.12500000000E+03  0.12500000000E+03 0.  0.
        -13    1    1    0    0    0  0.60997205824E+01 -0.24022292661E+01  0.38590386468E+02  0.39143407982E+02  0.10566000000E+00 0. -1.
         13    1    1    0    0    0  0.37322533679E+01 -0.12422613578E+01  0.23023234768E+02  0.23357085257E+02  0.10566000000E+00 0. -1.
         22    1    1    0    0    0 -0.98319739504E+01  0.36444906239E+01 -0.61613621236E+02  0.62499506762E+02  0.00000000000E+00 0. -1.
</event>
<event>
 4    1  0.9925048E-003  0.9118800E+02  0.7818608E-02  0.1130116E+00
         25   -1    0    0    0    0  0.00000000000E+00  0.00000000000E+00  0.99999998245E-14  0.12500000000E+03  0.12500000000E+03 0.  0.
        -13    1    1    0    0    0  0.35042200416E+01 -0.33799087449E+02 -0.57544053302E+01  0.34464216446E+02  0.10566000000E+00 0. -1.
         13    1    1    0    0    0  0.33668512659E+01 -0.27350297264E+02 -0.51745585137E+01  0.28038574638E+02  0.10566000000E+00 0.  1.
         22    1    1    0    0    0 -0.68710713075E+01  0.61149384713E+02  0.10928963844E+02  0.62497208917E+02  0.00000000000E+00 0. -1.
</event>
<event>
 4    1  0.9925048E-003  0.9118800E+02  0.7818608E-02  0.1130116E+00
         25   -1    0    0    0    0  0.00000000000E+00  0.00000000000E+00  0.99999998245E-14  0.12500000000E+03  0.12500000000E+03 0.  0.
        -13    1    1    0    0    0 -0.26803124847E+02  0.11027327137E+02  0.42302922545E+02  0.51279214748E+02  0.10566000000E+00 0.  1.
         13    1    1    0    0    0 -0.10807854656E+01  0.20040113373E+01  0.11506783028E+02  0.11730361390E+02  0.10566000000E+00 0. -1.
         22    1    1    0    0    0  0.27883910312E+02 -0.13031338475E+02 -0.53809705572E+02  0.61990423862E+02  0.00000000000E+00 0.  1.
</event>
<event>
 4    1  0.9925048E-003  0.9118800E+02  0.7818608E-02  0.1130116E+00
         25   -1    0    0    0    0  0.00000000000E+00  0.00000000000E+00  0.99999998245E-14  0.12500000000E+03  0.12500000000E+03 0.  0.
        -13    1    1    0    0    0 -0.27019097745E+01  0.88737689330E+00 -0.69619077723E+01  0.75211088308E+01  0.10566000000E+00 0.  1.
         13    1    1    0    0    0 -0.19440586044E+02  0.61316225692E+01 -0.51060705253E+02  0.54979450397E+02  0.10566000000E+00 0.  1.
         22    1    1    0    0    0  0.22142495819E+02 -0.70189994625E+01  0.58022613025E+02  0.62499440772E+02  0.00000000000E+00 0.  1.
</event>
<event>
 4    1  0.9925048E-003  0.9118800E+02  0.7818608E-02  0.1130116E+00
         25   -1    0    0    0    0  0.00000000000E+00  0.00000000000E+00  0.99999998245E-14  0.12500000000E+03  0.12500000000E+03 0.  0.
        -13    1    1    0    0    0  0.10109295436E+02  0.37078042131E+02 -0.74509413509E+01  0.39147244520E+02  0.10566000000E+00 0. -1.
         13    1    1    0    0    0  0.60098471068E+01  0.22063450297E+02 -0.47395281989E+01  0.23353552039E+02  0.10566000000E+00 0.  1.
         22    1    1    0    0    0 -0.16119142543E+02 -0.59141492428E+02  0.12190469550E+02  0.62499203441E+02  0.00000000000E+00 0. -1.
</event>
<event>
 4    1  0.9925048E-003  0.9118800E+02  0.7818608E-02  0.1130116E+00
         25   -1    0    0    0    0  0.00000000000E+00  0.00000000000E+00  0.99999998245E-14  0.12500000000E+03  0.12500000000E+03 0.  0.
        -13    1    1    0    0    0 -0.12191812489E+02 -0.25078198171E+02  0.55319638884E+01  0.28428332764E+02  0.10566000000E+00 0.  1.
         13    1    1    0    0    0  0.14652537119E+01 -0.31332771627E+02  0.16041441659E+02  0.35231073796E+02  0.10566000000E+00 0. -1.
         22    1    1    0    0    0  0.10726558777E+02  0.56410969798E+02 -0.21573405547E+02  0.61340593440E+02  0.00000000000E+00 0. -1.
</event>
<event>
 4    1  0.9925048E-003  0.9118800E+02  0.7818608E-02  0.1130116E+00
         25   -1    0    0    0    0  0.00000000000E+00  0.00000000000E+00  0.99999998245E-14  0.12500000000E+03  0.12500000000E+03 0.  0.
        -13    1    1    0    0    0 -0.72721282005E+01  0.41912397006E+01  0.12329627771E+02  0.14915804497E+02  0.10566000000E+00 0.  1.
         13    1    1    0    0    0 -0.81193184902E+01 -0.43835903841E+02  0.27031728790E+02  0.52136698435E+02  0.10566000000E+00 0. -1.
         22    1    1    0    0    0  0.15391446691E+02  0.39644664141E+02 -0.39361356561E+02  0.57947497067E+02  0.00000000000E+00 0. -1.
</event>
<event>
 4    1  0.9925048E-003  0.9118800E+02  0.7818608E-02  0.1130116E+00
         25   -1    0    0    0    0  0.00000000000E+00  0.00000000000E+00  0.99999998245E-14  0.12500000000E+03  0.12500000000E+03 0.  0.
        -13    1    1    0    0    0 -0.35636167289E+02 -0.17781408573E+02 -0.16293159395E+02  0.43030141959E+02  0.10566000000E+00 0.  1.
         13    1    1    0    0    0 -0.17646089782E+02 -0.97941264370E+01  0.18927599412E+01  0.20270744967E+02  0.10566000000E+00 0. -1.
         22    1    1    0    0    0  0.53282257072E+02  0.27575535010E+02  0.14400399453E+02  0.61699113074E+02  0.00000000000E+00 0.  1.
</event>
<event>
 4    1  0.9925048E-003  0.9118800E+02  0.7818608E-02  0.1130116E+00
         25   -1    0    0    0    0  0.00000000000E+00  0.00000000000E+00  0.99999998245E-14  0.12500000000E+03  0.12500000000E+03 0.  0.
        -13    1    1    0    0    0  0.39232839742E+02 -0.21495731827E+02 -0.19517661767E+02  0.48808119057E+02  0.10566000000E+00 0. -1.
         13    1    1    0    0    0  0.56780522311E+01 -0.11787308213E+02 -0.64126730067E+01  0.14571014075E+02  0.10566000000E+00 0.  1.
         22    1    1    0    0    0 -0.44910891973E+02  0.33283040040E+02  0.25930334774E+02  0.61620866868E+02  0.00000000000E+00 0. -1.
</event>
<event>
 4    1  0.9925048E-003  0.9118800E+02  0.7818608E-02  0.1130116E+00
         25   -1    0    0    0    0  0.00000000000E+00  0.00000000000E+00  0.99999998245E-14  0.12500000000E+03  0.12500000000E+03 0.  0.
        -13    1    1    0    0    0 -0.76696560651E+01  0.32942396075E+01  0.63589849353E+01  0.10493974090E+02  0.10566000000E+00 0.  1.
         13    1    1    0    0    0 -0.37937812093E+02  0.16460076706E+02  0.31534728231E+02  0.52006364613E+02  0.10566000000E+00 0.  1.
         22    1    1    0    0    0  0.45607468158E+02 -0.19754316314E+02 -0.37893713167E+02  0.62499661298E+02  0.00000000000E+00 0.  1.
</event>
<event>
 4    1  0.9925048E-003  0.9118800E+02  0.7818608E-02  0.1130116E+00
         25   -1    0    0    0    0  0.00000000000E+00  0.00000000000E+00  0.99999998245E-14  0.12500000000E+03  0.12500000000E+03 0.  0.
        -13    1    1    0    0    0 -0.80223821657E+01 -0.33660325415E+02  0.40940101125E+01  0.34844629507E+02  0.10566000000E+00 0.  1.
         13    1    1    0    0    0  0.17405805800E+02 -0.25012112553E+02 -0.40251643693E+01  0.30737289440E+02  0.10566000000E+00 0. -1.
         22    1    1    0    0    0 -0.93834236345E+01  0.58672437968E+02 -0.68845743235E-01  0.59418081052E+02  0.00000000000E+00 0. -1.
</event>
<event>
 4    1  0.9925048E-003  0.9118800E+02  0.7818608E-02  0.1130116E+00
         25   -1    0    0    0    0  0.00000000000E+00  0.00000000000E+00  0.99999998245E-14  0.12500000000E+03  0.12500000000E+03 0.  0.
        -13    1    1    0    0    0  0.40119542928E+02  0.25404619605E+02  0.23877245703E+02  0.53151730437E+02  0.10566000000E+00 0. -1.
         13    1    1    0    0    0  0.12926805547E+01  0.68428681010E+00  0.11413448226E+02  0.11507268828E+02  0.10566000000E+00 0.  1.
         22    1    1    0    0    0 -0.41412223483E+02 -0.26088906415E+02 -0.35290693929E+02  0.60341000735E+02  0.00000000000E+00 0. -1.
</event>
<event>
 4    1  0.9925048E-003  0.9118800E+02  0.7818608E-02  0.1130116E+00
         25   -1    0    0    0    0  0.00000000000E+00  0.00000000000E+00  0.99999998245E-14  0.12500000000E+03  0.12500000000E+03 0.  0.
        -13    1    1    0    0    0  0.72840262945E+01 -0.62617018206E+00  0.37478845876E+01  0.82162601634E+01  0.10566000000E+00 0.  1.
         13    1    1    0    0    0  0.40229412171E+02 -0.38109720526E+02 -0.23987092594E+01  0.55466398588E+02  0.10566000000E+00 0. -1.
         22    1    1    0    0    0 -0.47513438465E+02  0.38735890708E+02 -0.13491753282E+01  0.61317341249E+02  0.00000000000E+00 0. -1.
</event>
<event>
 4    1  0.9925048E-003  0.9118800E+02  0.7818608E-02  0.1130116E+00
         25   -1    0    0    0    0  0.00000000000E+00  0.00000000000E+00  0.99999998245E-14  0.12500000000E+03  0.12500000000E+03 0.  0.
        -13    1    1    0    0    0  0.31968053713E+00 -0.15258073119E+00  0.10321372506E+01  0.10963338292E+01  0.10566000000E+00 0.  1.
         13    1    1    0    0    0 -0.53477865229E+00 -0.95863892300E+01  0.60676164886E+02  0.61431205393E+02  0.10566000000E+00 0. -1.
         22    1    1    0    0    0  0.21509811517E+00  0.97389699612E+01 -0.61708302137E+02  0.62472460778E+02  0.00000000000E+00 0. -1.
</event>
<event>
 4    1  0.9925048E-003  0.9118800E+02  0.7818608E-02  0.1130116E+00
         25   -1    0    0    0    0  0.00000000000E+00  0.00000000000E+00  0.99999998245E-14  0.12500000000E+03  0.12500000000E+03 0.  0.
        -13    1    1    0    0    0 -0.44932628671E+02 -0.25813280215E+02  0.28360630202E+02  0.59072862333E+02  0.10566000000E+00 0.  1.
         13    1    1    0    0    0 -0.24792472545E+01 -0.15095058708E+01  0.18270480949E+01  0.34314054991E+01  0.10566000000E+00 0. -1.
         22    1    1    0    0    0  0.47411875925E+02  0.27322786086E+02 -0.30187678297E+02  0.62495732168E+02  0.00000000000E+00 0.  1.
</event>
<event>
 4    1  0.9925048E-003  0.9118800E+02  0.7818608E-02  0.1130116E+00
         25   -1    0    0    0    0  0.00000000000E+00  0.00000000000E+00  0.99999998245E-14  0.12500000000E+03  0.12500000000E+03 0.  0.
        -13    1    1    0    0    0  0.10800692030E+02  0.43971284127E+02 -0.98405706866E+01  0.46335480699E+02  0.10566000000E+00 0. -1.
         13    1    1    0    0    0  0.48250849975E+01  0.14980640771E+02 -0.37533031972E+01  0.16180219160E+02  0.10566000000E+00 0.  1.
         22    1    1    0    0    0 -0.15625777028E+02 -0.58951924898E+02  0.13593873884E+02  0.62484300141E+02  0.00000000000E+00 0. -1.
</event>
<event>
 4    1  0.9925048E-003  0.9118800E+02  0.7818608E-02  0.1130116E+00
         25   -1    0    0    0    0  0.00000000000E+00  0.00000000000E+00  0.99999998245E-14  0.12500000000E+03  0.12500000000E+03 0.  0.
        -13    1    1    0    0    0 -0.26513658743E+02 -0.50034358989E+02 -0.15190242120E+02  0.58627346854E+02  0.10566000000E+00 0.  1.
         13    1    1    0    0    0 -0.16885360502E+01 -0.34211590246E+01 -0.69888626836E+00  0.38800888026E+01  0.10566000000E+00 0. -1.
         22    1    1    0    0    0  0.28202194793E+02  0.53455518014E+02  0.15889128388E+02  0.62492564344E+02  0.00000000000E+00 0.  1.
</event>
<event>
 4    1  0.9925048E-003  0.9118800E+02  0.7818608E-02  0.1130116E+00
         25   -1    0    0    0    0  0.00000000000E+00  0.00000000000E+00  0.99999998245E-14  0.12500000000E+03  0.12500000000E+03 0.  0.
        -13    1    1    0    0    0  0.14853498648E+02  0.87946356763E+01 -0.51884378209E+01  0.18025068373E+02  0.10566000000E+00 0.  1.
         13    1    1    0    0    0  0.36762913810E+02  0.21911153109E+02 -0.12103549038E+02  0.44476033161E+02  0.10566000000E+00 0.  1.
         22    1    1    0    0    0 -0.51616412459E+02 -0.30705788785E+02  0.17291986859E+02  0.62498898467E+02  0.00000000000E+00 0.  1.
</event>
<event>
 4    1  0.9925048E-003  0.9118800E+02  0.7818608E-02  0.1130116E+00
         25   -1    0    0    0    0  0.00000000000E+00  0.00000000000E+00  0.99999998245E-14  0.12500000000E+03  0.12500000000E+03 0.  0.
        -13    1    1    0    0    0 -0.38493662878E+02  0.29122306467E+02 -0.12097721741E+02  0.49761801124E+02  0.10566000000E+00 0. -1.
         13    1    1    0    0    0 -0.74908031991E+01 -0.11722412867E+02 -0.13862213944E+02  0.19639226956E+02  0.10566000000E+00 0.  1.
         22    1    1    0    0    0  0.45984466078E+02 -0.17399893600E+02  0.25959935685E+02  0.55598971919E+02  0.00000000000E+00 0. -1.
</event>
<event>
 4    1  0.9925048E-003  0.9118800E+02  0.7818608E-02  0.1130116E+00
         25   -1    0    0    0    0  0.00000000000E+00  0.00000000000E+00  0.99999998245E-14  0.12500000000E+03  0.12500000000E+03 0.  0.
        -13    1    1    0    0    0  0.20060890698E+02 -0.32103368059E+02  0.21847497714E+02  0.43708007238E+02  0.10566000000E+00 0. -1.
         13    1    1    0    0    0  0.16545087896E+02  0.39977441880E+01  0.14646419721E+02  0.22455526419E+02  0.10566000000E+00 0.  1.
         22    1    1    0    0    0 -0.36605978594E+02  0.28105623871E+02 -0.36493917435E+02  0.58836466343E+02  0.00000000000E+00 0. -1.
</event>
<event>
 4    1  0.9925048E-003  0.9118800E+02  0.7818608E-02  0.1130116E+00
         25   -1    0    0    0    0  0.00000000000E+00  0.00000000000E+00  0.99999998245E-14  0.12500000000E+03  0.12500000000E+03 0.  0.
        -13    1    1    0    0    0  0.46913694936E+02 -0.15446647943E+02  0.91657218442E+01  0.50234602877E+02  0.10566000000E+00 0.  1.
         13    1    1    0    0    0  0.12036678141E+02 -0.25136543269E+01  0.87179442466E+00  0.12327662727E+02  0.10566000000E+00 0. -1.
         22    1    1    0    0    0 -0.58950373078E+02  0.17960302270E+02 -0.10037516269E+02  0.62437734396E+02  0.00000000000E+00 0.  1.
</event>
<event>
 4    1  0.9925048E-003  0.9118800E+02  0.7818608E-02  0.1130116E+00
         25   -1    0    0    0    0  0.00000000000E+00  0.00000000000E+00  0.99999998245E-14  0.12500000000E+03  0.12500000000E+03 0.  0.
        -13    1    1    0    0    0  0.24490972434E+02  0.52007707632E+00 -0.43865260813E+02  0.50241919561E+02  0.10566000000E+00 0. -1.
         13    1    1    0    0    0  0.62063198441E+01 -0.43113189769E+00 -0.10569096201E+02  0.12264633679E+02  0.10566000000E+00 0.  1.
         22    1    1    0    0    0 -0.30697292278E+02 -0.88945178631E-01  0.54434357014E+02  0.62493446761E+02  0.00000000000E+00 0. -1.
</event>
<event>
 4    1  0.9925048E-003  0.9118800E+02  0.7818608E-02  0.1130116E+00
         25   -1    0    0    0    0  0.00000000000E+00  0.00000000000E+00  0.99999998245E-14  0.12500000000E+03  0.12500000000E+03 0.  0.
        -13    1    1    0    0    0  0.12073128820E+02 -0.20305256534E+02 -0.50414443398E+02  0.55674870000E+02  0.10566000000E+00 0. -1.
         13    1    1    0    0    0  0.14282536909E+01 -0.25748056519E+01 -0.61573258548E+01  0.68259327911E+01  0.10566000000E+00 0. -1.
         22    1    1    0    0    0 -0.13501382510E+02  0.22880062186E+02  0.56571769253E+02  0.62499197209E+02  0.00000000000E+00 0. -1.
</event>
<event>
 4    1  0.9925048E-003  0.9118800E+02  0.7818608E-02  0.1130116E+00
         25   -1    0    0    0    0  0.00000000000E+00  0.00000000000E+00  0.99999998245E-14  0.12500000000E+03  0.12500000000E+03 0.  0.
        -13    1    1    0    0    0  0.22283156117E+02  0.21734209470E+02 -0.30824994381E+02  0.43807606080E+02  0.10566000000E+00 0. -1.
         13    1    1    0    0    0  0.98900838526E+01  0.89018151942E+01 -0.13131874408E+02  0.18695276458E+02  0.10566000000E+00 0.  1.
         22    1    1    0    0    0 -0.32173239970E+02 -0.30636024664E+02  0.43956868789E+02  0.62497117462E+02  0.00000000000E+00 0. -1.
</event>
<event>
 4    1  0.9925048E-003  0.9118800E+02  0.7818608E-02  0.1130116E+00
         25   -1    0    0    0    0  0.00000000000E+00  0.00000000000E+00  0.99999998245E-14  0.12500000000E+03  0.12500000000E+03 0.  0.
        -13    1    1    0    0    0 -0.16553173816E+01 -0.14325480211E+00 -0.56523532702E+01  0.58924408439E+01  0.10566000000E+00 0. -1.
         13    1    1    0    0    0  0.12691996767E+02  0.48543566410E+02 -0.29568345554E+02  0.58239701618E+02  0.10566000000E+00 0.  1.
         22    1    1    0    0    0 -0.11036679385E+02 -0.48400311608E+02  0.35220698824E+02  0.60867857538E+02  0.00000000000E+00 0.  1.
</event>
<event>
 4    1  0.9925048E-003  0.9118800E+02  0.7818608E-02  0.1130116E+00
         25   -1    0    0    0    0  0.00000000000E+00  0.00000000000E+00  0.99999998245E-14  0.12500000000E+03  0.12500000000E+03 0.  0.
        -13    1    1    0    0    0  0.14660950567E+02  0.25055626077E+01  0.10395589764E+02  0.18146646139E+02  0.10566000000E+00 0. -1.
         13    1    1    0    0    0  0.35761424635E+02  0.61641973059E+01  0.25502029395E+02  0.44353596108E+02  0.10566000000E+00 0. -1.
         22    1    1    0    0    0 -0.50422375202E+02 -0.86697599137E+01 -0.35897619159E+02  0.62499757754E+02  0.00000000000E+00 0. -1.
</event>
<event>
 4    1  0.9925048E-003  0.9118800E+02  0.7818608E-02  0.1130116E+00
         25   -1    0    0    0    0  0.00000000000E+00  0.00000000000E+00  0.99999998245E-14  0.12500000000E+03  0.12500000000E+03 0.  0.
        -13    1    1    0    0    0  0.20871888452E+02 -0.17356178757E+02 -0.96954311928E+01  0.28825079682E+02  0.10566000000E+00 0. -1.
         13    1    1    0    0    0  0.24574657604E+02 -0.20163598346E+02 -0.11114783351E+02  0.33675422307E+02  0.10566000000E+00 0. -1.
         22    1    1    0    0    0 -0.45446546056E+02  0.37519777103E+02  0.20810214543E+02  0.62499498011E+02  0.00000000000E+00 0. -1.
</event>
<event>
 4    1  0.9925048E-003  0.9118800E+02  0.7818608E-02  0.1130116E+00
         25   -1    0    0    0    0  0.00000000000E+00  0.00000000000E+00  0.99999998245E-14  0.12500000000E+03  0.12500000000E+03 0.  0.
        -13    1    1    0    0    0 -0.34645979955E+02  0.23952569397E+02 -0.34696254291E+02  0.54570236701E+02  0.10566000000E+00 0.  1.
         13    1    1    0    0    0 -0.39095925252E+00  0.83785737861E+01 -0.37460432541E+01  0.91868031394E+01  0.10566000000E+00 0. -1.
         22    1    1    0    0    0  0.35036939207E+02 -0.32331143184E+02  0.38442297545E+02  0.61242960159E+02  0.00000000000E+00 0.  1.
</event>
<event>
 4    1  0.9925048E-003  0.9118800E+02  0.7818608E-02  0.1130116E+00
         25   -1    0    0    0    0  0.00000000000E+00  0.00000000000E+00  0.99999998245E-14  0.12500000000E+03  0.12500000000E+03 0.  0.
        -13    1    1    0    0    0  0.45572511392E+02  0.30324505799E+02 -0.70814550402E+01  0.55195902167E+02  0.10566000000E+00 0. -1.
         13    1    1    0    0    0  0.63616270583E+01  0.33508389167E+01 -0.14097711017E+01  0.73278263399E+01  0.10566000000E+00 0.  1.
         22    1    1    0    0    0 -0.51934138450E+02 -0.33675344715E+02  0.84912261419E+01  0.62476271493E+02  0.00000000000E+00 0. -1.
</event>
<event>
 4    1  0.9925048E-003  0.9118800E+02  0.7818608E-02  0.1130116E+00
         25   -1    0    0    0    0  0.00000000000E+00  0.00000000000E+00  0.99999998245E-14  0.12500000000E+03  0.12500000000E+03 0.  0.
        -13    1    1    0    0    0 -0.58339811684E+01 -0.93669394973E+01  0.23540720694E+00  0.11038182478E+02  0.10566000000E+00 0. -1.
         13    1    1    0    0    0 -0.22740247525E+02 -0.44079286365E+02 -0.14548969711E+02  0.51689322182E+02  0.10566000000E+00 0.  1.
         22    1    1    0    0    0  0.28574228693E+02  0.53446225862E+02  0.14313562504E+02  0.62272495340E+02  0.00000000000E+00 0.  1.
</event>
<event>
 4    1  0.9925048E-003  0.9118800E+02  0.7818608E-02  0.1130116E+00
         25   -1    0    0    0    0  0.00000000000E+00  0.00000000000E+00  0.99999998245E-14  0.12500000000E+03  0.12500000000E+03 0.  0.
        -13    1    1    0    0    0  0.11660550532E+02 -0.16887350609E+02  0.15104623075E+02  0.25481598293E+02  0.10566000000E+00 0.  1.
         13    1    1    0    0    0  0.16375692389E+02 -0.27027870243E+02  0.19349462366E+02  0.37055120146E+02  0.10566000000E+00 0. -1.
         22    1    1    0    0    0 -0.28036242921E+02  0.43915220853E+02 -0.34454085442E+02  0.62463281561E+02  0.00000000000E+00 0.  1.
</event>
<event>
 4    1  0.9925048E-003  0.9118800E+02  0.7818608E-02  0.1130116E+00
         25   -1    0    0    0    0  0.00000000000E+00  0.00000000000E+00  0.99999998245E-14  0.12500000000E+03  0.12500000000E+03 0.  0.
        -13    1    1    0    0    0  0.39958249592E+01  0.46252132700E+00 -0.14489910653E+01  0.42768308624E+01  0.10566000000E+00 0.  1.
         13    1    1    0    0    0  0.37200478278E+02  0.11235331325E+02 -0.43710434678E+02  0.58486934591E+02  0.10566000000E+00 0. -1.
         22    1    1    0    0    0 -0.41196303237E+02 -0.11697852652E+02  0.45159425743E+02  0.62236234547E+02  0.00000000000E+00 0. -1.
</event>
<event>
 4    1  0.9925048E-003  0.9118800E+02  0.7818608E-02  0.1130116E+00
         25   -1    0    0    0    0  0.00000000000E+00  0.00000000000E+00  0.99999998245E-14  0.12500000000E+03  0.12500000000E+03 0.  0.
        -13    1    1    0    0    0 -0.12488680603E+01  0.37955375752E+02 -0.21883210707E+02  0.43829856203E+02  0.10566000000E+00 0.  1.
         13    1    1    0    0    0  0.21220922187E+01  0.15268269701E+02 -0.10694276694E+02  0.18761717754E+02  0.10566000000E+00 0. -1.
         22    1    1    0    0    0 -0.87322415839E+00 -0.53223645453E+02  0.32577487401E+02  0.62408426043E+02  0.00000000000E+00 0.  1.
</event>
<event>
 4    1  0.9925048E-003  0.9118800E+02  0.7818608E-02  0.1130116E+00
         25   -1    0    0    0    0  0.00000000000E+00  0.00000000000E+00  0.99999998245E-14  0.12500000000E+03  0.12500000000E+03 0.  0.
        -13    1    1    0    0    0  0.57396279234E+01 -0.71059720033E+01  0.23889198930E+02  0.25576222481E+02  0.10566000000E+00 0. -1.
         13    1    1    0    0    0  0.90912691383E+01 -0.98134996153E+01  0.34417816311E+02  0.36926321140E+02  0.10566000000E+00 0. -1.
         22    1    1    0    0    0 -0.14830897062E+02  0.16919471619E+02 -0.58307015242E+02  0.62497456379E+02  0.00000000000E+00 0. -1.
</event>
<event>
 4    1  0.9925048E-003  0.9118800E+02  0.7818608E-02  0.1130116E+00
         25   -1    0    0    0    0  0.00000000000E+00  0.00000000000E+00  0.99999998245E-14  0.12500000000E+03  0.12500000000E+03 0.  0.
        -13    1    1    0    0    0  0.68645545034E+00 -0.83111700049E+00 -0.44001337658E+00  0.11690818453E+01  0.10566000000E+00 0. -1.
         13    1    1    0    0    0  0.39150118155E+02 -0.45948251617E+02 -0.10923460095E+02  0.61345796292E+02  0.10566000000E+00 0.  1.
         22    1    1    0    0    0 -0.39836573606E+02  0.46779368617E+02  0.11363473471E+02  0.62485121863E+02  0.00000000000E+00 0.  1.
</event>
<event>
 4    1  0.9925048E-003  0.9118800E+02  0.7818608E-02  0.1130116E+00
         25   -1    0    0    0    0  0.00000000000E+00  0.00000000000E+00  0.99999998245E-14  0.12500000000E+03  0.12500000000E+03 0.  0.
        -13    1    1    0    0    0  0.15807386983E+02 -0.13208953424E+02  0.31028419579E+02  0.37244112546E+02  0.10566000000E+00 0.  1.
         13    1    1    0    0    0  0.10678670680E+02 -0.91005224970E+01  0.21000277109E+02  0.25256213491E+02  0.10566000000E+00 0. -1.
         22    1    1    0    0    0 -0.26486057663E+02  0.22309475921E+02 -0.52028696688E+02  0.62499673963E+02  0.00000000000E+00 0. -1.
</event>
<event>
 4    1  0.9925048E-003  0.9118800E+02  0.7818608E-02  0.1130116E+00
         25   -1    0    0    0    0  0.00000000000E+00  0.00000000000E+00  0.99999998245E-14  0.12500000000E+03  0.12500000000E+03 0.  0.
        -13    1    1    0    0    0 -0.15652720815E+02  0.98920129559E+01  0.20650802605E+02  0.27736733793E+02  0.10566000000E+00 0.  1.
         13    1    1    0    0    0 -0.27899637255E+02 -0.20182025737E+01  0.22160650495E+02  0.35687091433E+02  0.10566000000E+00 0. -1.
         22    1    1    0    0    0  0.43552358069E+02 -0.78738103822E+01 -0.42811453100E+02  0.61576174774E+02  0.00000000000E+00 0.  1.
</event>
<event>
 4    1  0.9925048E-003  0.9118800E+02  0.7818608E-02  0.1130116E+00
         25   -1    0    0    0    0  0.00000000000E+00  0.00000000000E+00  0.99999998245E-14  0.12500000000E+03  0.12500000000E+03 0.  0.
        -13    1    1    0    0    0  0.12316572627E+02  0.14654458409E+02 -0.81783417063E+01  0.20817001456E+02  0.10566000000E+00 0.  1.
         13    1    1    0    0    0  0.20970503304E+02  0.26814252247E+02 -0.24344281720E+02  0.41849986247E+02  0.10566000000E+00 0. -1.
         22    1    1    0    0    0 -0.33287075930E+02 -0.41468710656E+02  0.32522623426E+02  0.62333012297E+02  0.00000000000E+00 0. -1.
</event>
<event>
 4    1  0.9925048E-003  0.9118800E+02  0.7818608E-02  0.1130116E+00
         25   -1    0    0    0    0  0.00000000000E+00  0.00000000000E+00  0.99999998245E-14  0.12500000000E+03  0.12500000000E+03 0.  0.
        -13    1    1    0    0    0 -0.65266886062E+00 -0.23971156779E+02  0.31022340784E+02  0.39210191605E+02  0.10566000000E+00 0. -1.
         13    1    1    0    0    0  0.37303834648E+02  0.13188414134E+02 -0.57483551989E+01  0.39982059706E+02  0.10566000000E+00 0.  1.
         22    1    1    0    0    0 -0.36651165788E+02  0.10782742645E+02 -0.25273985585E+02  0.45807748688E+02  0.00000000000E+00 0.  1.
</event>
<event>
 4    1  0.9925048E-003  0.9118800E+02  0.7818608E-02  0.1130116E+00
         25   -1    0    0    0    0  0.00000000000E+00  0.00000000000E+00  0.99999998245E-14  0.12500000000E+03  0.12500000000E+03 0.  0.
        -13    1    1    0    0    0  0.79679364068E+01 -0.86549583360E+00  0.29324515949E+01  0.85350764503E+01  0.10566000000E+00 0.  1.
         13    1    1    0    0    0  0.50675731375E+02 -0.21298688169E+01  0.18451179473E+02  0.53972430737E+02  0.10566000000E+00 0. -1.
         22    1    1    0    0    0 -0.58643667782E+02  0.29953646505E+01 -0.21383631068E+02  0.62492492813E+02  0.00000000000E+00 0. -1.
</event>
<event>
 4    1  0.9925048E-003  0.9118800E+02  0.7818608E-02  0.1130116E+00
         25   -1    0    0    0    0  0.00000000000E+00  0.00000000000E+00  0.99999998245E-14  0.12500000000E+03  0.12500000000E+03 0.  0.
        -13    1    1    0    0    0 -0.11522738509E+01 -0.17034467455E+02 -0.52338550471E+02  0.55053027582E+02  0.10566000000E+00 0.  1.
         13    1    1    0    0    0  0.67920238544E+01 -0.11783560151E+02  0.55139489681E+01  0.14676466711E+02  0.10566000000E+00 0. -1.
         22    1    1    0    0    0 -0.56397500035E+01  0.28818027606E+02  0.46824601503E+02  0.55270505707E+02  0.00000000000E+00 0.  1.
</event>
<event>
 4    1  0.9925048E-003  0.9118800E+02  0.7818608E-02  0.1130116E+00
         25   -1    0    0    0    0  0.00000000000E+00  0.00000000000E+00  0.99999998245E-14  0.12500000000E+03  0.12500000000E+03 0.  0.
        -13    1    1    0    0    0  0.11922365665E+02  0.47431359524E+01  0.88170841324E+01  0.15568952385E+02  0.10566000000E+00 0. -1.
         13    1    1    0    0    0  0.47683065876E+02  0.39042004968E+01  0.34429945125E+01  0.47966477128E+02  0.10566000000E+00 0.  1.
         22    1    1    0    0    0 -0.59605431541E+02 -0.86473364492E+01 -0.12260078645E+02  0.61464570488E+02  0.00000000000E+00 0.  1.
</event>
<event>
 4    1  0.9925048E-003  0.9118800E+02  0.7818608E-02  0.1130116E+00
         25   -1    0    0    0    0  0.00000000000E+00  0.00000000000E+00  0.99999998245E-14  0.12500000000E+03  0.12500000000E+03 0.  0.
        -13    1    1    0    0    0  0.11825264468E+02  0.97426990155E+01 -0.14154876100E+02  0.20859739818E+02  0.10566000000E+00 0.  1.
         13    1    1    0    0    0  0.26441123097E+02  0.16861373866E+02 -0.27441718879E+02  0.41671309295E+02  0.10566000000E+00 0. -1.
         22    1    1    0    0    0 -0.38266387565E+02 -0.26604072881E+02  0.41596594979E+02  0.62468950887E+02  0.00000000000E+00 0. -1.
</event>
<event>
 4    1  0.9925048E-003  0.9118800E+02  0.7818608E-02  0.1130116E+00
         25   -1    0    0    0    0  0.00000000000E+00  0.00000000000E+00  0.99999998245E-14  0.12500000000E+03  0.12500000000E+03 0.  0.
        -13    1    1    0    0    0 -0.92845578217E+01 -0.49288676171E+01 -0.25264484736E+02  0.27364248627E+02  0.10566000000E+00 0. -1.
         13    1    1    0    0    0 -0.19952461760E+02  0.19382460467E+02 -0.25209897206E+02  0.37541052000E+02  0.10566000000E+00 0.  1.
         22    1    1    0    0    0  0.29237019582E+02 -0.14453592850E+02  0.50474381942E+02  0.60094699373E+02  0.00000000000E+00 0. -1.
</event>
<event>
 4    1  0.9925048E-003  0.9118800E+02  0.7818608E-02  0.1130116E+00
         25   -1    0    0    0    0  0.00000000000E+00  0.00000000000E+00  0.99999998245E-14  0.12500000000E+03  0.12500000000E+03 0.  0.
        -13    1    1    0    0    0 -0.14695670402E+02 -0.49809743398E+01  0.21999542301E+02  0.26921438658E+02  0.10566000000E+00 0. -1.
         13    1    1    0    0    0 -0.27002745458E+02  0.10464347863E+02  0.22631274472E+02  0.36753728882E+02  0.10566000000E+00 0.  1.
         22    1    1    0    0    0  0.41698415860E+02 -0.54833735228E+01 -0.44630816773E+02  0.61324832460E+02  0.00000000000E+00 0. -1.
</event>
<event>
 4    1  0.9925048E-003  0.9118800E+02  0.7818608E-02  0.1130116E+00
         25   -1    0    0    0    0  0.00000000000E+00  0.00000000000E+00  0.99999998245E-14  0.12500000000E+03  0.12500000000E+03 0.  0.
        -13    1    1    0    0    0 -0.25070209875E+02 -0.47787408004E+02  0.32303695087E+01  0.54061060276E+02  0.10566000000E+00 0. -1.
         13    1    1    0    0    0 -0.62491013210E+01 -0.59710037740E+01 -0.11125808646E+00  0.86445182507E+01  0.10566000000E+00 0.  1.
         22    1    1    0    0    0  0.31319311196E+02  0.53758411778E+02 -0.31191114222E+01  0.62294421474E+02  0.00000000000E+00 0. -1.
</event>
<event>
 4    1  0.9925048E-003  0.9118800E+02  0.7818608E-02  0.1130116E+00
         25   -1    0    0    0    0  0.00000000000E+00  0.00000000000E+00  0.99999998245E-14  0.12500000000E+03  0.12500000000E+03 0.  0.
        -13    1    1    0    0    0 -0.50823641248E+02  0.41216406861E+01 -0.31086122200E+02  0.59719248062E+02  0.10566000000E+00 0. -1.
         13    1    1    0    0    0 -0.23387712502E+01 -0.13087381219E+01 -0.12856722850E+01  0.29743509700E+01  0.10566000000E+00 0.  1.
         22    1    1    0    0    0  0.53162412498E+02 -0.28129025642E+01  0.32371794485E+02  0.62306400968E+02  0.00000000000E+00 0. -1.
</event>
<event>
 4    1  0.9925048E-003  0.9118800E+02  0.7818608E-02  0.1130116E+00
         25   -1    0    0    0    0  0.00000000000E+00  0.00000000000E+00  0.99999998245E-14  0.12500000000E+03  0.12500000000E+03 0.  0.
        -13    1    1    0    0    0  0.91553400633E+01 -0.34968023216E+02  0.50338157525E+02  0.61971962744E+02  0.10566000000E+00 0.  1.
         13    1    1    0    0    0 -0.11301259144E+02  0.23030107981E+02 -0.31529164423E+02  0.40647308706E+02  0.10566000000E+00 0. -1.
         22    1    1    0    0    0  0.21459190803E+01  0.11937915235E+02 -0.18808993103E+02  0.22380728549E+02  0.00000000000E+00 0.  1.
</event>
<event>
 4    1  0.9925048E-003  0.9118800E+02  0.7818608E-02  0.1130116E+00
         25   -1    0    0    0    0  0.00000000000E+00  0.00000000000E+00  0.99999998245E-14  0.12500000000E+03  0.12500000000E+03 0.  0.
        -13    1    1    0    0    0 -0.18601761477E+01  0.12422855621E+02 -0.32643311138E+01  0.12979006847E+02  0.10566000000E+00 0.  1.
         13    1    1    0    0    0  0.80965622945E+01  0.47809604594E+02 -0.11191026577E+02  0.49765076633E+02  0.10566000000E+00 0. -1.
         22    1    1    0    0    0 -0.62363861468E+01 -0.60232460215E+02  0.14455357691E+02  0.62255916520E+02  0.00000000000E+00 0. -1.
</event>
<event>
 4    1  0.9925048E-003  0.9118800E+02  0.7818608E-02  0.1130116E+00
         25   -1    0    0    0    0  0.00000000000E+00  0.00000000000E+00  0.99999998245E-14  0.12500000000E+03  0.12500000000E+03 0.  0.
        -13    1    1    0    0    0  0.28996123804E+01  0.65703392967E+01  0.16497535323E+02  0.17993247239E+02  0.10566000000E+00 0.  1.
         13    1    1    0    0    0  0.54511527817E+01  0.15393991983E+02  0.41409586473E+02  0.44513538073E+02  0.10566000000E+00 0. -1.
         22    1    1    0    0    0 -0.83507651621E+01 -0.21964331280E+02 -0.57907121796E+02  0.62493214688E+02  0.00000000000E+00 0. -1.
</event>
<event>
 4    1  0.9925048E-003  0.9118800E+02  0.7818608E-02  0.1130116E+00
         25   -1    0    0    0    0  0.00000000000E+00  0.00000000000E+00  0.99999998245E-14  0.12500000000E+03  0.12500000000E+03 0.  0.
        -13    1    1    0    0    0 -0.66959166614E+01 -0.43511728387E+02  0.29779570995E+02  0.53150162933E+02  0.10566000000E+00 0.  1.
         13    1    1    0    0    0  0.20814059820E+02  0.22969144082E+01 -0.42917002628E+01  0.21375938744E+02  0.10566000000E+00 0. -1.
         22    1    1    0    0    0 -0.14118143159E+02  0.41214813979E+02 -0.25487870732E+02  0.50473898323E+02  0.00000000000E+00 0.  1.
</event>
<event>
 4    1  0.9925048E-003  0.9118800E+02  0.7818608E-02  0.1130116E+00
         25   -1    0    0    0    0  0.00000000000E+00  0.00000000000E+00  0.99999998245E-14  0.12500000000E+03  0.12500000000E+03 0.  0.
        -13    1    1    0    0    0  0.54799522047E+01  0.70210042569E-01 -0.29047827114E+01  0.62035257920E+01  0.10566000000E+00 0. -1.
         13    1    1    0    0    0  0.40858705510E+02  0.94581327347E+01 -0.37744698199E+02  0.56423075926E+02  0.10566000000E+00 0.  1.
         22    1    1    0    0    0 -0.46338657715E+02 -0.95283427773E+01  0.40649480911E+02  0.62373398282E+02  0.00000000000E+00 0.  1.
</event>
<event>
 4    1  0.9925048E-003  0.9118800E+02  0.7818608E-02  0.1130116E+00
         25   -1    0    0    0    0  0.00000000000E+00  0.00000000000E+00  0.99999998245E-14  0.12500000000E+03  0.12500000000E+03 0.  0.
        -13    1    1    0    0    0  0.58070484451E+01 -0.30585365652E+02  0.12441302492E+02  0.33525864276E+02  0.10566000000E+00 0. -1.
         13    1    1    0    0    0  0.27175822819E+01 -0.26124627170E+02  0.12317555610E+02  0.29010597003E+02  0.10566000000E+00 0.  1.
         22    1    1    0    0    0 -0.85246307269E+01  0.56709992822E+02 -0.24758858102E+02  0.62463538721E+02  0.00000000000E+00 0. -1.
</event>
<event>
 4    1  0.9925048E-003  0.9118800E+02  0.7818608E-02  0.1130116E+00
         25   -1    0    0    0    0  0.00000000000E+00  0.00000000000E+00  0.99999998245E-14  0.12500000000E+03  0.12500000000E+03 0.  0.
        -13    1    1    0    0    0  0.22620465155E+02 -0.44058702263E+02 -0.14211064256E+02  0.51524947358E+02  0.10566000000E+00 0. -1.
         13    1    1    0    0    0 -0.50227821886E+00 -0.11638577812E+02 -0.85729417157E+00  0.11681390938E+02  0.10566000000E+00 0.  1.
         22    1    1    0    0    0 -0.22118186936E+02  0.55697280075E+02  0.15068358427E+02  0.61793661704E+02  0.00000000000E+00 0. -1.
</event>
<event>
 4    1  0.9925048E-003  0.9118800E+02  0.7818608E-02  0.1130116E+00
         25   -1    0    0    0    0  0.00000000000E+00  0.00000000000E+00  0.99999998245E-14  0.12500000000E+03  0.12500000000E+03 0.  0.
        -13    1    1    0    0    0 -0.12037491818E+02 -0.87995243222E+01  0.10809750940E+02  0.18417239668E+02  0.10566000000E+00 0. -1.
         13    1    1    0    0    0 -0.28954193239E+02 -0.20763220401E+02  0.25958777004E+02  0.44083170202E+02  0.10566000000E+00 0. -1.
         22    1    1    0    0    0  0.40991685056E+02  0.29562744723E+02 -0.36768527944E+02  0.62499590130E+02  0.00000000000E+00 0. -1.
</event>
<event>
 4    1  0.9925048E-003  0.9118800E+02  0.7818608E-02  0.1130116E+00
         25   -1    0    0    0    0  0.00000000000E+00  0.00000000000E+00  0.99999998245E-14  0.12500000000E+03  0.12500000000E+03 0.  0.
        -13    1    1    0    0    0  0.25672764052E+02  0.14728996043E+02  0.55733677678E+01  0.30118229212E+02  0.10566000000E+00 0. -1.
         13    1    1    0    0    0 -0.30925986385E+02 -0.45861687313E+02 -0.21712072029E+02  0.59423364369E+02  0.10566000000E+00 0.  1.
         22    1    1    0    0    0  0.52532223327E+01  0.31132691270E+02  0.16138704262E+02  0.35458406419E+02  0.00000000000E+00 0.  1.
</event>
<event>
 4    1  0.9925048E-003  0.9118800E+02  0.7818608E-02  0.1130116E+00
         25   -1    0    0    0    0  0.00000000000E+00  0.00000000000E+00  0.99999998245E-14  0.12500000000E+03  0.12500000000E+03 0.  0.
        -13    1    1    0    0    0  0.53474605037E+02  0.28951111668E+02 -0.20419047239E+00  0.60809153164E+02  0.10566000000E+00 0.  1.
         13    1    1    0    0    0  0.15524895251E+01 -0.13504290709E+01 -0.15915622991E+01  0.26034817050E+01  0.10566000000E+00 0. -1.
         22    1    1    0    0    0 -0.55027094562E+02 -0.27600682597E+02  0.17957527715E+01  0.61587365131E+02  0.00000000000E+00 0.  1.
</event>
<event>
 4    1  0.9925048E-003  0.9118800E+02  0.7818608E-02  0.1130116E+00
         25   -1    0    0    0    0  0.00000000000E+00  0.00000000000E+00  0.99999998245E-14  0.12500000000E+03  0.12500000000E+03 0.  0.
        -13    1    1    0    0    0 -0.21754722292E+01 -0.65301291294E+00  0.50549486057E+01  0.55428128894E+01  0.10566000000E+00 0. -1.
         13    1    1    0    0    0 -0.47827096612E+01 -0.63165460533E+01  0.56533607822E+02  0.57086189601E+02  0.10566000000E+00 0.  1.
         22    1    1    0    0    0  0.69581818904E+01  0.69695589662E+01 -0.61588556428E+02  0.62370997509E+02  0.00000000000E+00 0.  1.
</event>
<event>
 4    1  0.9925048E-003  0.9118800E+02  0.7818608E-02  0.1130116E+00
         25   -1    0    0    0    0  0.00000000000E+00  0.00000000000E+00  0.99999998245E-14  0.12500000000E+03  0.12500000000E+03 0.  0.
        -13    1    1    0    0    0 -0.18195799169E+02  0.30607051230E+01 -0.35364125947E+02  0.39888439318E+02  0.10566000000E+00 0.  1.
         13    1    1    0    0    0 -0.11103050602E+02  0.19055581809E+01 -0.19612223508E+02  0.22617678033E+02  0.10566000000E+00 0. -1.
         22    1    1    0    0    0  0.29298849770E+02 -0.49662633038E+01  0.54976349455E+02  0.62493882648E+02  0.00000000000E+00 0.  1.
</event>
<event>
 4    1  0.9925048E-003  0.9118800E+02  0.7818608E-02  0.1130116E+00
         25   -1    0    0    0    0  0.00000000000E+00  0.00000000000E+00  0.99999998245E-14  0.12500000000E+03  0.12500000000E+03 0.  0.
        -13    1    1    0    0    0 -0.43616366398E+01 -0.80012426683E+01 -0.39110243452E+02  0.40158013713E+02  0.10566000000E+00 0.  1.
         13    1    1    0    0    0 -0.27868432225E+01 -0.42716095208E+01 -0.21753179817E+02  0.22343346644E+02  0.10566000000E+00 0. -1.
         22    1    1    0    0    0  0.71484798623E+01  0.12272852189E+02  0.60863423270E+02  0.62498639644E+02  0.00000000000E+00 0.  1.
</event>
<event>
 4    1  0.9925048E-003  0.9118800E+02  0.7818608E-02  0.1130116E+00
         25   -1    0    0    0    0  0.00000000000E+00  0.00000000000E+00  0.99999998245E-14  0.12500000000E+03  0.12500000000E+03 0.  0.
        -13    1    1    0    0    0  0.14544098377E+02  0.28861215786E+02 -0.39712388345E+02  0.51201421136E+02  0.10566000000E+00 0. -1.
         13    1    1    0    0    0  0.38640227869E+01  0.36710368848E+01 -0.10159709850E+02  0.11473362723E+02  0.10566000000E+00 0.  1.
         22    1    1    0    0    0 -0.18408121164E+02 -0.32532252671E+02  0.49872098195E+02  0.62325216141E+02  0.00000000000E+00 0. -1.
</event>
<event>
 4    1  0.9925048E-003  0.9118800E+02  0.7818608E-02  0.1130116E+00
         25   -1    0    0    0    0  0.00000000000E+00  0.00000000000E+00  0.99999998245E-14  0.12500000000E+03  0.12500000000E+03 0.  0.
        -13    1    1    0    0    0  0.28083334715E+02  0.44830467523E+02  0.67453012964E+01  0.53328742350E+02  0.10566000000E+00 0. -1.
         13    1    1    0    0    0  0.50700316041E+01  0.75163462891E+01  0.14045615106E+01  0.91752187482E+01  0.10566000000E+00 0.  1.
         22    1    1    0    0    0 -0.33153366319E+02 -0.52346813813E+02 -0.81498628070E+01  0.62496038901E+02  0.00000000000E+00 0. -1.
</event>
<event>
 4    1  0.9925048E-003  0.9118800E+02  0.7818608E-02  0.1130116E+00
         25   -1    0    0    0    0  0.00000000000E+00  0.00000000000E+00  0.99999998245E-14  0.12500000000E+03  0.12500000000E+03 0.  0.
        -13    1    1    0    0    0 -0.32979651577E+02 -0.26898905138E+01  0.43523543527E+02  0.54673603633E+02  0.10566000000E+00 0. -1.
         13    1    1    0    0    0 -0.49157153293E+01 -0.44184990096E+00  0.60759063308E+01  0.78286199493E+01  0.10566000000E+00 0.  1.
         22    1    1    0    0    0  0.37895366906E+02  0.31317404147E+01 -0.49599449857E+02  0.62497776417E+02  0.00000000000E+00 0. -1.
</event>
<event>
 4    1  0.9925048E-003  0.9118800E+02  0.7818608E-02  0.1130116E+00
         25   -1    0    0    0    0  0.00000000000E+00  0.00000000000E+00  0.99999998245E-14  0.12500000000E+03  0.12500000000E+03 0.  0.
        -13    1    1    0    0    0  0.26306295123E+02 -0.34692607718E+02 -0.14619496273E+02  0.45927541070E+02  0.10566000000E+00 0.  1.
         13    1    1    0    0    0  0.12680132013E+02 -0.79495249965E+01 -0.80647990788E+01  0.17000965965E+02  0.10566000000E+00 0. -1.
         22    1    1    0    0    0 -0.38986427136E+02  0.42642132715E+02  0.22684295352E+02  0.62071492965E+02  0.00000000000E+00 0.  1.
</event>
<event>
 4    1  0.9925048E-003  0.9118800E+02  0.7818608E-02  0.1130116E+00
         25   -1    0    0    0    0  0.00000000000E+00  0.00000000000E+00  0.99999998245E-14  0.12500000000E+03  0.12500000000E+03 0.  0.
        -13    1    1    0    0    0  0.33353267319E+01 -0.25327010630E+00  0.28752940963E+01  0.44121457741E+01  0.10566000000E+00 0. -1.
         13    1    1    0    0    0  0.40776322338E+02 -0.13196851302E+00  0.41384654854E+02  0.58098422531E+02  0.10566000000E+00 0.  1.
         22    1    1    0    0    0 -0.44111649070E+02  0.38523861932E+00 -0.44259948950E+02  0.62489431695E+02  0.00000000000E+00 0.  1.
</event>
<event>
 4    1  0.9925048E-003  0.9118800E+02  0.7818608E-02  0.1130116E+00
         25   -1    0    0    0    0  0.00000000000E+00  0.00000000000E+00  0.99999998245E-14  0.12500000000E+03  0.12500000000E+03 0.  0.
        -13    1    1    0    0    0  0.21825851126E+02  0.30478122644E+02 -0.44093198584E+02  0.57874908748E+02  0.10566000000E+00 0.  1.
         13    1    1    0    0    0  0.16024202781E+01  0.23128040389E+01 -0.36737233415E+01  0.46286305206E+01  0.10566000000E+00 0. -1.
         22    1    1    0    0    0 -0.23428271404E+02 -0.32790926683E+02  0.47766921926E+02  0.62496460731E+02  0.00000000000E+00 0.  1.
</event>
<event>
 4    1  0.9925048E-003  0.9118800E+02  0.7818608E-02  0.1130116E+00
         25   -1    0    0    0    0  0.00000000000E+00  0.00000000000E+00  0.99999998245E-14  0.12500000000E+03  0.12500000000E+03 0.  0.
        -13    1    1    0    0    0 -0.37805490218E+02 -0.30472314714E+02  0.27660035263E+01  0.48636190169E+02  0.10566000000E+00 0. -1.
         13    1    1    0    0    0 -0.10811261665E+02 -0.86761029165E+01  0.34605847884E+00  0.13866833132E+02  0.10566000000E+00 0.  1.
         22    1    1    0    0    0  0.48616751883E+02  0.39148417630E+02 -0.31120620052E+01  0.62496976699E+02  0.00000000000E+00 0. -1.
</event>
<event>
 4    1  0.9925048E-003  0.9118800E+02  0.7818608E-02  0.1130116E+00
         25   -1    0    0    0    0  0.00000000000E+00  0.00000000000E+00  0.99999998245E-14  0.12500000000E+03  0.12500000000E+03 0.  0.
        -13    1    1    0    0    0  0.72523748915E+01 -0.94961756074E+01 -0.44730969379E+01  0.12759077278E+02  0.10566000000E+00 0. -1.
         13    1    1    0    0    0  0.27614104869E+02 -0.38430761236E+02 -0.15343038576E+02  0.49748187843E+02  0.10566000000E+00 0.  1.
         22    1    1    0    0    0 -0.34866479760E+02  0.47926936843E+02  0.19816135514E+02  0.62492734879E+02  0.00000000000E+00 0.  1.
</event>
<event>
 4    1  0.9925048E-003  0.9118800E+02  0.7818608E-02  0.1130116E+00
         25   -1    0    0    0    0  0.00000000000E+00  0.00000000000E+00  0.99999998245E-14  0.12500000000E+03  0.12500000000E+03 0.  0.
        -13    1    1    0    0    0 -0.91248677534E+01  0.34307115260E+02  0.14027869098E+02  0.38171110076E+02  0.10566000000E+00 0. -1.
         13    1    1    0    0    0  0.50776311586E+01  0.24241290660E+02  0.47315259461E+01  0.25215491525E+02  0.10566000000E+00 0.  1.
         22    1    1    0    0    0  0.40472365948E+01 -0.58548405920E+02 -0.18759395044E+02  0.61613398399E+02  0.00000000000E+00 0. -1.
</event>
<event>
 4    1  0.9925048E-003  0.9118800E+02  0.7818608E-02  0.1130116E+00
         25   -1    0    0    0    0  0.00000000000E+00  0.00000000000E+00  0.99999998245E-14  0.12500000000E+03  0.12500000000E+03 0.  0.
        -13    1    1    0    0    0 -0.64820811380E+01 -0.29487330091E+01  0.80816912668E+01  0.10772061084E+02  0.10566000000E+00 0. -1.
         13    1    1    0    0    0 -0.37697445553E+02 -0.24384906396E+02  0.26202372689E+02  0.51983618186E+02  0.10566000000E+00 0.  1.
         22    1    1    0    0    0  0.44179526691E+02  0.27333639405E+02 -0.34284063956E+02  0.62244320729E+02  0.00000000000E+00 0.  1.
</event>
<event>
 4    1  0.9925048E-003  0.9118800E+02  0.7818608E-02  0.1130116E+00
         25   -1    0    0    0    0  0.00000000000E+00  0.00000000000E+00  0.99999998245E-14  0.12500000000E+03  0.12500000000E+03 0.  0.
        -13    1    1    0    0    0  0.16847711244E+02  0.22229707275E+01 -0.37241151948E+02  0.40935333582E+02  0.10566000000E+00 0.  1.
         13    1    1    0    0    0  0.96074647197E+01  0.13338750058E+01 -0.19265891133E+02  0.21570079417E+02  0.10566000000E+00 0. -1.
         22    1    1    0    0    0 -0.26455175963E+02 -0.35568457332E+01  0.56507043080E+02  0.62494587002E+02  0.00000000000E+00 0.  1.
</event>
<event>
 4    1  0.9925048E-003  0.9118800E+02  0.7818608E-02  0.1130116E+00
         25   -1    0    0    0    0  0.00000000000E+00  0.00000000000E+00  0.99999998245E-14  0.12500000000E+03  0.12500000000E+03 0.  0.
        -13    1    1    0    0    0 -0.83667674877E+00  0.17380593926E+01  0.33631055696E+01  0.38784689688E+01  0.10566000000E+00 0.  1.
         13    1    1    0    0    0  0.39154051211E+01  0.14346713439E+02  0.56828296100E+02  0.58742020610E+02  0.10566000000E+00 0. -1.
         22    1    1    0    0    0 -0.30787283723E+01 -0.16084772832E+02 -0.60191401669E+02  0.62379510421E+02  0.00000000000E+00 0. -1.
</event>
<event>
 4    1  0.9925048E-003  0.9118800E+02  0.7818608E-02  0.1130116E+00
         25   -1    0    0    0    0  0.00000000000E+00  0.00000000000E+00  0.99999998245E-14  0.12500000000E+03  0.12500000000E+03 0.  0.
        -13    1    1    0    0    0  0.20118472392E+01  0.17819125231E+01  0.31869673953E+00  0.27084078720E+01  0.10566000000E+00 0.  1.
         13    1    1    0    0    0  0.35744326406E+02  0.47820269802E+02  0.37600480057E+01  0.59821268786E+02  0.10566000000E+00 0. -1.
         22    1    1    0    0    0 -0.37756173645E+02 -0.49602182325E+02 -0.40787447452E+01  0.62470323342E+02  0.00000000000E+00 0. -1.
</event>
<event>
 4    1  0.9925048E-003  0.9118800E+02  0.7818608E-02  0.1130116E+00
         25   -1    0    0    0    0  0.00000000000E+00  0.00000000000E+00  0.99999998245E-14  0.12500000000E+03  0.12500000000E+03 0.  0.
        -13    1    1    0    0    0  0.58413784136E+01 -0.51070114030E+01 -0.97959102869E+01  0.12496971218E+02  0.10566000000E+00 0.  1.
         13    1    1    0    0    0  0.22918616720E+02 -0.20580311116E+02 -0.39389515648E+02  0.50003572923E+02  0.10566000000E+00 0. -1.
         22    1    1    0    0    0 -0.28759995134E+02  0.25687322519E+02  0.49185425935E+02  0.62499455859E+02  0.00000000000E+00 0. -1.
</event>
<event>
 4    1  0.9925048E-003  0.9118800E+02  0.7818608E-02  0.1130116E+00
         25   -1    0    0    0    0  0.00000000000E+00  0.00000000000E+00  0.99999998245E-14  0.12500000000E+03  0.12500000000E+03 0.  0.
        -13    1    1    0    0    0 -0.64703742345E+00 -0.59849374091E+01 -0.22161820214E+02  0.22965094653E+02  0.10566000000E+00 0.  1.
         13    1    1    0    0    0 -0.42030515922E+01 -0.98488216888E+01 -0.38080708539E+02  0.39557761036E+02  0.10566000000E+00 0. -1.
         22    1    1    0    0    0  0.48500890156E+01  0.15833759098E+02  0.60242528753E+02  0.62477144310E+02  0.00000000000E+00 0.  1.
</event>
<event>
 4    1  0.9925048E-003  0.9118800E+02  0.7818608E-02  0.1130116E+00
         25   -1    0    0    0    0  0.00000000000E+00  0.00000000000E+00  0.99999998245E-14  0.12500000000E+03  0.12500000000E+03 0.  0.
        -13    1    1    0    0    0 -0.87995563145E+01 -0.51258614372E+02 -0.42030181572E+01  0.52178101387E+02  0.10566000000E+00 0. -1.
         13    1    1    0    0    0  0.38051352864E+01 -0.97523848486E+01 -0.36895975799E+01  0.11100106266E+02  0.10566000000E+00 0.  1.
         22    1    1    0    0    0  0.49944210281E+01  0.61010999221E+02  0.78926157371E+01  0.61721792347E+02  0.00000000000E+00 0. -1.
</event>
<event>
 4    1  0.9925048E-003  0.9118800E+02  0.7818608E-02  0.1130116E+00
         25   -1    0    0    0    0  0.00000000000E+00  0.00000000000E+00  0.99999998245E-14  0.12500000000E+03  0.12500000000E+03 0.  0.
        -13    1    1    0    0    0 -0.20578172939E+02 -0.38299517002E+02 -0.17232394512E+02  0.46768373809E+02  0.10566000000E+00 0. -1.
         13    1    1    0    0    0 -0.14738872973E+02 -0.73559359615E+01 -0.36084064388E+01  0.16863449572E+02  0.10566000000E+00 0.  1.
         22    1    1    0    0    0  0.35317045912E+02  0.45655452964E+02  0.20840800950E+02  0.61368176619E+02  0.00000000000E+00 0. -1.
</event>
<event>
 4    1  0.9925048E-003  0.9118800E+02  0.7818608E-02  0.1130116E+00
         25   -1    0    0    0    0  0.00000000000E+00  0.00000000000E+00  0.99999998245E-14  0.12500000000E+03  0.12500000000E+03 0.  0.
        -13    1    1    0    0    0 -0.34989427234E+02 -0.91967664475E+01 -0.19341209115E+02  0.41023579382E+02  0.10566000000E+00 0. -1.
         13    1    1    0    0    0 -0.18288273070E+02 -0.46994603527E+01 -0.10232130542E+02  0.21476813519E+02  0.10566000000E+00 0. -1.
         22    1    1    0    0    0  0.53277700304E+02  0.13896226800E+02  0.29573339657E+02  0.62499607098E+02  0.00000000000E+00 0. -1.
</event>
<event>
 4    1  0.9925048E-003  0.9118800E+02  0.7818608E-02  0.1130116E+00
         25   -1    0    0    0    0  0.00000000000E+00  0.00000000000E+00  0.99999998245E-14  0.12500000000E+03  0.12500000000E+03 0.  0.
        -13    1    1    0    0    0 -0.44487480989E+01  0.18465236848E+02  0.16973955089E+02  0.25473175045E+02  0.10566000000E+00 0. -1.
         13    1    1    0    0    0 -0.12160722435E+01  0.39573787357E+02 -0.96698067551E+01  0.40756346796E+02  0.10566000000E+00 0.  1.
         22    1    1    0    0    0  0.56648203424E+01 -0.58039024204E+02 -0.73041483337E+01  0.58770478159E+02  0.00000000000E+00 0.  1.
</event>
<event>
 4    1  0.9925048E-003  0.9118800E+02  0.7818608E-02  0.1130116E+00
         25   -1    0    0    0    0  0.00000000000E+00  0.00000000000E+00  0.99999998245E-14  0.12500000000E+03  0.12500000000E+03 0.  0.
        -13    1    1    0    0    0  0.25960036887E+01 -0.85316567717E+01  0.16066695851E+01  0.90620612232E+01  0.10566000000E+00 0. -1.
         13    1    1    0    0    0  0.15056077204E+02 -0.49091608793E+02 -0.16360279547E+02  0.53891942121E+02  0.10566000000E+00 0.  1.
         22    1    1    0    0    0 -0.17652080893E+02  0.57623265565E+02  0.14753609962E+02  0.62045996656E+02  0.00000000000E+00 0.  1.
</event>
<event>
 4    1  0.9925048E-003  0.9118800E+02  0.7818608E-02  0.1130116E+00
         25   -1    0    0    0    0  0.00000000000E+00  0.00000000000E+00  0.99999998245E-14  0.12500000000E+03  0.12500000000E+03 0.  0.
        -13    1    1    0    0    0  0.40838791351E+02  0.22463747807E+01 -0.46127510067E+02  0.61649099163E+02  0.10566000000E+00 0.  1.
         13    1    1    0    0    0  0.60138213699E+00  0.31145899757E+00 -0.55081577338E+00  0.87933454024E+00  0.10566000000E+00 0. -1.
         22    1    1    0    0    0 -0.41440173488E+02 -0.25578337783E+01  0.46678325840E+02  0.62471566297E+02  0.00000000000E+00 0.  1.
</event>
<event>
 4    1  0.9925048E-003  0.9118800E+02  0.7818608E-02  0.1130116E+00
         25   -1    0    0    0    0  0.00000000000E+00  0.00000000000E+00  0.99999998245E-14  0.12500000000E+03  0.12500000000E+03 0.  0.
        -13    1    1    0    0    0 -0.48337458243E+02 -0.21169797515E+01  0.36542683493E+02  0.60633079697E+02  0.10566000000E+00 0. -1.
         13    1    1    0    0    0 -0.20214286878E+01  0.63267010414E+00  0.13558197556E-01  0.21208001463E+01  0.10566000000E+00 0.  1.
         22    1    1    0    0    0  0.50358886931E+02  0.14843096473E+01 -0.36556241690E+02  0.62246120157E+02  0.00000000000E+00 0. -1.
</event>
<event>
 4    1  0.9925048E-003  0.9118800E+02  0.7818608E-02  0.1130116E+00
         25   -1    0    0    0    0  0.00000000000E+00  0.00000000000E+00  0.99999998245E-14  0.12500000000E+03  0.12500000000E+03 0.  0.
        -13    1    1    0    0    0  0.31693750791E+02  0.82002828157E+01  0.26075079955E+02  0.41852830683E+02  0.10566000000E+00 0.  1.
         13    1    1    0    0    0  0.14813329073E+02  0.55407302164E+01  0.13312064556E+02  0.20672605939E+02  0.10566000000E+00 0. -1.
         22    1    1    0    0    0 -0.46507079863E+02 -0.13741013032E+02 -0.39387144511E+02  0.62474563378E+02  0.00000000000E+00 0.  1.
</event>
<event>
 4    1  0.9925048E-003  0.9118800E+02  0.7818608E-02  0.1130116E+00
         25   -1    0    0    0    0  0.00000000000E+00  0.00000000000E+00  0.99999998245E-14  0.12500000000E+03  0.12500000000E+03 0.  0.
        -13    1    1    0    0    0 -0.92974373329E+01  0.20942712326E+00 -0.22214267376E+02  0.24082587896E+02  0.10566000000E+00 0.  1.
         13    1    1    0    0    0  0.10169847582E+02  0.12751138178E+02 -0.36925776980E+02  0.40367579743E+02  0.10566000000E+00 0. -1.
         22    1    1    0    0    0 -0.87241024959E+00 -0.12960565301E+02  0.59140044356E+02  0.60549832361E+02  0.00000000000E+00 0. -1.
</event>
<event>
 4    1  0.9925048E-003  0.9118800E+02  0.7818608E-02  0.1130116E+00
         25   -1    0    0    0    0  0.00000000000E+00  0.00000000000E+00  0.99999998245E-14  0.12500000000E+03  0.12500000000E+03 0.  0.
        -13    1    1    0    0    0 -0.14403752711E+02  0.15060942717E+02 -0.12755529107E+02  0.24433885784E+02  0.10566000000E+00 0.  1.
         13    1    1    0    0    0 -0.22192256371E+02  0.23715929318E+02 -0.19852332730E+02  0.38066623505E+02  0.10566000000E+00 0. -1.
         22    1    1    0    0    0  0.36596009081E+02 -0.38776872035E+02  0.32607861837E+02  0.62499490711E+02  0.00000000000E+00 0. -1.
</event>
<event>
 4    1  0.9925048E-003  0.9118800E+02  0.7818608E-02  0.1130116E+00
         25   -1    0    0    0    0  0.00000000000E+00  0.00000000000E+00  0.99999998245E-14  0.12500000000E+03  0.12500000000E+03 0.  0.
        -13    1    1    0    0    0 -0.25719546775E+02 -0.21709038504E+02 -0.23617126706E+02  0.41116386964E+02  0.10566000000E+00 0.  1.
         13    1    1    0    0    0 -0.34081212840E+01 -0.25080686651E+02  0.89878864897E+01  0.26859810148E+02  0.10566000000E+00 0. -1.
         22    1    1    0    0    0  0.29127668059E+02  0.46789725155E+02  0.14629240216E+02  0.57023802889E+02  0.00000000000E+00 0.  1.
</event>
<event>
 4    1  0.9925048E-003  0.9118800E+02  0.7818608E-02  0.1130116E+00
         25   -1    0    0    0    0  0.00000000000E+00  0.00000000000E+00  0.99999998245E-14  0.12500000000E+03  0.12500000000E+03 0.  0.
        -13    1    1    0    0    0  0.28135744701E+02  0.21752573395E+02 -0.20178082067E+01  0.35621303923E+02  0.10566000000E+00 0. -1.
         13    1    1    0    0    0 -0.13893008771E+02  0.31064019058E+02 -0.43489210699E+01  0.34306169289E+02  0.10566000000E+00 0.  1.
         22    1    1    0    0    0 -0.14242735930E+02 -0.52816592453E+02  0.63667292766E+01  0.55072526788E+02  0.00000000000E+00 0. -1.
</event>
<event>
 4    1  0.9925048E-003  0.9118800E+02  0.7818608E-02  0.1130116E+00
         25   -1    0    0    0    0  0.00000000000E+00  0.00000000000E+00  0.99999998245E-14  0.12500000000E+03  0.12500000000E+03 0.  0.
        -13    1    1    0    0    0 -0.40188411549E+00 -0.38377058563E+02 -0.24891198493E+02  0.45744322722E+02  0.10566000000E+00 0. -1.
         13    1    1    0    0    0  0.33067346275E+00 -0.68657779350E+01 -0.16538027564E+02  0.17909934989E+02  0.10566000000E+00 0.  1.
         22    1    1    0    0    0  0.71210652732E-01  0.45242836498E+02  0.41429226057E+02  0.61345742289E+02  0.00000000000E+00 0. -1.
</event>
<event>
 4    1  0.9925048E-003  0.9118800E+02  0.7818608E-02  0.1130116E+00
         25   -1    0    0    0    0  0.00000000000E+00  0.00000000000E+00  0.99999998245E-14  0.12500000000E+03  0.12500000000E+03 0.  0.
        -13    1    1    0    0    0  0.71027486792E+01  0.14455100514E+02  0.38092435018E+01  0.16550542884E+02  0.10566000000E+00 0.  1.
         13    1    1    0    0    0  0.22879944359E+02  0.37655633344E+02  0.13150558067E+02  0.45982463156E+02  0.10566000000E+00 0. -1.
         22    1    1    0    0    0 -0.29982693038E+02 -0.52110733858E+02 -0.16959801568E+02  0.62466993959E+02  0.00000000000E+00 0. -1.
</event>
<event>
 4    1  0.9925048E-003  0.9118800E+02  0.7818608E-02  0.1130116E+00
         25   -1    0    0    0    0  0.00000000000E+00  0.00000000000E+00  0.99999998245E-14  0.12500000000E+03  0.12500000000E+03 0.  0.
        -13    1    1    0    0    0 -0.56725390430E+01  0.49331689394E+01 -0.13134390662E+01  0.76321780112E+01  0.10566000000E+00 0. -1.
         13    1    1    0    0    0 -0.48323575772E+02  0.19646005838E+02  0.18909533185E+02  0.55486170620E+02  0.10566000000E+00 0.  1.
         22    1    1    0    0    0  0.53996114815E+02 -0.24579174777E+02 -0.17596094119E+02  0.61881651369E+02  0.00000000000E+00 0.  1.
</event>
<event>
 4    1  0.9925048E-003  0.9118800E+02  0.7818608E-02  0.1130116E+00
         25   -1    0    0    0    0  0.00000000000E+00  0.00000000000E+00  0.99999998245E-14  0.12500000000E+03  0.12500000000E+03 0.  0.
        -13    1    1    0    0    0 -0.23287485369E+02  0.17125960779E+02  0.74684159868E+01  0.29856220605E+02  0.10566000000E+00 0. -1.
         13    1    1    0    0    0 -0.25624767606E+02  0.18600943400E+02  0.79382255685E+01  0.32644301179E+02  0.10566000000E+00 0. -1.
         22    1    1    0    0    0  0.48912252975E+02 -0.35726904179E+02 -0.15406641555E+02  0.62499478216E+02  0.00000000000E+00 0. -1.
</event>
<event>
 4    1  0.9925048E-003  0.9118800E+02  0.7818608E-02  0.1130116E+00
         25   -1    0    0    0    0  0.00000000000E+00  0.00000000000E+00  0.99999998245E-14  0.12500000000E+03  0.12500000000E+03 0.  0.
        -13    1    1    0    0    0 -0.19097445119E+02 -0.24375456902E+01  0.57707303041E+01  0.20098918661E+02  0.10566000000E+00 0. -1.
         13    1    1    0    0    0 -0.41286357903E+02  0.51550191938E+01  0.92388115744E+01  0.42620468969E+02  0.10566000000E+00 0.  1.
         22    1    1    0    0    0  0.60383803023E+02 -0.27174735036E+01 -0.15009541879E+02  0.62280612369E+02  0.00000000000E+00 0.  1.
</event>
<event>
 4    1  0.9925048E-003  0.9118800E+02  0.7818608E-02  0.1130116E+00
         25   -1    0    0    0    0  0.00000000000E+00  0.00000000000E+00  0.99999998245E-14  0.12500000000E+03  0.12500000000E+03 0.  0.
        -13    1    1    0    0    0  0.21523162746E+02 -0.33906683388E+01 -0.41963563398E+02  0.47283136354E+02  0.10566000000E+00 0. -1.
         13    1    1    0    0    0  0.16258689610E+02  0.84189885463E+01 -0.32346869642E+01  0.18592975011E+02  0.10566000000E+00 0.  1.
         22    1    1    0    0    0 -0.37781852356E+02 -0.50283202075E+01  0.45198250362E+02  0.59123888635E+02  0.00000000000E+00 0. -1.
</event>
<event>
 4    1  0.9925048E-003  0.9118800E+02  0.7818608E-02  0.1130116E+00
         25   -1    0    0    0    0  0.00000000000E+00  0.00000000000E+00  0.99999998245E-14  0.12500000000E+03  0.12500000000E+03 0.  0.
        -13    1    1    0    0    0  0.18851818042E+02  0.57653685041E+02 -0.52843823631E+01  0.60887390348E+02  0.10566000000E+00 0.  1.
         13    1    1    0    0    0  0.52360286177E+00  0.15284242695E+01  0.47377230517E-01  0.16197682988E+01  0.10566000000E+00 0. -1.
         22    1    1    0    0    0 -0.19375420904E+02 -0.59182109311E+02  0.52370051326E+01  0.62492841354E+02  0.00000000000E+00 0.  1.
</event>
<event>
 4    1  0.9925048E-003  0.9118800E+02  0.7818608E-02  0.1130116E+00
         25   -1    0    0    0    0  0.00000000000E+00  0.00000000000E+00  0.99999998245E-14  0.12500000000E+03  0.12500000000E+03 0.  0.
        -13    1    1    0    0    0  0.10209025521E+02 -0.39493599136E+02 -0.18403852164E+02  0.44751329738E+02  0.10566000000E+00 0. -1.
         13    1    1    0    0    0  0.32509205659E+01 -0.15460466515E+02 -0.81179016086E+01  0.17762488563E+02  0.10566000000E+00 0.  1.
         22    1    1    0    0    0 -0.13459946087E+02  0.54954065650E+02  0.26521753773E+02  0.62486181699E+02  0.00000000000E+00 0. -1.
</event>
<event>
 4    1  0.9925048E-003  0.9118800E+02  0.7818608E-02  0.1130116E+00
         25   -1    0    0    0    0  0.00000000000E+00  0.00000000000E+00  0.99999998245E-14  0.12500000000E+03  0.12500000000E+03 0.  0.
        -13    1    1    0    0    0 -0.10333581311E+02  0.67520831630E+01 -0.30641645750E+02  0.33034756667E+02  0.10566000000E+00 0. -1.
         13    1    1    0    0    0 -0.75090273667E+01  0.96547182330E+01 -0.26887068013E+02  0.29538528510E+02  0.10566000000E+00 0.  1.
         22    1    1    0    0    0  0.17842608678E+02 -0.16406801396E+02  0.57528713763E+02  0.62426714823E+02  0.00000000000E+00 0.  1.
</event>
<event>
 4    1  0.9925048E-003  0.9118800E+02  0.7818608E-02  0.1130116E+00
         25   -1    0    0    0    0  0.00000000000E+00  0.00000000000E+00  0.99999998245E-14  0.12500000000E+03  0.12500000000E+03 0.  0.
        -13    1    1    0    0    0  0.63762378098E+01 -0.59364202408E+02 -0.65096197520E+01  0.60059564180E+02  0.10566000000E+00 0.  1.
         13    1    1    0    0    0  0.73428234792E+00 -0.23625572048E+01  0.35040842381E+00  0.25009592583E+01  0.10566000000E+00 0. -1.
         22    1    1    0    0    0 -0.71105201577E+01  0.61726759612E+02  0.61592113281E+01  0.62439476562E+02  0.00000000000E+00 0.  1.
</event>
<event>
 4    1  0.9925048E-003  0.9118800E+02  0.7818608E-02  0.1130116E+00
         25   -1    0    0    0    0  0.00000000000E+00  0.00000000000E+00  0.99999998245E-14  0.12500000000E+03  0.12500000000E+03 0.  0.
        -13    1    1    0    0    0 -0.25294598388E+02  0.93516876374E+00  0.11559940909E+02  0.27826869140E+02  0.10566000000E+00 0. -1.
         13    1    1    0    0    0 -0.24103657165E+02  0.89628254961E+01  0.24262733986E+02  0.35355479831E+02  0.10566000000E+00 0.  1.
         22    1    1    0    0    0  0.49398255554E+02 -0.98979942598E+01 -0.35822674895E+02  0.61817651029E+02  0.00000000000E+00 0.  1.
</event>
<event>
 4    1  0.9925048E-003  0.9118800E+02  0.7818608E-02  0.1130116E+00
         25   -1    0    0    0    0  0.00000000000E+00  0.00000000000E+00  0.99999998245E-14  0.12500000000E+03  0.12500000000E+03 0.  0.
        -13    1    1    0    0    0  0.65274080445E+01  0.28904930766E+01 -0.45309762777E+01  0.84559396918E+01  0.10566000000E+00 0. -1.
         13    1    1    0    0    0  0.45509982444E+02  0.66832911009E+01 -0.28554546965E+02  0.54140541172E+02  0.10566000000E+00 0.  1.
         22    1    1    0    0    0 -0.52037390489E+02 -0.95737841775E+01  0.33085523242E+02  0.62403519136E+02  0.00000000000E+00 0.  1.
</event>
<event>
 4    1  0.9925048E-003  0.9118800E+02  0.7818608E-02  0.1130116E+00
         25   -1    0    0    0    0  0.00000000000E+00  0.00000000000E+00  0.99999998245E-14  0.12500000000E+03  0.12500000000E+03 0.  0.
        -13    1    1    0    0    0 -0.13315623828E+02  0.18807875812E+01  0.75541666645E+01  0.15424649036E+02  0.10566000000E+00 0.  1.
         13    1    1    0    0    0 -0.37634690210E+02  0.94336364951E+01  0.26743494970E+02  0.47123126933E+02  0.10566000000E+00 0. -1.
         22    1    1    0    0    0  0.50950314038E+02 -0.11314424076E+02 -0.34297661634E+02  0.62452224031E+02  0.00000000000E+00 0. -1.
</event>
<event>
 4    1  0.9925048E-003  0.9118800E+02  0.7818608E-02  0.1130116E+00
         25   -1    0    0    0    0  0.00000000000E+00  0.00000000000E+00  0.99999998245E-14  0.12500000000E+03  0.12500000000E+03 0.  0.
        -13    1    1    0    0    0 -0.21604820918E+02 -0.24578855758E+02 -0.32192563893E+02  0.45904910101E+02  0.10566000000E+00 0.  1.
         13    1    1    0    0    0 -0.93789234911E+01 -0.92225930628E+01 -0.10201831617E+02  0.16646590072E+02  0.10566000000E+00 0. -1.
         22    1    1    0    0    0  0.30983744409E+02  0.33801448821E+02  0.42394395510E+02  0.62448499827E+02  0.00000000000E+00 0.  1.
</event>
<event>
 4    1  0.9925048E-003  0.9118800E+02  0.7818608E-02  0.1130116E+00
         25   -1    0    0    0    0  0.00000000000E+00  0.00000000000E+00  0.99999998245E-14  0.12500000000E+03  0.12500000000E+03 0.  0.
        -13    1    1    0    0    0  0.99055363508E+01  0.12205436717E+02 -0.12913994958E+02  0.20343912250E+02  0.10566000000E+00 0.  1.
         13    1    1    0    0    0  0.20273478695E+02  0.24457335650E+02 -0.27717130248E+02  0.42159526547E+02  0.10566000000E+00 0. -1.
         22    1    1    0    0    0 -0.30179015045E+02 -0.36662772366E+02  0.40631125205E+02  0.62496561203E+02  0.00000000000E+00 0. -1.
</event>
<event>
 4    1  0.9925048E-003  0.9118800E+02  0.7818608E-02  0.1130116E+00
         25   -1    0    0    0    0  0.00000000000E+00  0.00000000000E+00  0.99999998245E-14  0.12500000000E+03  0.12500000000E+03 0.  0.
        -13    1    1    0    0    0 -0.43758019229E+01 -0.95729687478E+01  0.49532931926E+02  0.50639035164E+02  0.10566000000E+00 0.  1.
         13    1    1    0    0    0  0.66466470057E+01  0.46244772199E+01  0.10958030832E+02  0.13625465487E+02  0.10566000000E+00 0. -1.
         22    1    1    0    0    0 -0.22708450828E+01  0.49484915279E+01 -0.60490962758E+02  0.60735499349E+02  0.00000000000E+00 0.  1.
</event>
<event>
 4    1  0.9925048E-003  0.9118800E+02  0.7818608E-02  0.1130116E+00
         25   -1    0    0    0    0  0.00000000000E+00  0.00000000000E+00  0.99999998245E-14  0.12500000000E+03  0.12500000000E+03 0.  0.
        -13    1    1    0    0    0 -0.41705729982E+02  0.24655549829E+01 -0.81096151339E+01  0.42558476198E+02  0.10566000000E+00 0. -1.
         13    1    1    0    0    0 -0.18808134131E+02  0.37885227957E+01 -0.57838668086E+01  0.20039039242E+02  0.10566000000E+00 0.  1.
         22    1    1    0    0    0  0.60513864113E+02 -0.62540777785E+01  0.13893481942E+02  0.62402484559E+02  0.00000000000E+00 0. -1.
</event>
<event>
 4    1  0.9925048E-003  0.9118800E+02  0.7818608E-02  0.1130116E+00
         25   -1    0    0    0    0  0.00000000000E+00  0.00000000000E+00  0.99999998245E-14  0.12500000000E+03  0.12500000000E+03 0.  0.
        -13    1    1    0    0    0 -0.17684027060E+01  0.39941652987E-01  0.24299801465E+01  0.30074592290E+01  0.10566000000E+00 0.  1.
         13    1    1    0    0    0 -0.37545952558E+02  0.16780884871E+01  0.46121807135E+02  0.59495771210E+02  0.10566000000E+00 0. -1.
         22    1    1    0    0    0  0.39314355264E+02 -0.17180301400E+01 -0.48551787281E+02  0.62496769561E+02  0.00000000000E+00 0. -1.
</event>
<event>
 4    1  0.9925048E-003  0.9118800E+02  0.7818608E-02  0.1130116E+00
         25   -1    0    0    0    0  0.00000000000E+00  0.00000000000E+00  0.99999998245E-14  0.12500000000E+03  0.12500000000E+03 0.  0.
        -13    1    1    0    0    0  0.95958072892E+01  0.49426018138E+02  0.11446837124E+02  0.51633826419E+02  0.10566000000E+00 0. -1.
         13    1    1    0    0    0  0.23223335494E+01  0.96804665219E+01  0.46063103709E+01  0.10969682059E+02  0.10566000000E+00 0.  1.
         22    1    1    0    0    0 -0.11918140839E+02 -0.59106484660E+02 -0.16053147495E+02  0.62396491523E+02  0.00000000000E+00 0. -1.
</event>
<event>
 4    1  0.9925048E-003  0.9118800E+02  0.7818608E-02  0.1130116E+00
         25   -1    0    0    0    0  0.00000000000E+00  0.00000000000E+00  0.99999998245E-14  0.12500000000E+03  0.12500000000E+03 0.  0.
        -13    1    1    0    0    0 -0.38213057442E+02 -0.21661272569E+02 -0.24154189675E+02  0.50128679728E+02  0.10566000000E+00 0. -1.
         13    1    1    0    0    0 -0.10447122594E-01 -0.15167382426E+02 -0.26673080465E+01  0.15400496585E+02  0.10566000000E+00 0.  1.
         22    1    1    0    0    0  0.38223504565E+02  0.36828654996E+02  0.26821497721E+02  0.59470823687E+02  0.00000000000E+00 0. -1.
</event>
<event>
 4    1  0.9925048E-003  0.9118800E+02  0.7818608E-02  0.1130116E+00
         25   -1    0    0    0    0  0.00000000000E+00  0.00000000000E+00  0.99999998245E-14  0.12500000000E+03  0.12500000000E+03 0.  0.
        -13    1    1    0    0    0 -0.11660249502E+02  0.21827170833E+02 -0.21834486876E+02  0.33002163356E+02  0.10566000000E+00 0. -1.
         13    1    1    0    0    0 -0.10503933678E+02  0.19378714644E+02 -0.19602623089E+02  0.29498155875E+02  0.10566000000E+00 0. -1.
         22    1    1    0    0    0  0.22164183180E+02 -0.41205885477E+02  0.41437109966E+02  0.62499680769E+02  0.00000000000E+00 0. -1.
</event>
<event>
 4    1  0.9925048E-003  0.9118800E+02  0.7818608E-02  0.1130116E+00
         25   -1    0    0    0    0  0.00000000000E+00  0.00000000000E+00  0.99999998245E-14  0.12500000000E+03  0.12500000000E+03 0.  0.
        -13    1    1    0    0    0  0.22083301372E+02 -0.10132173151E+01  0.31232729680E+02  0.38264779839E+02  0.10566000000E+00 0. -1.
         13    1    1    0    0    0  0.64679428617E+01 -0.20206890395E+02  0.16730410826E+02  0.27019817075E+02  0.10566000000E+00 0.  1.
         22    1    1    0    0    0 -0.28551244234E+02  0.21220107710E+02 -0.47963140506E+02  0.59715403086E+02  0.00000000000E+00 0.  1.
</event>
<event>
 4    1  0.9925048E-003  0.9118800E+02  0.7818608E-02  0.1130116E+00
         25   -1    0    0    0    0  0.00000000000E+00  0.00000000000E+00  0.99999998245E-14  0.12500000000E+03  0.12500000000E+03 0.  0.
        -13    1    1    0    0    0  0.84638737113E+01 -0.29403408838E+02  0.44610710339E+02  0.54095510447E+02  0.10566000000E+00 0. -1.
         13    1    1    0    0    0  0.15728854330E+01 -0.48801923522E+01  0.66664586696E+01  0.84108906311E+01  0.10566000000E+00 0.  1.
         22    1    1    0    0    0 -0.10036759144E+02  0.34283601190E+02 -0.51277169009E+02  0.62493598922E+02  0.00000000000E+00 0.  1.
</event>
<event>
 4    1  0.9925048E-003  0.9118800E+02  0.7818608E-02  0.1130116E+00
         25   -1    0    0    0    0  0.00000000000E+00  0.00000000000E+00  0.99999998245E-14  0.12500000000E+03  0.12500000000E+03 0.  0.
        -13    1    1    0    0    0 -0.11845058194E+02  0.16840784242E+02  0.32194685817E+00  0.20592042913E+02  0.10566000000E+00 0.  1.
         13    1    1    0    0    0 -0.24666375424E+02  0.33881152827E+02 -0.44204822164E+00  0.41911444310E+02  0.10566000000E+00 0. -1.
         22    1    1    0    0    0  0.36511433618E+02 -0.50721937070E+02  0.12010136347E+00  0.62496512777E+02  0.00000000000E+00 0. -1.
</event>
<event>
 4    1  0.9925048E-003  0.9118800E+02  0.7818608E-02  0.1130116E+00
         25   -1    0    0    0    0  0.00000000000E+00  0.00000000000E+00  0.99999998245E-14  0.12500000000E+03  0.12500000000E+03 0.  0.
        -13    1    1    0    0    0  0.16967050109E+00  0.57156593377E+02  0.72759733080E+01  0.57618190757E+02  0.10566000000E+00 0. -1.
         13    1    1    0    0    0 -0.54399538462E+01 -0.39295851785E+01  0.92239878866E+01  0.11407359646E+02  0.10566000000E+00 0.  1.
         22    1    1    0    0    0  0.52702833451E+01 -0.53227008198E+02 -0.16499961195E+02  0.55974449597E+02  0.00000000000E+00 0. -1.
</event>
<event>
 4    1  0.9925048E-003  0.9118800E+02  0.7818608E-02  0.1130116E+00
         25   -1    0    0    0    0  0.00000000000E+00  0.00000000000E+00  0.99999998245E-14  0.12500000000E+03  0.12500000000E+03 0.  0.
        -13    1    1    0    0    0  0.17453544747E+02  0.57356551078E+01 -0.39319340663E+02  0.43399834999E+02  0.10566000000E+00 0.  1.
         13    1    1    0    0    0  0.78524822785E+01  0.27159837761E+01 -0.17198893448E+02  0.19101077082E+02  0.10566000000E+00 0.  1.
         22    1    1    0    0    0 -0.25306027026E+02 -0.84516388839E+01  0.56518234111E+02  0.62499087919E+02  0.00000000000E+00 0.  1.
</event>
<event>
 4    1  0.9925048E-003  0.9118800E+02  0.7818608E-02  0.1130116E+00
         25   -1    0    0    0    0  0.00000000000E+00  0.00000000000E+00  0.99999998245E-14  0.12500000000E+03  0.12500000000E+03 0.  0.
        -13    1    1    0    0    0 -0.10468664065E+02  0.34268615683E+02  0.62015441720E+01  0.36364835519E+02  0.10566000000E+00 0.  1.
         13    1    1    0    0    0 -0.79076198159E+01  0.24469631388E+02  0.46707009748E+01  0.26136562954E+02  0.10566000000E+00 0. -1.
         22    1    1    0    0    0  0.18376283881E+02 -0.58738247072E+02 -0.10872245147E+02  0.62498601527E+02  0.00000000000E+00 0.  1.
</event>
<event>
 4    1  0.9925048E-003  0.9118800E+02  0.7818608E-02  0.1130116E+00
         25   -1    0    0    0    0  0.00000000000E+00  0.00000000000E+00  0.99999998245E-14  0.12500000000E+03  0.12500000000E+03 0.  0.
        -13    1    1    0    0    0  0.38548213786E+02 -0.46857870188E+02  0.82862203362E+01  0.61239671751E+02  0.10566000000E+00 0. -1.
         13    1    1    0    0    0  0.12949165397E+01  0.41286851115E+00  0.12244648458E+01  0.18324157406E+01  0.10566000000E+00 0.  1.
         22    1    1    0    0    0 -0.39843130326E+02  0.46445001677E+02 -0.95106851820E+01  0.61927912508E+02  0.00000000000E+00 0. -1.
</event>
<event>
 4    1  0.9925048E-003  0.9118800E+02  0.7818608E-02  0.1130116E+00
         25   -1    0    0    0    0  0.00000000000E+00  0.00000000000E+00  0.99999998245E-14  0.12500000000E+03  0.12500000000E+03 0.  0.
        -13    1    1    0    0    0  0.10905318166E+01 -0.52772781279E+01 -0.83889212553E+01  0.99711628182E+01  0.10566000000E+00 0. -1.
         13    1    1    0    0    0  0.74521015915E+01 -0.28061315192E+02 -0.43778795312E+02  0.52531564906E+02  0.10566000000E+00 0.  1.
         22    1    1    0    0    0 -0.85426334081E+01  0.33338593320E+02  0.52167716568E+02  0.62497272276E+02  0.00000000000E+00 0.  1.
</event>
<event>
 4    1  0.9925048E-003  0.9118800E+02  0.7818608E-02  0.1130116E+00
         25   -1    0    0    0    0  0.00000000000E+00  0.00000000000E+00  0.99999998245E-14  0.12500000000E+03  0.12500000000E+03 0.  0.
        -13    1    1    0    0    0 -0.96513852078E+00  0.14739925933E+02  0.70921495108E+01  0.16386172756E+02  0.10566000000E+00 0. -1.
         13    1    1    0    0    0 -0.24837999862E+01  0.42657955723E+02  0.17369296606E+02  0.46125633627E+02  0.10566000000E+00 0.  1.
         22    1    1    0    0    0  0.34489385070E+01 -0.57397881656E+02 -0.24461446117E+02  0.62488193617E+02  0.00000000000E+00 0.  1.
</event>
<event>
 4    1  0.9925048E-003  0.9118800E+02  0.7818608E-02  0.1130116E+00
         25   -1    0    0    0    0  0.00000000000E+00  0.00000000000E+00  0.99999998245E-14  0.12500000000E+03  0.12500000000E+03 0.  0.
        -13    1    1    0    0    0 -0.14521778763E+02  0.97756439314E+01  0.16277031680E+02  0.23903936852E+02  0.10566000000E+00 0.  1.
         13    1    1    0    0    0 -0.28922956291E+02 -0.35780529667E+01  0.26806868465E+02  0.39597464876E+02  0.10566000000E+00 0. -1.
         22    1    1    0    0    0  0.43444735054E+02 -0.61975909648E+01 -0.43083900145E+02  0.61498598272E+02  0.00000000000E+00 0.  1.
</event>
<event>
 4    1  0.9925048E-003  0.9118800E+02  0.7818608E-02  0.1130116E+00
         25   -1    0    0    0    0  0.00000000000E+00  0.00000000000E+00  0.99999998245E-14  0.12500000000E+03  0.12500000000E+03 0.  0.
        -13    1    1    0    0    0 -0.44545764286E+02 -0.31972643759E+02 -0.17916011342E+02  0.57685090719E+02  0.10566000000E+00 0. -1.
         13    1    1    0    0    0 -0.39127164210E+01 -0.23317112330E+01 -0.15828610096E+01  0.48231566507E+01  0.10566000000E+00 0.  1.
         22    1    1    0    0    0  0.48458480707E+02  0.34304354992E+02  0.19498872352E+02  0.62491752631E+02  0.00000000000E+00 0. -1.
</event>
<event>
 4    1  0.9925048E-003  0.9118800E+02  0.7818608E-02  0.1130116E+00
         25   -1    0    0    0    0  0.00000000000E+00  0.00000000000E+00  0.99999998245E-14  0.12500000000E+03  0.12500000000E+03 0.  0.
        -13    1    1    0    0    0 -0.14574869896E+01  0.13514306594E+02 -0.78920423612E+01  0.15718023022E+02  0.10566000000E+00 0. -1.
         13    1    1    0    0    0 -0.32000148851E+01  0.40693380696E+02 -0.22860739517E+02  0.46784782815E+02  0.10566000000E+00 0.  1.
         22    1    1    0    0    0  0.46575018747E+01 -0.54207687290E+02  0.30752781878E+02  0.62497194163E+02  0.00000000000E+00 0.  1.
</event>
<event>
 4    1  0.9925048E-003  0.9118800E+02  0.7818608E-02  0.1130116E+00
         25   -1    0    0    0    0  0.00000000000E+00  0.00000000000E+00  0.99999998245E-14  0.12500000000E+03  0.12500000000E+03 0.  0.
        -13    1    1    0    0    0 -0.71530004483E+01  0.27920935231E+02  0.38084637505E+01  0.29073348616E+02  0.10566000000E+00 0. -1.
         13    1    1    0    0    0 -0.19131277606E+02  0.20104477440E+02 -0.24871900053E+02  0.37266853533E+02  0.10566000000E+00 0.  1.
         22    1    1    0    0    0  0.26284278054E+02 -0.48025412671E+02  0.21063436303E+02  0.58659797851E+02  0.00000000000E+00 0. -1.
</event>
<event>
 4    1  0.9925048E-003  0.9118800E+02  0.7818608E-02  0.1130116E+00
         25   -1    0    0    0    0  0.00000000000E+00  0.00000000000E+00  0.99999998245E-14  0.12500000000E+03  0.12500000000E+03 0.  0.
        -13    1    1    0    0    0 -0.16193284120E+02 -0.27872715423E+02 -0.11932404659E+01  0.32257490641E+02  0.10566000000E+00 0.  1.
         13    1    1    0    0    0 -0.30616757144E+02  0.11364159409E+02  0.21514732990E+02  0.39107861572E+02  0.10566000000E+00 0. -1.
         22    1    1    0    0    0  0.46810041264E+02  0.16508556014E+02 -0.20321492524E+02  0.53634647787E+02  0.00000000000E+00 0.  1.
</event>
<event>
 4    1  0.9925048E-003  0.9118800E+02  0.7818608E-02  0.1130116E+00
         25   -1    0    0    0    0  0.00000000000E+00  0.00000000000E+00  0.99999998245E-14  0.12500000000E+03  0.12500000000E+03 0.  0.
        -13    1    1    0    0    0  0.10686817202E+01  0.36836289710E+00 -0.67014468450E+00  0.13183435732E+01  0.10566000000E+00 0.  1.
         13    1    1    0    0    0  0.51163408355E+02  0.16404764963E+02 -0.29269509533E+02  0.61184360913E+02  0.10566000000E+00 0.  1.
         22    1    1    0    0    0 -0.52232090076E+02 -0.16773127860E+02  0.29939654217E+02  0.62497295514E+02  0.00000000000E+00 0.  1.
</event>
<event>
 4    1  0.9925048E-003  0.9118800E+02  0.7818608E-02  0.1130116E+00
         25   -1    0    0    0    0  0.00000000000E+00  0.00000000000E+00  0.99999998245E-14  0.12500000000E+03  0.12500000000E+03 0.  0.
        -13    1    1    0    0    0 -0.18340207638E+02  0.30761790760E+01  0.86514672456E+01  0.20510610509E+02  0.10566000000E+00 0.  1.
         13    1    1    0    0    0 -0.35275057529E+02  0.87022234463E+01  0.21137143230E+02  0.42033895424E+02  0.10566000000E+00 0. -1.
         22    1    1    0    0    0  0.53615265168E+02 -0.11778402522E+02 -0.29788610475E+02  0.62455494066E+02  0.00000000000E+00 0. -1.
</event>
<event>
 4    1  0.9925048E-003  0.9118800E+02  0.7818608E-02  0.1130116E+00
         25   -1    0    0    0    0  0.00000000000E+00  0.00000000000E+00  0.99999998245E-14  0.12500000000E+03  0.12500000000E+03 0.  0.
        -13    1    1    0    0    0  0.14269083981E+02 -0.19381510651E+01 -0.86413224215E+00  0.14426402038E+02  0.10566000000E+00 0. -1.
         13    1    1    0    0    0  0.47545246321E+02 -0.66091574892E+01 -0.26197028996E+01  0.48073957791E+02  0.10566000000E+00 0. -1.
         22    1    1    0    0    0 -0.61814330301E+02  0.85473085543E+01  0.34838351417E+01  0.62499640170E+02  0.00000000000E+00 0. -1.
</event>
<event>
 4    1  0.9925048E-003  0.9118800E+02  0.7818608E-02  0.1130116E+00
         25   -1    0    0    0    0  0.00000000000E+00  0.00000000000E+00  0.99999998245E-14  0.12500000000E+03  0.12500000000E+03 0.  0.
        -13    1    1    0    0    0  0.23411121654E+01 -0.51616782368E+02  0.73500656107E+01  0.52190110718E+02  0.10566000000E+00 0.  1.
         13    1    1    0    0    0 -0.12360946348E+01 -0.10208907089E+02  0.13240658503E+01  0.10368897160E+02  0.10566000000E+00 0. -1.
         22    1    1    0    0    0 -0.11050175305E+01  0.61825689457E+02 -0.86741314609E+01  0.62440992122E+02  0.00000000000E+00 0.  1.
</event>
<event>
 4    1  0.9925048E-003  0.9118800E+02  0.7818608E-02  0.1130116E+00
         25   -1    0    0    0    0  0.00000000000E+00  0.00000000000E+00  0.99999998245E-14  0.12500000000E+03  0.12500000000E+03 0.  0.
        -13    1    1    0    0    0  0.86453749017E+00 -0.21074951344E+01  0.16320608372E+01  0.28042374053E+01  0.10566000000E+00 0.  1.
         13    1    1    0    0    0  0.22781373232E+02 -0.42671831308E+02  0.34990859066E+02  0.59701319380E+02  0.10566000000E+00 0. -1.
         22    1    1    0    0    0 -0.23645910722E+02  0.44779326442E+02 -0.36622919903E+02  0.62494443215E+02  0.00000000000E+00 0. -1.
</event>
<event>
 4    1  0.9925048E-003  0.9118800E+02  0.7818608E-02  0.1130116E+00
         25   -1    0    0    0    0  0.00000000000E+00  0.00000000000E+00  0.99999998245E-14  0.12500000000E+03  0.12500000000E+03 0.  0.
        -13    1    1    0    0    0 -0.39266586659E+01  0.21848381060E+01  0.58531478997E+01  0.73798828039E+01  0.10566000000E+00 0.  1.
         13    1    1    0    0    0  0.41442144621E+02 -0.92665804867E+00  0.40514389501E+02  0.57963238062E+02  0.10566000000E+00 0. -1.
         22    1    1    0    0    0 -0.37515485955E+02 -0.12581800574E+01 -0.46367537400E+02  0.59656879135E+02  0.00000000000E+00 0. -1.
</event>
<event>
 4    1  0.9925048E-003  0.9118800E+02  0.7818608E-02  0.1130116E+00
         25   -1    0    0    0    0  0.00000000000E+00  0.00000000000E+00  0.99999998245E-14  0.12500000000E+03  0.12500000000E+03 0.  0.
        -13    1    1    0    0    0 -0.35779977987E+02  0.46050227838E+02  0.94104616874E+01  0.59071128836E+02  0.10566000000E+00 0.  1.
         13    1    1    0    0    0 -0.31001131073E+01  0.17896867785E+01 -0.96250543858E-01  0.35824723650E+01  0.10566000000E+00 0. -1.
         22    1    1    0    0    0  0.38880091094E+02 -0.47839914617E+02 -0.93142111436E+01  0.62346398799E+02  0.00000000000E+00 0.  1.
</event>
<event>
 4    1  0.9925048E-003  0.9118800E+02  0.7818608E-02  0.1130116E+00
         25   -1    0    0    0    0  0.00000000000E+00  0.00000000000E+00  0.99999998245E-14  0.12500000000E+03  0.12500000000E+03 0.  0.
        -13    1    1    0    0    0 -0.38125894143E+01  0.12940815265E+02  0.51600345187E+02  0.53334860319E+02  0.10566000000E+00 0. -1.
         13    1    1    0    0    0 -0.38814859683E+01  0.99655713932E+00  0.85502798148E+01  0.94433843722E+01  0.10566000000E+00 0.  1.
         22    1    1    0    0    0  0.76940753827E+01 -0.13937372404E+02 -0.60150625002E+02  0.62221755309E+02  0.00000000000E+00 0. -1.
</event>
<event>
 4    1  0.9925048E-003  0.9118800E+02  0.7818608E-02  0.1130116E+00
         25   -1    0    0    0    0  0.00000000000E+00  0.00000000000E+00  0.99999998245E-14  0.12500000000E+03  0.12500000000E+03 0.  0.
        -13    1    1    0    0    0 -0.33171802860E+01  0.10246791674E+02  0.65592741461E+00  0.10790821538E+02  0.10566000000E+00 0. -1.
         13    1    1    0    0    0 -0.16772293026E+02  0.48810173043E+02  0.31923958357E+01  0.51710205579E+02  0.10566000000E+00 0.  1.
         22    1    1    0    0    0  0.20089473312E+02 -0.59056964717E+02 -0.38483232503E+01  0.62498972883E+02  0.00000000000E+00 0.  1.
</event>
<event>
 4    1  0.9925048E-003  0.9118800E+02  0.7818608E-02  0.1130116E+00
         25   -1    0    0    0    0  0.00000000000E+00  0.00000000000E+00  0.99999998245E-14  0.12500000000E+03  0.12500000000E+03 0.  0.
        -13    1    1    0    0    0  0.98996950185E+01  0.13627715109E+01  0.53121752596E+00  0.10007720207E+02  0.10566000000E+00 0.  1.
         13    1    1    0    0    0  0.52199916169E+02  0.54852226794E+01  0.10117939340E+01  0.52497179037E+02  0.10566000000E+00 0. -1.
         22    1    1    0    0    0 -0.62099611187E+02 -0.68479941903E+01 -0.15430114600E+01  0.62495100755E+02  0.00000000000E+00 0. -1.
</event>
<event>
 4    1  0.9925048E-003  0.9118800E+02  0.7818608E-02  0.1130116E+00
         25   -1    0    0    0    0  0.00000000000E+00  0.00000000000E+00  0.99999998245E-14  0.12500000000E+03  0.12500000000E+03 0.  0.
        -13    1    1    0    0    0 -0.31862657590E+01  0.19901619448E+02 -0.10919772019E+02  0.22923335951E+02  0.10566000000E+00 0. -1.
         13    1    1    0    0    0  0.27226374752E+01  0.36421982590E+02 -0.15727227190E+02  0.39765945352E+02  0.10566000000E+00 0.  1.
         22    1    1    0    0    0  0.46362828376E+00 -0.56323602038E+02  0.26646999209E+02  0.62310718697E+02  0.00000000000E+00 0. -1.
</event>
<event>
 4    1  0.9925048E-003  0.9118800E+02  0.7818608E-02  0.1130116E+00
         25   -1    0    0    0    0  0.00000000000E+00  0.00000000000E+00  0.99999998245E-14  0.12500000000E+03  0.12500000000E+03 0.  0.
        -13    1    1    0    0    0  0.17426594671E+02  0.24424295309E+02 -0.35801615959E+02  0.46711875069E+02  0.10566000000E+00 0. -1.
         13    1    1    0    0    0  0.57397449599E+01  0.10452123741E+02 -0.10481700197E+02  0.15876673643E+02  0.10566000000E+00 0.  1.
         22    1    1    0    0    0 -0.23166339631E+02 -0.34876419050E+02  0.46283316155E+02  0.62411451289E+02  0.00000000000E+00 0. -1.
</event>
<event>
 4    1  0.9925048E-003  0.9118800E+02  0.7818608E-02  0.1130116E+00
         25   -1    0    0    0    0  0.00000000000E+00  0.00000000000E+00  0.99999998245E-14  0.12500000000E+03  0.12500000000E+03 0.  0.
        -13    1    1    0    0    0  0.48200678337E+02  0.29790048603E+02  0.16415792083E+02  0.58993574071E+02  0.10566000000E+00 0. -1.
         13    1    1    0    0    0  0.28827821522E+01  0.17159947962E+01  0.10183918107E+01  0.35076141454E+01  0.10566000000E+00 0.  1.
         22    1    1    0    0    0 -0.51083460490E+02 -0.31506043399E+02 -0.17434183894E+02  0.62498811783E+02  0.00000000000E+00 0. -1.
</event>
<event>
 4    1  0.9925048E-003  0.9118800E+02  0.7818608E-02  0.1130116E+00
         25   -1    0    0    0    0  0.00000000000E+00  0.00000000000E+00  0.99999998245E-14  0.12500000000E+03  0.12500000000E+03 0.  0.
        -13    1    1    0    0    0 -0.55169779551E+02  0.77946858356E+01 -0.12204450981E+02  0.57038771821E+02  0.10566000000E+00 0. -1.
         13    1    1    0    0    0 -0.47277820069E+01  0.22805012680E+01 -0.19399083944E+01  0.55970543460E+01  0.10566000000E+00 0.  1.
         22    1    1    0    0    0  0.59897561558E+02 -0.10075187104E+02  0.14144359376E+02  0.62364173833E+02  0.00000000000E+00 0. -1.
</event>
<event>
 4    1  0.9925048E-003  0.9118800E+02  0.7818608E-02  0.1130116E+00
         25   -1    0    0    0    0  0.00000000000E+00  0.00000000000E+00  0.99999998245E-14  0.12500000000E+03  0.12500000000E+03 0.  0.
        -13    1    1    0    0    0  0.39249808258E+01 -0.14936086422E+02 -0.11200041290E+02  0.19077322690E+02  0.10566000000E+00 0. -1.
         13    1    1    0    0    0  0.70817430620E+01 -0.33276797739E+02 -0.26999795119E+02  0.43433816930E+02  0.10566000000E+00 0.  1.
         22    1    1    0    0    0 -0.11006723888E+02  0.48212884161E+02  0.38199836410E+02  0.62488860380E+02  0.00000000000E+00 0. -1.
</event>
<event>
 4    1  0.9925048E-003  0.9118800E+02  0.7818608E-02  0.1130116E+00
         25   -1    0    0    0    0  0.00000000000E+00  0.00000000000E+00  0.99999998245E-14  0.12500000000E+03  0.12500000000E+03 0.  0.
        -13    1    1    0    0    0  0.36840396394E+02  0.33513458182E+02 -0.89288161812E+01  0.50597446657E+02  0.10566000000E+00 0.  1.
         13    1    1    0    0    0  0.88704250661E+01  0.77651008036E+01 -0.16683538736E+01  0.11906964350E+02  0.10566000000E+00 0. -1.
         22    1    1    0    0    0 -0.45710821460E+02 -0.41278558986E+02  0.10597170055E+02  0.62495588993E+02  0.00000000000E+00 0.  1.
</event>
<event>
 4    1  0.9925048E-003  0.9118800E+02  0.7818608E-02  0.1130116E+00
         25   -1    0    0    0    0  0.00000000000E+00  0.00000000000E+00  0.99999998245E-14  0.12500000000E+03  0.12500000000E+03 0.  0.
        -13    1    1    0    0    0 -0.70639477593E+01  0.21985210021E+01  0.79022836822E+01  0.10825437819E+02  0.10566000000E+00 0.  1.
         13    1    1    0    0    0 -0.38074916921E+02  0.87990228055E+01  0.33857713351E+02  0.51705686518E+02  0.10566000000E+00 0. -1.
         22    1    1    0    0    0  0.45138864680E+02 -0.10997543808E+02 -0.41759997033E+02  0.62468875663E+02  0.00000000000E+00 0. -1.
</event>
<event>
 4    1  0.9925048E-003  0.9118800E+02  0.7818608E-02  0.1130116E+00
         25   -1    0    0    0    0  0.00000000000E+00  0.00000000000E+00  0.99999998245E-14  0.12500000000E+03  0.12500000000E+03 0.  0.
        -13    1    1    0    0    0  0.21465099210E+02  0.11157228731E+02  0.26217677079E+02  0.35673687677E+02  0.10566000000E+00 0.  1.
         13    1    1    0    0    0  0.61307303369E+01  0.12328892212E+02  0.23838977970E+02  0.27529901423E+02  0.10566000000E+00 0. -1.
         22    1    1    0    0    0 -0.27595829547E+02 -0.23486120944E+02 -0.50056655049E+02  0.61796410900E+02  0.00000000000E+00 0. -1.
</event>
<event>
 4    1  0.9925048E-003  0.9118800E+02  0.7818608E-02  0.1130116E+00
         25   -1    0    0    0    0  0.00000000000E+00  0.00000000000E+00  0.99999998245E-14  0.12500000000E+03  0.12500000000E+03 0.  0.
        -13    1    1    0    0    0  0.15990599006E+02  0.17550121947E+02  0.87246876500E+01  0.25295006929E+02  0.10566000000E+00 0.  1.
         13    1    1    0    0    0  0.21540986863E+02  0.24888292141E+02  0.17497005083E+02  0.37277306121E+02  0.10566000000E+00 0. -1.
         22    1    1    0    0    0 -0.37531585869E+02 -0.42438414088E+02 -0.26221692733E+02  0.62427686950E+02  0.00000000000E+00 0.  1.
</event>
<event>
 4    1  0.9925048E-003  0.9118800E+02  0.7818608E-02  0.1130116E+00
         25   -1    0    0    0    0  0.00000000000E+00  0.00000000000E+00  0.99999998245E-14  0.12500000000E+03  0.12500000000E+03 0.  0.
        -13    1    1    0    0    0 -0.11316251667E+02  0.14286764607E+01 -0.16030807502E+02  0.19674771191E+02  0.10566000000E+00 0. -1.
         13    1    1    0    0    0 -0.27589884063E+02  0.43355011717E+01 -0.32504181563E+02  0.42854769352E+02  0.10566000000E+00 0.  1.
         22    1    1    0    0    0  0.38906135731E+02 -0.57641776323E+01  0.48534989065E+02  0.62470459457E+02  0.00000000000E+00 0.  1.
</event>
<event>
 4    1  0.9925048E-003  0.9118800E+02  0.7818608E-02  0.1130116E+00
         25   -1    0    0    0    0  0.00000000000E+00  0.00000000000E+00  0.99999998245E-14  0.12500000000E+03  0.12500000000E+03 0.  0.
        -13    1    1    0    0    0  0.38413437475E+01 -0.53380416112E+01  0.26450526694E+02  0.27256047704E+02  0.10566000000E+00 0.  1.
         13    1    1    0    0    0 -0.15698317841E+02  0.39549675063E+02  0.12710318061E+02  0.44409203211E+02  0.10566000000E+00 0. -1.
         22    1    1    0    0    0  0.11856974093E+02 -0.34211633452E+02 -0.39160844754E+02  0.53334749085E+02  0.00000000000E+00 0. -1.
</event>
<event>
 4    1  0.9925048E-003  0.9118800E+02  0.7818608E-02  0.1130116E+00
         25   -1    0    0    0    0  0.00000000000E+00  0.00000000000E+00  0.99999998245E-14  0.12500000000E+03  0.12500000000E+03 0.  0.
        -13    1    1    0    0    0  0.22709997486E+02  0.41315315126E+01  0.32216126061E+01  0.23306726288E+02  0.10566000000E+00 0.  1.
         13    1    1    0    0    0  0.38277785338E+02  0.66011342971E+01  0.52328657345E+01  0.39193849929E+02  0.10566000000E+00 0.  1.
         22    1    1    0    0    0 -0.60987782824E+02 -0.10732665810E+02 -0.84544783406E+01  0.62499423783E+02  0.00000000000E+00 0.  1.
</event>
<event>
 4    1  0.9925048E-003  0.9118800E+02  0.7818608E-02  0.1130116E+00
         25   -1    0    0    0    0  0.00000000000E+00  0.00000000000E+00  0.99999998245E-14  0.12500000000E+03  0.12500000000E+03 0.  0.
        -13    1    1    0    0    0  0.61872830047E+01 -0.55807523904E+02 -0.10548245231E+02  0.57131767317E+02  0.10566000000E+00 0.  1.
         13    1    1    0    0    0  0.90421607858E+00 -0.24866131474E+01 -0.62509574160E+01  0.67887026974E+01  0.10566000000E+00 0. -1.
         22    1    1    0    0    0 -0.70914990833E+01  0.58294137051E+02  0.16799202647E+02  0.61079529986E+02  0.00000000000E+00 0.  1.
</event>
<event>
 4    1  0.9925048E-003  0.9118800E+02  0.7818608E-02  0.1130116E+00
         25   -1    0    0    0    0  0.00000000000E+00  0.00000000000E+00  0.99999998245E-14  0.12500000000E+03  0.12500000000E+03 0.  0.
        -13    1    1    0    0    0 -0.27781302937E+02  0.18448679041E+02  0.22974483913E+02  0.40496822422E+02  0.10566000000E+00 0.  1.
         13    1    1    0    0    0 -0.83774651889E+01  0.10582116616E+02  0.18085231940E+02  0.22566565831E+02  0.10566000000E+00 0. -1.
         22    1    1    0    0    0  0.36158768126E+02 -0.29030795657E+02 -0.41059715852E+02  0.61936611747E+02  0.00000000000E+00 0.  1.
</event>
<event>
 4    1  0.9925048E-003  0.9118800E+02  0.7818608E-02  0.1130116E+00
         25   -1    0    0    0    0  0.00000000000E+00  0.00000000000E+00  0.99999998245E-14  0.12500000000E+03  0.12500000000E+03 0.  0.
        -13    1    1    0    0    0  0.63074172858E+00  0.30154463898E+00 -0.13216441706E+01  0.14988901383E+01  0.10566000000E+00 0. -1.
         13    1    1    0    0    0  0.55406020365E+02  0.59324990437E+01 -0.25243220261E+02  0.61173956639E+02  0.10566000000E+00 0.  1.
         22    1    1    0    0    0 -0.56036762094E+02 -0.62340436826E+01  0.26564864432E+02  0.62327153223E+02  0.00000000000E+00 0.  1.
</event>
<event>
 4    1  0.9925048E-003  0.9118800E+02  0.7818608E-02  0.1130116E+00
         25   -1    0    0    0    0  0.00000000000E+00  0.00000000000E+00  0.99999998245E-14  0.12500000000E+03  0.12500000000E+03 0.  0.
        -13    1    1    0    0    0 -0.15290826501E+01 -0.22674005359E+01 -0.49909057396E+01  0.56920561380E+01  0.10566000000E+00 0.  1.
         13    1    1    0    0    0 -0.17901895460E+02 -0.30881460552E+02 -0.44247932924E+02  0.56850973597E+02  0.10566000000E+00 0. -1.
         22    1    1    0    0    0  0.19430978110E+02  0.33148861087E+02  0.49238838664E+02  0.62456970265E+02  0.00000000000E+00 0. -1.
</event>
<event>
 4    1  0.9925048E-003  0.9118800E+02  0.7818608E-02  0.1130116E+00
         25   -1    0    0    0    0  0.00000000000E+00  0.00000000000E+00  0.99999998245E-14  0.12500000000E+03  0.12500000000E+03 0.  0.
        -13    1    1    0    0    0  0.36057880738E+02 -0.24876523997E+02  0.84496418019E+01  0.44614121309E+02  0.10566000000E+00 0.  1.
         13    1    1    0    0    0  0.15143198935E+02 -0.89658689483E+01  0.32761815675E+01  0.17901056105E+02  0.10566000000E+00 0. -1.
         22    1    1    0    0    0 -0.51201079673E+02  0.33842392946E+02 -0.11725823369E+02  0.62484822586E+02  0.00000000000E+00 0.  1.
</event>
<event>
 4    1  0.9925048E-003  0.9118800E+02  0.7818608E-02  0.1130116E+00
         25   -1    0    0    0    0  0.00000000000E+00  0.00000000000E+00  0.99999998245E-14  0.12500000000E+03  0.12500000000E+03 0.  0.
        -13    1    1    0    0    0 -0.26150796989E+02 -0.18824091600E+02  0.10025781588E+02  0.33745193261E+02  0.10566000000E+00 0.  1.
         13    1    1    0    0    0 -0.26950688187E+02 -0.84037565404E+01  0.72167568323E+01  0.29138556261E+02  0.10566000000E+00 0. -1.
         22    1    1    0    0    0  0.53101485176E+02  0.27227848141E+02 -0.17242538420E+02  0.62116250478E+02  0.00000000000E+00 0.  1.
</event>
<event>
 4    1  0.9925048E-003  0.9118800E+02  0.7818608E-02  0.1130116E+00
         25   -1    0    0    0    0  0.00000000000E+00  0.00000000000E+00  0.99999998245E-14  0.12500000000E+03  0.12500000000E+03 0.  0.
        -13    1    1    0    0    0 -0.26440001133E+02 -0.12405663242E+02 -0.34993739602E+02  0.45580117549E+02  0.10566000000E+00 0. -1.
         13    1    1    0    0    0 -0.11559251027E+02 -0.45295781409E+01 -0.11575358834E+02  0.16974494355E+02  0.10566000000E+00 0.  1.
         22    1    1    0    0    0  0.37999252160E+02  0.16935241383E+02  0.46569098436E+02  0.62445388096E+02  0.00000000000E+00 0. -1.
</event>
<event>
 4    1  0.9925048E-003  0.9118800E+02  0.7818608E-02  0.1130116E+00
         25   -1    0    0    0    0  0.00000000000E+00  0.00000000000E+00  0.99999998245E-14  0.12500000000E+03  0.12500000000E+03 0.  0.
        -13    1    1    0    0    0  0.39278836655E+02 -0.47427086756E+01  0.15036828310E+02  0.42325378488E+02  0.10566000000E+00 0. -1.
         13    1    1    0    0    0  0.18761392128E+02 -0.17493842944E+01  0.72147093562E+01  0.20177050704E+02  0.10566000000E+00 0.  1.
         22    1    1    0    0    0 -0.58040228783E+02  0.64920929700E+01 -0.22251537666E+02  0.62497570807E+02  0.00000000000E+00 0. -1.
</event>
<event>
 4    1  0.9925048E-003  0.9118800E+02  0.7818608E-02  0.1130116E+00
         25   -1    0    0    0    0  0.00000000000E+00  0.00000000000E+00  0.99999998245E-14  0.12500000000E+03  0.12500000000E+03 0.  0.
        -13    1    1    0    0    0 -0.20833590965E+01  0.30499041831E+01  0.45902196536E+02  0.46050679816E+02  0.10566000000E+00 0.  1.
         13    1    1    0    0    0 -0.24816376349E+01 -0.60356186163E+00  0.16316461157E+02  0.16515473986E+02  0.10566000000E+00 0. -1.
         22    1    1    0    0    0  0.45649967314E+01 -0.24463423215E+01 -0.62218657693E+02  0.62433846198E+02  0.00000000000E+00 0.  1.
</event>
<event>
 4    1  0.9925048E-003  0.9118800E+02  0.7818608E-02  0.1130116E+00
         25   -1    0    0    0    0  0.00000000000E+00  0.00000000000E+00  0.99999998245E-14  0.12500000000E+03  0.12500000000E+03 0.  0.
        -13    1    1    0    0    0  0.80072736576E+01  0.13164934359E+02  0.14712038667E+01  0.15479261383E+02  0.10566000000E+00 0.  1.
         13    1    1    0    0    0  0.23217095092E+02  0.40926823782E+02 -0.72106061600E+00  0.47059212720E+02  0.10566000000E+00 0. -1.
         22    1    1    0    0    0 -0.31224368749E+02 -0.54091758141E+02 -0.75014325066E+00  0.62461525897E+02  0.00000000000E+00 0. -1.
</event>
<event>
 4    1  0.9925048E-003  0.9118800E+02  0.7818608E-02  0.1130116E+00
         25   -1    0    0    0    0  0.00000000000E+00  0.00000000000E+00  0.99999998245E-14  0.12500000000E+03  0.12500000000E+03 0.  0.
        -13    1    1    0    0    0 -0.37959881100E+02 -0.30939339341E+02  0.10476893998E+02  0.50079654190E+02  0.10566000000E+00 0.  1.
         13    1    1    0    0    0 -0.11734582358E+02 -0.45521368705E+01  0.15440516561E+01  0.12681389228E+02  0.10566000000E+00 0. -1.
         22    1    1    0    0    0  0.49694463458E+02  0.35491476211E+02 -0.12020945654E+02  0.62238956582E+02  0.00000000000E+00 0.  1.
</event>
<event>
 4    1  0.9925048E-003  0.9118800E+02  0.7818608E-02  0.1130116E+00
         25   -1    0    0    0    0  0.00000000000E+00  0.00000000000E+00  0.99999998245E-14  0.12500000000E+03  0.12500000000E+03 0.  0.
        -13    1    1    0    0    0 -0.11257347190E+00 -0.23476575871E+02  0.46698297228E+01  0.23937016546E+02  0.10566000000E+00 0.  1.
         13    1    1    0    0    0  0.47762277810E+01 -0.35540769708E+02  0.14724648308E+02  0.38765772210E+02  0.10566000000E+00 0. -1.
         22    1    1    0    0    0 -0.46636543091E+01  0.59017345579E+02 -0.19394478031E+02  0.62297211244E+02  0.00000000000E+00 0. -1.
</event>
<event>
 4    1  0.9925048E-003  0.9118800E+02  0.7818608E-02  0.1130116E+00
         25   -1    0    0    0    0  0.00000000000E+00  0.00000000000E+00  0.99999998245E-14  0.12500000000E+03  0.12500000000E+03 0.  0.
        -13    1    1    0    0    0  0.31745217173E+02 -0.41027886537E+02  0.26904022452E+02  0.58437007754E+02  0.10566000000E+00 0. -1.
         13    1    1    0    0    0  0.17994121636E+01 -0.28670520192E+01  0.22806813779E+01  0.40829576288E+01  0.10566000000E+00 0.  1.
         22    1    1    0    0    0 -0.33544629336E+02  0.43894938556E+02 -0.29184703830E+02  0.62480034618E+02  0.00000000000E+00 0. -1.
</event>
<event>
 4    1  0.9925048E-003  0.9118800E+02  0.7818608E-02  0.1130116E+00
         25   -1    0    0    0    0  0.00000000000E+00  0.00000000000E+00  0.99999998245E-14  0.12500000000E+03  0.12500000000E+03 0.  0.
        -13    1    1    0    0    0  0.22224668037E+02 -0.37836082786E+02  0.73024888901E+01  0.44484183008E+02  0.10566000000E+00 0.  1.
         13    1    1    0    0    0  0.75540664828E+01 -0.16430422412E+02 -0.40394751325E+01  0.18529738920E+02  0.10566000000E+00 0. -1.
         22    1    1    0    0    0 -0.29778734519E+02  0.54266505198E+02 -0.32630137576E+01  0.61986078072E+02  0.00000000000E+00 0. -1.
</event>
<event>
 4    1  0.9925048E-003  0.9118800E+02  0.7818608E-02  0.1130116E+00
         25   -1    0    0    0    0  0.00000000000E+00  0.00000000000E+00  0.99999998245E-14  0.12500000000E+03  0.12500000000E+03 0.  0.
        -13    1    1    0    0    0 -0.31859230751E+00  0.27183451165E+01 -0.37208418331E+01  0.46202520725E+01  0.10566000000E+00 0.  1.
         13    1    1    0    0    0 -0.47053064610E+01  0.20028688903E+02 -0.54187248850E+02  0.57961688985E+02  0.10566000000E+00 0. -1.
         22    1    1    0    0    0  0.50238987685E+01 -0.22747034019E+02  0.57908090683E+02  0.62418058942E+02  0.00000000000E+00 0. -1.
</event>
<event>
 4    1  0.9925048E-003  0.9118800E+02  0.7818608E-02  0.1130116E+00
         25   -1    0    0    0    0  0.00000000000E+00  0.00000000000E+00  0.99999998245E-14  0.12500000000E+03  0.12500000000E+03 0.  0.
        -13    1    1    0    0    0 -0.91832904383E+00 -0.20504522493E+00  0.59046457428E+00  0.11158782309E+01  0.10566000000E+00 0.  1.
         13    1    1    0    0    0 -0.28834761555E+02 -0.41195079546E+02 -0.35972845574E+02  0.61826651498E+02  0.10566000000E+00 0. -1.
         22    1    1    0    0    0  0.29753090599E+02  0.41400124771E+02  0.35382380999E+02  0.62057470271E+02  0.00000000000E+00 0. -1.
</event>
<event>
 4    1  0.9925048E-003  0.9118800E+02  0.7818608E-02  0.1130116E+00
         25   -1    0    0    0    0  0.00000000000E+00  0.00000000000E+00  0.99999998245E-14  0.12500000000E+03  0.12500000000E+03 0.  0.
        -13    1    1    0    0    0  0.16122659322E+02  0.13350545008E+02 -0.22169119214E+00  0.20934123021E+02  0.10566000000E+00 0.  1.
         13    1    1    0    0    0  0.32731149048E+02  0.25621961390E+02  0.54263316592E+00  0.41570646354E+02  0.10566000000E+00 0. -1.
         22    1    1    0    0    0 -0.48853808370E+02 -0.38972506398E+02 -0.32094197378E+00  0.62495230626E+02  0.00000000000E+00 0. -1.
</event>
<event>
 4    1  0.9925048E-003  0.9118800E+02  0.7818608E-02  0.1130116E+00
         25   -1    0    0    0    0  0.00000000000E+00  0.00000000000E+00  0.99999998245E-14  0.12500000000E+03  0.12500000000E+03 0.  0.
        -13    1    1    0    0    0 -0.21162440840E+02  0.14708236640E+02 -0.42364696723E+00  0.25775410145E+02  0.10566000000E+00 0.  1.
         13    1    1    0    0    0 -0.28769905325E+02  0.22851634330E+02 -0.12898673347E-01  0.36741202680E+02  0.10566000000E+00 0. -1.
         22    1    1    0    0    0  0.49932346165E+02 -0.37559870970E+02  0.43654564057E+00  0.62483387175E+02  0.00000000000E+00 0. -1.
</event>
<event>
 4    1  0.9925048E-003  0.9118800E+02  0.7818608E-02  0.1130116E+00
         25   -1    0    0    0    0  0.00000000000E+00  0.00000000000E+00  0.99999998245E-14  0.12500000000E+03  0.12500000000E+03 0.  0.
        -13    1    1    0    0    0  0.41496433894E+01 -0.23981243183E+02  0.13098528595E+02  0.27638780368E+02  0.10566000000E+00 0.  1.
         13    1    1    0    0    0  0.52209148839E+01 -0.30092164382E+02  0.16808731150E+02  0.34861740007E+02  0.10566000000E+00 0.  1.
         22    1    1    0    0    0 -0.93705582733E+01  0.54073407564E+02 -0.29907259745E+02  0.62499479625E+02  0.00000000000E+00 0.  1.
</event>
<event>
 4    1  0.9925048E-003  0.9118800E+02  0.7818608E-02  0.1130116E+00
         25   -1    0    0    0    0  0.00000000000E+00  0.00000000000E+00  0.99999998245E-14  0.12500000000E+03  0.12500000000E+03 0.  0.
        -13    1    1    0    0    0  0.57384545346E+01  0.10766153292E+02 -0.14632577756E+02  0.19051598699E+02  0.10566000000E+00 0.  1.
         13    1    1    0    0    0  0.13959363760E+02  0.26072558655E+02 -0.31842620008E+02  0.43458092047E+02  0.10566000000E+00 0. -1.
         22    1    1    0    0    0 -0.19697818294E+02 -0.36838711947E+02  0.46475197764E+02  0.62490309254E+02  0.00000000000E+00 0. -1.
</event>
<event>
 4    1  0.9925048E-003  0.9118800E+02  0.7818608E-02  0.1130116E+00
         25   -1    0    0    0    0  0.00000000000E+00  0.00000000000E+00  0.99999998245E-14  0.12500000000E+03  0.12500000000E+03 0.  0.
        -13    1    1    0    0    0 -0.70880080657E+00 -0.21488283696E+01  0.70083080719E+01  0.73652839736E+01  0.10566000000E+00 0.  1.
         13    1    1    0    0    0 -0.15095466301E+02 -0.76138210458E+01  0.52572938274E+02  0.55224708026E+02  0.10566000000E+00 0. -1.
         22    1    1    0    0    0  0.15804267108E+02  0.97626494154E+01 -0.59581246346E+02  0.62410008000E+02  0.00000000000E+00 0. -1.
</event>
<event>
 4    1  0.9925048E-003  0.9118800E+02  0.7818608E-02  0.1130116E+00
         25   -1    0    0    0    0  0.00000000000E+00  0.00000000000E+00  0.99999998245E-14  0.12500000000E+03  0.12500000000E+03 0.  0.
        -13    1    1    0    0    0  0.72752805343E+01  0.40995892163E+02 -0.30087089762E+02  0.51369611790E+02  0.10566000000E+00 0. -1.
         13    1    1    0    0    0  0.16877872835E+01  0.89288064618E+01 -0.64279349292E+01  0.11131115049E+02  0.10566000000E+00 0.  1.
         22    1    1    0    0    0 -0.89630678178E+01 -0.49924698624E+02  0.36515024691E+02  0.62499273161E+02  0.00000000000E+00 0. -1.
</event>
<event>
 4    1  0.9925048E-003  0.9118800E+02  0.7818608E-02  0.1130116E+00
         25   -1    0    0    0    0  0.00000000000E+00  0.00000000000E+00  0.99999998245E-14  0.12500000000E+03  0.12500000000E+03 0.  0.
        -13    1    1    0    0    0 -0.28415818117E+02 -0.24451349260E+02 -0.24892135399E+02  0.44999519649E+02  0.10566000000E+00 0.  1.
         13    1    1    0    0    0 -0.17658878748E+02 -0.30780917185E+01 -0.49409690970E+01  0.18593950278E+02  0.10566000000E+00 0. -1.
         22    1    1    0    0    0  0.46074696865E+02  0.27529440979E+02  0.29833104496E+02  0.61406530073E+02  0.00000000000E+00 0.  1.
</event>
<event>
 4    1  0.9925048E-003  0.9118800E+02  0.7818608E-02  0.1130116E+00
         25   -1    0    0    0    0  0.00000000000E+00  0.00000000000E+00  0.99999998245E-14  0.12500000000E+03  0.12500000000E+03 0.  0.
        -13    1    1    0    0    0  0.96443936097E+01 -0.23386560291E+02 -0.41617405342E+02  0.48702824577E+02  0.10566000000E+00 0.  1.
         13    1    1    0    0    0  0.27167986665E+01 -0.62830658790E+01 -0.11981660065E+02  0.13799610639E+02  0.10566000000E+00 0. -1.
         22    1    1    0    0    0 -0.12361192276E+02  0.29669626170E+02  0.53599065406E+02  0.62497564785E+02  0.00000000000E+00 0.  1.
</event>
<event>
 4    1  0.9925048E-003  0.9118800E+02  0.7818608E-02  0.1130116E+00
         25   -1    0    0    0    0  0.00000000000E+00  0.00000000000E+00  0.99999998245E-14  0.12500000000E+03  0.12500000000E+03 0.  0.
        -13    1    1    0    0    0 -0.25326757126E+01 -0.56146759511E+02  0.48392628235E+01  0.56411901922E+02  0.10566000000E+00 0. -1.
         13    1    1    0    0    0 -0.30301365861E+01 -0.49424219547E+01  0.33586084214E+01  0.67007967491E+01  0.10566000000E+00 0.  1.
         22    1    1    0    0    0  0.55628122988E+01  0.61089181465E+02 -0.81978712449E+01  0.61887301328E+02  0.00000000000E+00 0. -1.
</event>
<event>
 4    1  0.9925048E-003  0.9118800E+02  0.7818608E-02  0.1130116E+00
         25   -1    0    0    0    0  0.00000000000E+00  0.00000000000E+00  0.99999998245E-14  0.12500000000E+03  0.12500000000E+03 0.  0.
        -13    1    1    0    0    0  0.16632397501E+02 -0.15543660095E+02  0.57029456106E+01  0.23468633715E+02  0.10566000000E+00 0.  1.
         13    1    1    0    0    0  0.26565248131E+02  0.14955278384E+02 -0.37178663102E+02  0.48079485375E+02  0.10566000000E+00 0. -1.
         22    1    1    0    0    0 -0.43197645632E+02  0.58838171127E+00  0.31475717491E+02  0.53451880910E+02  0.00000000000E+00 0. -1.
</event>
<event>
 4    1  0.9925048E-003  0.9118800E+02  0.7818608E-02  0.1130116E+00
         25   -1    0    0    0    0  0.00000000000E+00  0.00000000000E+00  0.99999998245E-14  0.12500000000E+03  0.12500000000E+03 0.  0.
        -13    1    1    0    0    0  0.41591837729E+00 -0.40919485026E+01  0.78740018092E+01  0.88841487590E+01  0.10566000000E+00 0. -1.
         13    1    1    0    0    0  0.28136198158E+01 -0.24468057942E+02  0.47624534466E+02  0.53616319932E+02  0.10566000000E+00 0. -1.
         22    1    1    0    0    0 -0.32295381930E+01  0.28560006445E+02 -0.55498536275E+02  0.62499531309E+02  0.00000000000E+00 0. -1.
</event>
<event>
 4    1  0.9925048E-003  0.9118800E+02  0.7818608E-02  0.1130116E+00
         25   -1    0    0    0    0  0.00000000000E+00  0.00000000000E+00  0.99999998245E-14  0.12500000000E+03  0.12500000000E+03 0.  0.
        -13    1    1    0    0    0 -0.61151600076E+01 -0.16908071394E+02  0.27467194036E+02  0.32828889297E+02  0.10566000000E+00 0. -1.
         13    1    1    0    0    0 -0.61915392160E+01 -0.83160617722E+01  0.28081620612E+02  0.29934605751E+02  0.10566000000E+00 0.  1.
         22    1    1    0    0    0  0.12306699224E+02  0.25224133166E+02 -0.55548814648E+02  0.62236504952E+02  0.00000000000E+00 0.  1.
</event>
<event>
 4    1  0.9925048E-003  0.9118800E+02  0.7818608E-02  0.1130116E+00
         25   -1    0    0    0    0  0.00000000000E+00  0.00000000000E+00  0.99999998245E-14  0.12500000000E+03  0.12500000000E+03 0.  0.
        -13    1    1    0    0    0  0.20757366779E+02 -0.11368142964E+01  0.15898270372E+02  0.26171105961E+02  0.10566000000E+00 0. -1.
         13    1    1    0    0    0 -0.53665770696E+02 -0.10790085004E+02  0.95316202577E+01  0.55563511656E+02  0.10566000000E+00 0.  1.
         22    1    1    0    0    0  0.32908403917E+02  0.11926899301E+02 -0.25429890630E+02  0.43265382383E+02  0.00000000000E+00 0.  1.
</event>
<event>
 4    1  0.9925048E-003  0.9118800E+02  0.7818608E-02  0.1130116E+00
         25   -1    0    0    0    0  0.00000000000E+00  0.00000000000E+00  0.99999998245E-14  0.12500000000E+03  0.12500000000E+03 0.  0.
        -13    1    1    0    0    0 -0.40616413606E+02 -0.84951717197E+01 -0.60650758888E+01  0.41936348271E+02  0.10566000000E+00 0. -1.
         13    1    1    0    0    0 -0.18458078670E+02 -0.84080137857E+01 -0.43437226474E+01  0.20743057983E+02  0.10566000000E+00 0.  1.
         22    1    1    0    0    0  0.59074492276E+02  0.16903185505E+02  0.10408798536E+02  0.62320593746E+02  0.00000000000E+00 0. -1.
</event>
<event>
 4    1  0.9925048E-003  0.9118800E+02  0.7818608E-02  0.1130116E+00
         25   -1    0    0    0    0  0.00000000000E+00  0.00000000000E+00  0.99999998245E-14  0.12500000000E+03  0.12500000000E+03 0.  0.
        -13    1    1    0    0    0 -0.93131006958E+00 -0.36612308859E+01 -0.87313061767E+00  0.38788492052E+01  0.10566000000E+00 0. -1.
         13    1    1    0    0    0 -0.23311277536E+02 -0.53784542768E+02 -0.25610911469E+01  0.58675063298E+02  0.10566000000E+00 0.  1.
         22    1    1    0    0    0  0.24242587606E+02  0.57445773654E+02  0.34342217646E+01  0.62446087497E+02  0.00000000000E+00 0.  1.
</event>
<event>
 4    1  0.9925048E-003  0.9118800E+02  0.7818608E-02  0.1130116E+00
         25   -1    0    0    0    0  0.00000000000E+00  0.00000000000E+00  0.99999998245E-14  0.12500000000E+03  0.12500000000E+03 0.  0.
        -13    1    1    0    0    0 -0.19304552850E+01  0.12493035172E+02  0.48605094035E+01  0.13543939645E+02  0.10566000000E+00 0.  1.
         13    1    1    0    0    0 -0.71496828039E+01  0.45330350872E+02  0.17052480612E+02  0.48956684257E+02  0.10566000000E+00 0.  1.
         22    1    1    0    0    0  0.90801380889E+01 -0.57823386044E+02 -0.21912990015E+02  0.62499376098E+02  0.00000000000E+00 0.  1.
</event>
<event>
 4    1  0.9925048E-003  0.9118800E+02  0.7818608E-02  0.1130116E+00
         25   -1    0    0    0    0  0.00000000000E+00  0.00000000000E+00  0.99999998245E-14  0.12500000000E+03  0.12500000000E+03 0.  0.
        -13    1    1    0    0    0  0.37765562440E+02 -0.20701083635E+02 -0.26012129012E+02  0.50313165174E+02  0.10566000000E+00 0.  1.
         13    1    1    0    0    0  0.88806363674E+01 -0.63363510781E+01 -0.55206694216E+01  0.12227182921E+02  0.10566000000E+00 0. -1.
         22    1    1    0    0    0 -0.46646198807E+02  0.27037434713E+02  0.31532798434E+02  0.62459651905E+02  0.00000000000E+00 0.  1.
</event>
<event>
 4    1  0.9925048E-003  0.9118800E+02  0.7818608E-02  0.1130116E+00
         25   -1    0    0    0    0  0.00000000000E+00  0.00000000000E+00  0.99999998245E-14  0.12500000000E+03  0.12500000000E+03 0.  0.
        -13    1    1    0    0    0  0.24481467837E+02 -0.18358034531E+02 -0.49009117305E+02  0.57777715793E+02  0.10566000000E+00 0.  1.
         13    1    1    0    0    0  0.13118540809E+01 -0.21268046637E+01 -0.40563016867E+01  0.47653967952E+01  0.10566000000E+00 0. -1.
         22    1    1    0    0    0 -0.25793321917E+02  0.20484839194E+02  0.53065418992E+02  0.62456887411E+02  0.00000000000E+00 0.  1.
</event>
<event>
 4    1  0.9925048E-003  0.9118800E+02  0.7818608E-02  0.1130116E+00
         25   -1    0    0    0    0  0.00000000000E+00  0.00000000000E+00  0.99999998245E-14  0.12500000000E+03  0.12500000000E+03 0.  0.
        -13    1    1    0    0    0 -0.11662554941E+02 -0.25521380394E+02 -0.13132738853E+02  0.30981220744E+02  0.10566000000E+00 0.  1.
         13    1    1    0    0    0 -0.27933684613E+02  0.15597622246E+02 -0.23080625991E+02  0.39450006539E+02  0.10566000000E+00 0. -1.
         22    1    1    0    0    0  0.39596239553E+02  0.99237581485E+01  0.36213364844E+02  0.54568772717E+02  0.00000000000E+00 0. -1.
</event>
<event>
 4    1  0.9925048E-003  0.9118800E+02  0.7818608E-02  0.1130116E+00
         25   -1    0    0    0    0  0.00000000000E+00  0.00000000000E+00  0.99999998245E-14  0.12500000000E+03  0.12500000000E+03 0.  0.
        -13    1    1    0    0    0 -0.50863598924E+01  0.74484443066E+01 -0.11633421259E+02  0.14720666893E+02  0.10566000000E+00 0.  1.
         13    1    1    0    0    0 -0.17393337881E+02  0.26552626245E+02 -0.35728840454E+02  0.47792586950E+02  0.10566000000E+00 0. -1.
         22    1    1    0    0    0  0.22479697774E+02 -0.34001070552E+02  0.47362261713E+02  0.62486746157E+02  0.00000000000E+00 0. -1.
</event>
<event>
 4    1  0.9925048E-003  0.9118800E+02  0.7818608E-02  0.1130116E+00
         25   -1    0    0    0    0  0.00000000000E+00  0.00000000000E+00  0.99999998245E-14  0.12500000000E+03  0.12500000000E+03 0.  0.
        -13    1    1    0    0    0 -0.20670619670E+02  0.35873674636E+00 -0.25019811715E+02  0.32456206677E+02  0.10566000000E+00 0. -1.
         13    1    1    0    0    0 -0.16378411337E+02 -0.16355200196E+00 -0.25249175704E+02  0.30096696579E+02  0.10566000000E+00 0.  1.
         22    1    1    0    0    0  0.37049031006E+02 -0.19518474440E+00  0.50268987419E+02  0.62447096744E+02  0.00000000000E+00 0. -1.
</event>
<event>
 4    1  0.9925048E-003  0.9118800E+02  0.7818608E-02  0.1130116E+00
         25   -1    0    0    0    0  0.00000000000E+00  0.00000000000E+00  0.99999998245E-14  0.12500000000E+03  0.12500000000E+03 0.  0.
        -13    1    1    0    0    0  0.38928584551E+02 -0.53573291560E+01 -0.31431165923E+02  0.50319628637E+02  0.10566000000E+00 0.  1.
         13    1    1    0    0    0  0.95249649087E+01 -0.16843039200E+01 -0.74078459280E+01  0.12183972322E+02  0.10566000000E+00 0. -1.
         22    1    1    0    0    0 -0.48453549460E+02  0.70416330759E+01  0.38839011851E+02  0.62496399042E+02  0.00000000000E+00 0.  1.
</event>
<event>
 4    1  0.9925048E-003  0.9118800E+02  0.7818608E-02  0.1130116E+00
         25   -1    0    0    0    0  0.00000000000E+00  0.00000000000E+00  0.99999998245E-14  0.12500000000E+03  0.12500000000E+03 0.  0.
        -13    1    1    0    0    0  0.34657146475E+01 -0.22183206984E+01  0.56814753500E+00  0.41552473326E+01  0.10566000000E+00 0.  1.
         13    1    1    0    0    0  0.49053876302E+02 -0.31608610058E+02  0.74100981732E+00  0.58360494083E+02  0.10566000000E+00 0. -1.
         22    1    1    0    0    0 -0.52519590949E+02  0.33826930756E+02 -0.13091573523E+01  0.62484258584E+02  0.00000000000E+00 0. -1.
</event>
<event>
 4    1  0.9925048E-003  0.9118800E+02  0.7818608E-02  0.1130116E+00
         25   -1    0    0    0    0  0.00000000000E+00  0.00000000000E+00  0.99999998245E-14  0.12500000000E+03  0.12500000000E+03 0.  0.
        -13    1    1    0    0    0  0.15438747222E+02  0.53761394169E+01 -0.83608088064E+01  0.18362246016E+02  0.10566000000E+00 0. -1.
         13    1    1    0    0    0  0.36958448549E+02  0.13142545208E+02 -0.20236330925E+02  0.44138120339E+02  0.10566000000E+00 0.  1.
         22    1    1    0    0    0 -0.52397195772E+02 -0.18518684625E+02  0.28597139731E+02  0.62499633645E+02  0.00000000000E+00 0. -1.
</event>
<event>
 4    1  0.9925048E-003  0.9118800E+02  0.7818608E-02  0.1130116E+00
         25   -1    0    0    0    0  0.00000000000E+00  0.00000000000E+00  0.99999998245E-14  0.12500000000E+03  0.12500000000E+03 0.  0.
        -13    1    1    0    0    0  0.36392136370E+01 -0.98096695233E+01 -0.27594123761E+02  0.29511359207E+02  0.10566000000E+00 0.  1.
         13    1    1    0    0    0 -0.60475085483E+00 -0.40283644720E+02  0.19112248461E+02  0.44591781314E+02  0.10566000000E+00 0. -1.
         22    1    1    0    0    0 -0.30344627821E+01  0.50093314243E+02  0.84818752998E+01  0.50896859479E+02  0.00000000000E+00 0. -1.
</event>
<event>
 4    1  0.9925048E-003  0.9118800E+02  0.7818608E-02  0.1130116E+00
         25   -1    0    0    0    0  0.00000000000E+00  0.00000000000E+00  0.99999998245E-14  0.12500000000E+03  0.12500000000E+03 0.  0.
        -13    1    1    0    0    0 -0.70419845870E+01  0.56607018686E+02  0.13511907228E+02  0.58621897892E+02  0.10566000000E+00 0.  1.
         13    1    1    0    0    0  0.14291909129E+01  0.39109835373E+01 -0.26634058706E+00  0.41737848817E+01  0.10566000000E+00 0. -1.
         22    1    1    0    0    0  0.56127936741E+01 -0.60518002224E+02 -0.13245566640E+02  0.62204317226E+02  0.00000000000E+00 0.  1.
</event>
<event>
 4    1  0.9925048E-003  0.9118800E+02  0.7818608E-02  0.1130116E+00
         25   -1    0    0    0    0  0.00000000000E+00  0.00000000000E+00  0.99999998245E-14  0.12500000000E+03  0.12500000000E+03 0.  0.
        -13    1    1    0    0    0  0.12956015063E+02 -0.26152077787E+02  0.23241088902E+02  0.37308831076E+02  0.10566000000E+00 0.  1.
         13    1    1    0    0    0  0.98968149958E+01 -0.20060044330E+02  0.11863572368E+02  0.25320107404E+02  0.10566000000E+00 0. -1.
         22    1    1    0    0    0 -0.22852830058E+02  0.46212122117E+02 -0.35104661270E+02  0.62371061520E+02  0.00000000000E+00 0. -1.
</event>
<event>
 4    1  0.9925048E-003  0.9118800E+02  0.7818608E-02  0.1130116E+00
         25   -1    0    0    0    0  0.00000000000E+00  0.00000000000E+00  0.99999998245E-14  0.12500000000E+03  0.12500000000E+03 0.  0.
        -13    1    1    0    0    0 -0.50963629547E+02  0.68637678651E+01 -0.23960236010E+02  0.56731886269E+02  0.10566000000E+00 0.  1.
         13    1    1    0    0    0 -0.57654404505E+01 -0.38461845879E+01  0.42809111147E+01  0.81468278170E+01  0.10566000000E+00 0. -1.
         22    1    1    0    0    0  0.56729069997E+02 -0.30175832773E+01  0.19679324896E+02  0.60121285914E+02  0.00000000000E+00 0.  1.
</event>
<event>
 4    1  0.9925048E-003  0.9118800E+02  0.7818608E-02  0.1130116E+00
         25   -1    0    0    0    0  0.00000000000E+00  0.00000000000E+00  0.99999998245E-14  0.12500000000E+03  0.12500000000E+03 0.  0.
        -13    1    1    0    0    0 -0.21874867239E+02  0.39257390631E+02  0.50811082083E+01  0.45226998137E+02  0.10566000000E+00 0.  1.
         13    1    1    0    0    0 -0.72659987961E+01  0.15441898746E+02  0.28070713628E+01  0.17295600280E+02  0.10566000000E+00 0. -1.
         22    1    1    0    0    0  0.29140866035E+02 -0.54699289376E+02 -0.78881795711E+01  0.62477401583E+02  0.00000000000E+00 0.  1.
</event>
<event>
 4    1  0.9925048E-003  0.9118800E+02  0.7818608E-02  0.1130116E+00
         25   -1    0    0    0    0  0.00000000000E+00  0.00000000000E+00  0.99999998245E-14  0.12500000000E+03  0.12500000000E+03 0.  0.
        -13    1    1    0    0    0 -0.18769561969E+01 -0.48583051013E+01 -0.33878071756E+02  0.34276245462E+02  0.10566000000E+00 0.  1.
         13    1    1    0    0    0 -0.15737328859E+01 -0.44310328838E+01 -0.27830215472E+02  0.28224860404E+02  0.10566000000E+00 0.  1.
         22    1    1    0    0    0  0.34506890827E+01  0.92893379851E+01  0.61708287228E+02  0.62498894134E+02  0.00000000000E+00 0.  1.
</event>
<event>
 4    1  0.9925048E-003  0.9118800E+02  0.7818608E-02  0.1130116E+00
         25   -1    0    0    0    0  0.00000000000E+00  0.00000000000E+00  0.99999998245E-14  0.12500000000E+03  0.12500000000E+03 0.  0.
        -13    1    1    0    0    0 -0.37430260468E+01 -0.26247565153E+01  0.87453008505E-01  0.45736640471E+01  0.10566000000E+00 0. -1.
         13    1    1    0    0    0 -0.50994607917E+02 -0.27394032201E+02  0.25378118256E+01  0.57942511939E+02  0.10566000000E+00 0.  1.
         22    1    1    0    0    0  0.54737633964E+02  0.30018788716E+02 -0.26252648341E+01  0.62483824014E+02  0.00000000000E+00 0.  1.
</event>
<event>
 4    1  0.9925048E-003  0.9118800E+02  0.7818608E-02  0.1130116E+00
         25   -1    0    0    0    0  0.00000000000E+00  0.00000000000E+00  0.99999998245E-14  0.12500000000E+03  0.12500000000E+03 0.  0.
        -13    1    1    0    0    0 -0.15245130332E+01 -0.16612045536E+02 -0.37788538944E+02  0.41307009531E+02  0.10566000000E+00 0.  1.
         13    1    1    0    0    0  0.49336273623E+00 -0.99943271780E+01 -0.18719284287E+02  0.21226227898E+02  0.10566000000E+00 0. -1.
         22    1    1    0    0    0  0.10311502970E+01  0.26606372714E+02  0.56507823230E+02  0.62466762571E+02  0.00000000000E+00 0.  1.
</event>
<event>
 4    1  0.9925048E-003  0.9118800E+02  0.7818608E-02  0.1130116E+00
         25   -1    0    0    0    0  0.00000000000E+00  0.00000000000E+00  0.99999998245E-14  0.12500000000E+03  0.12500000000E+03 0.  0.
        -13    1    1    0    0    0  0.39876231981E+01  0.92427493368E+00  0.64505542911E+00  0.41452000513E+01  0.10566000000E+00 0. -1.
         13    1    1    0    0    0  0.56677468730E+02  0.12438580287E+02  0.62125179559E+01  0.58358035304E+02  0.10566000000E+00 0.  1.
         22    1    1    0    0    0 -0.60665091928E+02 -0.13362855221E+02 -0.68575733850E+01  0.62496764644E+02  0.00000000000E+00 0.  1.
</event>
<event>
 4    1  0.9925048E-003  0.9118800E+02  0.7818608E-02  0.1130116E+00
         25   -1    0    0    0    0  0.00000000000E+00  0.00000000000E+00  0.99999998245E-14  0.12500000000E+03  0.12500000000E+03 0.  0.
        -13    1    1    0    0    0  0.58616522334E+00 -0.26277881487E+02 -0.42071823344E+02  0.49607661995E+02  0.10566000000E+00 0.  1.
         13    1    1    0    0    0 -0.49501241130E+00 -0.13759673561E+02 -0.40156564392E+01  0.14342604870E+02  0.10566000000E+00 0. -1.
         22    1    1    0    0    0 -0.91152812033E-01  0.40037555048E+02  0.46087479783E+02  0.61049733135E+02  0.00000000000E+00 0.  1.
</event>
<event>
 4    1  0.9925048E-003  0.9118800E+02  0.7818608E-02  0.1130116E+00
         25   -1    0    0    0    0  0.00000000000E+00  0.00000000000E+00  0.99999998245E-14  0.12500000000E+03  0.12500000000E+03 0.  0.
        -13    1    1    0    0    0  0.15738264196E+01 -0.27279087079E+00 -0.64518227684E+00  0.17259109664E+01  0.10566000000E+00 0. -1.
         13    1    1    0    0    0  0.31319302906E+02  0.19171302522E+01 -0.52259359705E+02  0.60955934607E+02  0.10566000000E+00 0.  1.
         22    1    1    0    0    0 -0.32893129326E+02 -0.16443393814E+01  0.52904541982E+02  0.62318154427E+02  0.00000000000E+00 0.  1.
</event>
<event>
 4    1  0.9925048E-003  0.9118800E+02  0.7818608E-02  0.1130116E+00
         25   -1    0    0    0    0  0.00000000000E+00  0.00000000000E+00  0.99999998245E-14  0.12500000000E+03  0.12500000000E+03 0.  0.
        -13    1    1    0    0    0 -0.41832541301E+02 -0.22501146761E+02 -0.27011791052E+02  0.54643491261E+02  0.10566000000E+00 0. -1.
         13    1    1    0    0    0 -0.35969323158E+01  0.34518122253E+01 -0.83439423422E+01  0.97203635513E+01  0.10566000000E+00 0.  1.
         22    1    1    0    0    0  0.45429473617E+02  0.19049334536E+02  0.35355733394E+02  0.60636145188E+02  0.00000000000E+00 0. -1.
</event>
<event>
 4    1  0.9925048E-003  0.9118800E+02  0.7818608E-02  0.1130116E+00
         25   -1    0    0    0    0  0.00000000000E+00  0.00000000000E+00  0.99999998245E-14  0.12500000000E+03  0.12500000000E+03 0.  0.
        -13    1    1    0    0    0 -0.30162664768E+02 -0.10621039433E+02 -0.35055783730E+02  0.47450099699E+02  0.10566000000E+00 0. -1.
         13    1    1    0    0    0 -0.73348847545E+01 -0.64603048392E+01 -0.11688618203E+02  0.15237159594E+02  0.10566000000E+00 0.  1.
         22    1    1    0    0    0  0.37497549522E+02  0.17081344272E+02  0.46744401933E+02  0.62312740706E+02  0.00000000000E+00 0.  1.
</event>
<event>
 4    1  0.9925048E-003  0.9118800E+02  0.7818608E-02  0.1130116E+00
         25   -1    0    0    0    0  0.00000000000E+00  0.00000000000E+00  0.99999998245E-14  0.12500000000E+03  0.12500000000E+03 0.  0.
        -13    1    1    0    0    0  0.28602011303E+02  0.13527183125E+01  0.19454245560E+02  0.34617679468E+02  0.10566000000E+00 0.  1.
         13    1    1    0    0    0  0.23210065371E+02  0.91206327412E+00  0.15424567858E+02  0.27883103335E+02  0.10566000000E+00 0. -1.
         22    1    1    0    0    0 -0.51812076674E+02 -0.22647815866E+01 -0.34878813418E+02  0.62499217197E+02  0.00000000000E+00 0.  1.
</event>
<event>
 4    1  0.9925048E-003  0.9118800E+02  0.7818608E-02  0.1130116E+00
         25   -1    0    0    0    0  0.00000000000E+00  0.00000000000E+00  0.99999998245E-14  0.12500000000E+03  0.12500000000E+03 0.  0.
        -13    1    1    0    0    0  0.33825300329E+01 -0.42273118667E+02  0.26725581266E+01  0.42492491127E+02  0.10566000000E+00 0.  1.
         13    1    1    0    0    0  0.16598026173E+01 -0.19896428982E+02  0.12948483342E+01  0.20007764173E+02  0.10566000000E+00 0.  1.
         22    1    1    0    0    0 -0.50423326502E+01  0.62169547649E+02 -0.39674064608E+01  0.62499744699E+02  0.00000000000E+00 0.  1.
</event>
<event>
 4    1  0.9925048E-003  0.9118800E+02  0.7818608E-02  0.1130116E+00
         25   -1    0    0    0    0  0.00000000000E+00  0.00000000000E+00  0.99999998245E-14  0.12500000000E+03  0.12500000000E+03 0.  0.
        -13    1    1    0    0    0  0.10272724974E+02 -0.13901984868E+02 -0.71887515080E+01  0.18721201189E+02  0.10566000000E+00 0.  1.
         13    1    1    0    0    0  0.22963881357E+02 -0.33534774487E+02 -0.16279964785E+02  0.43783208703E+02  0.10566000000E+00 0.  1.
         22    1    1    0    0    0 -0.33236606331E+02  0.47436759356E+02  0.23468716293E+02  0.62495590108E+02  0.00000000000E+00 0.  1.
</event>
<event>
 4    1  0.9925048E-003  0.9118800E+02  0.7818608E-02  0.1130116E+00
         25   -1    0    0    0    0  0.00000000000E+00  0.00000000000E+00  0.99999998245E-14  0.12500000000E+03  0.12500000000E+03 0.  0.
        -13    1    1    0    0    0  0.17555137699E+02  0.10354407454E+02 -0.30005986529E+02  0.36273502795E+02  0.10566000000E+00 0.  1.
         13    1    1    0    0    0  0.12620819062E+02  0.74933715618E+01 -0.21734624212E+02  0.26226718149E+02  0.10566000000E+00 0.  1.
         22    1    1    0    0    0 -0.30175956762E+02 -0.17847779016E+02  0.51740610741E+02  0.62499779057E+02  0.00000000000E+00 0.  1.
</event>
<event>
 4    1  0.9925048E-003  0.9118800E+02  0.7818608E-02  0.1130116E+00
         25   -1    0    0    0    0  0.00000000000E+00  0.00000000000E+00  0.99999998245E-14  0.12500000000E+03  0.12500000000E+03 0.  0.
        -13    1    1    0    0    0  0.48778311298E+01  0.26766291338E+01  0.12950258431E+02  0.14095316155E+02  0.10566000000E+00 0. -1.
         13    1    1    0    0    0  0.15634221818E+02  0.94474212943E+01  0.44827520068E+02  0.48406615049E+02  0.10566000000E+00 0.  1.
         22    1    1    0    0    0 -0.20512052948E+02 -0.12124050428E+02 -0.57777778499E+02  0.62498068796E+02  0.00000000000E+00 0.  1.
</event>
<event>
 4    1  0.9925048E-003  0.9118800E+02  0.7818608E-02  0.1130116E+00
         25   -1    0    0    0    0  0.00000000000E+00  0.00000000000E+00  0.99999998245E-14  0.12500000000E+03  0.12500000000E+03 0.  0.
        -13    1    1    0    0    0  0.88657425154E+01  0.58524965128E+01 -0.32061915882E+01  0.11097023669E+02  0.10566000000E+00 0.  1.
         13    1    1    0    0    0  0.41217130640E+02  0.26641847520E+02 -0.15286745310E+02  0.51403653992E+02  0.10566000000E+00 0. -1.
         22    1    1    0    0    0 -0.50082873156E+02 -0.32494344033E+02  0.18492936898E+02  0.62499322339E+02  0.00000000000E+00 0. -1.
</event>
<event>
 4    1  0.9925048E-003  0.9118800E+02  0.7818608E-02  0.1130116E+00
         25   -1    0    0    0    0  0.00000000000E+00  0.00000000000E+00  0.99999998245E-14  0.12500000000E+03  0.12500000000E+03 0.  0.
        -13    1    1    0    0    0  0.44485961611E+02 -0.31247454197E+02 -0.44046479987E+01  0.54541876226E+02  0.10566000000E+00 0.  1.
         13    1    1    0    0    0  0.53313320712E+01 -0.59840568375E+01 -0.76046505741E+00  0.80511805983E+01  0.10566000000E+00 0. -1.
         22    1    1    0    0    0 -0.49817293682E+02  0.37231511034E+02  0.51651130561E+01  0.62406943176E+02  0.00000000000E+00 0.  1.
</event>
<event>
 4    1  0.9925048E-003  0.9118800E+02  0.7818608E-02  0.1130116E+00
         25   -1    0    0    0    0  0.00000000000E+00  0.00000000000E+00  0.99999998245E-14  0.12500000000E+03  0.12500000000E+03 0.  0.
        -13    1    1    0    0    0  0.26963118965E+02  0.20144059833E+02 -0.37497497264E+02  0.50387164992E+02  0.10566000000E+00 0. -1.
         13    1    1    0    0    0  0.19089347395E+01 -0.29387812962E+01 -0.13271518982E+02  0.13726793051E+02  0.10566000000E+00 0.  1.
         22    1    1    0    0    0 -0.28872053704E+02 -0.17205278536E+02  0.50769016246E+02  0.60886041957E+02  0.00000000000E+00 0. -1.
</event>
<event>
 4    1  0.9925048E-003  0.9118800E+02  0.7818608E-02  0.1130116E+00
         25   -1    0    0    0    0  0.00000000000E+00  0.00000000000E+00  0.99999998245E-14  0.12500000000E+03  0.12500000000E+03 0.  0.
        -13    1    1    0    0    0 -0.17900343282E+02 -0.22736851593E+02 -0.20696389321E+02  0.35577217498E+02  0.10566000000E+00 0. -1.
         13    1    1    0    0    0 -0.13901203022E+02 -0.16302791845E+02 -0.16315641926E+02  0.26930202429E+02  0.10566000000E+00 0.  1.
         22    1    1    0    0    0  0.31801546304E+02  0.39039643438E+02  0.37012031247E+02  0.62492580072E+02  0.00000000000E+00 0. -1.
</event>
<event>
 4    1  0.9925048E-003  0.9118800E+02  0.7818608E-02  0.1130116E+00
         25   -1    0    0    0    0  0.00000000000E+00  0.00000000000E+00  0.99999998245E-14  0.12500000000E+03  0.12500000000E+03 0.  0.
        -13    1    1    0    0    0  0.33074696204E+02  0.87567888083E+01  0.17510017999E+02  0.38434733947E+02  0.10566000000E+00 0.  1.
         13    1    1    0    0    0  0.24409129704E+02 -0.11834289141E+02 -0.73998366490E+01  0.28118050410E+02  0.10566000000E+00 0. -1.
         22    1    1    0    0    0 -0.57483825909E+02  0.30775003332E+01 -0.10110181351E+02  0.58447215642E+02  0.00000000000E+00 0. -1.
</event>
<event>
 4    1  0.9925048E-003  0.9118800E+02  0.7818608E-02  0.1130116E+00
         25   -1    0    0    0    0  0.00000000000E+00  0.00000000000E+00  0.99999998245E-14  0.12500000000E+03  0.12500000000E+03 0.  0.
        -13    1    1    0    0    0 -0.71437302359E+01  0.53819983500E+02 -0.15830873502E+02  0.56553083254E+02  0.10566000000E+00 0. -1.
         13    1    1    0    0    0 -0.64386829008E+01  0.35658609419E+01 -0.10017926040E+00  0.73616031999E+01  0.10566000000E+00 0.  1.
         22    1    1    0    0    0  0.13582413137E+02 -0.57385844442E+02  0.15931052762E+02  0.61085313546E+02  0.00000000000E+00 0. -1.
</event>
<event>
 4    1  0.9925048E-003  0.9118800E+02  0.7818608E-02  0.1130116E+00
         25   -1    0    0    0    0  0.00000000000E+00  0.00000000000E+00  0.99999998245E-14  0.12500000000E+03  0.12500000000E+03 0.  0.
        -13    1    1    0    0    0  0.15290609416E+02  0.15504117570E+02  0.76752943477E+01  0.23088995329E+02  0.10566000000E+00 0. -1.
         13    1    1    0    0    0  0.24014097630E+02  0.26997758335E+02  0.15807762687E+02  0.39439223690E+02  0.10566000000E+00 0.  1.
         22    1    1    0    0    0 -0.39304707045E+02 -0.42501875905E+02 -0.23483057035E+02  0.62471780982E+02  0.00000000000E+00 0.  1.
</event>
<event>
 4    1  0.9925048E-003  0.9118800E+02  0.7818608E-02  0.1130116E+00
         25   -1    0    0    0    0  0.00000000000E+00  0.00000000000E+00  0.99999998245E-14  0.12500000000E+03  0.12500000000E+03 0.  0.
        -13    1    1    0    0    0  0.10810596720E+02 -0.75815966091E+01  0.86153966958E+01  0.15766604988E+02  0.10566000000E+00 0. -1.
         13    1    1    0    0    0  0.32036712461E+02 -0.22580491903E+02  0.25451797593E+02  0.46733657300E+02  0.10566000000E+00 0. -1.
         22    1    1    0    0    0 -0.42847309181E+02  0.30162088512E+02 -0.34067194288E+02  0.62499737712E+02  0.00000000000E+00 0. -1.
</event>
<event>
 4    1  0.9925048E-003  0.9118800E+02  0.7818608E-02  0.1130116E+00
         25   -1    0    0    0    0  0.00000000000E+00  0.00000000000E+00  0.99999998245E-14  0.12500000000E+03  0.12500000000E+03 0.  0.
        -13    1    1    0    0    0  0.13813897022E+02 -0.15097503777E+02  0.17390001720E+02  0.26854826290E+02  0.10566000000E+00 0.  1.
         13    1    1    0    0    0  0.18502125436E+02 -0.19905691355E+02  0.23065664918E+02  0.35645494191E+02  0.10566000000E+00 0.  1.
         22    1    1    0    0    0 -0.32316022457E+02  0.35003195132E+02 -0.40455666638E+02  0.62499679519E+02  0.00000000000E+00 0.  1.
</event>
<event>
 4    1  0.9925048E-003  0.9118800E+02  0.7818608E-02  0.1130116E+00
         25   -1    0    0    0    0  0.00000000000E+00  0.00000000000E+00  0.99999998245E-14  0.12500000000E+03  0.12500000000E+03 0.  0.
        -13    1    1    0    0    0 -0.62137505340E+01  0.24247057526E+02 -0.15289049775E+02  0.29330814878E+02  0.10566000000E+00 0. -1.
         13    1    1    0    0    0  0.11692139704E+02  0.26077488238E+02 -0.19187088883E+02  0.34422333847E+02  0.10566000000E+00 0.  1.
         22    1    1    0    0    0 -0.54783891699E+01 -0.50324545764E+02  0.34476138658E+02  0.61246851274E+02  0.00000000000E+00 0.  1.
</event>
<event>
 4    1  0.9925048E-003  0.9118800E+02  0.7818608E-02  0.1130116E+00
         25   -1    0    0    0    0  0.00000000000E+00  0.00000000000E+00  0.99999998245E-14  0.12500000000E+03  0.12500000000E+03 0.  0.
        -13    1    1    0    0    0  0.97956193846E+01 -0.19375585919E+02 -0.14726365770E+02  0.26234414452E+02  0.10566000000E+00 0. -1.
         13    1    1    0    0    0  0.13620593726E+02 -0.26731482005E+02 -0.20374103491E+02  0.36265796017E+02  0.10566000000E+00 0. -1.
         22    1    1    0    0    0 -0.23416213111E+02  0.46107067924E+02  0.35100469261E+02  0.62499789531E+02  0.00000000000E+00 0. -1.
</event>
<event>
 4    1  0.9925048E-003  0.9118800E+02  0.7818608E-02  0.1130116E+00
         25   -1    0    0    0    0  0.00000000000E+00  0.00000000000E+00  0.99999998245E-14  0.12500000000E+03  0.12500000000E+03 0.  0.
        -13    1    1    0    0    0 -0.57750664288E+01 -0.12430381713E+02 -0.72548375423E+00  0.13726007158E+02  0.10566000000E+00 0. -1.
         13    1    1    0    0    0 -0.23677251740E+02 -0.40902774453E+02  0.13231012514E+02  0.49078712943E+02  0.10566000000E+00 0.  1.
         22    1    1    0    0    0  0.29452318169E+02  0.53333156166E+02 -0.12505528760E+02  0.62195279899E+02  0.00000000000E+00 0.  1.
</event>
<event>
 4    1  0.9925048E-003  0.9118800E+02  0.7818608E-02  0.1130116E+00
         25   -1    0    0    0    0  0.00000000000E+00  0.00000000000E+00  0.99999998245E-14  0.12500000000E+03  0.12500000000E+03 0.  0.
        -13    1    1    0    0    0  0.15308553408E+02 -0.23566969800E+02 -0.13875180153E+02  0.31341436810E+02  0.10566000000E+00 0. -1.
         13    1    1    0    0    0  0.15342530316E+02 -0.23499684446E+02 -0.13536959213E+02  0.31159089112E+02  0.10566000000E+00 0.  1.
         22    1    1    0    0    0 -0.30651083724E+02  0.47066654245E+02  0.27412139366E+02  0.62499474078E+02  0.00000000000E+00 0.  1.
</event>
<event>
 4    1  0.9925048E-003  0.9118800E+02  0.7818608E-02  0.1130116E+00
         25   -1    0    0    0    0  0.00000000000E+00  0.00000000000E+00  0.99999998245E-14  0.12500000000E+03  0.12500000000E+03 0.  0.
        -13    1    1    0    0    0  0.58122224245E+01 -0.52098448465E+01 -0.52764516473E+02  0.53338820530E+02  0.10566000000E+00 0. -1.
         13    1    1    0    0    0  0.65164303504E+00 -0.16403194500E+01 -0.90054022569E+01  0.91773482220E+01  0.10566000000E+00 0.  1.
         22    1    1    0    0    0 -0.64638654595E+01  0.68501642965E+01  0.61769918730E+02  0.62483831248E+02  0.00000000000E+00 0. -1.
</event>
<event>
 4    1  0.9925048E-003  0.9118800E+02  0.7818608E-02  0.1130116E+00
         25   -1    0    0    0    0  0.00000000000E+00  0.00000000000E+00  0.99999998245E-14  0.12500000000E+03  0.12500000000E+03 0.  0.
        -13    1    1    0    0    0  0.20028030284E+02 -0.36781611173E+02 -0.32318895067E+02  0.52901144221E+02  0.10566000000E+00 0. -1.
         13    1    1    0    0    0  0.66413857924E+01 -0.75143546176E+01 -0.17474808240E+01  0.10180293897E+02  0.10566000000E+00 0.  1.
         22    1    1    0    0    0 -0.26669416076E+02  0.44295965790E+02  0.34066375891E+02  0.61918561882E+02  0.00000000000E+00 0. -1.
</event>
<event>
 4    1  0.9925048E-003  0.9118800E+02  0.7818608E-02  0.1130116E+00
         25   -1    0    0    0    0  0.00000000000E+00  0.00000000000E+00  0.99999998245E-14  0.12500000000E+03  0.12500000000E+03 0.  0.
        -13    1    1    0    0    0  0.43729491000E+02  0.13587492003E+02  0.75824312258E+01  0.46415436542E+02  0.10566000000E+00 0.  1.
         13    1    1    0    0    0  0.15157042686E+02  0.47806777774E+01  0.24757241098E+01  0.16085123466E+02  0.10566000000E+00 0.  1.
         22    1    1    0    0    0 -0.58886533686E+02 -0.18368169781E+02 -0.10058155336E+02  0.62499439993E+02  0.00000000000E+00 0.  1.
</event>
<event>
 4    1  0.9925048E-003  0.9118800E+02  0.7818608E-02  0.1130116E+00
         25   -1    0    0    0    0  0.00000000000E+00  0.00000000000E+00  0.99999998245E-14  0.12500000000E+03  0.12500000000E+03 0.  0.
        -13    1    1    0    0    0 -0.11603228511E+02  0.10453032429E+02  0.29270913349E+02  0.33176773972E+02  0.10566000000E+00 0.  1.
         13    1    1    0    0    0 -0.97562452592E+01  0.87196349079E+01  0.26245179723E+02  0.29326387047E+02  0.10566000000E+00 0. -1.
         22    1    1    0    0    0  0.21359473770E+02 -0.19172667337E+02 -0.55516093073E+02  0.62496838981E+02  0.00000000000E+00 0.  1.
</event>
<event>
 4    1  0.9925048E-003  0.9118800E+02  0.7818608E-02  0.1130116E+00
         25   -1    0    0    0    0  0.00000000000E+00  0.00000000000E+00  0.99999998245E-14  0.12500000000E+03  0.12500000000E+03 0.  0.
        -13    1    1    0    0    0 -0.31762587810E+02 -0.33211164217E+02 -0.45063271809E+00  0.45957128359E+02  0.10566000000E+00 0. -1.
         13    1    1    0    0    0 -0.11506449202E+02 -0.11886165302E+02  0.15997413834E+00  0.16544366250E+02  0.10566000000E+00 0.  1.
         22    1    1    0    0    0  0.43269037013E+02  0.45097329520E+02  0.29065857976E+00  0.62498505392E+02  0.00000000000E+00 0. -1.
</event>
<event>
 4    1  0.9925048E-003  0.9118800E+02  0.7818608E-02  0.1130116E+00
         25   -1    0    0    0    0  0.00000000000E+00  0.00000000000E+00  0.99999998245E-14  0.12500000000E+03  0.12500000000E+03 0.  0.
        -13    1    1    0    0    0  0.49501144905E+02 -0.17420449784E+02 -0.28263891424E+02  0.59604480872E+02  0.10566000000E+00 0. -1.
         13    1    1    0    0    0 -0.63684321745E+01 -0.19129702421E+01 -0.43694084067E+01  0.79573410992E+01  0.10566000000E+00 0.  1.
         22    1    1    0    0    0 -0.43132712730E+02  0.19333420026E+02  0.32633299831E+02  0.57438178029E+02  0.00000000000E+00 0. -1.
</event>
<event>
 4    1  0.9925048E-003  0.9118800E+02  0.7818608E-02  0.1130116E+00
         25   -1    0    0    0    0  0.00000000000E+00  0.00000000000E+00  0.99999998245E-14  0.12500000000E+03  0.12500000000E+03 0.  0.
        -13    1    1    0    0    0 -0.55549305869E+01 -0.57618597843E+01 -0.18473324428E+01  0.82146261746E+01  0.10566000000E+00 0. -1.
         13    1    1    0    0    0 -0.38856683027E+02 -0.36182055814E+02 -0.11337500537E+02  0.54291187694E+02  0.10566000000E+00 0.  1.
         22    1    1    0    0    0  0.44411613614E+02  0.41943915599E+02  0.13184832979E+02  0.62494186131E+02  0.00000000000E+00 0.  1.
</event>
<event>
 4    1  0.9925048E-003  0.9118800E+02  0.7818608E-02  0.1130116E+00
         25   -1    0    0    0    0  0.00000000000E+00  0.00000000000E+00  0.99999998245E-14  0.12500000000E+03  0.12500000000E+03 0.  0.
        -13    1    1    0    0    0  0.83463453595E+01  0.41961567799E+02 -0.37173875298E+02  0.56677533659E+02  0.10566000000E+00 0.  1.
         13    1    1    0    0    0 -0.17327102939E+00  0.40238376040E+01 -0.42767280187E+01  0.58756155843E+01  0.10566000000E+00 0. -1.
         22    1    1    0    0    0 -0.81730743301E+01 -0.45985405403E+02  0.41450603317E+02  0.62446850756E+02  0.00000000000E+00 0.  1.
</event>
<event>
 4    1  0.9925048E-003  0.9118800E+02  0.7818608E-02  0.1130116E+00
         25   -1    0    0    0    0  0.00000000000E+00  0.00000000000E+00  0.99999998245E-14  0.12500000000E+03  0.12500000000E+03 0.  0.
        -13    1    1    0    0    0  0.25676717046E+02  0.50384928046E+02 -0.46646199424E+01  0.56742441044E+02  0.10566000000E+00 0. -1.
         13    1    1    0    0    0  0.26893344048E+01  0.50415513579E+01 -0.72772365096E+00  0.57611201500E+01  0.10566000000E+00 0.  1.
         22    1    1    0    0    0 -0.28366051450E+02 -0.55426479404E+02  0.53923435934E+01  0.62496438806E+02  0.00000000000E+00 0. -1.
</event>
<event>
 4    1  0.9925048E-003  0.9118800E+02  0.7818608E-02  0.1130116E+00
         25   -1    0    0    0    0  0.00000000000E+00  0.00000000000E+00  0.99999998245E-14  0.12500000000E+03  0.12500000000E+03 0.  0.
        -13    1    1    0    0    0 -0.19161352550E+02 -0.43229135597E+02 -0.70851167901E+01  0.47813446225E+02  0.10566000000E+00 0. -1.
         13    1    1    0    0    0 -0.40787153654E+01 -0.11481344763E+02 -0.95268856989E+01  0.15467058924E+02  0.10566000000E+00 0.  1.
         22    1    1    0    0    0  0.23240067915E+02  0.54710480360E+02  0.16612002489E+02  0.61719494851E+02  0.00000000000E+00 0. -1.
</event>
<event>
 4    1  0.9925048E-003  0.9118800E+02  0.7818608E-02  0.1130116E+00
         25   -1    0    0    0    0  0.00000000000E+00  0.00000000000E+00  0.99999998245E-14  0.12500000000E+03  0.12500000000E+03 0.  0.
        -13    1    1    0    0    0 -0.26234786576E+01 -0.28398781178E+02  0.20589586908E+02  0.35175498088E+02  0.10566000000E+00 0.  1.
         13    1    1    0    0    0 -0.72090574533E+00 -0.20860531110E+02  0.17681656673E+02  0.27355686977E+02  0.10566000000E+00 0. -1.
         22    1    1    0    0    0  0.33443844029E+01  0.49259312288E+02 -0.38271243581E+02  0.62468814935E+02  0.00000000000E+00 0. -1.
</event>
<event>
 4    1  0.9925048E-003  0.9118800E+02  0.7818608E-02  0.1130116E+00
         25   -1    0    0    0    0  0.00000000000E+00  0.00000000000E+00  0.99999998245E-14  0.12500000000E+03  0.12500000000E+03 0.  0.
        -13    1    1    0    0    0  0.97870932795E+01 -0.18404333400E+02 -0.28964475150E+02  0.35685552644E+02  0.10566000000E+00 0. -1.
         13    1    1    0    0    0  0.98769622970E+01 -0.13816118777E+02 -0.20800409269E+02  0.26853448793E+02  0.10566000000E+00 0.  1.
         22    1    1    0    0    0 -0.19664055577E+02  0.32220452176E+02  0.49764884420E+02  0.62460998563E+02  0.00000000000E+00 0.  1.
</event>
<event>
 4    1  0.9925048E-003  0.9118800E+02  0.7818608E-02  0.1130116E+00
         25   -1    0    0    0    0  0.00000000000E+00  0.00000000000E+00  0.99999998245E-14  0.12500000000E+03  0.12500000000E+03 0.  0.
        -13    1    1    0    0    0 -0.48275616400E+02 -0.11612663336E+02  0.18144472804E+02  0.52864185853E+02  0.10566000000E+00 0.  1.
         13    1    1    0    0    0 -0.10188754301E+02 -0.10496177491E-01 -0.32419278304E+01  0.10692618223E+02  0.10566000000E+00 0. -1.
         22    1    1    0    0    0  0.58464370701E+02  0.11623159513E+02 -0.14902544973E+02  0.61443195923E+02  0.00000000000E+00 0.  1.
</event>
<event>
 4    1  0.9925048E-003  0.9118800E+02  0.7818608E-02  0.1130116E+00
         25   -1    0    0    0    0  0.00000000000E+00  0.00000000000E+00  0.99999998245E-14  0.12500000000E+03  0.12500000000E+03 0.  0.
        -13    1    1    0    0    0 -0.14988946044E+02 -0.31367693934E+02  0.93976778597E+01  0.36012889907E+02  0.10566000000E+00 0. -1.
         13    1    1    0    0    0  0.11138515304E+02 -0.27408219974E+02 -0.28383544305E+01  0.29721111440E+02  0.10566000000E+00 0.  1.
         22    1    1    0    0    0  0.38504307409E+01  0.58775913908E+02 -0.65593234292E+01  0.59265998654E+02  0.00000000000E+00 0.  1.
</event>
<event>
 4    1  0.9925048E-003  0.9118800E+02  0.7818608E-02  0.1130116E+00
         25   -1    0    0    0    0  0.00000000000E+00  0.00000000000E+00  0.99999998245E-14  0.12500000000E+03  0.12500000000E+03 0.  0.
        -13    1    1    0    0    0  0.25829479803E+02 -0.47101472225E+01 -0.74837805249E+01  0.27301385473E+02  0.10566000000E+00 0.  1.
         13    1    1    0    0    0  0.32719477127E+02 -0.12893741363E+02 -0.43153557288E+01  0.35432276372E+02  0.10566000000E+00 0. -1.
         22    1    1    0    0    0 -0.58548956930E+02  0.17603888586E+02  0.11799136254E+02  0.62266338155E+02  0.00000000000E+00 0.  1.
</event>
<event>
 4    1  0.9925048E-003  0.9118800E+02  0.7818608E-02  0.1130116E+00
         25   -1    0    0    0    0  0.00000000000E+00  0.00000000000E+00  0.99999998245E-14  0.12500000000E+03  0.12500000000E+03 0.  0.
        -13    1    1    0    0    0  0.13367419463E+02  0.40024584985E+00  0.63805411209E+01  0.14817913783E+02  0.10566000000E+00 0.  1.
         13    1    1    0    0    0  0.34410945638E+02 -0.33118889956E+02 -0.18147231879E+02  0.51091165973E+02  0.10566000000E+00 0. -1.
         22    1    1    0    0    0 -0.47778365101E+02  0.32718644106E+02  0.11766690758E+02  0.59090920244E+02  0.00000000000E+00 0. -1.
</event>
<event>
 4    1  0.9925048E-003  0.9118800E+02  0.7818608E-02  0.1130116E+00
         25   -1    0    0    0    0  0.00000000000E+00  0.00000000000E+00  0.99999998245E-14  0.12500000000E+03  0.12500000000E+03 0.  0.
        -13    1    1    0    0    0 -0.13067599558E+00  0.17487929929E+02 -0.18052168344E+00  0.17489668995E+02  0.10566000000E+00 0. -1.
         13    1    1    0    0    0  0.31755962659E+02 -0.51726589729E+02 -0.31790443730E+01  0.60779920505E+02  0.10566000000E+00 0.  1.
         22    1    1    0    0    0 -0.31625286664E+02  0.34238659800E+02  0.33595660565E+01  0.46730410500E+02  0.00000000000E+00 0.  1.
</event>
<event>
 4    1  0.9925048E-003  0.9118800E+02  0.7818608E-02  0.1130116E+00
         25   -1    0    0    0    0  0.00000000000E+00  0.00000000000E+00  0.99999998245E-14  0.12500000000E+03  0.12500000000E+03 0.  0.
        -13    1    1    0    0    0  0.25042346791E+01  0.66652889222E+01 -0.16047779163E+01  0.72995714903E+01  0.10566000000E+00 0. -1.
         13    1    1    0    0    0  0.18106745955E+02  0.51322609636E+02 -0.92644704784E+01  0.55206033060E+02  0.10566000000E+00 0.  1.
         22    1    1    0    0    0 -0.20610980634E+02 -0.57987898559E+02  0.10869248395E+02  0.62494395450E+02  0.00000000000E+00 0.  1.
</event>
<event>
 4    1  0.9925048E-003  0.9118800E+02  0.7818608E-02  0.1130116E+00
         25   -1    0    0    0    0  0.00000000000E+00  0.00000000000E+00  0.99999998245E-14  0.12500000000E+03  0.12500000000E+03 0.  0.
        -13    1    1    0    0    0 -0.24070771454E+02  0.12528063285E+02  0.49233071346E+02  0.56216197722E+02  0.10566000000E+00 0. -1.
         13    1    1    0    0    0  0.83969703254E+01 -0.26850741996E+01  0.59123396273E+01  0.10615350112E+02  0.10566000000E+00 0.  1.
         22    1    1    0    0    0  0.15673801128E+02 -0.98429890855E+01 -0.55145410974E+02  0.58168452166E+02  0.00000000000E+00 0. -1.
</event>
<event>
 4    1  0.9925048E-003  0.9118800E+02  0.7818608E-02  0.1130116E+00
         25   -1    0    0    0    0  0.00000000000E+00  0.00000000000E+00  0.99999998245E-14  0.12500000000E+03  0.12500000000E+03 0.  0.
        -13    1    1    0    0    0 -0.23699051540E+01 -0.93803840070E+00 -0.23024768329E+01  0.34364123853E+01  0.10566000000E+00 0.  1.
         13    1    1    0    0    0 -0.40536160556E+02 -0.17921400740E+02 -0.39042779122E+02  0.59065274762E+02  0.10566000000E+00 0.  1.
         22    1    1    0    0    0  0.42906065710E+02  0.18859439140E+02  0.41345255955E+02  0.62498312853E+02  0.00000000000E+00 0.  1.
</event>
<event>
 4    1  0.9925048E-003  0.9118800E+02  0.7818608E-02  0.1130116E+00
         25   -1    0    0    0    0  0.00000000000E+00  0.00000000000E+00  0.99999998245E-14  0.12500000000E+03  0.12500000000E+03 0.  0.
        -13    1    1    0    0    0  0.21839117711E+02 -0.48511280348E+01  0.13366221475E+02  0.26060459439E+02  0.10566000000E+00 0. -1.
         13    1    1    0    0    0  0.30651286173E+02 -0.47866909829E+01  0.19139084750E+02  0.36451741847E+02  0.10566000000E+00 0.  1.
         22    1    1    0    0    0 -0.52490403884E+02  0.96378190177E+01 -0.32505306225E+02  0.62487798714E+02  0.00000000000E+00 0. -1.
</event>
<event>
 4    1  0.9925048E-003  0.9118800E+02  0.7818608E-02  0.1130116E+00
         25   -1    0    0    0    0  0.00000000000E+00  0.00000000000E+00  0.99999998245E-14  0.12500000000E+03  0.12500000000E+03 0.  0.
        -13    1    1    0    0    0  0.13114124641E+02 -0.16126002972E+02  0.51967037974E+01  0.21425338535E+02  0.10566000000E+00 0. -1.
         13    1    1    0    0    0 -0.17439782529E+02 -0.35960752720E+02  0.20959480844E+02  0.45129067707E+02  0.10566000000E+00 0.  1.
         22    1    1    0    0    0  0.43256578872E+01  0.52086755692E+02 -0.26156184642E+02  0.58445593757E+02  0.00000000000E+00 0. -1.
</event>
<event>
 4    1  0.9925048E-003  0.9118800E+02  0.7818608E-02  0.1130116E+00
         25   -1    0    0    0    0  0.00000000000E+00  0.00000000000E+00  0.99999998245E-14  0.12500000000E+03  0.12500000000E+03 0.  0.
        -13    1    1    0    0    0 -0.12661078145E+02 -0.32330308795E+01  0.13539357149E+01  0.13137720290E+02  0.10566000000E+00 0. -1.
         13    1    1    0    0    0 -0.82637083203E+01 -0.39942328155E+02  0.33318125329E+02  0.52666755103E+02  0.10566000000E+00 0.  1.
         22    1    1    0    0    0  0.20924786466E+02  0.43175359034E+02 -0.34672061044E+02  0.59195524606E+02  0.00000000000E+00 0.  1.
</event>
<event>
 4    1  0.9925048E-003  0.9118800E+02  0.7818608E-02  0.1130116E+00
         25   -1    0    0    0    0  0.00000000000E+00  0.00000000000E+00  0.99999998245E-14  0.12500000000E+03  0.12500000000E+03 0.  0.
        -13    1    1    0    0    0  0.24843422194E+02  0.51470695912E+01  0.29634767571E+02  0.39011774693E+02  0.10566000000E+00 0. -1.
         13    1    1    0    0    0  0.14881528452E+02  0.34370828457E+01  0.17845407762E+02  0.23489213903E+02  0.10566000000E+00 0.  1.
         22    1    1    0    0    0 -0.39724950646E+02 -0.85841524369E+01 -0.47480175332E+02  0.62499011404E+02  0.00000000000E+00 0. -1.
</event>
<event>
 4    1  0.9925048E-003  0.9118800E+02  0.7818608E-02  0.1130116E+00
         25   -1    0    0    0    0  0.00000000000E+00  0.00000000000E+00  0.99999998245E-14  0.12500000000E+03  0.12500000000E+03 0.  0.
        -13    1    1    0    0    0  0.14368004209E+01 -0.13454827831E+01 -0.27161855049E+00  0.19898894547E+01  0.10566000000E+00 0.  1.
         13    1    1    0    0    0  0.40727520970E+02 -0.42208177679E+02 -0.14907937438E+02  0.60518749078E+02  0.10566000000E+00 0. -1.
         22    1    1    0    0    0 -0.42164321391E+02  0.43553660462E+02  0.15179555989E+02  0.62491361467E+02  0.00000000000E+00 0. -1.
</event>
<event>
 4    1  0.9925048E-003  0.9118800E+02  0.7818608E-02  0.1130116E+00
         25   -1    0    0    0    0  0.00000000000E+00  0.00000000000E+00  0.99999998245E-14  0.12500000000E+03  0.12500000000E+03 0.  0.
        -13    1    1    0    0    0  0.43215343821E+02  0.14823184857E+01 -0.24268748680E+01  0.43308937823E+02  0.10566000000E+00 0.  1.
         13    1    1    0    0    0  0.19141549522E+02  0.79104828964E+00 -0.11297655718E+01  0.19191461898E+02  0.10566000000E+00 0.  1.
         22    1    1    0    0    0 -0.62356893343E+02 -0.22733667753E+01  0.35566404398E+01  0.62499600279E+02  0.00000000000E+00 0.  1.
</event>
<event>
 4    1  0.9925048E-003  0.9118800E+02  0.7818608E-02  0.1130116E+00
         25   -1    0    0    0    0  0.00000000000E+00  0.00000000000E+00  0.99999998245E-14  0.12500000000E+03  0.12500000000E+03 0.  0.
        -13    1    1    0    0    0  0.38653068172E+01  0.22316698160E+00 -0.28602997838E+01  0.48148602453E+01  0.10566000000E+00 0.  1.
         13    1    1    0    0    0  0.46163531554E+02  0.52090491861E+01 -0.34200576068E+02  0.57687922535E+02  0.10566000000E+00 0. -1.
         22    1    1    0    0    0 -0.50028838371E+02 -0.54322161677E+01  0.37060875852E+02  0.62497217220E+02  0.00000000000E+00 0. -1.
</event>
<event>
 4    1  0.9925048E-003  0.9118800E+02  0.7818608E-02  0.1130116E+00
         25   -1    0    0    0    0  0.00000000000E+00  0.00000000000E+00  0.99999998245E-14  0.12500000000E+03  0.12500000000E+03 0.  0.
        -13    1    1    0    0    0  0.14202545044E+02 -0.95035328840E+01 -0.42341900626E+01  0.17605935151E+02  0.10566000000E+00 0.  1.
         13    1    1    0    0    0  0.35803091651E+02 -0.23920553553E+02 -0.12727698648E+02  0.44900553794E+02  0.10566000000E+00 0. -1.
         22    1    1    0    0    0 -0.50005636695E+02  0.33424086437E+02  0.16961888710E+02  0.62493511056E+02  0.00000000000E+00 0. -1.
</event>
<event>
 4    1  0.9925048E-003  0.9118800E+02  0.7818608E-02  0.1130116E+00
         25   -1    0    0    0    0  0.00000000000E+00  0.00000000000E+00  0.99999998245E-14  0.12500000000E+03  0.12500000000E+03 0.  0.
        -13    1    1    0    0    0  0.60192775156E+01  0.14126549587E+00  0.60130644882E+01  0.85099803951E+01  0.10566000000E+00 0. -1.
         13    1    1    0    0    0  0.44110268498E+02 -0.46511404937E+01  0.30913667166E+02  0.54064913544E+02  0.10566000000E+00 0.  1.
         22    1    1    0    0    0 -0.50129546014E+02  0.45098749978E+01 -0.36926731654E+02  0.62425106061E+02  0.00000000000E+00 0.  1.
</event>
<event>
 4    1  0.9925048E-003  0.9118800E+02  0.7818608E-02  0.1130116E+00
         25   -1    0    0    0    0  0.00000000000E+00  0.00000000000E+00  0.99999998245E-14  0.12500000000E+03  0.12500000000E+03 0.  0.
        -13    1    1    0    0    0  0.68898218954E+01 -0.24159724358E+01  0.10412909054E+01  0.73757724576E+01  0.10566000000E+00 0. -1.
         13    1    1    0    0    0  0.52289390264E+02 -0.12086296259E+02  0.12729628503E+02  0.55157170861E+02  0.10566000000E+00 0.  1.
         22    1    1    0    0    0 -0.59179212160E+02  0.14502268695E+02 -0.13770919409E+02  0.62467056682E+02  0.00000000000E+00 0.  1.
</event>
<event>
 4    1  0.9925048E-003  0.9118800E+02  0.7818608E-02  0.1130116E+00
         25   -1    0    0    0    0  0.00000000000E+00  0.00000000000E+00  0.99999998245E-14  0.12500000000E+03  0.12500000000E+03 0.  0.
        -13    1    1    0    0    0 -0.24978970035E+01  0.45254135485E+01  0.15809470055E+01  0.54064234661E+01  0.10566000000E+00 0.  1.
         13    1    1    0    0    0 -0.23544504333E+02  0.43485189558E+02  0.28666632037E+02  0.57158484511E+02  0.10566000000E+00 0. -1.
         22    1    1    0    0    0  0.26042401336E+02 -0.48010603107E+02 -0.30247579042E+02  0.62435092023E+02  0.00000000000E+00 0. -1.
</event>
<event>
 4    1  0.9925048E-003  0.9118800E+02  0.7818608E-02  0.1130116E+00
         25   -1    0    0    0    0  0.00000000000E+00  0.00000000000E+00  0.99999998245E-14  0.12500000000E+03  0.12500000000E+03 0.  0.
        -13    1    1    0    0    0  0.10598471290E+02 -0.13495924574E+02 -0.12406051336E+02  0.21175194157E+02  0.10566000000E+00 0. -1.
         13    1    1    0    0    0  0.21073668565E+02 -0.27140658216E+02 -0.22965794035E+02  0.41329816052E+02  0.10566000000E+00 0.  1.
         22    1    1    0    0    0 -0.31672139856E+02  0.40636582790E+02  0.35371845371E+02  0.62494989790E+02  0.00000000000E+00 0.  1.
</event>
<event>
 4    1  0.9925048E-003  0.9118800E+02  0.7818608E-02  0.1130116E+00
         25   -1    0    0    0    0  0.00000000000E+00  0.00000000000E+00  0.99999998245E-14  0.12500000000E+03  0.12500000000E+03 0.  0.
        -13    1    1    0    0    0  0.21161645987E+02 -0.22628008331E+02  0.12191608736E+02  0.33293971068E+02  0.10566000000E+00 0. -1.
         13    1    1    0    0    0  0.23504775344E+02 -0.18320891238E+02  0.45054602730E+00  0.29805094791E+02  0.10566000000E+00 0.  1.
         22    1    1    0    0    0 -0.44666421332E+02  0.40948899568E+02 -0.12642154763E+02  0.61900934141E+02  0.00000000000E+00 0.  1.
</event>
<event>
 4    1  0.9925048E-003  0.9118800E+02  0.7818608E-02  0.1130116E+00
         25   -1    0    0    0    0  0.00000000000E+00  0.00000000000E+00  0.99999998245E-14  0.12500000000E+03  0.12500000000E+03 0.  0.
        -13    1    1    0    0    0 -0.44403798067E+01  0.63638417792E+01 -0.43110113876E+01  0.88775806523E+01  0.10566000000E+00 0. -1.
         13    1    1    0    0    0 -0.27611146322E+02  0.38477979859E+02 -0.25150789399E+02  0.53623723357E+02  0.10566000000E+00 0. -1.
         22    1    1    0    0    0  0.32051526128E+02 -0.44841821638E+02  0.29461800787E+02  0.62498695991E+02  0.00000000000E+00 0. -1.
</event>
<event>
 4    1  0.9925048E-003  0.9118800E+02  0.7818608E-02  0.1130116E+00
         25   -1    0    0    0    0  0.00000000000E+00  0.00000000000E+00  0.99999998245E-14  0.12500000000E+03  0.12500000000E+03 0.  0.
        -13    1    1    0    0    0  0.33676498926E+02  0.35987195542E+02 -0.14670524942E+02  0.51423927203E+02  0.10566000000E+00 0. -1.
         13    1    1    0    0    0  0.85985383822E+01  0.67068134452E+01  0.71121475355E+01  0.13019601204E+02  0.10566000000E+00 0.  1.
         22    1    1    0    0    0 -0.42275037308E+02 -0.42694008988E+02  0.75583774063E+01  0.60556471593E+02  0.00000000000E+00 0. -1.
</event>
<event>
 4    1  0.9925048E-003  0.9118800E+02  0.7818608E-02  0.1130116E+00
         25   -1    0    0    0    0  0.00000000000E+00  0.00000000000E+00  0.99999998245E-14  0.12500000000E+03  0.12500000000E+03 0.  0.
        -13    1    1    0    0    0  0.98942910121E+01  0.19803771210E+00 -0.62025835081E+01  0.11679872421E+02  0.10566000000E+00 0. -1.
         13    1    1    0    0    0  0.42513357128E+02  0.21661729368E+01 -0.27764520379E+02  0.50822805859E+02  0.10566000000E+00 0.  1.
         22    1    1    0    0    0 -0.52407648140E+02 -0.23642106489E+01  0.33967103887E+02  0.62497321719E+02  0.00000000000E+00 0.  1.
</event>
<event>
 4    1  0.9925048E-003  0.9118800E+02  0.7818608E-02  0.1130116E+00
         25   -1    0    0    0    0  0.00000000000E+00  0.00000000000E+00  0.99999998245E-14  0.12500000000E+03  0.12500000000E+03 0.  0.
        -13    1    1    0    0    0 -0.21725287500E+02  0.37127833087E+02  0.12637868046E+02  0.44835153390E+02  0.10566000000E+00 0. -1.
         13    1    1    0    0    0 -0.85619411486E+01  0.14670515896E+02  0.48496617396E+01  0.17665255614E+02  0.10566000000E+00 0. -1.
         22    1    1    0    0    0  0.30287228649E+02 -0.51798348983E+02 -0.17487529786E+02  0.62499590996E+02  0.00000000000E+00 0. -1.
</event>
<event>
 4    1  0.9925048E-003  0.9118800E+02  0.7818608E-02  0.1130116E+00
         25   -1    0    0    0    0  0.00000000000E+00  0.00000000000E+00  0.99999998245E-14  0.12500000000E+03  0.12500000000E+03 0.  0.
        -13    1    1    0    0    0 -0.15772979881E+02 -0.18837550422E+02  0.27306874369E+02  0.36733047139E+02  0.10566000000E+00 0.  1.
         13    1    1    0    0    0 -0.94665804543E+01 -0.12889852643E+02  0.20230949155E+02  0.25788891299E+02  0.10566000000E+00 0. -1.
         22    1    1    0    0    0  0.25239560336E+02  0.31727403065E+02 -0.47537823524E+02  0.62478061563E+02  0.00000000000E+00 0.  1.
</event>
<event>
 4    1  0.9925048E-003  0.9118800E+02  0.7818608E-02  0.1130116E+00
         25   -1    0    0    0    0  0.00000000000E+00  0.00000000000E+00  0.99999998245E-14  0.12500000000E+03  0.12500000000E+03 0.  0.
        -13    1    1    0    0    0 -0.32827574095E-01  0.28919346349E+01  0.24939785448E+01  0.38204000576E+01  0.10566000000E+00 0.  1.
         13    1    1    0    0    0 -0.10123143235E+01  0.51156348911E+02  0.28801673792E+02  0.58715793374E+02  0.10566000000E+00 0. -1.
         22    1    1    0    0    0  0.10451418976E+01 -0.54048283546E+02 -0.31295652337E+02  0.62463806569E+02  0.00000000000E+00 0. -1.
</event>
<event>
 4    1  0.9925048E-003  0.9118800E+02  0.7818608E-02  0.1130116E+00
         25   -1    0    0    0    0  0.00000000000E+00  0.00000000000E+00  0.99999998245E-14  0.12500000000E+03  0.12500000000E+03 0.  0.
        -13    1    1    0    0    0  0.10558293722E+02  0.22089221470E+02  0.48679782449E+01  0.24962364626E+02  0.10566000000E+00 0. -1.
         13    1    1    0    0    0  0.13774481684E+02  0.34717499131E+02  0.41661364608E+01  0.37582029597E+02  0.10566000000E+00 0.  1.
         22    1    1    0    0    0 -0.24332775407E+02 -0.56806720601E+02 -0.90341147057E+01  0.62455605777E+02  0.00000000000E+00 0. -1.
</event>
<event>
 4    1  0.9925048E-003  0.9118800E+02  0.7818608E-02  0.1130116E+00
         25   -1    0    0    0    0  0.00000000000E+00  0.00000000000E+00  0.99999998245E-14  0.12500000000E+03  0.12500000000E+03 0.  0.
        -13    1    1    0    0    0  0.12093973746E+00  0.30076616377E+01  0.38319558592E+02  0.38437746938E+02  0.10566000000E+00 0.  1.
         13    1    1    0    0    0 -0.23236573926E+00  0.19335193648E+01  0.23983899303E+02  0.24063064659E+02  0.10566000000E+00 0. -1.
         22    1    1    0    0    0  0.11142600180E+00 -0.49411810025E+01 -0.62303457895E+02  0.62499188403E+02  0.00000000000E+00 0. -1.
</event>
<event>
 4    1  0.9925048E-003  0.9118800E+02  0.7818608E-02  0.1130116E+00
         25   -1    0    0    0    0  0.00000000000E+00  0.00000000000E+00  0.99999998245E-14  0.12500000000E+03  0.12500000000E+03 0.  0.
        -13    1    1    0    0    0  0.99902131572E+00 -0.15334873734E+01 -0.43245701781E+00  0.18835631716E+01  0.10566000000E+00 0. -1.
         13    1    1    0    0    0  0.52820709212E+02  0.51013908854E+01  0.30659016089E+02  0.61286523333E+02  0.10566000000E+00 0.  1.
         22    1    1    0    0    0 -0.53819730528E+02 -0.35679035120E+01 -0.30226559071E+02  0.61829913495E+02  0.00000000000E+00 0.  1.
</event>
<event>
 4    1  0.9925048E-003  0.9118800E+02  0.7818608E-02  0.1130116E+00
         25   -1    0    0    0    0  0.00000000000E+00  0.00000000000E+00  0.99999998245E-14  0.12500000000E+03  0.12500000000E+03 0.  0.
        -13    1    1    0    0    0  0.17515757427E+01  0.61294081450E+01  0.71636906105E+00  0.64157626560E+01  0.10566000000E+00 0.  1.
         13    1    1    0    0    0  0.19374511220E+02  0.51854181736E+02  0.90922254391E+01  0.56097304534E+02  0.10566000000E+00 0. -1.
         22    1    1    0    0    0 -0.21126086963E+02 -0.57983589881E+02 -0.98085945001E+01  0.62486932810E+02  0.00000000000E+00 0. -1.
</event>
<event>
 4    1  0.9925048E-003  0.9118800E+02  0.7818608E-02  0.1130116E+00
         25   -1    0    0    0    0  0.00000000000E+00  0.00000000000E+00  0.99999998245E-14  0.12500000000E+03  0.12500000000E+03 0.  0.
        -13    1    1    0    0    0  0.55954827312E+01  0.28454807592E+01 -0.24397513251E+01  0.67357062220E+01  0.10566000000E+00 0. -1.
         13    1    1    0    0    0  0.47803751592E+02  0.22658622725E+02 -0.17652085312E+02  0.55769338619E+02  0.10566000000E+00 0.  1.
         22    1    1    0    0    0 -0.53399234323E+02 -0.25504103484E+02  0.20091836637E+02  0.62494955159E+02  0.00000000000E+00 0.  1.
</event>
<event>
 4    1  0.9925048E-003  0.9118800E+02  0.7818608E-02  0.1130116E+00
         25   -1    0    0    0    0  0.00000000000E+00  0.00000000000E+00  0.99999998245E-14  0.12500000000E+03  0.12500000000E+03 0.  0.
        -13    1    1    0    0    0 -0.40056960869E+02 -0.17978451228E+02  0.32434127147E+02  0.54587256667E+02  0.10566000000E+00 0.  1.
         13    1    1    0    0    0 -0.22506973678E+01 -0.83015435880E+01  0.31942809188E+01  0.91758301646E+01  0.10566000000E+00 0. -1.
         22    1    1    0    0    0  0.42307658237E+02  0.26279994816E+02 -0.35628408066E+02  0.61236913168E+02  0.00000000000E+00 0.  1.
</event>
<event>
 4    1  0.9925048E-003  0.9118800E+02  0.7818608E-02  0.1130116E+00
         25   -1    0    0    0    0  0.00000000000E+00  0.00000000000E+00  0.99999998245E-14  0.12500000000E+03  0.12500000000E+03 0.  0.
        -13    1    1    0    0    0 -0.27243054015E+02  0.45942258454E+02  0.76528907723E+01  0.53957881770E+02  0.10566000000E+00 0. -1.
         13    1    1    0    0    0 -0.42570407764E+01  0.73162044438E+01  0.11479259824E+01  0.85427244912E+01  0.10566000000E+00 0. -1.
         22    1    1    0    0    0  0.31500094792E+02 -0.53258462898E+02 -0.88008167548E+01  0.62499393738E+02  0.00000000000E+00 0. -1.
</event>
<event>
 4    1  0.9925048E-003  0.9118800E+02  0.7818608E-02  0.1130116E+00
         25   -1    0    0    0    0  0.00000000000E+00  0.00000000000E+00  0.99999998245E-14  0.12500000000E+03  0.12500000000E+03 0.  0.
        -13    1    1    0    0    0  0.39326540118E+02  0.85829928302E+01 -0.25693266718E+02  0.47753530155E+02  0.10566000000E+00 0.  1.
         13    1    1    0    0    0  0.11699516596E+02  0.27630936268E+01 -0.85538445821E+01  0.14754416157E+02  0.10566000000E+00 0. -1.
         22    1    1    0    0    0 -0.51026056714E+02 -0.11346086457E+02  0.34247111300E+02  0.62492053688E+02  0.00000000000E+00 0.  1.
</event>
<event>
 4    1  0.9925048E-003  0.9118800E+02  0.7818608E-02  0.1130116E+00
         25   -1    0    0    0    0  0.00000000000E+00  0.00000000000E+00  0.99999998245E-14  0.12500000000E+03  0.12500000000E+03 0.  0.
        -13    1    1    0    0    0  0.24106336932E+00  0.42760518582E+00  0.12185122581E+01  0.13179127064E+01  0.10566000000E+00 0.  1.
         13    1    1    0    0    0  0.44816905417E+01  0.27392202766E+02  0.54536234577E+02  0.61193385005E+02  0.10566000000E+00 0. -1.
         22    1    1    0    0    0 -0.47227539110E+01 -0.27819807952E+02 -0.55754746836E+02  0.62488702288E+02  0.00000000000E+00 0. -1.
</event>
<event>
 4    1  0.9925048E-003  0.9118800E+02  0.7818608E-02  0.1130116E+00
         25   -1    0    0    0    0  0.00000000000E+00  0.00000000000E+00  0.99999998245E-14  0.12500000000E+03  0.12500000000E+03 0.  0.
        -13    1    1    0    0    0 -0.26602700001E+01 -0.54649626019E+00  0.99936586956E+01  0.10356643896E+02  0.10566000000E+00 0. -1.
         13    1    1    0    0    0 -0.14836762106E+02 -0.28938680943E+01  0.49906274191E+02  0.52145482546E+02  0.10566000000E+00 0.  1.
         22    1    1    0    0    0  0.17497032106E+02  0.34403643545E+01 -0.59899932886E+02  0.62497873557E+02  0.00000000000E+00 0.  1.
</event>
<event>
 4    1  0.9925048E-003  0.9118800E+02  0.7818608E-02  0.1130116E+00
         25   -1    0    0    0    0  0.00000000000E+00  0.00000000000E+00  0.99999998245E-14  0.12500000000E+03  0.12500000000E+03 0.  0.
        -13    1    1    0    0    0  0.72456196188E+01  0.34788386151E+01  0.49140609160E+02  0.49793693923E+02  0.10566000000E+00 0. -1.
         13    1    1    0    0    0  0.12559280157E+01  0.11730538789E+01  0.12596287732E+02  0.12713419652E+02  0.10566000000E+00 0.  1.
         22    1    1    0    0    0 -0.85015476345E+01 -0.46518924940E+01 -0.61736896892E+02  0.62492886426E+02  0.00000000000E+00 0. -1.
</event>
<event>
 4    1  0.9925048E-003  0.9118800E+02  0.7818608E-02  0.1130116E+00
         25   -1    0    0    0    0  0.00000000000E+00  0.00000000000E+00  0.99999998245E-14  0.12500000000E+03  0.12500000000E+03 0.  0.
        -13    1    1    0    0    0  0.54784813085E+02 -0.26705532143E+02  0.11861647978E+02  0.62090829022E+02  0.10566000000E+00 0. -1.
         13    1    1    0    0    0  0.10858285366E+00 -0.43951883792E+00  0.17925069450E+00  0.49825886051E+00  0.10566000000E+00 0.  1.
         22    1    1    0    0    0 -0.54893395939E+02  0.27145050981E+02 -0.12040898673E+02  0.62410912117E+02  0.00000000000E+00 0. -1.
</event>
<event>
 4    1  0.9925048E-003  0.9118800E+02  0.7818608E-02  0.1130116E+00
         25   -1    0    0    0    0  0.00000000000E+00  0.00000000000E+00  0.99999998245E-14  0.12500000000E+03  0.12500000000E+03 0.  0.
        -13    1    1    0    0    0  0.47343674959E+01 -0.14892004662E+01  0.11798988373E+01  0.51024777232E+01  0.10566000000E+00 0. -1.
         13    1    1    0    0    0  0.51621625358E+02 -0.89652856016E+01 -0.24721440937E+02  0.57933836025E+02  0.10566000000E+00 0.  1.
         22    1    1    0    0    0 -0.56355992854E+02  0.10454486068E+02  0.23541542100E+02  0.61963686252E+02  0.00000000000E+00 0.  1.
</event>
<event>
 4    1  0.9925048E-003  0.9118800E+02  0.7818608E-02  0.1130116E+00
         25   -1    0    0    0    0  0.00000000000E+00  0.00000000000E+00  0.99999998245E-14  0.12500000000E+03  0.12500000000E+03 0.  0.
        -13    1    1    0    0    0  0.11692999364E+02 -0.12000911430E+02 -0.33723357307E+02  0.37656660783E+02  0.10566000000E+00 0.  1.
         13    1    1    0    0    0  0.27569032120E+02 -0.15752289033E+02  0.77020338046E+01  0.32672903614E+02  0.10566000000E+00 0. -1.
         22    1    1    0    0    0 -0.39262031484E+02  0.27753200462E+02  0.26021323502E+02  0.54670435602E+02  0.00000000000E+00 0.  1.
</event>
<event>
 4    1  0.9925048E-003  0.9118800E+02  0.7818608E-02  0.1130116E+00
         25   -1    0    0    0    0  0.00000000000E+00  0.00000000000E+00  0.99999998245E-14  0.12500000000E+03  0.12500000000E+03 0.  0.
        -13    1    1    0    0    0  0.72514326240E+01 -0.96767934207E+01  0.97159307411E+01  0.15512384736E+02  0.10566000000E+00 0.  1.
         13    1    1    0    0    0  0.32505378659E+02 -0.11404427156E+02 -0.41840888993E+02  0.54197156348E+02  0.10566000000E+00 0. -1.
         22    1    1    0    0    0 -0.39756811283E+02  0.21081220577E+02  0.32124958252E+02  0.55290458915E+02  0.00000000000E+00 0. -1.
</event>
<event>
 4    1  0.9925048E-003  0.9118800E+02  0.7818608E-02  0.1130116E+00
         25   -1    0    0    0    0  0.00000000000E+00  0.00000000000E+00  0.99999998245E-14  0.12500000000E+03  0.12500000000E+03 0.  0.
        -13    1    1    0    0    0 -0.86073771771E+01 -0.40728420369E+02  0.85962956131E+01  0.42506453979E+02  0.10566000000E+00 0. -1.
         13    1    1    0    0    0 -0.32606328121E+01 -0.19516170888E+02  0.29778352562E+01  0.20009780592E+02  0.10566000000E+00 0.  1.
         22    1    1    0    0    0  0.11868009989E+02  0.60244591257E+02 -0.11574130869E+02  0.62483765429E+02  0.00000000000E+00 0. -1.
</event>
<event>
 4    1  0.9925048E-003  0.9118800E+02  0.7818608E-02  0.1130116E+00
         25   -1    0    0    0    0  0.00000000000E+00  0.00000000000E+00  0.99999998245E-14  0.12500000000E+03  0.12500000000E+03 0.  0.
        -13    1    1    0    0    0 -0.61208783587E+01 -0.22307244127E+02 -0.53168877698E+01  0.23735179629E+02  0.10566000000E+00 0.  1.
         13    1    1    0    0    0 -0.13667619389E+02 -0.35075107164E+02 -0.94159213578E+01  0.38803836168E+02  0.10566000000E+00 0. -1.
         22    1    1    0    0    0  0.19788497747E+02  0.57382351291E+02  0.14732809128E+02  0.62460984203E+02  0.00000000000E+00 0. -1.
</event>
<event>
 4    1  0.9925048E-003  0.9118800E+02  0.7818608E-02  0.1130116E+00
         25   -1    0    0    0    0  0.00000000000E+00  0.00000000000E+00  0.99999998245E-14  0.12500000000E+03  0.12500000000E+03 0.  0.
        -13    1    1    0    0    0  0.22018386998E+02 -0.30209840075E+02 -0.37033096358E+02  0.52620387620E+02  0.10566000000E+00 0.  1.
         13    1    1    0    0    0  0.42019162951E+01 -0.56592871851E+01 -0.69224978952E+01  0.98800694906E+01  0.10566000000E+00 0.  1.
         22    1    1    0    0    0 -0.26220303293E+02  0.35869127260E+02  0.43955594254E+02  0.62499542889E+02  0.00000000000E+00 0.  1.
</event>
<event>
 4    1  0.9925048E-003  0.9118800E+02  0.7818608E-02  0.1130116E+00
         25   -1    0    0    0    0  0.00000000000E+00  0.00000000000E+00  0.99999998245E-14  0.12500000000E+03  0.12500000000E+03 0.  0.
        -13    1    1    0    0    0  0.60881168340E+01  0.31050288821E+02  0.22429052190E+02  0.38784779858E+02  0.10566000000E+00 0. -1.
         13    1    1    0    0    0  0.37885940781E+01  0.18940606113E+02  0.13759073342E+02  0.23715464749E+02  0.10566000000E+00 0. -1.
         22    1    1    0    0    0 -0.98767109122E+01 -0.49990894933E+02 -0.36188125532E+02  0.62499755393E+02  0.00000000000E+00 0. -1.
</event>
<event>
 4    1  0.9925048E-003  0.9118800E+02  0.7818608E-02  0.1130116E+00
         25   -1    0    0    0    0  0.00000000000E+00  0.00000000000E+00  0.99999998245E-14  0.12500000000E+03  0.12500000000E+03 0.  0.
        -13    1    1    0    0    0  0.19029411019E+02  0.21285096063E+02  0.29521028969E+02  0.41069162562E+02  0.10566000000E+00 0.  1.
         13    1    1    0    0    0  0.72528178986E+01  0.19295495214E+01  0.21074507058E+02  0.22371243609E+02  0.10566000000E+00 0. -1.
         22    1    1    0    0    0 -0.26282228917E+02 -0.23214645585E+02 -0.50595536027E+02  0.61559593829E+02  0.00000000000E+00 0. -1.
</event>
<event>
 4    1  0.9925048E-003  0.9118800E+02  0.7818608E-02  0.1130116E+00
         25   -1    0    0    0    0  0.00000000000E+00  0.00000000000E+00  0.99999998245E-14  0.12500000000E+03  0.12500000000E+03 0.  0.
        -13    1    1    0    0    0 -0.24043928275E+02 -0.21924350618E+02 -0.21812234144E+02  0.39173618154E+02  0.10566000000E+00 0.  1.
         13    1    1    0    0    0  0.64548239393E+01 -0.17252941208E+02 -0.19083982798E+02  0.26524296332E+02  0.10566000000E+00 0. -1.
         22    1    1    0    0    0  0.17589104335E+02  0.39177291826E+02  0.40896216942E+02  0.59302085514E+02  0.00000000000E+00 0.  1.
</event>
<event>
 4    1  0.9925048E-003  0.9118800E+02  0.7818608E-02  0.1130116E+00
         25   -1    0    0    0    0  0.00000000000E+00  0.00000000000E+00  0.99999998245E-14  0.12500000000E+03  0.12500000000E+03 0.  0.
        -13    1    1    0    0    0  0.12144314398E+02 -0.13465260717E+02 -0.86002240914E+00  0.18153468566E+02  0.10566000000E+00 0.  1.
         13    1    1    0    0    0  0.25255190777E+02 -0.36464588797E+02  0.26684902174E+01  0.44436729194E+02  0.10566000000E+00 0. -1.
         22    1    1    0    0    0 -0.37399505175E+02  0.49929849515E+02 -0.18084678082E+01  0.62409802241E+02  0.00000000000E+00 0. -1.
</event>
<event>
 4    1  0.9925048E-003  0.9118800E+02  0.7818608E-02  0.1130116E+00
         25   -1    0    0    0    0  0.00000000000E+00  0.00000000000E+00  0.99999998245E-14  0.12500000000E+03  0.12500000000E+03 0.  0.
        -13    1    1    0    0    0  0.19283786413E+02 -0.10176317337E+02 -0.16342119875E+02  0.27248814634E+02  0.10566000000E+00 0.  1.
         13    1    1    0    0    0  0.23437637238E+02 -0.16538585346E+02 -0.20563369361E+02  0.35294630867E+02  0.10566000000E+00 0. -1.
         22    1    1    0    0    0 -0.42721423650E+02  0.26714902683E+02  0.36905489236E+02  0.62456554498E+02  0.00000000000E+00 0.  1.
</event>
<event>
 4    1  0.9925048E-003  0.9118800E+02  0.7818608E-02  0.1130116E+00
         25   -1    0    0    0    0  0.00000000000E+00  0.00000000000E+00  0.99999998245E-14  0.12500000000E+03  0.12500000000E+03 0.  0.
        -13    1    1    0    0    0  0.27525881739E+02  0.25252655531E+01  0.65729494863E+01  0.28412426166E+02  0.10566000000E+00 0. -1.
         13    1    1    0    0    0  0.32813134627E+02  0.73112706570E+00  0.92946233022E+01  0.34112131818E+02  0.10566000000E+00 0.  1.
         22    1    1    0    0    0 -0.60339016366E+02 -0.32563926188E+01 -0.15867572788E+02  0.62475442016E+02  0.00000000000E+00 0.  1.
</event>
<event>
 4    1  0.9925048E-003  0.9118800E+02  0.7818608E-02  0.1130116E+00
         25   -1    0    0    0    0  0.00000000000E+00  0.00000000000E+00  0.99999998245E-14  0.12500000000E+03  0.12500000000E+03 0.  0.
        -13    1    1    0    0    0  0.95488329654E+01  0.13688118579E+02 -0.92956470992E+01  0.19104057691E+02  0.10566000000E+00 0. -1.
         13    1    1    0    0    0  0.21271342772E+02  0.31326098829E+02 -0.21200393258E+02  0.43396570481E+02  0.10566000000E+00 0. -1.
         22    1    1    0    0    0 -0.30820175738E+02 -0.45014217408E+02  0.30496040357E+02  0.62499371828E+02  0.00000000000E+00 0. -1.
</event>
<event>
 4    1  0.9925048E-003  0.9118800E+02  0.7818608E-02  0.1130116E+00
         25   -1    0    0    0    0  0.00000000000E+00  0.00000000000E+00  0.99999998245E-14  0.12500000000E+03  0.12500000000E+03 0.  0.
        -13    1    1    0    0    0 -0.27066748681E+02  0.20330653684E+02 -0.60239903375E+01  0.34383775055E+02  0.10566000000E+00 0. -1.
         13    1    1    0    0    0 -0.22035999504E+02  0.16363831197E+02 -0.61303528022E+01  0.28123880157E+02  0.10566000000E+00 0.  1.
         22    1    1    0    0    0  0.49102748185E+02 -0.36694484881E+02  0.12154343140E+02  0.62492344788E+02  0.00000000000E+00 0.  1.
</event>
<event>
 4    1  0.9925048E-003  0.9118800E+02  0.7818608E-02  0.1130116E+00
         25   -1    0    0    0    0  0.00000000000E+00  0.00000000000E+00  0.99999998245E-14  0.12500000000E+03  0.12500000000E+03 0.  0.
        -13    1    1    0    0    0  0.35579595829E+01 -0.72083436804E+01 -0.31059411733E+01  0.86184296490E+01  0.10566000000E+00 0. -1.
         13    1    1    0    0    0  0.22044096821E+02 -0.45309821561E+02 -0.19087828129E+02  0.53882079407E+02  0.10566000000E+00 0. -1.
         22    1    1    0    0    0 -0.25602056403E+02  0.52518165241E+02  0.22193769303E+02  0.62499490944E+02  0.00000000000E+00 0. -1.
</event>
<event>
 4    1  0.9925048E-003  0.9118800E+02  0.7818608E-02  0.1130116E+00
         25   -1    0    0    0    0  0.00000000000E+00  0.00000000000E+00  0.99999998245E-14  0.12500000000E+03  0.12500000000E+03 0.  0.
        -13    1    1    0    0    0  0.14003203488E+02 -0.16491134600E+00 -0.29346865064E+02  0.32517173260E+02  0.10566000000E+00 0.  1.
         13    1    1    0    0    0  0.13304957676E+02 -0.23461017862E+00 -0.26869014769E+02  0.29983863317E+02  0.10566000000E+00 0. -1.
         22    1    1    0    0    0 -0.27308161165E+02  0.39952152462E+00  0.56215879833E+02  0.62498963424E+02  0.00000000000E+00 0. -1.
</event>
<event>
 4    1  0.9925048E-003  0.9118800E+02  0.7818608E-02  0.1130116E+00
         25   -1    0    0    0    0  0.00000000000E+00  0.00000000000E+00  0.99999998245E-14  0.12500000000E+03  0.12500000000E+03 0.  0.
        -13    1    1    0    0    0 -0.31292794341E+02 -0.36028661788E+01  0.22900581817E+02  0.38944414670E+02  0.10566000000E+00 0. -1.
         13    1    1    0    0    0 -0.18788689258E+02 -0.23518556774E+01  0.14012161241E+02  0.23556270839E+02  0.10566000000E+00 0.  1.
         22    1    1    0    0    0  0.50081483599E+02  0.59547218562E+01 -0.36912743058E+02  0.62499314491E+02  0.00000000000E+00 0. -1.
</event>
<event>
 4    1  0.9925048E-003  0.9118800E+02  0.7818608E-02  0.1130116E+00
         25   -1    0    0    0    0  0.00000000000E+00  0.00000000000E+00  0.99999998245E-14  0.12500000000E+03  0.12500000000E+03 0.  0.
        -13    1    1    0    0    0  0.16575412004E+02  0.31720316016E+00  0.15331781388E+02  0.22581399105E+02  0.10566000000E+00 0.  1.
         13    1    1    0    0    0  0.48789331605E+01 -0.34314016195E+02  0.27078531810E+02  0.43983107499E+02  0.10566000000E+00 0. -1.
         22    1    1    0    0    0 -0.21454345165E+02  0.33996813035E+02 -0.42410313198E+02  0.58435493397E+02  0.00000000000E+00 0. -1.
</event>
<event>
 4    1  0.9925048E-003  0.9118800E+02  0.7818608E-02  0.1130116E+00
         25   -1    0    0    0    0  0.00000000000E+00  0.00000000000E+00  0.99999998245E-14  0.12500000000E+03  0.12500000000E+03 0.  0.
        -13    1    1    0    0    0  0.18377293409E+02 -0.32340061876E+02 -0.31099884223E+02  0.48485239794E+02  0.10566000000E+00 0. -1.
         13    1    1    0    0    0 -0.71885796123E+00 -0.65132676495E+01 -0.13363276868E+02  0.14883808146E+02  0.10566000000E+00 0.  1.
         22    1    1    0    0    0 -0.17658435448E+02  0.38853329525E+02  0.44463161091E+02  0.61630952060E+02  0.00000000000E+00 0. -1.
</event>
<event>
 4    1  0.9925048E-003  0.9118800E+02  0.7818608E-02  0.1130116E+00
         25   -1    0    0    0    0  0.00000000000E+00  0.00000000000E+00  0.99999998245E-14  0.12500000000E+03  0.12500000000E+03 0.  0.
        -13    1    1    0    0    0  0.12391364276E+02 -0.23440226343E+01 -0.74220446226E+01  0.14633463744E+02  0.10566000000E+00 0. -1.
         13    1    1    0    0    0  0.40396471182E+02 -0.81837990611E+01 -0.24339317009E+02  0.47867138702E+02  0.10566000000E+00 0. -1.
         22    1    1    0    0    0 -0.52787835458E+02  0.10527821695E+02  0.31761361632E+02  0.62499397554E+02  0.00000000000E+00 0. -1.
</event>
<event>
 4    1  0.9925048E-003  0.9118800E+02  0.7818608E-02  0.1130116E+00
         25   -1    0    0    0    0  0.00000000000E+00  0.00000000000E+00  0.99999998245E-14  0.12500000000E+03  0.12500000000E+03 0.  0.
        -13    1    1    0    0    0  0.42852500759E+02  0.31415061082E+00  0.13334005617E+02  0.44880311738E+02  0.10566000000E+00 0.  1.
         13    1    1    0    0    0  0.15606302119E+02  0.91088720058E+01  0.38238379896E+01  0.18470547259E+02  0.10566000000E+00 0. -1.
         22    1    1    0    0    0 -0.58458802878E+02 -0.94230226166E+01 -0.17157843606E+02  0.61649141003E+02  0.00000000000E+00 0. -1.
</event>
<event>
 4    1  0.9925048E-003  0.9118800E+02  0.7818608E-02  0.1130116E+00
         25   -1    0    0    0    0  0.00000000000E+00  0.00000000000E+00  0.99999998245E-14  0.12500000000E+03  0.12500000000E+03 0.  0.
        -13    1    1    0    0    0  0.88609012869E+01 -0.58598268661E+01 -0.41381926528E+01  0.11401269446E+02  0.10566000000E+00 0. -1.
         13    1    1    0    0    0 -0.52004695202E+01  0.51665374563E+02 -0.26571311190E+02  0.58330108472E+02  0.10566000000E+00 0.  1.
         22    1    1    0    0    0 -0.36604317668E+01 -0.45805547697E+02  0.30709503843E+02  0.55268622082E+02  0.00000000000E+00 0.  1.
</event>
<event>
 4    1  0.9925048E-003  0.9118800E+02  0.7818608E-02  0.1130116E+00
         25   -1    0    0    0    0  0.00000000000E+00  0.00000000000E+00  0.99999998245E-14  0.12500000000E+03  0.12500000000E+03 0.  0.
        -13    1    1    0    0    0  0.27718989240E+02 -0.12192115010E+02 -0.17357979321E+02  0.34904163693E+02  0.10566000000E+00 0. -1.
         13    1    1    0    0    0 -0.23753371941E+00  0.43721656798E+02  0.20222720206E+02  0.48172702560E+02  0.10566000000E+00 0.  1.
         22    1    1    0    0    0 -0.27481455521E+02 -0.31529541787E+02 -0.28647408848E+01  0.41923133747E+02  0.00000000000E+00 0. -1.
</event>
<event>
 4    1  0.9925048E-003  0.9118800E+02  0.7818608E-02  0.1130116E+00
         25   -1    0    0    0    0  0.00000000000E+00  0.00000000000E+00  0.99999998245E-14  0.12500000000E+03  0.12500000000E+03 0.  0.
        -13    1    1    0    0    0  0.76125594414E+01 -0.33785442647E+02 -0.16423934898E+01  0.34671541883E+02  0.10566000000E+00 0.  1.
         13    1    1    0    0    0 -0.56926206401E+01 -0.25818574128E+02  0.13251689905E+02  0.29574028287E+02  0.10566000000E+00 0. -1.
         22    1    1    0    0    0 -0.19199388013E+01  0.59604016775E+02 -0.11609296415E+02  0.60754429830E+02  0.00000000000E+00 0.  1.
</event>
<event>
 4    1  0.9925048E-003  0.9118800E+02  0.7818608E-02  0.1130116E+00
         25   -1    0    0    0    0  0.00000000000E+00  0.00000000000E+00  0.99999998245E-14  0.12500000000E+03  0.12500000000E+03 0.  0.
        -13    1    1    0    0    0 -0.28583119115E+02  0.15154521780E+02  0.35975851180E+02  0.48383129920E+02  0.10566000000E+00 0.  1.
         13    1    1    0    0    0 -0.81907517489E+01  0.45141031578E+01  0.10575008179E+02  0.14117630947E+02  0.10566000000E+00 0.  1.
         22    1    1    0    0    0  0.36773870863E+02 -0.19668624937E+02 -0.46550859359E+02  0.62499239133E+02  0.00000000000E+00 0.  1.
</event>
<event>
 4    1  0.9925048E-003  0.9118800E+02  0.7818608E-02  0.1130116E+00
         25   -1    0    0    0    0  0.00000000000E+00  0.00000000000E+00  0.99999998245E-14  0.12500000000E+03  0.12500000000E+03 0.  0.
        -13    1    1    0    0    0  0.14496996366E+02  0.62170339684E+01  0.76974010029E+01  0.17552081393E+02  0.10566000000E+00 0.  1.
         13    1    1    0    0    0  0.36993162130E+02  0.16164003969E+02  0.19762745774E+02  0.44948263072E+02  0.10566000000E+00 0. -1.
         22    1    1    0    0    0 -0.51490158495E+02 -0.22381037937E+02 -0.27460146776E+02  0.62499655535E+02  0.00000000000E+00 0. -1.
</event>
<event>
 4    1  0.9925048E-003  0.9118800E+02  0.7818608E-02  0.1130116E+00
         25   -1    0    0    0    0  0.00000000000E+00  0.00000000000E+00  0.99999998245E-14  0.12500000000E+03  0.12500000000E+03 0.  0.
        -13    1    1    0    0    0  0.61453616932E+01 -0.10213170418E+02  0.57096824289E+01  0.13216881546E+02  0.10566000000E+00 0. -1.
         13    1    1    0    0    0  0.47559674956E+02 -0.14231263995E+02  0.10176281858E+02  0.50675629579E+02  0.10566000000E+00 0.  1.
         22    1    1    0    0    0 -0.53705036649E+02  0.24444434413E+02 -0.15885964287E+02  0.61107488874E+02  0.00000000000E+00 0.  1.
</event>
<event>
 4    1  0.9925048E-003  0.9118800E+02  0.7818608E-02  0.1130116E+00
         25   -1    0    0    0    0  0.00000000000E+00  0.00000000000E+00  0.99999998245E-14  0.12500000000E+03  0.12500000000E+03 0.  0.
        -13    1    1    0    0    0  0.16156529203E+02  0.18606588927E+02 -0.19498627001E+02  0.31423656794E+02  0.10566000000E+00 0.  1.
         13    1    1    0    0    0  0.10937173464E+02  0.19714936026E+02 -0.21577691349E+02  0.31207505409E+02  0.10566000000E+00 0. -1.
         22    1    1    0    0    0 -0.27093702667E+02 -0.38321524953E+02  0.41076318350E+02  0.62368837796E+02  0.00000000000E+00 0.  1.
</event>
<event>
 4    1  0.9925048E-003  0.9118800E+02  0.7818608E-02  0.1130116E+00
         25   -1    0    0    0    0  0.00000000000E+00  0.00000000000E+00  0.99999998245E-14  0.12500000000E+03  0.12500000000E+03 0.  0.
        -13    1    1    0    0    0 -0.18382930839E+02 -0.13131323960E+02 -0.22536864409E+02  0.31910581890E+02  0.10566000000E+00 0. -1.
         13    1    1    0    0    0 -0.24628157402E+02 -0.50860438807E+01 -0.18254719156E+02  0.31075069025E+02  0.10566000000E+00 0.  1.
         22    1    1    0    0    0  0.43011088241E+02  0.18217367841E+02  0.40791583564E+02  0.62014349085E+02  0.00000000000E+00 0.  1.
</event>
<event>
 4    1  0.9925048E-003  0.9118800E+02  0.7818608E-02  0.1130116E+00
         25   -1    0    0    0    0  0.00000000000E+00  0.00000000000E+00  0.99999998245E-14  0.12500000000E+03  0.12500000000E+03 0.  0.
        -13    1    1    0    0    0  0.28533619217E+02 -0.14125583958E+02  0.12837585425E+02  0.34329496229E+02  0.10566000000E+00 0. -1.
         13    1    1    0    0    0  0.22736688282E+02 -0.92175209989E+01  0.14024299251E+02  0.28259720822E+02  0.10566000000E+00 0.  1.
         22    1    1    0    0    0 -0.51270307499E+02  0.23343104957E+02 -0.26861884676E+02  0.62410782950E+02  0.00000000000E+00 0.  1.
</event>
<event>
 4    1  0.9925048E-003  0.9118800E+02  0.7818608E-02  0.1130116E+00
         25   -1    0    0    0    0  0.00000000000E+00  0.00000000000E+00  0.99999998245E-14  0.12500000000E+03  0.12500000000E+03 0.  0.
        -13    1    1    0    0    0  0.24666965965E+01  0.11460422459E+02  0.21414299548E+01  0.11917330293E+02  0.10566000000E+00 0.  1.
         13    1    1    0    0    0  0.13752669823E+02  0.47690695543E+02  0.98107073368E+01  0.50594461269E+02  0.10566000000E+00 0. -1.
         22    1    1    0    0    0 -0.16219366419E+02 -0.59151118002E+02 -0.11952137292E+02  0.62488208438E+02  0.00000000000E+00 0. -1.
</event>
<event>
 4    1  0.9925048E-003  0.9118800E+02  0.7818608E-02  0.1130116E+00
         25   -1    0    0    0    0  0.00000000000E+00  0.00000000000E+00  0.99999998245E-14  0.12500000000E+03  0.12500000000E+03 0.  0.
        -13    1    1    0    0    0  0.48186340096E+02  0.22163647161E+02  0.90940628733E+01  0.53813230445E+02  0.10566000000E+00 0.  1.
         13    1    1    0    0    0  0.78028886976E+01  0.34732787337E+01  0.15866844463E+01  0.86877769744E+01  0.10566000000E+00 0.  1.
         22    1    1    0    0    0 -0.55989228794E+02 -0.25636925895E+02 -0.10680747320E+02  0.62498992580E+02  0.00000000000E+00 0.  1.
</event>
<event>
 4    1  0.9925048E-003  0.9118800E+02  0.7818608E-02  0.1130116E+00
         25   -1    0    0    0    0  0.00000000000E+00  0.00000000000E+00  0.99999998245E-14  0.12500000000E+03  0.12500000000E+03 0.  0.
        -13    1    1    0    0    0 -0.22597721078E+02  0.55285414287E+01  0.54420149380E+02  0.59184335688E+02  0.10566000000E+00 0.  1.
         13    1    1    0    0    0 -0.28341616350E+01  0.49656770841E+00  0.20876121098E+01  0.35564504803E+01  0.10566000000E+00 0. -1.
         22    1    1    0    0    0  0.25431882713E+02 -0.60251091371E+01 -0.56507761489E+02  0.62259213832E+02  0.00000000000E+00 0.  1.
</event>
<event>
 4    1  0.9925048E-003  0.9118800E+02  0.7818608E-02  0.1130116E+00
         25   -1    0    0    0    0  0.00000000000E+00  0.00000000000E+00  0.99999998245E-14  0.12500000000E+03  0.12500000000E+03 0.  0.
        -13    1    1    0    0    0  0.31223510893E+02 -0.50065992746E+01  0.51034663066E+02  0.60037668735E+02  0.10566000000E+00 0. -1.
         13    1    1    0    0    0  0.15668041513E+01 -0.32612390841E+00  0.18876522143E+01  0.24770197758E+01  0.10566000000E+00 0.  1.
         22    1    1    0    0    0 -0.32790315045E+02  0.53327231830E+01 -0.52922315281E+02  0.62485311489E+02  0.00000000000E+00 0. -1.
</event>
<event>
 4    1  0.9925048E-003  0.9118800E+02  0.7818608E-02  0.1130116E+00
         25   -1    0    0    0    0  0.00000000000E+00  0.00000000000E+00  0.99999998245E-14  0.12500000000E+03  0.12500000000E+03 0.  0.
        -13    1    1    0    0    0  0.32155930001E+02 -0.37481597882E+02 -0.21354408506E+02  0.53804237200E+02  0.10566000000E+00 0.  1.
         13    1    1    0    0    0  0.53477953958E+01 -0.58830717981E+01 -0.35252570684E+01  0.86975887929E+01  0.10566000000E+00 0.  1.
         22    1    1    0    0    0 -0.37503725397E+02  0.43364669680E+02  0.24879665574E+02  0.62498174007E+02  0.00000000000E+00 0.  1.
</event>
<event>
 4    1  0.9925048E-003  0.9118800E+02  0.7818608E-02  0.1130116E+00
         25   -1    0    0    0    0  0.00000000000E+00  0.00000000000E+00  0.99999998245E-14  0.12500000000E+03  0.12500000000E+03 0.  0.
        -13    1    1    0    0    0  0.55845166212E+02 -0.49722746556E+01  0.14398210903E+01  0.56084671286E+02  0.10566000000E+00 0.  1.
         13    1    1    0    0    0  0.56324214736E+01 -0.25969126069E+01 -0.31349532615E+01  0.69503397565E+01  0.10566000000E+00 0. -1.
         22    1    1    0    0    0 -0.61477587685E+02  0.75691872625E+01  0.16951321712E+01  0.61964988957E+02  0.00000000000E+00 0.  1.
</event>
<event>
 4    1  0.9925048E-003  0.9118800E+02  0.7818608E-02  0.1130116E+00
         25   -1    0    0    0    0  0.00000000000E+00  0.00000000000E+00  0.99999998245E-14  0.12500000000E+03  0.12500000000E+03 0.  0.
        -13    1    1    0    0    0 -0.17386774769E+02 -0.18653893282E+02  0.18528978904E+02  0.31521451342E+02  0.10566000000E+00 0. -1.
         13    1    1    0    0    0 -0.22286893054E+02 -0.20180759241E+02  0.91723688723E+01  0.31434251388E+02  0.10566000000E+00 0.  1.
         22    1    1    0    0    0  0.39673667823E+02  0.38834652523E+02 -0.27701347776E+02  0.62044297270E+02  0.00000000000E+00 0. -1.
</event>
<event>
 4    1  0.9925048E-003  0.9118800E+02  0.7818608E-02  0.1130116E+00
         25   -1    0    0    0    0  0.00000000000E+00  0.00000000000E+00  0.99999998245E-14  0.12500000000E+03  0.12500000000E+03 0.  0.
        -13    1    1    0    0    0  0.32058503452E+01 -0.77676970727E+01 -0.40666321579E+02  0.41525600165E+02  0.10566000000E+00 0. -1.
         13    1    1    0    0    0  0.17008946567E+01 -0.30106296429E+01 -0.20694266370E+02  0.20981438418E+02  0.10566000000E+00 0.  1.
         22    1    1    0    0    0 -0.49067450020E+01  0.10778326716E+02  0.61360587948E+02  0.62492961417E+02  0.00000000000E+00 0. -1.
</event>
<event>
 4    1  0.9925048E-003  0.9118800E+02  0.7818608E-02  0.1130116E+00
         25   -1    0    0    0    0  0.00000000000E+00  0.00000000000E+00  0.99999998245E-14  0.12500000000E+03  0.12500000000E+03 0.  0.
        -13    1    1    0    0    0  0.47456350235E+02 -0.97980316350E+01 -0.24122211908E+02  0.54129464000E+02  0.10566000000E+00 0. -1.
         13    1    1    0    0    0  0.73614353771E+01 -0.17606444062E+01 -0.35786630076E+01  0.83730873931E+01  0.10566000000E+00 0.  1.
         22    1    1    0    0    0 -0.54817785612E+02  0.11558676041E+02  0.27700874916E+02  0.62497448607E+02  0.00000000000E+00 0. -1.
</event>
<event>
 4    1  0.9925048E-003  0.9118800E+02  0.7818608E-02  0.1130116E+00
         25   -1    0    0    0    0  0.00000000000E+00  0.00000000000E+00  0.99999998245E-14  0.12500000000E+03  0.12500000000E+03 0.  0.
        -13    1    1    0    0    0  0.39916330552E+02  0.98816475527E+01  0.24830497883E+02  0.48036706718E+02  0.10566000000E+00 0. -1.
         13    1    1    0    0    0  0.44362117452E+01  0.15173307046E+01  0.15344012238E+02  0.16044692042E+02  0.10566000000E+00 0.  1.
         22    1    1    0    0    0 -0.44352542298E+02 -0.11398978257E+02 -0.40174510121E+02  0.60918601240E+02  0.00000000000E+00 0. -1.
</event>
<event>
 4    1  0.9925048E-003  0.9118800E+02  0.7818608E-02  0.1130116E+00
         25   -1    0    0    0    0  0.00000000000E+00  0.00000000000E+00  0.99999998245E-14  0.12500000000E+03  0.12500000000E+03 0.  0.
        -13    1    1    0    0    0 -0.12280970103E+02 -0.24584873886E+02 -0.25526959386E+02  0.37508333344E+02  0.10566000000E+00 0. -1.
         13    1    1    0    0    0 -0.86587484251E+01 -0.15843138609E+02 -0.17285262367E+02  0.24995408066E+02  0.10566000000E+00 0. -1.
         22    1    1    0    0    0  0.20939718528E+02  0.40428012495E+02  0.42812221753E+02  0.62496258590E+02  0.00000000000E+00 0. -1.
</event>
<event>
 4    1  0.9925048E-003  0.9118800E+02  0.7818608E-02  0.1130116E+00
         25   -1    0    0    0    0  0.00000000000E+00  0.00000000000E+00  0.99999998245E-14  0.12500000000E+03  0.12500000000E+03 0.  0.
        -13    1    1    0    0    0  0.19239734227E+01  0.15370507288E+01 -0.12364051104E+01  0.27575460661E+01  0.10566000000E+00 0.  1.
         13    1    1    0    0    0  0.46107066296E+02  0.28503072220E+02 -0.25139389038E+02  0.59751876403E+02  0.10566000000E+00 0. -1.
         22    1    1    0    0    0 -0.48031039719E+02 -0.30040122948E+02  0.26375794148E+02  0.62490577531E+02  0.00000000000E+00 0. -1.
</event>
<event>
 4    1  0.9925048E-003  0.9118800E+02  0.7818608E-02  0.1130116E+00
         25   -1    0    0    0    0  0.00000000000E+00  0.00000000000E+00  0.99999998245E-14  0.12500000000E+03  0.12500000000E+03 0.  0.
        -13    1    1    0    0    0 -0.40055995477E-01  0.14416644480E+02 -0.88274054749E+01  0.16904895563E+02  0.10566000000E+00 0. -1.
         13    1    1    0    0    0  0.18652372339E+02  0.30226813762E+02 -0.29666988958E+02  0.46278641530E+02  0.10566000000E+00 0.  1.
         22    1    1    0    0    0 -0.18612316343E+02 -0.44643458242E+02  0.38494394433E+02  0.61816462906E+02  0.00000000000E+00 0.  1.
</event>
<event>
 4    1  0.9925048E-003  0.9118800E+02  0.7818608E-02  0.1130116E+00
         25   -1    0    0    0    0  0.00000000000E+00  0.00000000000E+00  0.99999998245E-14  0.12500000000E+03  0.12500000000E+03 0.  0.
        -13    1    1    0    0    0 -0.27028582737E+02  0.40429210537E+02 -0.12135692887E+01  0.48647191737E+02  0.10566000000E+00 0.  1.
         13    1    1    0    0    0 -0.96266262272E+01  0.10012542595E+02 -0.12831578122E+01  0.13949215022E+02  0.10566000000E+00 0. -1.
         22    1    1    0    0    0  0.36655208964E+02 -0.50441753132E+02  0.24967271010E+01  0.62403593241E+02  0.00000000000E+00 0.  1.
</event>
<event>
 4    1  0.9925048E-003  0.9118800E+02  0.7818608E-02  0.1130116E+00
         25   -1    0    0    0    0  0.00000000000E+00  0.00000000000E+00  0.99999998245E-14  0.12500000000E+03  0.12500000000E+03 0.  0.
        -13    1    1    0    0    0 -0.48847940084E+01 -0.20387642658E+02  0.54240907745E+02  0.58151564232E+02  0.10566000000E+00 0.  1.
         13    1    1    0    0    0 -0.33080100908E+00 -0.14234569574E+01  0.40956205025E+01  0.43498195771E+01  0.10566000000E+00 0. -1.
         22    1    1    0    0    0  0.52155950175E+01  0.21811099615E+02 -0.58336528247E+02  0.62498616191E+02  0.00000000000E+00 0.  1.
</event>
<event>
 4    1  0.9925048E-003  0.9118800E+02  0.7818608E-02  0.1130116E+00
         25   -1    0    0    0    0  0.00000000000E+00  0.00000000000E+00  0.99999998245E-14  0.12500000000E+03  0.12500000000E+03 0.  0.
        -13    1    1    0    0    0  0.12083987413E+02  0.11680873464E+02  0.27136506457E+01  0.17024706180E+02  0.10566000000E+00 0.  1.
         13    1    1    0    0    0  0.40809263068E+02 -0.14057650568E+02  0.23226964599E+02  0.49015472457E+02  0.10566000000E+00 0. -1.
         22    1    1    0    0    0 -0.52893250481E+02  0.23767771048E+01 -0.25940615245E+02  0.58959821363E+02  0.00000000000E+00 0. -1.
</event>
<event>
 4    1  0.9925048E-003  0.9118800E+02  0.7818608E-02  0.1130116E+00
         25   -1    0    0    0    0  0.00000000000E+00  0.00000000000E+00  0.99999998245E-14  0.12500000000E+03  0.12500000000E+03 0.  0.
        -13    1    1    0    0    0  0.20176730779E+02 -0.24334679132E+02  0.10173248940E+02  0.33208180189E+02  0.10566000000E+00 0. -1.
         13    1    1    0    0    0  0.15930145297E+02 -0.21439097523E+02  0.12176197825E+02  0.29354307849E+02  0.10566000000E+00 0.  1.
         22    1    1    0    0    0 -0.36106876076E+02  0.45773776656E+02 -0.22349446765E+02  0.62437511962E+02  0.00000000000E+00 0. -1.
</event>
<event>
 4    1  0.9925048E-003  0.9118800E+02  0.7818608E-02  0.1130116E+00
         25   -1    0    0    0    0  0.00000000000E+00  0.00000000000E+00  0.99999998245E-14  0.12500000000E+03  0.12500000000E+03 0.  0.
        -13    1    1    0    0    0 -0.12161697972E+01 -0.15112244757E+02 -0.14870738077E+02  0.21236973079E+02  0.10566000000E+00 0. -1.
         13    1    1    0    0    0 -0.18954357512E+01 -0.29235518655E+02 -0.29058198946E+02  0.41263765191E+02  0.10566000000E+00 0. -1.
         22    1    1    0    0    0  0.31116055484E+01  0.44347763412E+02  0.43928937024E+02  0.62499261730E+02  0.00000000000E+00 0. -1.
</event>
<event>
 4    1  0.9925048E-003  0.9118800E+02  0.7818608E-02  0.1130116E+00
         25   -1    0    0    0    0  0.00000000000E+00  0.00000000000E+00  0.99999998245E-14  0.12500000000E+03  0.12500000000E+03 0.  0.
        -13    1    1    0    0    0  0.70753091383E+01 -0.35553312771E+00 -0.32797197890E+01  0.78073125426E+01  0.10566000000E+00 0.  1.
         13    1    1    0    0    0  0.53233125670E+02 -0.11766595991E+02 -0.65043668211E+01  0.54904793977E+02  0.10566000000E+00 0. -1.
         22    1    1    0    0    0 -0.60308434809E+02  0.12122129119E+02  0.97840866101E+01  0.62287893481E+02  0.00000000000E+00 0. -1.
</event>
<event>
 4    1  0.9925048E-003  0.9118800E+02  0.7818608E-02  0.1130116E+00
         25   -1    0    0    0    0  0.00000000000E+00  0.00000000000E+00  0.99999998245E-14  0.12500000000E+03  0.12500000000E+03 0.  0.
        -13    1    1    0    0    0  0.15284159228E+01 -0.71268878944E+01 -0.30600058213E+01  0.79059082940E+01  0.10566000000E+00 0.  1.
         13    1    1    0    0    0 -0.15366582319E+02 -0.20934839357E+02 -0.49515788201E+02  0.55912644333E+02  0.10566000000E+00 0. -1.
         22    1    1    0    0    0  0.13838166396E+02  0.28061727252E+02  0.52575794022E+02  0.61181447373E+02  0.00000000000E+00 0. -1.
</event>
<event>
 4    1  0.9925048E-003  0.9118800E+02  0.7818608E-02  0.1130116E+00
         25   -1    0    0    0    0  0.00000000000E+00  0.00000000000E+00  0.99999998245E-14  0.12500000000E+03  0.12500000000E+03 0.  0.
        -13    1    1    0    0    0 -0.35200527324E+01  0.15579752302E+02 -0.11637112207E+02  0.19762413759E+02  0.10566000000E+00 0. -1.
         13    1    1    0    0    0 -0.74076002579E+01  0.34253778495E+02 -0.24463206262E+02  0.42739367185E+02  0.10566000000E+00 0.  1.
         22    1    1    0    0    0  0.10927652990E+02 -0.49833530797E+02  0.36100318469E+02  0.62498219056E+02  0.00000000000E+00 0.  1.
</event>
<event>
 4    1  0.9925048E-003  0.9118800E+02  0.7818608E-02  0.1130116E+00
         25   -1    0    0    0    0  0.00000000000E+00  0.00000000000E+00  0.99999998245E-14  0.12500000000E+03  0.12500000000E+03 0.  0.
        -13    1    1    0    0    0  0.42717819154E+02  0.28838672726E+02 -0.57121840615E+00  0.51544335987E+02  0.10566000000E+00 0. -1.
         13    1    1    0    0    0  0.26326929743E+01  0.11307102372E+02 -0.49838216430E+01  0.12634527239E+02  0.10566000000E+00 0.  1.
         22    1    1    0    0    0 -0.45350512128E+02 -0.40145775098E+02  0.55550400492E+01  0.60821136774E+02  0.00000000000E+00 0.  1.
</event>
<event>
 4    1  0.9925048E-003  0.9118800E+02  0.7818608E-02  0.1130116E+00
         25   -1    0    0    0    0  0.00000000000E+00  0.00000000000E+00  0.99999998245E-14  0.12500000000E+03  0.12500000000E+03 0.  0.
        -13    1    1    0    0    0  0.12443748534E+01  0.63758778481E+01  0.18613556870E+01  0.67584092906E+01  0.10566000000E+00 0. -1.
         13    1    1    0    0    0 -0.15220276985E+02  0.46014659790E+02  0.28371413463E+02  0.56160074902E+02  0.10566000000E+00 0.  1.
         22    1    1    0    0    0  0.13975902132E+02 -0.52390537638E+02 -0.30232769150E+02  0.62081515807E+02  0.00000000000E+00 0.  1.
</event>
<event>
 4    1  0.9925048E-003  0.9118800E+02  0.7818608E-02  0.1130116E+00
         25   -1    0    0    0    0  0.00000000000E+00  0.00000000000E+00  0.99999998245E-14  0.12500000000E+03  0.12500000000E+03 0.  0.
        -13    1    1    0    0    0  0.21471723747E+02 -0.45893631107E+02 -0.14171405150E+02  0.52612737857E+02  0.10566000000E+00 0.  1.
         13    1    1    0    0    0  0.44672515166E+01 -0.79057322239E+01 -0.40502079683E+01  0.99434544667E+01  0.10566000000E+00 0. -1.
         22    1    1    0    0    0 -0.25938975264E+02  0.53799363331E+02  0.18221613118E+02  0.62443807677E+02  0.00000000000E+00 0.  1.
</event>
<event>
 4    1  0.9925048E-003  0.9118800E+02  0.7818608E-02  0.1130116E+00
         25   -1    0    0    0    0  0.00000000000E+00  0.00000000000E+00  0.99999998245E-14  0.12500000000E+03  0.12500000000E+03 0.  0.
        -13    1    1    0    0    0  0.34892257963E+02 -0.22811083612E+02  0.10296218510E+02  0.42939940393E+02  0.10566000000E+00 0.  1.
         13    1    1    0    0    0  0.15691473287E+02 -0.10774139691E+02  0.45126331711E+01  0.19562194207E+02  0.10566000000E+00 0. -1.
         22    1    1    0    0    0 -0.50583731250E+02  0.33585223303E+02 -0.14808851681E+02  0.62497865400E+02  0.00000000000E+00 0.  1.
</event>
<event>
 4    1  0.9925048E-003  0.9118800E+02  0.7818608E-02  0.1130116E+00
         25   -1    0    0    0    0  0.00000000000E+00  0.00000000000E+00  0.99999998245E-14  0.12500000000E+03  0.12500000000E+03 0.  0.
        -13    1    1    0    0    0 -0.14599868169E+01 -0.40495732631E+00  0.25693673980E+01  0.29846883930E+01  0.10566000000E+00 0. -1.
         13    1    1    0    0    0 -0.23867526487E+01  0.13345266417E+02  0.58203218396E+02  0.59761346368E+02  0.10566000000E+00 0.  1.
         22    1    1    0    0    0  0.38467394656E+01 -0.12940309091E+02 -0.60772585794E+02  0.62253965239E+02  0.00000000000E+00 0.  1.
</event>
<event>
 4    1  0.9925048E-003  0.9118800E+02  0.7818608E-02  0.1130116E+00
         25   -1    0    0    0    0  0.00000000000E+00  0.00000000000E+00  0.99999998245E-14  0.12500000000E+03  0.12500000000E+03 0.  0.
        -13    1    1    0    0    0  0.78244375014E+01  0.20734704801E+01  0.80900114167E+01  0.11444673469E+02  0.10566000000E+00 0.  1.
         13    1    1    0    0    0  0.39160072528E+02  0.21525183431E+02  0.25221993461E+02  0.51312814387E+02  0.10566000000E+00 0. -1.
         22    1    1    0    0    0 -0.46984510029E+02 -0.23598653911E+02 -0.33312004878E+02  0.62242512145E+02  0.00000000000E+00 0. -1.
</event>
<event>
 4    1  0.9925048E-003  0.9118800E+02  0.7818608E-02  0.1130116E+00
         25   -1    0    0    0    0  0.00000000000E+00  0.00000000000E+00  0.99999998245E-14  0.12500000000E+03  0.12500000000E+03 0.  0.
        -13    1    1    0    0    0  0.98825737918E+01  0.28066045165E+02 -0.29067644927E+02  0.41596962648E+02  0.10566000000E+00 0.  1.
         13    1    1    0    0    0  0.59306265934E+01  0.13481759215E+02 -0.14847952243E+02  0.20914182106E+02  0.10566000000E+00 0. -1.
         22    1    1    0    0    0 -0.15813200385E+02 -0.41547804380E+02  0.43915597169E+02  0.62488855246E+02  0.00000000000E+00 0.  1.
</event>
<event>
 4    1  0.9925048E-003  0.9118800E+02  0.7818608E-02  0.1130116E+00
         25   -1    0    0    0    0  0.00000000000E+00  0.00000000000E+00  0.99999998245E-14  0.12500000000E+03  0.12500000000E+03 0.  0.
        -13    1    1    0    0    0 -0.50654688244E+01 -0.67486823347E+01  0.35282551331E+02  0.36277724297E+02  0.10566000000E+00 0. -1.
         13    1    1    0    0    0 -0.53133501271E+01 -0.26004487177E+01  0.25591274873E+02  0.26266300401E+02  0.10566000000E+00 0.  1.
         22    1    1    0    0    0  0.10378818952E+02  0.93491310524E+01 -0.60873826204E+02  0.62455975302E+02  0.00000000000E+00 0. -1.
</event>
<event>
 4    1  0.9925048E-003  0.9118800E+02  0.7818608E-02  0.1130116E+00
         25   -1    0    0    0    0  0.00000000000E+00  0.00000000000E+00  0.99999998245E-14  0.12500000000E+03  0.12500000000E+03 0.  0.
        -13    1    1    0    0    0 -0.66829323738E+01  0.68653371112E+01 -0.19656531861E+02  0.21867438067E+02  0.10566000000E+00 0. -1.
         13    1    1    0    0    0 -0.12238371187E+02  0.12908436332E+02 -0.36532370448E+02  0.40632877236E+02  0.10566000000E+00 0. -1.
         22    1    1    0    0    0  0.18921303561E+02 -0.19773773443E+02  0.56188902309E+02  0.62499684698E+02  0.00000000000E+00 0. -1.
</event>
<event>
 4    1  0.9925048E-003  0.9118800E+02  0.7818608E-02  0.1130116E+00
         25   -1    0    0    0    0  0.00000000000E+00  0.00000000000E+00  0.99999998245E-14  0.12500000000E+03  0.12500000000E+03 0.  0.
        -13    1    1    0    0    0 -0.10147979417E+02  0.55596484627E+02  0.94872643155E+01  0.57305932828E+02  0.10566000000E+00 0.  1.
         13    1    1    0    0    0 -0.40352646548E+01  0.28855296923E+01  0.35746505925E+01  0.61154667306E+01  0.10566000000E+00 0. -1.
         22    1    1    0    0    0  0.14183244072E+02 -0.58482014319E+02 -0.13061914908E+02  0.61578600441E+02  0.00000000000E+00 0.  1.
</event>
<event>
 4    1  0.9925048E-003  0.9118800E+02  0.7818608E-02  0.1130116E+00
         25   -1    0    0    0    0  0.00000000000E+00  0.00000000000E+00  0.99999998245E-14  0.12500000000E+03  0.12500000000E+03 0.  0.
        -13    1    1    0    0    0  0.40385479363E+00 -0.53222295814E+00  0.47682486226E+02  0.47687283595E+02  0.10566000000E+00 0.  1.
         13    1    1    0    0    0 -0.96380259927E+00 -0.15901329281E+01  0.14737216727E+02  0.14854432304E+02  0.10566000000E+00 0. -1.
         22    1    1    0    0    0  0.55994780564E+00  0.21223558863E+01 -0.62419702953E+02  0.62458284101E+02  0.00000000000E+00 0.  1.
</event>
<event>
 4    1  0.9925048E-003  0.9118800E+02  0.7818608E-02  0.1130116E+00
         25   -1    0    0    0    0  0.00000000000E+00  0.00000000000E+00  0.99999998245E-14  0.12500000000E+03  0.12500000000E+03 0.  0.
        -13    1    1    0    0    0 -0.59665653448E+01 -0.16914906110E+02  0.11038975170E+02  0.21061436028E+02  0.10566000000E+00 0. -1.
         13    1    1    0    0    0 -0.92890584380E+01 -0.35513310547E+02  0.19300686534E+02  0.41472997208E+02  0.10566000000E+00 0.  1.
         22    1    1    0    0    0  0.15255623783E+02  0.52428216657E+02 -0.30339661705E+02  0.62465566764E+02  0.00000000000E+00 0.  1.
</event>
<event>
 4    1  0.9925048E-003  0.9118800E+02  0.7818608E-02  0.1130116E+00
         25   -1    0    0    0    0  0.00000000000E+00  0.00000000000E+00  0.99999998245E-14  0.12500000000E+03  0.12500000000E+03 0.  0.
        -13    1    1    0    0    0 -0.22315915835E+02 -0.30476050707E+02 -0.16618339864E+02  0.41267058899E+02  0.10566000000E+00 0. -1.
         13    1    1    0    0    0 -0.11975193532E+02 -0.18043785798E+02  0.10308462450E+02  0.23984558119E+02  0.10566000000E+00 0.  1.
         22    1    1    0    0    0  0.34291109367E+02  0.48519836505E+02  0.63098774143E+01  0.59748382983E+02  0.00000000000E+00 0. -1.
</event>
<event>
 4    1  0.9925048E-003  0.9118800E+02  0.7818608E-02  0.1130116E+00
         25   -1    0    0    0    0  0.00000000000E+00  0.00000000000E+00  0.99999998245E-14  0.12500000000E+03  0.12500000000E+03 0.  0.
        -13    1    1    0    0    0  0.13045190413E+00 -0.10773524884E+02 -0.24951197003E+02  0.27178286407E+02  0.10566000000E+00 0.  1.
         13    1    1    0    0    0 -0.14459646191E+00 -0.13708228664E+02 -0.32553529987E+02  0.35322512933E+02  0.10566000000E+00 0.  1.
         22    1    1    0    0    0  0.14144557781E-01  0.24481753549E+02  0.57504726990E+02  0.62499200660E+02  0.00000000000E+00 0.  1.
</event>
<event>
 4    1  0.9925048E-003  0.9118800E+02  0.7818608E-02  0.1130116E+00
         25   -1    0    0    0    0  0.00000000000E+00  0.00000000000E+00  0.99999998245E-14  0.12500000000E+03  0.12500000000E+03 0.  0.
        -13    1    1    0    0    0  0.16287979187E+02 -0.19180476791E+01 -0.41972453542E+01  0.16929418345E+02  0.10566000000E+00 0. -1.
         13    1    1    0    0    0  0.43853776952E+02 -0.44114619506E+01 -0.11582749512E+02  0.45571767573E+02  0.10566000000E+00 0. -1.
         22    1    1    0    0    0 -0.60141756139E+02  0.63295096297E+01  0.15779994866E+02  0.62498814082E+02  0.00000000000E+00 0. -1.
</event>
<event>
 4    1  0.9925048E-003  0.9118800E+02  0.7818608E-02  0.1130116E+00
         25   -1    0    0    0    0  0.00000000000E+00  0.00000000000E+00  0.99999998245E-14  0.12500000000E+03  0.12500000000E+03 0.  0.
        -13    1    1    0    0    0 -0.37871826916E+01  0.37414349687E+01  0.14829338539E+02  0.15756317270E+02  0.10566000000E+00 0. -1.
         13    1    1    0    0    0 -0.13433100530E+02  0.38741899945E+01  0.44685348827E+02  0.46821459843E+02  0.10566000000E+00 0.  1.
         22    1    1    0    0    0  0.17220283222E+02 -0.76156249632E+01 -0.59514687367E+02  0.62422222887E+02  0.00000000000E+00 0.  1.
</event>
<event>
 4    1  0.9925048E-003  0.9118800E+02  0.7818608E-02  0.1130116E+00
         25   -1    0    0    0    0  0.00000000000E+00  0.00000000000E+00  0.99999998245E-14  0.12500000000E+03  0.12500000000E+03 0.  0.
        -13    1    1    0    0    0 -0.10213748029E+02 -0.56826542141E+02  0.22852374575E+02  0.62095239175E+02  0.10566000000E+00 0.  1.
         13    1    1    0    0    0  0.14147496836E+00 -0.17173930510E+00  0.44663921664E+00  0.51005899760E+00  0.10566000000E+00 0. -1.
         22    1    1    0    0    0  0.10072273061E+02  0.56998281446E+02 -0.23299013792E+02  0.62394701827E+02  0.00000000000E+00 0.  1.
</event>
<event>
 4    1  0.9925048E-003  0.9118800E+02  0.7818608E-02  0.1130116E+00
         25   -1    0    0    0    0  0.00000000000E+00  0.00000000000E+00  0.99999998245E-14  0.12500000000E+03  0.12500000000E+03 0.  0.
        -13    1    1    0    0    0  0.55837370586E-01 -0.32814338945E+00 -0.25885443954E+00  0.43470168215E+00  0.10566000000E+00 0.  1.
         13    1    1    0    0    0  0.49108806346E+02 -0.26939772491E+02  0.27148746673E+02  0.62245415996E+02  0.10566000000E+00 0. -1.
         22    1    1    0    0    0 -0.49164643716E+02  0.27267915881E+02 -0.26889892234E+02  0.62319882322E+02  0.00000000000E+00 0. -1.
</event>
<event>
 4    1  0.9925048E-003  0.9118800E+02  0.7818608E-02  0.1130116E+00
         25   -1    0    0    0    0  0.00000000000E+00  0.00000000000E+00  0.99999998245E-14  0.12500000000E+03  0.12500000000E+03 0.  0.
        -13    1    1    0    0    0 -0.28584871344E+01  0.27945949496E+00  0.86602360395E+00  0.30017007221E+01  0.10566000000E+00 0.  1.
         13    1    1    0    0    0 -0.59426276194E+02 -0.17999986501E+01  0.33866942446E+01  0.59550005536E+02  0.10566000000E+00 0. -1.
         22    1    1    0    0    0  0.62284763328E+02  0.15205391551E+01 -0.42527178485E+01  0.62448293742E+02  0.00000000000E+00 0. -1.
</event>
<event>
 4    1  0.9925048E-003  0.9118800E+02  0.7818608E-02  0.1130116E+00
         25   -1    0    0    0    0  0.00000000000E+00  0.00000000000E+00  0.99999998245E-14  0.12500000000E+03  0.12500000000E+03 0.  0.
        -13    1    1    0    0    0  0.25253594037E+02  0.17569168345E+01 -0.52218576203E+01  0.25847818662E+02  0.10566000000E+00 0. -1.
         13    1    1    0    0    0  0.36145022787E+02  0.13201117405E+01 -0.59915946282E+01  0.36662184025E+02  0.10566000000E+00 0.  1.
         22    1    1    0    0    0 -0.61398616824E+02 -0.30770285750E+01  0.11213452249E+02  0.62489997312E+02  0.00000000000E+00 0. -1.
</event>
<event>
 4    1  0.9925048E-003  0.9118800E+02  0.7818608E-02  0.1130116E+00
         25   -1    0    0    0    0  0.00000000000E+00  0.00000000000E+00  0.99999998245E-14  0.12500000000E+03  0.12500000000E+03 0.  0.
        -13    1    1    0    0    0  0.28781541497E+02  0.88739433297E+01  0.20524412122E+02  0.36447039086E+02  0.10566000000E+00 0.  1.
         13    1    1    0    0    0  0.20886765648E+02  0.65019267707E+01  0.14154048301E+02  0.26055331092E+02  0.10566000000E+00 0. -1.
         22    1    1    0    0    0 -0.49668307145E+02 -0.15375870100E+02 -0.34678460423E+02  0.62497629822E+02  0.00000000000E+00 0.  1.
</event>
<event>
 4    1  0.9925048E-003  0.9118800E+02  0.7818608E-02  0.1130116E+00
         25   -1    0    0    0    0  0.00000000000E+00  0.00000000000E+00  0.99999998245E-14  0.12500000000E+03  0.12500000000E+03 0.  0.
        -13    1    1    0    0    0  0.75498317762E+01 -0.21801528909E+02 -0.39825277416E+01  0.23413208107E+02  0.10566000000E+00 0. -1.
         13    1    1    0    0    0  0.24430716397E+02 -0.21664276932E+02 -0.24260922755E+02  0.40679286322E+02  0.10566000000E+00 0.  1.
         22    1    1    0    0    0 -0.31980548173E+02  0.43465805842E+02  0.28243450497E+02  0.60907505571E+02  0.00000000000E+00 0.  1.
</event>
<event>
 4    1  0.9925048E-003  0.9118800E+02  0.7818608E-02  0.1130116E+00
         25   -1    0    0    0    0  0.00000000000E+00  0.00000000000E+00  0.99999998245E-14  0.12500000000E+03  0.12500000000E+03 0.  0.
        -13    1    1    0    0    0 -0.28020742476E+01  0.22580872956E+02  0.43216470983E+01  0.23161071677E+02  0.10566000000E+00 0.  1.
         13    1    1    0    0    0 -0.34288052899E+02 -0.40709346032E+02  0.16335629553E+02  0.55675716276E+02  0.10566000000E+00 0. -1.
         22    1    1    0    0    0  0.37090127147E+02  0.18128473075E+02 -0.20657276651E+02  0.46163212046E+02  0.00000000000E+00 0. -1.
</event>
<event>
 4    1  0.9925048E-003  0.9118800E+02  0.7818608E-02  0.1130116E+00
         25   -1    0    0    0    0  0.00000000000E+00  0.00000000000E+00  0.99999998245E-14  0.12500000000E+03  0.12500000000E+03 0.  0.
        -13    1    1    0    0    0 -0.30382012143E+02  0.21945689236E+02 -0.16061791237E+01  0.37513609708E+02  0.10566000000E+00 0.  1.
         13    1    1    0    0    0 -0.20443976047E+02  0.14273284540E+02 -0.16708986504E+01  0.24989715375E+02  0.10566000000E+00 0. -1.
         22    1    1    0    0    0  0.50825988191E+02 -0.36218973776E+02  0.32770777741E+01  0.62496674917E+02  0.00000000000E+00 0. -1.
</event>
<event>
 4    1  0.9925048E-003  0.9118800E+02  0.7818608E-02  0.1130116E+00
         25   -1    0    0    0    0  0.00000000000E+00  0.00000000000E+00  0.99999998245E-14  0.12500000000E+03  0.12500000000E+03 0.  0.
        -13    1    1    0    0    0 -0.69164305743E+01 -0.76503542368E+01 -0.95498516742E+01  0.14056164586E+02  0.10566000000E+00 0.  1.
         13    1    1    0    0    0 -0.30281379516E+02 -0.35012865661E+02 -0.15814770172E+02  0.48918103262E+02  0.10566000000E+00 0. -1.
         22    1    1    0    0    0  0.37197810090E+02  0.42663219897E+02  0.25364621846E+02  0.62025732152E+02  0.00000000000E+00 0. -1.
</event>
<event>
 4    1  0.9925048E-003  0.9118800E+02  0.7818608E-02  0.1130116E+00
         25   -1    0    0    0    0  0.00000000000E+00  0.00000000000E+00  0.99999998245E-14  0.12500000000E+03  0.12500000000E+03 0.  0.
        -13    1    1    0    0    0  0.10263385507E+01 -0.15085338353E+02  0.12947459950E+02  0.19906498618E+02  0.10566000000E+00 0. -1.
         13    1    1    0    0    0  0.55978764516E+01 -0.15110628680E+02  0.40367048655E+02  0.43464664971E+02  0.10566000000E+00 0.  1.
         22    1    1    0    0    0 -0.66242150023E+01  0.30195967034E+02 -0.53314508605E+02  0.61628836410E+02  0.00000000000E+00 0.  1.
</event>
<event>
 4    1  0.9925048E-003  0.9118800E+02  0.7818608E-02  0.1130116E+00
         25   -1    0    0    0    0  0.00000000000E+00  0.00000000000E+00  0.99999998245E-14  0.12500000000E+03  0.12500000000E+03 0.  0.
        -13    1    1    0    0    0  0.47581895924E+02 -0.36731000036E+02 -0.50066175088E+01  0.60318161164E+02  0.10566000000E+00 0. -1.
         13    1    1    0    0    0  0.15858231199E+01 -0.15152977352E+01  0.20280889270E+00  0.22052795008E+01  0.10566000000E+00 0.  1.
         22    1    1    0    0    0 -0.49167719044E+02  0.38246297771E+02  0.48038086161E+01  0.62476559335E+02  0.00000000000E+00 0. -1.
</event>
<event>
 4    1  0.9925048E-003  0.9118800E+02  0.7818608E-02  0.1130116E+00
         25   -1    0    0    0    0  0.00000000000E+00  0.00000000000E+00  0.99999998245E-14  0.12500000000E+03  0.12500000000E+03 0.  0.
        -13    1    1    0    0    0 -0.46474666189E+00 -0.58092997486E+00  0.13118475555E+01  0.15118125346E+01  0.10566000000E+00 0.  1.
         13    1    1    0    0    0 -0.18800655910E+02 -0.19430940475E+02  0.54671597178E+02  0.60991973345E+02  0.10566000000E+00 0.  1.
         22    1    1    0    0    0  0.19265402572E+02  0.20011870450E+02 -0.55983444734E+02  0.62496214121E+02  0.00000000000E+00 0.  1.
</event>
<event>
 4    1  0.9925048E-003  0.9118800E+02  0.7818608E-02  0.1130116E+00
         25   -1    0    0    0    0  0.00000000000E+00  0.00000000000E+00  0.99999998245E-14  0.12500000000E+03  0.12500000000E+03 0.  0.
        -13    1    1    0    0    0 -0.18951909691E+02  0.28402460693E+02 -0.15697971974E+02  0.37580741643E+02  0.10566000000E+00 0.  1.
         13    1    1    0    0    0 -0.11299824060E+02  0.20208203363E+02 -0.92917643847E+01  0.24948057166E+02  0.10566000000E+00 0. -1.
         22    1    1    0    0    0  0.30251733751E+02 -0.48610664056E+02  0.24989736359E+02  0.62471201190E+02  0.00000000000E+00 0.  1.
</event>
<event>
 4    1  0.9925048E-003  0.9118800E+02  0.7818608E-02  0.1130116E+00
         25   -1    0    0    0    0  0.00000000000E+00  0.00000000000E+00  0.99999998245E-14  0.12500000000E+03  0.12500000000E+03 0.  0.
        -13    1    1    0    0    0  0.19254353664E+02 -0.44182304942E+02 -0.11482790909E+02  0.49544645081E+02  0.10566000000E+00 0. -1.
         13    1    1    0    0    0  0.50594419935E+01 -0.11539669506E+02 -0.30125612629E+01  0.12955640277E+02  0.10566000000E+00 0. -1.
         22    1    1    0    0    0 -0.24313795658E+02  0.55721974449E+02  0.14495352172E+02  0.62499714642E+02  0.00000000000E+00 0. -1.
</event>
<event>
 4    1  0.9925048E-003  0.9118800E+02  0.7818608E-02  0.1130116E+00
         25   -1    0    0    0    0  0.00000000000E+00  0.00000000000E+00  0.99999998245E-14  0.12500000000E+03  0.12500000000E+03 0.  0.
        -13    1    1    0    0    0 -0.46535104538E+01  0.13326946101E+02  0.80190283365E+01  0.16235104909E+02  0.10566000000E+00 0. -1.
         13    1    1    0    0    0 -0.82906549293E+01  0.25743485125E+02  0.38245313799E+02  0.46842044972E+02  0.10566000000E+00 0.  1.
         22    1    1    0    0    0  0.12944165383E+02 -0.39070431225E+02 -0.46264342136E+02  0.61922850119E+02  0.00000000000E+00 0.  1.
</event>
<event>
 4    1  0.9925048E-003  0.9118800E+02  0.7818608E-02  0.1130116E+00
         25   -1    0    0    0    0  0.00000000000E+00  0.00000000000E+00  0.99999998245E-14  0.12500000000E+03  0.12500000000E+03 0.  0.
        -13    1    1    0    0    0  0.50271322107E+02 -0.96382819237E+01  0.28614518387E+02  0.58642170248E+02  0.10566000000E+00 0. -1.
         13    1    1    0    0    0  0.33863451817E+01 -0.49416642109E+00  0.17840327109E+01  0.38607604032E+01  0.10566000000E+00 0.  1.
         22    1    1    0    0    0 -0.53657667289E+02  0.10132448345E+02 -0.30398551098E+02  0.62497069349E+02  0.00000000000E+00 0. -1.
</event>
<event>
 4    1  0.9925048E-003  0.9118800E+02  0.7818608E-02  0.1130116E+00
         25   -1    0    0    0    0  0.00000000000E+00  0.00000000000E+00  0.99999998245E-14  0.12500000000E+03  0.12500000000E+03 0.  0.
        -13    1    1    0    0    0  0.22588492413E+02 -0.27279785144E+02 -0.40269371587E+02  0.53628911224E+02  0.10566000000E+00 0. -1.
         13    1    1    0    0    0  0.32531904217E+01 -0.44775407501E+01 -0.69422330831E+01  0.88790418011E+01  0.10566000000E+00 0.  1.
         22    1    1    0    0    0 -0.25841682835E+02  0.31757325894E+02  0.47211604670E+02  0.62492046975E+02  0.00000000000E+00 0. -1.
</event>
<event>
 4    1  0.9925048E-003  0.9118800E+02  0.7818608E-02  0.1130116E+00
         25   -1    0    0    0    0  0.00000000000E+00  0.00000000000E+00  0.99999998245E-14  0.12500000000E+03  0.12500000000E+03 0.  0.
        -13    1    1    0    0    0 -0.26205512276E+02  0.68632430755E+01 -0.16026716573E+02  0.31475383831E+02  0.10566000000E+00 0. -1.
         13    1    1    0    0    0 -0.28518888286E+02  0.91329064467E+01 -0.89859388965E+01  0.31264920136E+02  0.10566000000E+00 0.  1.
         22    1    1    0    0    0  0.54724400562E+02 -0.15996149522E+02  0.25012655470E+02  0.62259696033E+02  0.00000000000E+00 0.  1.
</event>
<event>
 4    1  0.9925048E-003  0.9118800E+02  0.7818608E-02  0.1130116E+00
         25   -1    0    0    0    0  0.00000000000E+00  0.00000000000E+00  0.99999998245E-14  0.12500000000E+03  0.12500000000E+03 0.  0.
        -13    1    1    0    0    0  0.56890491049E+02  0.23869882437E+02  0.62194279627E+01  0.62007997126E+02  0.10566000000E+00 0. -1.
         13    1    1    0    0    0 -0.73976207297E+00  0.89023870013E+00  0.48489064897E+00  0.12593870910E+01  0.10566000000E+00 0.  1.
         22    1    1    0    0    0 -0.56150728976E+02 -0.24760121137E+02 -0.67043186116E+01  0.61732615783E+02  0.00000000000E+00 0. -1.
</event>
<event>
 4    1  0.9925048E-003  0.9118800E+02  0.7818608E-02  0.1130116E+00
         25   -1    0    0    0    0  0.00000000000E+00  0.00000000000E+00  0.99999998245E-14  0.12500000000E+03  0.12500000000E+03 0.  0.
        -13    1    1    0    0    0 -0.17683380574E+02 -0.24957547694E+02  0.46046216053E+02  0.55279709770E+02  0.10566000000E+00 0.  1.
         13    1    1    0    0    0 -0.80200478441E+00 -0.31721456854E+01  0.65229203838E+01  0.72983131128E+01  0.10566000000E+00 0. -1.
         22    1    1    0    0    0  0.18485385359E+02  0.28129693380E+02 -0.52569136437E+02  0.62421977117E+02  0.00000000000E+00 0.  1.
</event>
<event>
 4    1  0.9925048E-003  0.9118800E+02  0.7818608E-02  0.1130116E+00
         25   -1    0    0    0    0  0.00000000000E+00  0.00000000000E+00  0.99999998245E-14  0.12500000000E+03  0.12500000000E+03 0.  0.
        -13    1    1    0    0    0  0.31775043091E+01  0.34010352336E+02 -0.24495888394E+02  0.42034037540E+02  0.10566000000E+00 0. -1.
         13    1    1    0    0    0  0.17757384842E+01  0.16452866354E+02 -0.12042782465E+02  0.20466798283E+02  0.10566000000E+00 0. -1.
         22    1    1    0    0    0 -0.49532427933E+01 -0.50463218690E+02  0.36538670858E+02  0.62499164177E+02  0.00000000000E+00 0. -1.
</event>
<event>
 4    1  0.9925048E-003  0.9118800E+02  0.7818608E-02  0.1130116E+00
         25   -1    0    0    0    0  0.00000000000E+00  0.00000000000E+00  0.99999998245E-14  0.12500000000E+03  0.12500000000E+03 0.  0.
        -13    1    1    0    0    0  0.17937357573E+02  0.74968832834E+01 -0.49875554240E+02  0.53530684009E+02  0.10566000000E+00 0.  1.
         13    1    1    0    0    0  0.58719383783E+01  0.49665127951E+01 -0.58093002323E+01  0.96387262067E+01  0.10566000000E+00 0. -1.
         22    1    1    0    0    0 -0.23809295951E+02 -0.12463396078E+02  0.55684854472E+02  0.61830589785E+02  0.00000000000E+00 0.  1.
</event>
<event>
 4    1  0.9925048E-003  0.9118800E+02  0.7818608E-02  0.1130116E+00
         25   -1    0    0    0    0  0.00000000000E+00  0.00000000000E+00  0.99999998245E-14  0.12500000000E+03  0.12500000000E+03 0.  0.
        -13    1    1    0    0    0  0.27566438796E+02 -0.52564988643E+02 -0.78145371989E+01  0.59867058843E+02  0.10566000000E+00 0.  1.
         13    1    1    0    0    0  0.12284824052E+01 -0.22939540725E+01 -0.39656747918E+00  0.26343545903E+01  0.10566000000E+00 0.  1.
         22    1    1    0    0    0 -0.28794921201E+02  0.54858942715E+02  0.82111046781E+01  0.62498586566E+02  0.00000000000E+00 0.  1.
</event>
<event>
 4    1  0.9925048E-003  0.9118800E+02  0.7818608E-02  0.1130116E+00
         25   -1    0    0    0    0  0.00000000000E+00  0.00000000000E+00  0.99999998245E-14  0.12500000000E+03  0.12500000000E+03 0.  0.
        -13    1    1    0    0    0  0.44196964844E+01  0.11120289655E+01 -0.97500681957E-01  0.45597144486E+01  0.10566000000E+00 0.  1.
         13    1    1    0    0    0 -0.38773022845E+02 -0.23599186916E+02  0.41952625035E+02  0.61808598390E+02  0.10566000000E+00 0. -1.
         22    1    1    0    0    0  0.34353326360E+02  0.22487157951E+02 -0.41855124353E+02  0.58631687161E+02  0.00000000000E+00 0. -1.
</event>
<event>
 4    1  0.9925048E-003  0.9118800E+02  0.7818608E-02  0.1130116E+00
         25   -1    0    0    0    0  0.00000000000E+00  0.00000000000E+00  0.99999998245E-14  0.12500000000E+03  0.12500000000E+03 0.  0.
        -13    1    1    0    0    0 -0.12812891928E+01  0.52014080131E+02  0.28914653312E+02  0.59524571179E+02  0.10566000000E+00 0. -1.
         13    1    1    0    0    0  0.32434235850E-01  0.26619490682E+01  0.13316418861E+01  0.29784994493E+01  0.10566000000E+00 0. -1.
         22    1    1    0    0    0  0.12488549570E+01 -0.54676029199E+02 -0.30246295198E+02  0.62496929372E+02  0.00000000000E+00 0. -1.
</event>
<event>
 4    1  0.9925048E-003  0.9118800E+02  0.7818608E-02  0.1130116E+00
         25   -1    0    0    0    0  0.00000000000E+00  0.00000000000E+00  0.99999998245E-14  0.12500000000E+03  0.12500000000E+03 0.  0.
        -13    1    1    0    0    0 -0.15394854193E+02  0.60329509890E+00 -0.13183246847E+01  0.15463332260E+02  0.10566000000E+00 0.  1.
         13    1    1    0    0    0 -0.46929487552E+02  0.21798787392E+01 -0.23821562533E+01  0.47040562344E+02  0.10566000000E+00 0. -1.
         22    1    1    0    0    0  0.62324341744E+02 -0.27831738381E+01  0.37004809380E+01  0.62496105396E+02  0.00000000000E+00 0. -1.
</event>
<event>
 4    1  0.9925048E-003  0.9118800E+02  0.7818608E-02  0.1130116E+00
         25   -1    0    0    0    0  0.00000000000E+00  0.00000000000E+00  0.99999998245E-14  0.12500000000E+03  0.12500000000E+03 0.  0.
        -13    1    1    0    0    0 -0.20658482735E+02  0.17707714469E+02 -0.11567787353E+01  0.27233900964E+02  0.10566000000E+00 0.  1.
         13    1    1    0    0    0 -0.28650215096E+02  0.20489234416E+02 -0.22977888954E+01  0.35297798088E+02  0.10566000000E+00 0. -1.
         22    1    1    0    0    0  0.49308697831E+02 -0.38196948885E+02  0.34545676307E+01  0.62468300949E+02  0.00000000000E+00 0. -1.
</event>
<event>
 4    1  0.9925048E-003  0.9118800E+02  0.7818608E-02  0.1130116E+00
         25   -1    0    0    0    0  0.00000000000E+00  0.00000000000E+00  0.99999998245E-14  0.12500000000E+03  0.12500000000E+03 0.  0.
        -13    1    1    0    0    0 -0.38705947266E+01 -0.11723586380E+02 -0.47731748356E+01  0.13237006579E+02  0.10566000000E+00 0. -1.
         13    1    1    0    0    0 -0.16363814942E+02 -0.42774461356E+02 -0.18163967338E+02  0.49268345388E+02  0.10566000000E+00 0. -1.
         22    1    1    0    0    0  0.20234409669E+02  0.54498047736E+02  0.22937142173E+02  0.62494648033E+02  0.00000000000E+00 0. -1.
</event>
<event>
 4    1  0.9925048E-003  0.9118800E+02  0.7818608E-02  0.1130116E+00
         25   -1    0    0    0    0  0.00000000000E+00  0.00000000000E+00  0.99999998245E-14  0.12500000000E+03  0.12500000000E+03 0.  0.
        -13    1    1    0    0    0  0.49191199719E+02  0.24022093349E+02  0.49759668693E+01  0.54969141425E+02  0.10566000000E+00 0.  1.
         13    1    1    0    0    0  0.54206080482E+01  0.53333106844E+01  0.12889867007E+01  0.77136142772E+01  0.10566000000E+00 0. -1.
         22    1    1    0    0    0 -0.54611807767E+02 -0.29355404034E+02 -0.62649535699E+01  0.62317244298E+02  0.00000000000E+00 0.  1.
</event>
<event>
 4    1  0.9925048E-003  0.9118800E+02  0.7818608E-02  0.1130116E+00
         25   -1    0    0    0    0  0.00000000000E+00  0.00000000000E+00  0.99999998245E-14  0.12500000000E+03  0.12500000000E+03 0.  0.
        -13    1    1    0    0    0 -0.12088812665E+02  0.28734498162E+02  0.15519746461E+01  0.31212666750E+02  0.10566000000E+00 0. -1.
         13    1    1    0    0    0 -0.12361087961E+02  0.28703192296E+02  0.14985308648E+01  0.31287801175E+02  0.10566000000E+00 0.  1.
         22    1    1    0    0    0  0.24449900626E+02 -0.57437690458E+02 -0.30505055109E+01  0.62499532076E+02  0.00000000000E+00 0. -1.
</event>
<event>
 4    1  0.9925048E-003  0.9118800E+02  0.7818608E-02  0.1130116E+00
         25   -1    0    0    0    0  0.00000000000E+00  0.00000000000E+00  0.99999998245E-14  0.12500000000E+03  0.12500000000E+03 0.  0.
        -13    1    1    0    0    0  0.31490588752E+02 -0.23346204514E+01  0.81643127893E+01  0.32615560703E+02  0.10566000000E+00 0. -1.
         13    1    1    0    0    0 -0.35667461557E+02 -0.84381220791E+01 -0.42520693197E+02  0.56137244608E+02  0.10566000000E+00 0.  1.
         22    1    1    0    0    0  0.41768728051E+01  0.10772742530E+02  0.34356380408E+02  0.36247194689E+02  0.00000000000E+00 0.  1.
</event>
<event>
 4    1  0.9925048E-003  0.9118800E+02  0.7818608E-02  0.1130116E+00
         25   -1    0    0    0    0  0.00000000000E+00  0.00000000000E+00  0.99999998245E-14  0.12500000000E+03  0.12500000000E+03 0.  0.
        -13    1    1    0    0    0  0.37419293630E+02  0.10280478824E+02  0.29657075927E+02  0.48841018593E+02  0.10566000000E+00 0.  1.
         13    1    1    0    0    0  0.44497339169E+01  0.55107808455E+01  0.12700780707E+02  0.14542689987E+02  0.10566000000E+00 0. -1.
         22    1    1    0    0    0 -0.41869027547E+02 -0.15791259670E+02 -0.42357856634E+02  0.61616291420E+02  0.00000000000E+00 0.  1.
</event>
<event>
 4    1  0.9925048E-003  0.9118800E+02  0.7818608E-02  0.1130116E+00
         25   -1    0    0    0    0  0.00000000000E+00  0.00000000000E+00  0.99999998245E-14  0.12500000000E+03  0.12500000000E+03 0.  0.
        -13    1    1    0    0    0  0.23877009669E+01  0.39619122384E+01  0.35405547122E+01  0.58261956883E+01  0.10566000000E+00 0. -1.
         13    1    1    0    0    0  0.24371862752E+02  0.37833698551E+02  0.34448174905E+02  0.56675077048E+02  0.10566000000E+00 0. -1.
         22    1    1    0    0    0 -0.26759563719E+02 -0.41795610789E+02 -0.37988729618E+02  0.62498727264E+02  0.00000000000E+00 0. -1.
</event>
<event>
 4    1  0.9925048E-003  0.9118800E+02  0.7818608E-02  0.1130116E+00
         25   -1    0    0    0    0  0.00000000000E+00  0.00000000000E+00  0.99999998245E-14  0.12500000000E+03  0.12500000000E+03 0.  0.
        -13    1    1    0    0    0 -0.90058455867E+01 -0.28465824209E+01 -0.38630891470E+01  0.10205043263E+02  0.10566000000E+00 0.  1.
         13    1    1    0    0    0 -0.34751662514E+02  0.42963939809E+02 -0.60650020578E+00  0.55262620079E+02  0.10566000000E+00 0. -1.
         22    1    1    0    0    0  0.43757508101E+02 -0.40117357388E+02  0.44695893528E+01  0.59532336658E+02  0.00000000000E+00 0. -1.
</event>
<event>
 4    1  0.9925048E-003  0.9118800E+02  0.7818608E-02  0.1130116E+00
         25   -1    0    0    0    0  0.00000000000E+00  0.00000000000E+00  0.99999998245E-14  0.12500000000E+03  0.12500000000E+03 0.  0.
        -13    1    1    0    0    0  0.38650107633E+02 -0.18062902749E+02  0.29147755118E+02  0.51669159740E+02  0.10566000000E+00 0.  1.
         13    1    1    0    0    0  0.78089213667E+01 -0.44317069187E+01  0.60738479430E+01  0.10840759752E+02  0.10566000000E+00 0.  1.
         22    1    1    0    0    0 -0.46459029000E+02  0.22494609667E+02 -0.35221603061E+02  0.62490080508E+02  0.00000000000E+00 0.  1.
</event>
<event>
 4    1  0.9925048E-003  0.9118800E+02  0.7818608E-02  0.1130116E+00
         25   -1    0    0    0    0  0.00000000000E+00  0.00000000000E+00  0.99999998245E-14  0.12500000000E+03  0.12500000000E+03 0.  0.
        -13    1    1    0    0    0 -0.77144483645E+01  0.62316518684E+01  0.18839885184E+02  0.21290811078E+02  0.10566000000E+00 0. -1.
         13    1    1    0    0    0 -0.10622843534E+02  0.11767235444E+02  0.38085634925E+02  0.41253356062E+02  0.10566000000E+00 0.  1.
         22    1    1    0    0    0  0.18337291899E+02 -0.17998887312E+02 -0.56925520108E+02  0.62455832860E+02  0.00000000000E+00 0.  1.
</event>
<event>
 4    1  0.9925048E-003  0.9118800E+02  0.7818608E-02  0.1130116E+00
         25   -1    0    0    0    0  0.00000000000E+00  0.00000000000E+00  0.99999998245E-14  0.12500000000E+03  0.12500000000E+03 0.  0.
        -13    1    1    0    0    0 -0.25284691258E+02  0.97925016166E+00  0.36155554224E+02  0.44130599454E+02  0.10566000000E+00 0.  1.
         13    1    1    0    0    0 -0.71441062944E+01 -0.93365722478E+01  0.15410677394E+02  0.19383239612E+02  0.10566000000E+00 0. -1.
         22    1    1    0    0    0  0.32428797552E+02  0.83573220861E+01 -0.51566231618E+02  0.61486160934E+02  0.00000000000E+00 0.  1.
</event>
<event>
 4    1  0.9925048E-003  0.9118800E+02  0.7818608E-02  0.1130116E+00
         25   -1    0    0    0    0  0.00000000000E+00  0.00000000000E+00  0.99999998245E-14  0.12500000000E+03  0.12500000000E+03 0.  0.
        -13    1    1    0    0    0  0.17249512610E+02  0.77189385496E+01 -0.12387741802E+02  0.22596349453E+02  0.10566000000E+00 0.  1.
         13    1    1    0    0    0  0.30705327949E+02  0.13546266175E+02 -0.21587362359E+02  0.39904183607E+02  0.10566000000E+00 0.  1.
         22    1    1    0    0    0 -0.47954840559E+02 -0.21265204725E+02  0.33975104161E+02  0.62499466940E+02  0.00000000000E+00 0.  1.
</event>
<event>
 4    1  0.9925048E-003  0.9118800E+02  0.7818608E-02  0.1130116E+00
         25   -1    0    0    0    0  0.00000000000E+00  0.00000000000E+00  0.99999998245E-14  0.12500000000E+03  0.12500000000E+03 0.  0.
        -13    1    1    0    0    0 -0.51698531331E+02 -0.60669994240E+01  0.18689621669E+02  0.55306959290E+02  0.10566000000E+00 0.  1.
         13    1    1    0    0    0 -0.48195697719E+01 -0.15876359902E+01  0.57269019010E+01  0.76522813751E+01  0.10566000000E+00 0. -1.
         22    1    1    0    0    0  0.56518101103E+02  0.76546354142E+01 -0.24416523570E+02  0.62040759335E+02  0.00000000000E+00 0.  1.
</event>
<event>
 4    1  0.9925048E-003  0.9118800E+02  0.7818608E-02  0.1130116E+00
         25   -1    0    0    0    0  0.00000000000E+00  0.00000000000E+00  0.99999998245E-14  0.12500000000E+03  0.12500000000E+03 0.  0.
        -13    1    1    0    0    0 -0.14065448350E+02 -0.10213634138E+02 -0.21821979182E+02  0.27899195312E+02  0.10566000000E+00 0. -1.
         13    1    1    0    0    0 -0.18183474245E+02 -0.12841392338E+02 -0.26492989010E+02  0.34603897519E+02  0.10566000000E+00 0.  1.
         22    1    1    0    0    0  0.32248922595E+02  0.23055026475E+02  0.48314968192E+02  0.62496907169E+02  0.00000000000E+00 0.  1.
</event>
<event>
 4    1  0.9925048E-003  0.9118800E+02  0.7818608E-02  0.1130116E+00
         25   -1    0    0    0    0  0.00000000000E+00  0.00000000000E+00  0.99999998245E-14  0.12500000000E+03  0.12500000000E+03 0.  0.
        -13    1    1    0    0    0  0.11863897288E+02  0.11468576732E+02  0.37010773605E+02  0.40522695344E+02  0.10566000000E+00 0.  1.
         13    1    1    0    0    0  0.63222265706E+01  0.63497877391E+01  0.20067848924E+02  0.21977717752E+02  0.10566000000E+00 0.  1.
         22    1    1    0    0    0 -0.18186123859E+02 -0.17818364471E+02 -0.57078622528E+02  0.62499586904E+02  0.00000000000E+00 0.  1.
</event>
<event>
 4    1  0.9925048E-003  0.9118800E+02  0.7818608E-02  0.1130116E+00
         25   -1    0    0    0    0  0.00000000000E+00  0.00000000000E+00  0.99999998245E-14  0.12500000000E+03  0.12500000000E+03 0.  0.
        -13    1    1    0    0    0  0.11171439404E+01  0.15886588973E+02  0.53219328237E+01  0.16791838875E+02  0.10566000000E+00 0. -1.
         13    1    1    0    0    0  0.83991307919E+01  0.43611100923E+02  0.11055822167E+02  0.45768066264E+02  0.10566000000E+00 0.  1.
         22    1    1    0    0    0 -0.95162747324E+01 -0.59497689896E+02 -0.16377754990E+02  0.62440094861E+02  0.00000000000E+00 0.  1.
</event>
<event>
 4    1  0.9925048E-003  0.9118800E+02  0.7818608E-02  0.1130116E+00
         25   -1    0    0    0    0  0.00000000000E+00  0.00000000000E+00  0.99999998245E-14  0.12500000000E+03  0.12500000000E+03 0.  0.
        -13    1    1    0    0    0 -0.18425636144E+02 -0.14676264790E+02  0.10079588677E+02  0.25622374742E+02  0.10566000000E+00 0. -1.
         13    1    1    0    0    0 -0.27030931218E+02 -0.20224677680E+02  0.14849104624E+02  0.36881104945E+02  0.10566000000E+00 0.  1.
         22    1    1    0    0    0  0.45456567362E+02  0.34900942469E+02 -0.24928693300E+02  0.62496520313E+02  0.00000000000E+00 0.  1.
</event>
<event>
 4    1  0.9925048E-003  0.9118800E+02  0.7818608E-02  0.1130116E+00
         25   -1    0    0    0    0  0.00000000000E+00  0.00000000000E+00  0.99999998245E-14  0.12500000000E+03  0.12500000000E+03 0.  0.
        -13    1    1    0    0    0  0.19943240578E+02 -0.63271138066E+01  0.11032508199E+02  0.23653596239E+02  0.10566000000E+00 0. -1.
         13    1    1    0    0    0  0.32114765068E+02  0.19104207098E+02  0.16774448896E+02  0.40960006885E+02  0.10566000000E+00 0.  1.
         22    1    1    0    0    0 -0.52058005646E+02 -0.12777093291E+02 -0.27806957095E+02  0.60386396876E+02  0.00000000000E+00 0.  1.
</event>
<event>
 4    1  0.9925048E-003  0.9118800E+02  0.7818608E-02  0.1130116E+00
         25   -1    0    0    0    0  0.00000000000E+00  0.00000000000E+00  0.99999998245E-14  0.12500000000E+03  0.12500000000E+03 0.  0.
        -13    1    1    0    0    0 -0.76910167059E+01 -0.14763689243E+02  0.58800086353E+02  0.61111206642E+02  0.10566000000E+00 0. -1.
         13    1    1    0    0    0 -0.87943368178E-01 -0.28916149568E+00  0.13553100595E+01  0.13926154528E+01  0.10566000000E+00 0.  1.
         22    1    1    0    0    0  0.77789600741E+01  0.15052850739E+02 -0.60155396413E+02  0.62496177905E+02  0.00000000000E+00 0. -1.
</event>
<event>
 4    1  0.9925048E-003  0.9118800E+02  0.7818608E-02  0.1130116E+00
         25   -1    0    0    0    0  0.00000000000E+00  0.00000000000E+00  0.99999998245E-14  0.12500000000E+03  0.12500000000E+03 0.  0.
        -13    1    1    0    0    0  0.77085890314E+01  0.20879424357E+02 -0.28679570111E+01  0.22441235434E+02  0.10566000000E+00 0. -1.
         13    1    1    0    0    0  0.15359624462E+02  0.36621319210E+02 -0.53114560778E+01  0.40065718688E+02  0.10566000000E+00 0.  1.
         22    1    1    0    0    0 -0.23068213494E+02 -0.57500743567E+02  0.81794130889E+01  0.62493045878E+02  0.00000000000E+00 0.  1.
</event>
<event>
 4    1  0.9925048E-003  0.9118800E+02  0.7818608E-02  0.1130116E+00
         25   -1    0    0    0    0  0.00000000000E+00  0.00000000000E+00  0.99999998245E-14  0.12500000000E+03  0.12500000000E+03 0.  0.
        -13    1    1    0    0    0 -0.23190728445E+02  0.19200694594E+02 -0.53631065578E+02  0.61504299994E+02  0.10566000000E+00 0. -1.
         13    1    1    0    0    0  0.47238628973E+01  0.17499159082E+01  0.35825675895E+01  0.61824785424E+01  0.10566000000E+00 0.  1.
         22    1    1    0    0    0  0.18466865547E+02 -0.20950610503E+02  0.50048497989E+02  0.57313221463E+02  0.00000000000E+00 0. -1.
</event>
<event>
 4    1  0.9925048E-003  0.9118800E+02  0.7818608E-02  0.1130116E+00
         25   -1    0    0    0    0  0.00000000000E+00  0.00000000000E+00  0.99999998245E-14  0.12500000000E+03  0.12500000000E+03 0.  0.
        -13    1    1    0    0    0 -0.46268443733E+02  0.27407406082E+02  0.93428680018E+01  0.54582370232E+02  0.10566000000E+00 0. -1.
         13    1    1    0    0    0 -0.66155754333E+01  0.37139753461E+01  0.23678795792E+01  0.79484255625E+01  0.10566000000E+00 0.  1.
         22    1    1    0    0    0  0.52884019167E+02 -0.31121381428E+02 -0.11710747581E+02  0.62469204206E+02  0.00000000000E+00 0. -1.
</event>
<event>
 4    1  0.9925048E-003  0.9118800E+02  0.7818608E-02  0.1130116E+00
         25   -1    0    0    0    0  0.00000000000E+00  0.00000000000E+00  0.99999998245E-14  0.12500000000E+03  0.12500000000E+03 0.  0.
        -13    1    1    0    0    0 -0.16131341112E+01  0.50576150805E+01  0.97634563623E+01  0.11113861441E+02  0.10566000000E+00 0.  1.
         13    1    1    0    0    0 -0.66007491780E+01  0.24267458580E+02  0.44813172274E+02  0.51387848845E+02  0.10566000000E+00 0.  1.
         22    1    1    0    0    0  0.82138832893E+01 -0.29325073660E+02 -0.54576628636E+02  0.62498289714E+02  0.00000000000E+00 0.  1.
</event>
<event>
 4    1  0.9925048E-003  0.9118800E+02  0.7818608E-02  0.1130116E+00
         25   -1    0    0    0    0  0.00000000000E+00  0.00000000000E+00  0.99999998245E-14  0.12500000000E+03  0.12500000000E+03 0.  0.
        -13    1    1    0    0    0  0.77232480204E+01  0.39387946616E+00 -0.12573804674E+01  0.78355517159E+01  0.10566000000E+00 0. -1.
         13    1    1    0    0    0  0.53832385745E+02  0.30179831511E+01 -0.90116373870E+01  0.54664931626E+02  0.10566000000E+00 0.  1.
         22    1    1    0    0    0 -0.61555633765E+02 -0.34118626172E+01  0.10269017854E+02  0.62499516658E+02  0.00000000000E+00 0.  1.
</event>
<event>
 4    1  0.9925048E-003  0.9118800E+02  0.7818608E-02  0.1130116E+00
         25   -1    0    0    0    0  0.00000000000E+00  0.00000000000E+00  0.99999998245E-14  0.12500000000E+03  0.12500000000E+03 0.  0.
        -13    1    1    0    0    0  0.13809552324E+02  0.18842623562E+02 -0.46666098910E+01  0.23823026886E+02  0.10566000000E+00 0. -1.
         13    1    1    0    0    0  0.22596776640E+02  0.30452431812E+02 -0.76129295692E+01  0.38677290216E+02  0.10566000000E+00 0.  1.
         22    1    1    0    0    0 -0.36406328964E+02 -0.49295055375E+02  0.12279539460E+02  0.62499682898E+02  0.00000000000E+00 0.  1.
</event>
<event>
 4    1  0.9925048E-003  0.9118800E+02  0.7818608E-02  0.1130116E+00
         25   -1    0    0    0    0  0.00000000000E+00  0.00000000000E+00  0.99999998245E-14  0.12500000000E+03  0.12500000000E+03 0.  0.
        -13    1    1    0    0    0  0.32589989979E+02  0.40565567185E+01  0.84010686335E+01  0.33899147740E+02  0.10566000000E+00 0.  1.
         13    1    1    0    0    0  0.21916527557E+02  0.82007261530E+01  0.17793198947E+02  0.29397196846E+02  0.10566000000E+00 0. -1.
         22    1    1    0    0    0 -0.54506517537E+02 -0.12257282871E+02 -0.26194267581E+02  0.61703655414E+02  0.00000000000E+00 0.  1.
</event>
<event>
 4    1  0.9925048E-003  0.9118800E+02  0.7818608E-02  0.1130116E+00
         25   -1    0    0    0    0  0.00000000000E+00  0.00000000000E+00  0.99999998245E-14  0.12500000000E+03  0.12500000000E+03 0.  0.
        -13    1    1    0    0    0  0.26263400638E+02  0.33612175765E+02 -0.15446622320E+02  0.45366880848E+02  0.10566000000E+00 0.  1.
         13    1    1    0    0    0  0.12815140030E+02  0.88810951013E+01 -0.77557228526E+01  0.17414478608E+02  0.10566000000E+00 0. -1.
         22    1    1    0    0    0 -0.39078540668E+02 -0.42493270867E+02  0.23202345172E+02  0.62218640544E+02  0.00000000000E+00 0.  1.
</event>
<event>
 4    1  0.9925048E-003  0.9118800E+02  0.7818608E-02  0.1130116E+00
         25   -1    0    0    0    0  0.00000000000E+00  0.00000000000E+00  0.99999998245E-14  0.12500000000E+03  0.12500000000E+03 0.  0.
        -13    1    1    0    0    0  0.97831835515E+00  0.11724818224E+02 -0.42928851542E+02  0.44512087436E+02  0.10566000000E+00 0.  1.
         13    1    1    0    0    0  0.62401091126E+00  0.47571553158E+01 -0.17336682205E+02  0.17988652819E+02  0.10566000000E+00 0. -1.
         22    1    1    0    0    0 -0.16023292664E+01 -0.16481973540E+02  0.60265533747E+02  0.62499259745E+02  0.00000000000E+00 0.  1.
</event>
<event>
 4    1  0.9925048E-003  0.9118800E+02  0.7818608E-02  0.1130116E+00
         25   -1    0    0    0    0  0.00000000000E+00  0.00000000000E+00  0.99999998245E-14  0.12500000000E+03  0.12500000000E+03 0.  0.
        -13    1    1    0    0    0  0.10128012259E+01 -0.14725166153E+00 -0.19160616518E+00  0.10465783932E+01  0.10566000000E+00 0.  1.
         13    1    1    0    0    0  0.41559409692E+02 -0.30453698442E+02  0.33852188507E+02  0.61648958738E+02  0.10566000000E+00 0. -1.
         22    1    1    0    0    0 -0.42572210918E+02  0.30600950104E+02 -0.33660582342E+02  0.62304462868E+02  0.00000000000E+00 0. -1.
</event>
<event>
 4    1  0.9925048E-003  0.9118800E+02  0.7818608E-02  0.1130116E+00
         25   -1    0    0    0    0  0.00000000000E+00  0.00000000000E+00  0.99999998245E-14  0.12500000000E+03  0.12500000000E+03 0.  0.
        -13    1    1    0    0    0 -0.83762528247E+01  0.62932561108E+01  0.23949700445E+02  0.26141270040E+02  0.10566000000E+00 0. -1.
         13    1    1    0    0    0 -0.42070220408E+01  0.19085815759E+01  0.36387666265E+02  0.36679901013E+02  0.10566000000E+00 0.  1.
         22    1    1    0    0    0  0.12583274865E+02 -0.82018376867E+01 -0.60337366710E+02  0.62178828947E+02  0.00000000000E+00 0. -1.
</event>
<event>
 4    1  0.9925048E-003  0.9118800E+02  0.7818608E-02  0.1130116E+00
         25   -1    0    0    0    0  0.00000000000E+00  0.00000000000E+00  0.99999998245E-14  0.12500000000E+03  0.12500000000E+03 0.  0.
        -13    1    1    0    0    0  0.77104835313E+01 -0.28809928656E+02 -0.39678857117E+02  0.49637550419E+02  0.10566000000E+00 0.  1.
         13    1    1    0    0    0  0.66104600400E+01 -0.11635784165E+02 -0.41662797563E+01  0.14016372788E+02  0.10566000000E+00 0. -1.
         22    1    1    0    0    0 -0.14320943571E+02  0.40445712822E+02  0.43845136873E+02  0.61346076793E+02  0.00000000000E+00 0.  1.
</event>
<event>
 4    1  0.9925048E-003  0.9118800E+02  0.7818608E-02  0.1130116E+00
         25   -1    0    0    0    0  0.00000000000E+00  0.00000000000E+00  0.99999998245E-14  0.12500000000E+03  0.12500000000E+03 0.  0.
        -13    1    1    0    0    0  0.25326354276E+02  0.34494355092E+02 -0.18724155222E+01  0.42834587170E+02  0.10566000000E+00 0. -1.
         13    1    1    0    0    0  0.13729328988E+02  0.13991367331E+02  0.33594019913E+01  0.19888428295E+02  0.10566000000E+00 0.  1.
         22    1    1    0    0    0 -0.39055683264E+02 -0.48485722423E+02 -0.14869864691E+01  0.62276984535E+02  0.00000000000E+00 0. -1.
</event>
<event>
 4    1  0.9925048E-003  0.9118800E+02  0.7818608E-02  0.1130116E+00
         25   -1    0    0    0    0  0.00000000000E+00  0.00000000000E+00  0.99999998245E-14  0.12500000000E+03  0.12500000000E+03 0.  0.
        -13    1    1    0    0    0  0.95856552378E+00 -0.74004318357E+01 -0.23040988049E+02  0.24219486648E+02  0.10566000000E+00 0. -1.
         13    1    1    0    0    0  0.11653347262E+01 -0.11016222851E+02 -0.36644360873E+02  0.38282313393E+02  0.10566000000E+00 0. -1.
         22    1    1    0    0    0 -0.21239002500E+01  0.18416654687E+02  0.59685348922E+02  0.62498199958E+02  0.00000000000E+00 0. -1.
</event>
<event>
 4    1  0.9925048E-003  0.9118800E+02  0.7818608E-02  0.1130116E+00
         25   -1    0    0    0    0  0.00000000000E+00  0.00000000000E+00  0.99999998245E-14  0.12500000000E+03  0.12500000000E+03 0.  0.
        -13    1    1    0    0    0 -0.97036649366E+01 -0.27007479855E+02  0.30272920919E+02  0.41713618716E+02  0.10566000000E+00 0. -1.
         13    1    1    0    0    0  0.40230804267E+02  0.69945563408E+01 -0.19333341261E+02  0.45179980951E+02  0.10566000000E+00 0.  1.
         22    1    1    0    0    0 -0.30527139330E+02  0.20012923514E+02 -0.10939579658E+02  0.38106400333E+02  0.00000000000E+00 0.  1.
</event>
<event>
 4    1  0.9925048E-003  0.9118800E+02  0.7818608E-02  0.1130116E+00
         25   -1    0    0    0    0  0.00000000000E+00  0.00000000000E+00  0.99999998245E-14  0.12500000000E+03  0.12500000000E+03 0.  0.
        -13    1    1    0    0    0 -0.30824380421E+02  0.96785631459E+01  0.42967408356E+02  0.53758965371E+02  0.10566000000E+00 0.  1.
         13    1    1    0    0    0 -0.51166707055E+01  0.11357144728E+01  0.70012982433E+01  0.87463996936E+01  0.10566000000E+00 0.  1.
         22    1    1    0    0    0  0.35941051126E+02 -0.10814277619E+02 -0.49968706600E+02  0.62494634935E+02  0.00000000000E+00 0.  1.
</event>
<event>
 4    1  0.9925048E-003  0.9118800E+02  0.7818608E-02  0.1130116E+00
         25   -1    0    0    0    0  0.00000000000E+00  0.00000000000E+00  0.99999998245E-14  0.12500000000E+03  0.12500000000E+03 0.  0.
        -13    1    1    0    0    0  0.44623308241E+01 -0.30395016924E+01 -0.26900920388E+02  0.27437595534E+02  0.10566000000E+00 0.  1.
         13    1    1    0    0    0  0.83572172594E+01 -0.39810383807E+01 -0.33842196021E+02  0.35085568863E+02  0.10566000000E+00 0. -1.
         22    1    1    0    0    0 -0.12819548083E+02  0.70205400731E+01  0.60743116408E+02  0.62476835603E+02  0.00000000000E+00 0. -1.
</event>
<event>
 4    1  0.9925048E-003  0.9118800E+02  0.7818608E-02  0.1130116E+00
         25   -1    0    0    0    0  0.00000000000E+00  0.00000000000E+00  0.99999998245E-14  0.12500000000E+03  0.12500000000E+03 0.  0.
        -13    1    1    0    0    0 -0.64222770226E+01  0.47752273782E+01 -0.33785086421E+02  0.34720191059E+02  0.10566000000E+00 0.  1.
         13    1    1    0    0    0 -0.52838480980E+01  0.37095002550E+01 -0.27019373971E+02  0.27780157967E+02  0.10566000000E+00 0. -1.
         22    1    1    0    0    0  0.11706125121E+02 -0.84847276332E+01  0.60804460392E+02  0.62499650974E+02  0.00000000000E+00 0.  1.
</event>
<event>
 4    1  0.9925048E-003  0.9118800E+02  0.7818608E-02  0.1130116E+00
         25   -1    0    0    0    0  0.00000000000E+00  0.00000000000E+00  0.99999998245E-14  0.12500000000E+03  0.12500000000E+03 0.  0.
        -13    1    1    0    0    0  0.21904863260E+01  0.11637005602E+02 -0.20463737023E+02  0.23643050283E+02  0.10566000000E+00 0.  1.
         13    1    1    0    0    0  0.45163002766E+01  0.18770397347E+02 -0.33724258053E+02  0.38859510162E+02  0.10566000000E+00 0. -1.
         22    1    1    0    0    0 -0.67067866026E+01 -0.30407402949E+02  0.54187995076E+02  0.62497439555E+02  0.00000000000E+00 0. -1.
</event>
<event>
 4    1  0.9925048E-003  0.9118800E+02  0.7818608E-02  0.1130116E+00
         25   -1    0    0    0    0  0.00000000000E+00  0.00000000000E+00  0.99999998245E-14  0.12500000000E+03  0.12500000000E+03 0.  0.
        -13    1    1    0    0    0  0.23120012433E+01 -0.10689695882E+02  0.17967848408E+02  0.21034963472E+02  0.10566000000E+00 0. -1.
         13    1    1    0    0    0  0.40738965727E+01 -0.21238209906E+02  0.35379948384E+02  0.41465770281E+02  0.10566000000E+00 0.  1.
         22    1    1    0    0    0 -0.63858978159E+01  0.31927905789E+02 -0.53347796792E+02  0.62499266248E+02  0.00000000000E+00 0. -1.
</event>
<event>
 4    1  0.9925048E-003  0.9118800E+02  0.7818608E-02  0.1130116E+00
         25   -1    0    0    0    0  0.00000000000E+00  0.00000000000E+00  0.99999998245E-14  0.12500000000E+03  0.12500000000E+03 0.  0.
        -13    1    1    0    0    0  0.16777577683E+02 -0.73267687134E+01 -0.88631813506E+01  0.20340496562E+02  0.10566000000E+00 0. -1.
         13    1    1    0    0    0  0.16301547101E+02 -0.36696810262E+02 -0.17264627777E+02  0.43708979142E+02  0.10566000000E+00 0.  1.
         22    1    1    0    0    0 -0.33079124783E+02  0.44023578976E+02  0.26127809128E+02  0.60950524297E+02  0.00000000000E+00 0.  1.
</event>
<event>
 4    1  0.9925048E-003  0.9118800E+02  0.7818608E-02  0.1130116E+00
         25   -1    0    0    0    0  0.00000000000E+00  0.00000000000E+00  0.99999998245E-14  0.12500000000E+03  0.12500000000E+03 0.  0.
        -13    1    1    0    0    0  0.34833319353E+02  0.60563079294E+01 -0.20133129193E+02  0.40686521823E+02  0.10566000000E+00 0. -1.
         13    1    1    0    0    0  0.18646601012E+02  0.31323787406E+01 -0.10877708271E+02  0.21813831097E+02  0.10566000000E+00 0.  1.
         22    1    1    0    0    0 -0.53479920365E+02 -0.91886866700E+01  0.31010837464E+02  0.62499647080E+02  0.00000000000E+00 0. -1.
</event>
<event>
 4    1  0.9925048E-003  0.9118800E+02  0.7818608E-02  0.1130116E+00
         25   -1    0    0    0    0  0.00000000000E+00  0.00000000000E+00  0.99999998245E-14  0.12500000000E+03  0.12500000000E+03 0.  0.
        -13    1    1    0    0    0 -0.93450897130E+01  0.26361976180E+02 -0.26531293134E+02  0.38551331615E+02  0.10566000000E+00 0.  1.
         13    1    1    0    0    0 -0.47480738812E+01  0.16735860428E+02 -0.16470823279E+02  0.23956886554E+02  0.10566000000E+00 0. -1.
         22    1    1    0    0    0  0.14093163594E+02 -0.43097836608E+02  0.43002116413E+02  0.62491781831E+02  0.00000000000E+00 0.  1.
</event>
<event>
 4    1  0.9925048E-003  0.9118800E+02  0.7818608E-02  0.1130116E+00
         25   -1    0    0    0    0  0.00000000000E+00  0.00000000000E+00  0.99999998245E-14  0.12500000000E+03  0.12500000000E+03 0.  0.
        -13    1    1    0    0    0 -0.77619529534E+01  0.30351070244E+02  0.28877428862E+00  0.31329378118E+02  0.10566000000E+00 0. -1.
         13    1    1    0    0    0 -0.73642686528E+01  0.30257345106E+02 -0.17005865676E+01  0.31187217644E+02  0.10566000000E+00 0.  1.
         22    1    1    0    0    0  0.15126221606E+02 -0.60608415350E+02  0.14118122789E+01  0.62483404239E+02  0.00000000000E+00 0. -1.
</event>
<event>
 4    1  0.9925048E-003  0.9118800E+02  0.7818608E-02  0.1130116E+00
         25   -1    0    0    0    0  0.00000000000E+00  0.00000000000E+00  0.99999998245E-14  0.12500000000E+03  0.12500000000E+03 0.  0.
        -13    1    1    0    0    0  0.25508157429E+02  0.40169225404E+02  0.18005946949E+02  0.50876891164E+02  0.10566000000E+00 0. -1.
         13    1    1    0    0    0  0.35618839458E+01  0.78227681091E+01  0.84812173152E+01  0.12075799324E+02  0.10566000000E+00 0.  1.
         22    1    1    0    0    0 -0.29070041375E+02 -0.47991993513E+02 -0.26487164264E+02  0.62047309512E+02  0.00000000000E+00 0.  1.
</event>
<event>
 4    1  0.9925048E-003  0.9118800E+02  0.7818608E-02  0.1130116E+00
         25   -1    0    0    0    0  0.00000000000E+00  0.00000000000E+00  0.99999998245E-14  0.12500000000E+03  0.12500000000E+03 0.  0.
        -13    1    1    0    0    0 -0.43388792367E+02 -0.10873724704E+02 -0.21277031185E+02  0.49533306089E+02  0.10566000000E+00 0.  1.
         13    1    1    0    0    0 -0.12778704206E+02  0.32074595344E+01 -0.34507792757E+01  0.13619916281E+02  0.10566000000E+00 0. -1.
         22    1    1    0    0    0  0.56167496574E+02  0.76662651695E+01  0.24727810461E+02  0.61846777630E+02  0.00000000000E+00 0.  1.
</event>
<event>
 4    1  0.9925048E-003  0.9118800E+02  0.7818608E-02  0.1130116E+00
         25   -1    0    0    0    0  0.00000000000E+00  0.00000000000E+00  0.99999998245E-14  0.12500000000E+03  0.12500000000E+03 0.  0.
        -13    1    1    0    0    0  0.21950236491E+02 -0.18715086075E+02 -0.46984369529E+02  0.55132653418E+02  0.10566000000E+00 0.  1.
         13    1    1    0    0    0 -0.35108159923E+00 -0.88716203438E+01 -0.25099378677E+01  0.92271262021E+01  0.10566000000E+00 0. -1.
         22    1    1    0    0    0 -0.21599154891E+02  0.27586706419E+02  0.49494307397E+02  0.60640220380E+02  0.00000000000E+00 0.  1.
</event>
<event>
 4    1  0.9925048E-003  0.9118800E+02  0.7818608E-02  0.1130116E+00
         25   -1    0    0    0    0  0.00000000000E+00  0.00000000000E+00  0.99999998245E-14  0.12500000000E+03  0.12500000000E+03 0.  0.
        -13    1    1    0    0    0  0.19467254085E+02 -0.13453052831E+01 -0.21643797463E+02  0.29141876408E+02  0.10566000000E+00 0.  1.
         13    1    1    0    0    0 -0.54378038377E+02 -0.12385446055E+02  0.15087647526E+02  0.57775588301E+02  0.10566000000E+00 0. -1.
         22    1    1    0    0    0  0.34910784291E+02  0.13730751338E+02  0.65561499371E+01  0.38082535290E+02  0.00000000000E+00 0. -1.
</event>
<event>
 4    1  0.9925048E-003  0.9118800E+02  0.7818608E-02  0.1130116E+00
         25   -1    0    0    0    0  0.00000000000E+00  0.00000000000E+00  0.99999998245E-14  0.12500000000E+03  0.12500000000E+03 0.  0.
        -13    1    1    0    0    0 -0.25981348961E+02 -0.65597754982E+00  0.58546914986E+01  0.26641121917E+02  0.10566000000E+00 0. -1.
         13    1    1    0    0    0 -0.34153814531E+02 -0.40740484226E+01  0.10312894814E+02  0.35908883038E+02  0.10566000000E+00 0.  1.
         22    1    1    0    0    0  0.60135163492E+02  0.47300259724E+01 -0.16167586313E+02  0.62449995045E+02  0.00000000000E+00 0. -1.
</event>
<event>
 4    1  0.9925048E-003  0.9118800E+02  0.7818608E-02  0.1130116E+00
         25   -1    0    0    0    0  0.00000000000E+00  0.00000000000E+00  0.99999998245E-14  0.12500000000E+03  0.12500000000E+03 0.  0.
        -13    1    1    0    0    0 -0.25417519063E+02  0.43936246539E+02  0.17840549562E+02  0.53802791823E+02  0.10566000000E+00 0.  1.
         13    1    1    0    0    0 -0.38802225613E+01  0.70343916273E+01  0.33489595735E+01  0.87043372494E+01  0.10566000000E+00 0. -1.
         22    1    1    0    0    0  0.29297741624E+02 -0.50970638166E+02 -0.21189509136E+02  0.62492870927E+02  0.00000000000E+00 0. -1.
</event>
<event>
 4    1  0.9925048E-003  0.9118800E+02  0.7818608E-02  0.1130116E+00
         25   -1    0    0    0    0  0.00000000000E+00  0.00000000000E+00  0.99999998245E-14  0.12500000000E+03  0.12500000000E+03 0.  0.
        -13    1    1    0    0    0 -0.34680054324E+02  0.11025066882E+02 -0.29414956779E+02  0.46792190738E+02  0.10566000000E+00 0. -1.
         13    1    1    0    0    0 -0.11394176107E+02  0.36563437130E+01 -0.10178099339E+02  0.15709900340E+02  0.10566000000E+00 0.  1.
         22    1    1    0    0    0  0.46074230432E+02 -0.14681410595E+02  0.39593056117E+02  0.62497908922E+02  0.00000000000E+00 0. -1.
</event>
<event>
 4    1  0.9925048E-003  0.9118800E+02  0.7818608E-02  0.1130116E+00
         25   -1    0    0    0    0  0.00000000000E+00  0.00000000000E+00  0.99999998245E-14  0.12500000000E+03  0.12500000000E+03 0.  0.
        -13    1    1    0    0    0  0.17418462744E+02 -0.40960325041E+01  0.14590249410E+02  0.23088240914E+02  0.10566000000E+00 0.  1.
         13    1    1    0    0    0  0.29687073856E+02 -0.65579634532E+01  0.25079917415E+02  0.39412468336E+02  0.10566000000E+00 0.  1.
         22    1    1    0    0    0 -0.47105536600E+02  0.10653995957E+02 -0.39670166825E+02  0.62499290749E+02  0.00000000000E+00 0.  1.
</event>
<event>
 4    1  0.9925048E-003  0.9118800E+02  0.7818608E-02  0.1130116E+00
         25   -1    0    0    0    0  0.00000000000E+00  0.00000000000E+00  0.99999998245E-14  0.12500000000E+03  0.12500000000E+03 0.  0.
        -13    1    1    0    0    0  0.42101515103E+02  0.19237263386E+02 -0.31633872717E+02  0.56065345301E+02  0.10566000000E+00 0. -1.
         13    1    1    0    0    0  0.52262797409E+01  0.31963869454E+01 -0.22804539811E+01  0.65377766733E+01  0.10566000000E+00 0.  1.
         22    1    1    0    0    0 -0.47327794844E+02 -0.22433650331E+02  0.33914326698E+02  0.62396878026E+02  0.00000000000E+00 0. -1.
</event>
<event>
 4    1  0.9925048E-003  0.9118800E+02  0.7818608E-02  0.1130116E+00
         25   -1    0    0    0    0  0.00000000000E+00  0.00000000000E+00  0.99999998245E-14  0.12500000000E+03  0.12500000000E+03 0.  0.
        -13    1    1    0    0    0  0.38399764515E+01 -0.45338394978E+02  0.12795172500E+02  0.47265664934E+02  0.10566000000E+00 0. -1.
         13    1    1    0    0    0  0.12998151261E+01 -0.14659236591E+02  0.39387425832E+01  0.15235077747E+02  0.10566000000E+00 0. -1.
         22    1    1    0    0    0 -0.51397915776E+01  0.59997631569E+02 -0.16733915083E+02  0.62499257319E+02  0.00000000000E+00 0. -1.
</event>
<event>
 4    1  0.9925048E-003  0.9118800E+02  0.7818608E-02  0.1130116E+00
         25   -1    0    0    0    0  0.00000000000E+00  0.00000000000E+00  0.99999998245E-14  0.12500000000E+03  0.12500000000E+03 0.  0.
        -13    1    1    0    0    0 -0.39942588314E+01  0.65768818949E+01 -0.96457765023E+01  0.12339434648E+02  0.10566000000E+00 0. -1.
         13    1    1    0    0    0 -0.47626526054E+02  0.26461591051E+01 -0.20785334700E+02  0.52032004042E+02  0.10566000000E+00 0.  1.
         22    1    1    0    0    0  0.51620784886E+02 -0.92230410000E+01  0.30431111202E+02  0.60628561310E+02  0.00000000000E+00 0.  1.
</event>
<event>
 4    1  0.9925048E-003  0.9118800E+02  0.7818608E-02  0.1130116E+00
         25   -1    0    0    0    0  0.00000000000E+00  0.00000000000E+00  0.99999998245E-14  0.12500000000E+03  0.12500000000E+03 0.  0.
        -13    1    1    0    0    0  0.14805991526E+02 -0.35682021056E+02 -0.15526540868E+02  0.41635425386E+02  0.10566000000E+00 0.  1.
         13    1    1    0    0    0  0.13041645859E+02 -0.15625448418E+02 -0.58806723774E+01  0.21185670549E+02  0.10566000000E+00 0. -1.
         22    1    1    0    0    0 -0.27847637385E+02  0.51307469474E+02  0.21407213245E+02  0.62178904065E+02  0.00000000000E+00 0.  1.
</event>
<event>
 4    1  0.9925048E-003  0.9118800E+02  0.7818608E-02  0.1130116E+00
         25   -1    0    0    0    0  0.00000000000E+00  0.00000000000E+00  0.99999998245E-14  0.12500000000E+03  0.12500000000E+03 0.  0.
        -13    1    1    0    0    0 -0.40713027701E+02  0.39609726527E+02  0.24323121618E+01  0.56854273073E+02  0.10566000000E+00 0.  1.
         13    1    1    0    0    0 -0.31146193096E+01  0.47751878385E+01  0.28886065877E+00  0.57094550399E+01  0.10566000000E+00 0. -1.
         22    1    1    0    0    0  0.43827647011E+02 -0.44384914365E+02 -0.27211728205E+01  0.62436271888E+02  0.00000000000E+00 0.  1.
</event>
<event>
 4    1  0.9925048E-003  0.9118800E+02  0.7818608E-02  0.1130116E+00
         25   -1    0    0    0    0  0.00000000000E+00  0.00000000000E+00  0.99999998245E-14  0.12500000000E+03  0.12500000000E+03 0.  0.
        -13    1    1    0    0    0  0.30648907214E+02  0.16628486872E+02 -0.67989835873E+01  0.35526038773E+02  0.10566000000E+00 0.  1.
         13    1    1    0    0    0  0.23369113016E+02  0.12476067237E+02 -0.50829544657E+01  0.26974344978E+02  0.10566000000E+00 0.  1.
         22    1    1    0    0    0 -0.54018020230E+02 -0.29104554109E+02  0.11881938053E+02  0.62499616249E+02  0.00000000000E+00 0.  1.
</event>
<event>
 4    1  0.9925048E-003  0.9118800E+02  0.7818608E-02  0.1130116E+00
         25   -1    0    0    0    0  0.00000000000E+00  0.00000000000E+00  0.99999998245E-14  0.12500000000E+03  0.12500000000E+03 0.  0.
        -13    1    1    0    0    0 -0.19711431033E+02 -0.16697589320E+02 -0.35855098751E+02  0.44192185655E+02  0.10566000000E+00 0. -1.
         13    1    1    0    0    0 -0.12268776613E+02 -0.14883969198E+02 -0.51529839954E+01  0.19965465853E+02  0.10566000000E+00 0.  1.
         22    1    1    0    0    0  0.31980207646E+02  0.31581558518E+02  0.41008082746E+02  0.60842348492E+02  0.00000000000E+00 0. -1.
</event>
<event>
 4    1  0.9925048E-003  0.9118800E+02  0.7818608E-02  0.1130116E+00
         25   -1    0    0    0    0  0.00000000000E+00  0.00000000000E+00  0.99999998245E-14  0.12500000000E+03  0.12500000000E+03 0.  0.
        -13    1    1    0    0    0 -0.68960719298E+01 -0.36598333510E+01  0.39021314874E+01  0.87285727584E+01  0.10566000000E+00 0.  1.
         13    1    1    0    0    0 -0.31393636673E+02 -0.43279411719E+02  0.93117267806E+01  0.54271422701E+02  0.10566000000E+00 0. -1.
         22    1    1    0    0    0  0.38289708603E+02  0.46939245070E+02 -0.13213858268E+02  0.62000004540E+02  0.00000000000E+00 0. -1.
</event>
<event>
 4    1  0.9925048E-003  0.9118800E+02  0.7818608E-02  0.1130116E+00
         25   -1    0    0    0    0  0.00000000000E+00  0.00000000000E+00  0.99999998245E-14  0.12500000000E+03  0.12500000000E+03 0.  0.
        -13    1    1    0    0    0 -0.24301269717E+02  0.16963204709E+02 -0.84174401924E+01  0.30808545686E+02  0.10566000000E+00 0. -1.
         13    1    1    0    0    0 -0.26951433200E+02  0.15921905298E+02 -0.53545744725E+01  0.31757982487E+02  0.10566000000E+00 0.  1.
         22    1    1    0    0    0  0.51252702916E+02 -0.32885110007E+02  0.13772014665E+02  0.62433471827E+02  0.00000000000E+00 0.  1.
</event>
<event>
 4    1  0.9925048E-003  0.9118800E+02  0.7818608E-02  0.1130116E+00
         25   -1    0    0    0    0  0.00000000000E+00  0.00000000000E+00  0.99999998245E-14  0.12500000000E+03  0.12500000000E+03 0.  0.
        -13    1    1    0    0    0  0.37717756515E+02  0.26835404222E+02 -0.38588161331E+02  0.60264628392E+02  0.10566000000E+00 0.  1.
         13    1    1    0    0    0 -0.35452623424E+00  0.34188821110E+01  0.66576314361E+00  0.35026915849E+01  0.10566000000E+00 0. -1.
         22    1    1    0    0    0 -0.37363230281E+02 -0.30254286333E+02  0.37922398188E+02  0.61232680023E+02  0.00000000000E+00 0.  1.
</event>
<event>
 4    1  0.9925048E-003  0.9118800E+02  0.7818608E-02  0.1130116E+00
         25   -1    0    0    0    0  0.00000000000E+00  0.00000000000E+00  0.99999998245E-14  0.12500000000E+03  0.12500000000E+03 0.  0.
        -13    1    1    0    0    0 -0.70884996632E+01 -0.79218426616E+00 -0.22749328110E+01  0.74873804977E+01  0.10566000000E+00 0. -1.
         13    1    1    0    0    0 -0.45997173141E+02 -0.29293998377E+02 -0.95376902680E+01  0.55361150436E+02  0.10566000000E+00 0.  1.
         22    1    1    0    0    0  0.53085672804E+02  0.30086182643E+02  0.11812623079E+02  0.62151469067E+02  0.00000000000E+00 0.  1.
</event>
<event>
 4    1  0.9925048E-003  0.9118800E+02  0.7818608E-02  0.1130116E+00
         25   -1    0    0    0    0  0.00000000000E+00  0.00000000000E+00  0.99999998245E-14  0.12500000000E+03  0.12500000000E+03 0.  0.
        -13    1    1    0    0    0 -0.35566998410E+02 -0.45230119346E+01  0.33427328009E+02  0.49019041552E+02  0.10566000000E+00 0.  1.
         13    1    1    0    0    0 -0.10113548763E+02 -0.15654407727E+01  0.87833561762E+01  0.13486770672E+02  0.10566000000E+00 0. -1.
         22    1    1    0    0    0  0.45680547173E+02  0.60884527073E+01 -0.42210684185E+02  0.62494187776E+02  0.00000000000E+00 0.  1.
</event>
<event>
 4    1  0.9925048E-003  0.9118800E+02  0.7818608E-02  0.1130116E+00
         25   -1    0    0    0    0  0.00000000000E+00  0.00000000000E+00  0.99999998245E-14  0.12500000000E+03  0.12500000000E+03 0.  0.
        -13    1    1    0    0    0  0.20351180887E+01  0.68955297838E+01  0.17255162586E+01  0.73944984298E+01  0.10566000000E+00 0.  1.
         13    1    1    0    0    0  0.14669509039E+02  0.51494383220E+02  0.13030861178E+02  0.55106084108E+02  0.10566000000E+00 0.  1.
         22    1    1    0    0    0 -0.16704627127E+02 -0.58389913004E+02 -0.14756377436E+02  0.62499417462E+02  0.00000000000E+00 0.  1.
</event>
<event>
 4    1  0.9925048E-003  0.9118800E+02  0.7818608E-02  0.1130116E+00
         25   -1    0    0    0    0  0.00000000000E+00  0.00000000000E+00  0.99999998245E-14  0.12500000000E+03  0.12500000000E+03 0.  0.
        -13    1    1    0    0    0 -0.12403472717E+02 -0.26463230406E+02  0.26867896641E+02  0.39699417287E+02  0.10566000000E+00 0.  1.
         13    1    1    0    0    0 -0.74649369240E+01 -0.14718151279E+02  0.15737057815E+02  0.22803846453E+02  0.10566000000E+00 0. -1.
         22    1    1    0    0    0  0.19868409641E+02  0.41181381684E+02 -0.42604954456E+02  0.62496736261E+02  0.00000000000E+00 0.  1.
</event>
<event>
 4    1  0.9925048E-003  0.9118800E+02  0.7818608E-02  0.1130116E+00
         25   -1    0    0    0    0  0.00000000000E+00  0.00000000000E+00  0.99999998245E-14  0.12500000000E+03  0.12500000000E+03 0.  0.
        -13    1    1    0    0    0  0.76694257327E+01 -0.19501823384E+02  0.10774729857E+01  0.20983644069E+02  0.10566000000E+00 0.  1.
         13    1    1    0    0    0  0.13530788946E+02 -0.38905459526E+02  0.54000504008E+01  0.41543817095E+02  0.10566000000E+00 0. -1.
         22    1    1    0    0    0 -0.21200214678E+02  0.58407282910E+02 -0.64775233865E+01  0.62472538836E+02  0.00000000000E+00 0.  1.
</event>
<event>
 4    1  0.9925048E-003  0.9118800E+02  0.7818608E-02  0.1130116E+00
         25   -1    0    0    0    0  0.00000000000E+00  0.00000000000E+00  0.99999998245E-14  0.12500000000E+03  0.12500000000E+03 0.  0.
        -13    1    1    0    0    0  0.49479583359E+01  0.22834917039E+01  0.61805424170E+01  0.82405639770E+01  0.10566000000E+00 0.  1.
         13    1    1    0    0    0  0.14217322438E+02 -0.47256067816E+02  0.28346030273E+02  0.56910252143E+02  0.10566000000E+00 0. -1.
         22    1    1    0    0    0 -0.19165280774E+02  0.44972576112E+02 -0.34526572690E+02  0.59849183880E+02  0.00000000000E+00 0. -1.
</event>
<event>
 4    1  0.9925048E-003  0.9118800E+02  0.7818608E-02  0.1130116E+00
         25   -1    0    0    0    0  0.00000000000E+00  0.00000000000E+00  0.99999998245E-14  0.12500000000E+03  0.12500000000E+03 0.  0.
        -13    1    1    0    0    0 -0.29078446819E+01 -0.44192827805E+01 -0.11319899698E+02  0.12495475749E+02  0.10566000000E+00 0.  1.
         13    1    1    0    0    0  0.53113294105E+01 -0.26550812053E+02 -0.42482968070E+02  0.50378264964E+02  0.10566000000E+00 0. -1.
         22    1    1    0    0    0 -0.24034847286E+01  0.30970094834E+02  0.53802867768E+02  0.62126259286E+02  0.00000000000E+00 0.  1.
</event>
<event>
 4    1  0.9925048E-003  0.9118800E+02  0.7818608E-02  0.1130116E+00
         25   -1    0    0    0    0  0.00000000000E+00  0.00000000000E+00  0.99999998245E-14  0.12500000000E+03  0.12500000000E+03 0.  0.
        -13    1    1    0    0    0 -0.76294552143E+00 -0.53264281212E+01  0.19117782218E+02  0.19860858072E+02  0.10566000000E+00 0.  1.
         13    1    1    0    0    0 -0.11857785756E+02 -0.36433214740E+01  0.41116226618E+02  0.42946898953E+02  0.10566000000E+00 0. -1.
         22    1    1    0    0    0  0.12620731278E+02  0.89697495952E+01 -0.60234008836E+02  0.62192242974E+02  0.00000000000E+00 0.  1.
</event>
<event>
 4    1  0.9925048E-003  0.9118800E+02  0.7818608E-02  0.1130116E+00
         25   -1    0    0    0    0  0.00000000000E+00  0.00000000000E+00  0.99999998245E-14  0.12500000000E+03  0.12500000000E+03 0.  0.
        -13    1    1    0    0    0  0.19391057118E+01  0.33932398462E+02 -0.83717793538E+01  0.35003794794E+02  0.10566000000E+00 0. -1.
         13    1    1    0    0    0  0.23724004532E+02  0.17364235395E+02 -0.77715191024E+01  0.30409747370E+02  0.10566000000E+00 0.  1.
         22    1    1    0    0    0 -0.25663110244E+02 -0.51296633857E+02  0.16143298456E+02  0.59586457837E+02  0.00000000000E+00 0.  1.
</event>
<event>
 4    1  0.9925048E-003  0.9118800E+02  0.7818608E-02  0.1130116E+00
         25   -1    0    0    0    0  0.00000000000E+00  0.00000000000E+00  0.99999998245E-14  0.12500000000E+03  0.12500000000E+03 0.  0.
        -13    1    1    0    0    0 -0.11225021595E+02  0.72095833629E+01 -0.49540437001E+01  0.14231405942E+02  0.10566000000E+00 0. -1.
         13    1    1    0    0    0 -0.37984264226E+02  0.24279898035E+02 -0.17250503153E+02  0.48269128855E+02  0.10566000000E+00 0.  1.
         22    1    1    0    0    0  0.49209285821E+02 -0.31489481397E+02  0.22204546853E+02  0.62499465203E+02  0.00000000000E+00 0.  1.
</event>
<event>
 4    1  0.9925048E-003  0.9118800E+02  0.7818608E-02  0.1130116E+00
         25   -1    0    0    0    0  0.00000000000E+00  0.00000000000E+00  0.99999998245E-14  0.12500000000E+03  0.12500000000E+03 0.  0.
        -13    1    1    0    0    0 -0.19673156614E-01  0.56816927347E+01 -0.64209941637E+01  0.85745174471E+01  0.10566000000E+00 0. -1.
         13    1    1    0    0    0  0.52898076017E+01  0.19692225482E+02 -0.50184937834E+02  0.54169225196E+02  0.10566000000E+00 0.  1.
         22    1    1    0    0    0 -0.52701344451E+01 -0.25373918217E+02  0.56605931998E+02  0.62256257357E+02  0.00000000000E+00 0.  1.
</event>
<event>
 4    1  0.9925048E-003  0.9118800E+02  0.7818608E-02  0.1130116E+00
         25   -1    0    0    0    0  0.00000000000E+00  0.00000000000E+00  0.99999998245E-14  0.12500000000E+03  0.12500000000E+03 0.  0.
        -13    1    1    0    0    0  0.93161883488E-01 -0.31558852395E+00  0.98766802026E-02  0.34574099756E+00  0.10566000000E+00 0. -1.
         13    1    1    0    0    0 -0.39359187336E+02 -0.33394841092E+02 -0.34838554569E+02  0.62274369429E+02  0.10566000000E+00 0.  1.
         22    1    1    0    0    0  0.39266025453E+02  0.33710429616E+02  0.34828677888E+02  0.62379889573E+02  0.00000000000E+00 0.  1.
</event>
<event>
 4    1  0.9925048E-003  0.9118800E+02  0.7818608E-02  0.1130116E+00
         25   -1    0    0    0    0  0.00000000000E+00  0.00000000000E+00  0.99999998245E-14  0.12500000000E+03  0.12500000000E+03 0.  0.
        -13    1    1    0    0    0  0.20685297133E+02  0.12674883099E+01  0.18167390696E+02  0.27559994427E+02  0.10566000000E+00 0. -1.
         13    1    1    0    0    0  0.18659699773E+02  0.10264489749E+02  0.28333719602E+02  0.35445098052E+02  0.10566000000E+00 0.  1.
         22    1    1    0    0    0 -0.39344996906E+02 -0.11531978059E+02 -0.46501110298E+02  0.61994907520E+02  0.00000000000E+00 0. -1.
</event>
<event>
 4    1  0.9925048E-003  0.9118800E+02  0.7818608E-02  0.1130116E+00
         25   -1    0    0    0    0  0.00000000000E+00  0.00000000000E+00  0.99999998245E-14  0.12500000000E+03  0.12500000000E+03 0.  0.
        -13    1    1    0    0    0 -0.56429652986E+02 -0.92206056059E+01  0.79315152946E+01  0.57725604395E+02  0.10566000000E+00 0.  1.
         13    1    1    0    0    0 -0.41695106770E+01  0.39116033861E+01 -0.23687152968E+01  0.61893001647E+01  0.10566000000E+00 0. -1.
         22    1    1    0    0    0  0.60599163663E+02  0.53090022198E+01 -0.55627999978E+01  0.61085095441E+02  0.00000000000E+00 0.  1.
</event>
<event>
 4    1  0.9925048E-003  0.9118800E+02  0.7818608E-02  0.1130116E+00
         25   -1    0    0    0    0  0.00000000000E+00  0.00000000000E+00  0.99999998245E-14  0.12500000000E+03  0.12500000000E+03 0.  0.
        -13    1    1    0    0    0 -0.96141508273E+01  0.26372101741E+01 -0.34513603798E+01  0.10550347205E+02  0.10566000000E+00 0. -1.
         13    1    1    0    0    0 -0.28013506194E+02  0.13477869928E+02  0.45927935447E+02  0.55459858686E+02  0.10566000000E+00 0.  1.
         22    1    1    0    0    0  0.37627657021E+02 -0.16115080103E+02 -0.42476575067E+02  0.58989794109E+02  0.00000000000E+00 0.  1.
</event>
<event>
 4    1  0.9925048E-003  0.9118800E+02  0.7818608E-02  0.1130116E+00
         25   -1    0    0    0    0  0.00000000000E+00  0.00000000000E+00  0.99999998245E-14  0.12500000000E+03  0.12500000000E+03 0.  0.
        -13    1    1    0    0    0  0.11892807802E+02  0.11874945754E+02 -0.36831005145E+02  0.40484408333E+02  0.10566000000E+00 0. -1.
         13    1    1    0    0    0  0.96922461811E+01  0.79381037551E+01 -0.18244161650E+02  0.22131735712E+02  0.10566000000E+00 0.  1.
         22    1    1    0    0    0 -0.21585053983E+02 -0.19813049509E+02  0.55075166795E+02  0.62383855955E+02  0.00000000000E+00 0. -1.
</event>
<event>
 4    1  0.9925048E-003  0.9118800E+02  0.7818608E-02  0.1130116E+00
         25   -1    0    0    0    0  0.00000000000E+00  0.00000000000E+00  0.99999998245E-14  0.12500000000E+03  0.12500000000E+03 0.  0.
        -13    1    1    0    0    0 -0.12380301190E+02  0.13627888093E+02 -0.37998285905E+02  0.42224069998E+02  0.10566000000E+00 0.  1.
         13    1    1    0    0    0 -0.10913934960E+02  0.44724329841E+01 -0.16808527465E+02  0.20534224911E+02  0.10566000000E+00 0. -1.
         22    1    1    0    0    0  0.23294236150E+02 -0.18100321077E+02  0.54806813370E+02  0.62241705091E+02  0.00000000000E+00 0.  1.
</event>
<event>
 4    1  0.9925048E-003  0.9118800E+02  0.7818608E-02  0.1130116E+00
         25   -1    0    0    0    0  0.00000000000E+00  0.00000000000E+00  0.99999998245E-14  0.12500000000E+03  0.12500000000E+03 0.  0.
        -13    1    1    0    0    0  0.47742032510E+00  0.51427393094E+00 -0.10210463512E+01  0.12434257235E+01  0.10566000000E+00 0.  1.
         13    1    1    0    0    0  0.10201586190E+01  0.18515862597E+02 -0.58437307921E+02  0.61309118510E+02  0.10566000000E+00 0. -1.
         22    1    1    0    0    0 -0.14975789441E+01 -0.19030136528E+02  0.59458354273E+02  0.62447455767E+02  0.00000000000E+00 0. -1.
</event>
<event>
 4    1  0.9925048E-003  0.9118800E+02  0.7818608E-02  0.1130116E+00
         25   -1    0    0    0    0  0.00000000000E+00  0.00000000000E+00  0.99999998245E-14  0.12500000000E+03  0.12500000000E+03 0.  0.
        -13    1    1    0    0    0 -0.34796236999E+02 -0.16142237504E+02  0.26923832230E+02  0.46864206458E+02  0.10566000000E+00 0. -1.
         13    1    1    0    0    0 -0.14286697612E+02 -0.68828555753E+01  0.31052041036E+01  0.16159730384E+02  0.10566000000E+00 0.  1.
         22    1    1    0    0    0  0.49082934611E+02  0.23025093080E+02 -0.30029036334E+02  0.61976063158E+02  0.00000000000E+00 0. -1.
</event>
<event>
 4    1  0.9925048E-003  0.9118800E+02  0.7818608E-02  0.1130116E+00
         25   -1    0    0    0    0  0.00000000000E+00  0.00000000000E+00  0.99999998245E-14  0.12500000000E+03  0.12500000000E+03 0.  0.
        -13    1    1    0    0    0  0.25203894447E+02 -0.17016174062E+02 -0.41929079152E+02  0.51796190184E+02  0.10566000000E+00 0. -1.
         13    1    1    0    0    0 -0.12701948966E+01 -0.56745195358E+01 -0.10069452399E+02  0.11628353395E+02  0.10566000000E+00 0.  1.
         22    1    1    0    0    0 -0.23933699550E+02  0.22690693598E+02  0.51998531550E+02  0.61575456421E+02  0.00000000000E+00 0. -1.
</event>
<event>
 4    1  0.9925048E-003  0.9118800E+02  0.7818608E-02  0.1130116E+00
         25   -1    0    0    0    0  0.00000000000E+00  0.00000000000E+00  0.99999998245E-14  0.12500000000E+03  0.12500000000E+03 0.  0.
        -13    1    1    0    0    0 -0.23348739742E+02  0.39635498973E+01  0.10770964639E+02  0.26017267701E+02  0.10566000000E+00 0. -1.
         13    1    1    0    0    0 -0.32903205283E+02  0.61703368006E+01  0.14507089704E+02  0.36485076262E+02  0.10566000000E+00 0.  1.
         22    1    1    0    0    0  0.56251945025E+02 -0.10133886698E+02 -0.25278054344E+02  0.62497656037E+02  0.00000000000E+00 0. -1.
</event>
<event>
 4    1  0.9925048E-003  0.9118800E+02  0.7818608E-02  0.1130116E+00
         25   -1    0    0    0    0  0.00000000000E+00  0.00000000000E+00  0.99999998245E-14  0.12500000000E+03  0.12500000000E+03 0.  0.
        -13    1    1    0    0    0 -0.46469986812E+02  0.17444466635E+02  0.29593864954E+02  0.57789074204E+02  0.10566000000E+00 0. -1.
         13    1    1    0    0    0 -0.39260193445E+01  0.26325424681E+01  0.11375071523E+01  0.48630231643E+01  0.10566000000E+00 0.  1.
         22    1    1    0    0    0  0.50396006156E+02 -0.20077009103E+02 -0.30731372106E+02  0.62347902631E+02  0.00000000000E+00 0. -1.
</event>
<event>
 4    1  0.9925048E-003  0.9118800E+02  0.7818608E-02  0.1130116E+00
         25   -1    0    0    0    0  0.00000000000E+00  0.00000000000E+00  0.99999998245E-14  0.12500000000E+03  0.12500000000E+03 0.  0.
        -13    1    1    0    0    0  0.70201549778E+01  0.56007396631E+02 -0.93692130388E+00  0.56453521049E+02  0.10566000000E+00 0. -1.
         13    1    1    0    0    0  0.27457455337E+00  0.60436278659E+01  0.43064058958E+00  0.60660897059E+01  0.10566000000E+00 0.  1.
         22    1    1    0    0    0 -0.72947295312E+01 -0.62051024497E+02  0.50628071430E+00  0.62480389245E+02  0.00000000000E+00 0. -1.
</event>
<event>
 4    1  0.9925048E-003  0.9118800E+02  0.7818608E-02  0.1130116E+00
         25   -1    0    0    0    0  0.00000000000E+00  0.00000000000E+00  0.99999998245E-14  0.12500000000E+03  0.12500000000E+03 0.  0.
        -13    1    1    0    0    0  0.12799703249E+02  0.11775774962E+02  0.32958108598E+02  0.37265927676E+02  0.10566000000E+00 0.  1.
         13    1    1    0    0    0  0.12272984073E+02  0.10996867104E+02  0.19350638151E+02  0.25416836645E+02  0.10566000000E+00 0. -1.
         22    1    1    0    0    0 -0.25072687323E+02 -0.22772642066E+02 -0.52308746748E+02  0.62317235678E+02  0.00000000000E+00 0. -1.
</event>
<event>
 4    1  0.9925048E-003  0.9118800E+02  0.7818608E-02  0.1130116E+00
         25   -1    0    0    0    0  0.00000000000E+00  0.00000000000E+00  0.99999998245E-14  0.12500000000E+03  0.12500000000E+03 0.  0.
        -13    1    1    0    0    0  0.27276221971E+02  0.21012641646E+01  0.29568533103E+02  0.40282960542E+02  0.10566000000E+00 0. -1.
         13    1    1    0    0    0  0.16161258411E+02  0.22469125449E+01  0.15119495182E+02  0.22245116048E+02  0.10566000000E+00 0.  1.
         22    1    1    0    0    0 -0.43437480382E+02 -0.43481767095E+01 -0.44688028285E+02  0.62471923410E+02  0.00000000000E+00 0. -1.
</event>
<event>
 4    1  0.9925048E-003  0.9118800E+02  0.7818608E-02  0.1130116E+00
         25   -1    0    0    0    0  0.00000000000E+00  0.00000000000E+00  0.99999998245E-14  0.12500000000E+03  0.12500000000E+03 0.  0.
        -13    1    1    0    0    0  0.31981525584E+02 -0.75609152446E+01  0.36098997268E+02  0.48817355375E+02  0.10566000000E+00 0. -1.
         13    1    1    0    0    0 -0.99338940110E+01 -0.92857462471E+01  0.13619179008E+02  0.19245792644E+02  0.10566000000E+00 0.  1.
         22    1    1    0    0    0 -0.22047631573E+02  0.16846661492E+02 -0.49718176276E+02  0.56936851982E+02  0.00000000000E+00 0. -1.
</event>
<event>
 4    1  0.9925048E-003  0.9118800E+02  0.7818608E-02  0.1130116E+00
         25   -1    0    0    0    0  0.00000000000E+00  0.00000000000E+00  0.99999998245E-14  0.12500000000E+03  0.12500000000E+03 0.  0.
        -13    1    1    0    0    0  0.14069809019E+01  0.35402312851E+01 -0.56961608114E+01  0.68534841383E+01  0.10566000000E+00 0.  1.
         13    1    1    0    0    0  0.14876606041E+02  0.35330551825E+02 -0.40397088068E+02  0.55691087150E+02  0.10566000000E+00 0. -1.
         22    1    1    0    0    0 -0.16283586943E+02 -0.38870783110E+02  0.46093248879E+02  0.62455428712E+02  0.00000000000E+00 0. -1.
</event>
<event>
 4    1  0.9925048E-003  0.9118800E+02  0.7818608E-02  0.1130116E+00
         25   -1    0    0    0    0  0.00000000000E+00  0.00000000000E+00  0.99999998245E-14  0.12500000000E+03  0.12500000000E+03 0.  0.
        -13    1    1    0    0    0 -0.13052815445E+02 -0.74358363735E+01 -0.48498881485E+01  0.15786077179E+02  0.10566000000E+00 0. -1.
         13    1    1    0    0    0 -0.39380715213E+02 -0.21264492206E+02 -0.13395473345E+02  0.46716905181E+02  0.10566000000E+00 0.  1.
         22    1    1    0    0    0  0.52433530658E+02  0.28700328580E+02  0.18245361494E+02  0.62497017640E+02  0.00000000000E+00 0.  1.
</event>
<event>
 4    1  0.9925048E-003  0.9118800E+02  0.7818608E-02  0.1130116E+00
         25   -1    0    0    0    0  0.00000000000E+00  0.00000000000E+00  0.99999998245E-14  0.12500000000E+03  0.12500000000E+03 0.  0.
        -13    1    1    0    0    0 -0.22501797629E+01 -0.48634791212E+01 -0.65325975578E+01  0.84500137879E+01  0.10566000000E+00 0. -1.
         13    1    1    0    0    0 -0.11829339886E+02 -0.31576103546E+02 -0.42248327040E+02  0.54054749088E+02  0.10566000000E+00 0.  1.
         22    1    1    0    0    0  0.14079519649E+02  0.36439582667E+02  0.48780924598E+02  0.62495237124E+02  0.00000000000E+00 0.  1.
</event>
<event>
 4    1  0.9925048E-003  0.9118800E+02  0.7818608E-02  0.1130116E+00
         25   -1    0    0    0    0  0.00000000000E+00  0.00000000000E+00  0.99999998245E-14  0.12500000000E+03  0.12500000000E+03 0.  0.
        -13    1    1    0    0    0 -0.72350480499E+01  0.36459754016E+02 -0.14481556677E+02  0.39892182580E+02  0.10566000000E+00 0.  1.
         13    1    1    0    0    0 -0.36995569942E+01  0.21153591535E+02 -0.71039719327E+01  0.22619432753E+02  0.10566000000E+00 0. -1.
         22    1    1    0    0    0  0.10934605044E+02 -0.57613345551E+02  0.21585528609E+02  0.62488384668E+02  0.00000000000E+00 0. -1.
</event>
<event>
 4    1  0.9925048E-003  0.9118800E+02  0.7818608E-02  0.1130116E+00
         25   -1    0    0    0    0  0.00000000000E+00  0.00000000000E+00  0.99999998245E-14  0.12500000000E+03  0.12500000000E+03 0.  0.
        -13    1    1    0    0    0 -0.28953753949E+01 -0.97445768176E-01 -0.27431743646E+01  0.39910980927E+01  0.10566000000E+00 0. -1.
         13    1    1    0    0    0 -0.44267375170E+02 -0.19657800586E+01 -0.38211860498E+02  0.58511727393E+02  0.10566000000E+00 0.  1.
         22    1    1    0    0    0  0.47162750565E+02  0.20632258268E+01  0.40955034863E+02  0.62497174515E+02  0.00000000000E+00 0.  1.
</event>
<event>
 4    1  0.9925048E-003  0.9118800E+02  0.7818608E-02  0.1130116E+00
         25   -1    0    0    0    0  0.00000000000E+00  0.00000000000E+00  0.99999998245E-14  0.12500000000E+03  0.12500000000E+03 0.  0.
        -13    1    1    0    0    0 -0.65660161982E+01 -0.54657132874E+01  0.47280972926E+01  0.97648685858E+01  0.10566000000E+00 0. -1.
         13    1    1    0    0    0 -0.26328877209E+02 -0.10875453952E+02  0.45093407814E+02  0.53337715231E+02  0.10566000000E+00 0.  1.
         22    1    1    0    0    0  0.32894893408E+02  0.16341167239E+02 -0.49821505107E+02  0.61897416183E+02  0.00000000000E+00 0.  1.
</event>
<event>
 4    1  0.9925048E-003  0.9118800E+02  0.7818608E-02  0.1130116E+00
         25   -1    0    0    0    0  0.00000000000E+00  0.00000000000E+00  0.99999998245E-14  0.12500000000E+03  0.12500000000E+03 0.  0.
        -13    1    1    0    0    0  0.16593834804E+02 -0.26136943411E+01  0.67312063644E+01  0.18097155985E+02  0.10566000000E+00 0.  1.
         13    1    1    0    0    0  0.40271505724E+02 -0.61151835582E+01  0.17682460032E+02  0.44405745125E+02  0.10566000000E+00 0. -1.
         22    1    1    0    0    0 -0.56865340528E+02  0.87288778993E+01 -0.24413666396E+02  0.62497098890E+02  0.00000000000E+00 0. -1.
</event>
<event>
 4    1  0.9925048E-003  0.9118800E+02  0.7818608E-02  0.1130116E+00
         25   -1    0    0    0    0  0.00000000000E+00  0.00000000000E+00  0.99999998245E-14  0.12500000000E+03  0.12500000000E+03 0.  0.
        -13    1    1    0    0    0 -0.66109218051E+01 -0.23751460926E+02  0.18475110215E+02  0.30808717025E+02  0.10566000000E+00 0.  1.
         13    1    1    0    0    0 -0.57748061132E+01 -0.25180881312E+02  0.18368710286E+02  0.31699303634E+02  0.10566000000E+00 0. -1.
         22    1    1    0    0    0  0.12385727918E+02  0.48932342237E+02 -0.36843820501E+02  0.62491979341E+02  0.00000000000E+00 0. -1.
</event>
<event>
 4    1  0.9925048E-003  0.9118800E+02  0.7818608E-02  0.1130116E+00
         25   -1    0    0    0    0  0.00000000000E+00  0.00000000000E+00  0.99999998245E-14  0.12500000000E+03  0.12500000000E+03 0.  0.
        -13    1    1    0    0    0  0.25837807106E+01 -0.20404428643E+01 -0.83917029992E+01  0.90150525847E+01  0.10566000000E+00 0. -1.
         13    1    1    0    0    0  0.58190782482E+00 -0.45871052071E+02 -0.29738471676E+02  0.54670649314E+02  0.10566000000E+00 0.  1.
         22    1    1    0    0    0 -0.31656885354E+01  0.47911494935E+02  0.38130174676E+02  0.61314298101E+02  0.00000000000E+00 0.  1.
</event>
<event>
 4    1  0.9925048E-003  0.9118800E+02  0.7818608E-02  0.1130116E+00
         25   -1    0    0    0    0  0.00000000000E+00  0.00000000000E+00  0.99999998245E-14  0.12500000000E+03  0.12500000000E+03 0.  0.
        -13    1    1    0    0    0  0.38671200830E+02  0.24688608872E+02  0.33874401563E+01  0.46005163803E+02  0.10566000000E+00 0.  1.
         13    1    1    0    0    0  0.13990655399E+02  0.87524466180E+01  0.26775436314E+00  0.16505351155E+02  0.10566000000E+00 0. -1.
         22    1    1    0    0    0 -0.52661856230E+02 -0.33441055490E+02 -0.36551945194E+01  0.62489485042E+02  0.00000000000E+00 0.  1.
</event>
<event>
 4    1  0.9925048E-003  0.9118800E+02  0.7818608E-02  0.1130116E+00
         25   -1    0    0    0    0  0.00000000000E+00  0.00000000000E+00  0.99999998245E-14  0.12500000000E+03  0.12500000000E+03 0.  0.
        -13    1    1    0    0    0 -0.16054255711E+01  0.12211595102E+02  0.19171840428E+02  0.22787520173E+02  0.10566000000E+00 0.  1.
         13    1    1    0    0    0  0.10188649081E+02  0.21274719468E+02  0.32430031759E+02  0.40101625683E+02  0.10566000000E+00 0. -1.
         22    1    1    0    0    0 -0.85832235095E+01 -0.33486314570E+02 -0.51601872187E+02  0.62110854144E+02  0.00000000000E+00 0. -1.
</event>
<event>
 4    1  0.9925048E-003  0.9118800E+02  0.7818608E-02  0.1130116E+00
         25   -1    0    0    0    0  0.00000000000E+00  0.00000000000E+00  0.99999998245E-14  0.12500000000E+03  0.12500000000E+03 0.  0.
        -13    1    1    0    0    0  0.79399127711E+00 -0.13873740141E+00 -0.90330819128E+00  0.12152365773E+01  0.10566000000E+00 0.  1.
         13    1    1    0    0    0  0.52216488376E+01  0.20014733005E+02 -0.57867306043E+02  0.61453164496E+02  0.10566000000E+00 0. -1.
         22    1    1    0    0    0 -0.60156401147E+01 -0.19875995603E+02  0.58770614235E+02  0.62331598927E+02  0.00000000000E+00 0. -1.
</event>
<event>
 4    1  0.9925048E-003  0.9118800E+02  0.7818608E-02  0.1130116E+00
         25   -1    0    0    0    0  0.00000000000E+00  0.00000000000E+00  0.99999998245E-14  0.12500000000E+03  0.12500000000E+03 0.  0.
        -13    1    1    0    0    0 -0.81868217597E+01  0.23439419652E-01 -0.11614719930E+00  0.81883608946E+01  0.10566000000E+00 0.  1.
         13    1    1    0    0    0 -0.53966666474E+02 -0.22754318950E+00 -0.62715573639E+01  0.54330437712E+02  0.10566000000E+00 0. -1.
         22    1    1    0    0    0  0.62153488234E+02  0.20410376984E+00  0.63877045632E+01  0.62481201393E+02  0.00000000000E+00 0. -1.
</event>
<event>
 4    1  0.9925048E-003  0.9118800E+02  0.7818608E-02  0.1130116E+00
         25   -1    0    0    0    0  0.00000000000E+00  0.00000000000E+00  0.99999998245E-14  0.12500000000E+03  0.12500000000E+03 0.  0.
        -13    1    1    0    0    0  0.12380339399E+02  0.12320724846E+02  0.56361571994E+01  0.18353487309E+02  0.10566000000E+00 0. -1.
         13    1    1    0    0    0  0.30092564729E+02  0.62781522881E+01 -0.38901358449E+02  0.49581291848E+02  0.10566000000E+00 0.  1.
         22    1    1    0    0    0 -0.42472904128E+02 -0.18598877134E+02  0.33265201249E+02  0.57065220843E+02  0.00000000000E+00 0.  1.
</event>
<event>
 4    1  0.9925048E-003  0.9118800E+02  0.7818608E-02  0.1130116E+00
         25   -1    0    0    0    0  0.00000000000E+00  0.00000000000E+00  0.99999998245E-14  0.12500000000E+03  0.12500000000E+03 0.  0.
        -13    1    1    0    0    0  0.42966115675E+01 -0.27160401659E+02  0.51937765838E+02  0.58768111877E+02  0.10566000000E+00 0. -1.
         13    1    1    0    0    0 -0.43732276172E+01 -0.18620738967E+01  0.18597423724E+01  0.51051194614E+01  0.10566000000E+00 0.  1.
         22    1    1    0    0    0  0.76616049648E-01  0.29022475555E+02 -0.53797508211E+02  0.61126768662E+02  0.00000000000E+00 0. -1.
</event>
<event>
 4    1  0.9925048E-003  0.9118800E+02  0.7818608E-02  0.1130116E+00
         25   -1    0    0    0    0  0.00000000000E+00  0.00000000000E+00  0.99999998245E-14  0.12500000000E+03  0.12500000000E+03 0.  0.
        -13    1    1    0    0    0 -0.27337493743E+02 -0.21910276601E+01 -0.20805257936E+02  0.34423960960E+02  0.10566000000E+00 0. -1.
         13    1    1    0    0    0 -0.22184561629E+02 -0.20537977157E+01 -0.17085575417E+02  0.28076696941E+02  0.10566000000E+00 0. -1.
         22    1    1    0    0    0  0.49522055372E+02  0.42448253758E+01  0.37890833353E+02  0.62499342100E+02  0.00000000000E+00 0. -1.
</event>
<event>
 4    1  0.9925048E-003  0.9118800E+02  0.7818608E-02  0.1130116E+00
         25   -1    0    0    0    0  0.00000000000E+00  0.00000000000E+00  0.99999998245E-14  0.12500000000E+03  0.12500000000E+03 0.  0.
        -13    1    1    0    0    0  0.48722369632E+01 -0.57937492528E+01  0.19130050642E+02  0.20573677965E+02  0.10566000000E+00 0. -1.
         13    1    1    0    0    0  0.85800895557E+01 -0.10309592082E+02  0.39732572086E+02  0.41935594360E+02  0.10566000000E+00 0.  1.
         22    1    1    0    0    0 -0.13452326519E+02  0.16103341334E+02 -0.58862622728E+02  0.62490727675E+02  0.00000000000E+00 0.  1.
</event>
<event>
 4    1  0.9925048E-003  0.9118800E+02  0.7818608E-02  0.1130116E+00
         25   -1    0    0    0    0  0.00000000000E+00  0.00000000000E+00  0.99999998245E-14  0.12500000000E+03  0.12500000000E+03 0.  0.
        -13    1    1    0    0    0 -0.36054518742E+00  0.36747032010E+02 -0.28442415352E+02  0.46469952760E+02  0.10566000000E+00 0.  1.
         13    1    1    0    0    0  0.65418423252E+01 -0.69107453805E+01 -0.19514958211E+02  0.21711721735E+02  0.10566000000E+00 0. -1.
         22    1    1    0    0    0 -0.61812971378E+01 -0.29836286629E+02  0.47957373563E+02  0.56818325505E+02  0.00000000000E+00 0. -1.
</event>
<event>
 4    1  0.9925048E-003  0.9118800E+02  0.7818608E-02  0.1130116E+00
         25   -1    0    0    0    0  0.00000000000E+00  0.00000000000E+00  0.99999998245E-14  0.12500000000E+03  0.12500000000E+03 0.  0.
        -13    1    1    0    0    0  0.68145924319E+01 -0.39970218992E+00 -0.26393157564E+01  0.73195343807E+01  0.10566000000E+00 0.  1.
         13    1    1    0    0    0  0.51520541010E+02  0.19323816539E+02 -0.74527704193E+01  0.55527749662E+02  0.10566000000E+00 0. -1.
         22    1    1    0    0    0 -0.58335133441E+02 -0.18924114349E+02  0.10092086176E+02  0.62152715958E+02  0.00000000000E+00 0. -1.
</event>
<event>
 4    1  0.9925048E-003  0.9118800E+02  0.7818608E-02  0.1130116E+00
         25   -1    0    0    0    0  0.00000000000E+00  0.00000000000E+00  0.99999998245E-14  0.12500000000E+03  0.12500000000E+03 0.  0.
        -13    1    1    0    0    0 -0.16610012789E+02 -0.38573629900E+01  0.17426326342E+02  0.24381546052E+02  0.10566000000E+00 0.  1.
         13    1    1    0    0    0 -0.26664579286E+02  0.49208630826E+01  0.27228105671E+02  0.38426495865E+02  0.10566000000E+00 0. -1.
         22    1    1    0    0    0  0.43274592075E+02 -0.10635000926E+01 -0.44654432013E+02  0.62191958083E+02  0.00000000000E+00 0.  1.
</event>
<event>
 4    1  0.9925048E-003  0.9118800E+02  0.7818608E-02  0.1130116E+00
         25   -1    0    0    0    0  0.00000000000E+00  0.00000000000E+00  0.99999998245E-14  0.12500000000E+03  0.12500000000E+03 0.  0.
        -13    1    1    0    0    0  0.16511195945E+01 -0.15108194712E+01 -0.22818068693E+01  0.31979021270E+01  0.10566000000E+00 0.  1.
         13    1    1    0    0    0  0.57070809354E+02  0.12460064193E+02 -0.13631690066E+02  0.59984703201E+02  0.10566000000E+00 0. -1.
         22    1    1    0    0    0 -0.58721928948E+02 -0.10949244721E+02  0.15913496936E+02  0.61817394672E+02  0.00000000000E+00 0. -1.
</event>
<event>
 4    1  0.9925048E-003  0.9118800E+02  0.7818608E-02  0.1130116E+00
         25   -1    0    0    0    0  0.00000000000E+00  0.00000000000E+00  0.99999998245E-14  0.12500000000E+03  0.12500000000E+03 0.  0.
        -13    1    1    0    0    0  0.10800506064E+01  0.37201103242E+01 -0.41924038610E+02  0.42102754156E+02  0.10566000000E+00 0.  1.
         13    1    1    0    0    0  0.79010699347E+01 -0.72835520667E+01 -0.18667679156E+02  0.21539973211E+02  0.10566000000E+00 0. -1.
         22    1    1    0    0    0 -0.89811205411E+01  0.35634417425E+01  0.60591717765E+02  0.61357272633E+02  0.00000000000E+00 0.  1.
</event>
<event>
 4    1  0.9925048E-003  0.9118800E+02  0.7818608E-02  0.1130116E+00
         25   -1    0    0    0    0  0.00000000000E+00  0.00000000000E+00  0.99999998245E-14  0.12500000000E+03  0.12500000000E+03 0.  0.
        -13    1    1    0    0    0  0.14734142273E+02 -0.12130760712E+02 -0.19585888581E+01  0.19185868193E+02  0.10566000000E+00 0. -1.
         13    1    1    0    0    0  0.36908034395E+02 -0.21353766824E+02 -0.82341193711E+01  0.43428081311E+02  0.10566000000E+00 0.  1.
         22    1    1    0    0    0 -0.51642176668E+02  0.33484527536E+02  0.10192708229E+02  0.62386050496E+02  0.00000000000E+00 0.  1.
</event>
<event>
 4    1  0.9925048E-003  0.9118800E+02  0.7818608E-02  0.1130116E+00
         25   -1    0    0    0    0  0.00000000000E+00  0.00000000000E+00  0.99999998245E-14  0.12500000000E+03  0.12500000000E+03 0.  0.
        -13    1    1    0    0    0  0.13750108826E+01  0.43895818944E+01  0.17550712836E+02  0.18143808014E+02  0.10566000000E+00 0.  1.
         13    1    1    0    0    0  0.63522517069E+01  0.89194409622E+01  0.43004055887E+02  0.44376429730E+02  0.10566000000E+00 0. -1.
         22    1    1    0    0    0 -0.77272625895E+01 -0.13309022857E+02 -0.60554768723E+02  0.62479762257E+02  0.00000000000E+00 0. -1.
</event>
<event>
 4    1  0.9925048E-003  0.9118800E+02  0.7818608E-02  0.1130116E+00
         25   -1    0    0    0    0  0.00000000000E+00  0.00000000000E+00  0.99999998245E-14  0.12500000000E+03  0.12500000000E+03 0.  0.
        -13    1    1    0    0    0 -0.49184480634E+02  0.32729627887E+02 -0.51837281667E+01  0.59306187524E+02  0.10566000000E+00 0. -1.
         13    1    1    0    0    0 -0.23936289353E+01  0.21534442715E+01  0.18103419536E+00  0.32265646013E+01  0.10566000000E+00 0.  1.
         22    1    1    0    0    0  0.51578109570E+02 -0.34883072159E+02  0.50026939714E+01  0.62467247874E+02  0.00000000000E+00 0. -1.
</event>
<event>
 4    1  0.9925048E-003  0.9118800E+02  0.7818608E-02  0.1130116E+00
         25   -1    0    0    0    0  0.00000000000E+00  0.00000000000E+00  0.99999998245E-14  0.12500000000E+03  0.12500000000E+03 0.  0.
        -13    1    1    0    0    0  0.13966984116E+02 -0.30565459850E+02 -0.22837237932E+02  0.40630955952E+02  0.10566000000E+00 0.  1.
         13    1    1    0    0    0 -0.21471710942E+01 -0.70426983522E+01 -0.22860432783E+02  0.24017087560E+02  0.10566000000E+00 0. -1.
         22    1    1    0    0    0 -0.11819813021E+02  0.37608158203E+02  0.45697670715E+02  0.60351956489E+02  0.00000000000E+00 0.  1.
</event>
<event>
 4    1  0.9925048E-003  0.9118800E+02  0.7818608E-02  0.1130116E+00
         25   -1    0    0    0    0  0.00000000000E+00  0.00000000000E+00  0.99999998245E-14  0.12500000000E+03  0.12500000000E+03 0.  0.
        -13    1    1    0    0    0 -0.12906002396E+01  0.13037441101E+01  0.43158666207E+00  0.18875456989E+01  0.10566000000E+00 0.  1.
         13    1    1    0    0    0 -0.26174576719E+02  0.54244672706E+02  0.72761361578E+01  0.60667506169E+02  0.10566000000E+00 0. -1.
         22    1    1    0    0    0  0.27465176958E+02 -0.55548416816E+02 -0.77077228199E+01  0.62444948132E+02  0.00000000000E+00 0. -1.
</event>
<event>
 4    1  0.9925048E-003  0.9118800E+02  0.7818608E-02  0.1130116E+00
         25   -1    0    0    0    0  0.00000000000E+00  0.00000000000E+00  0.99999998245E-14  0.12500000000E+03  0.12500000000E+03 0.  0.
        -13    1    1    0    0    0 -0.35512806491E+01  0.47705443018E+01 -0.26439278198E+01  0.65093168256E+01  0.10566000000E+00 0. -1.
         13    1    1    0    0    0  0.35533765994E+02 -0.34525718393E+02  0.37880680144E+02  0.62366905073E+02  0.10566000000E+00 0.  1.
         22    1    1    0    0    0 -0.31982485344E+02  0.29755174091E+02 -0.35236752324E+02  0.56123778101E+02  0.00000000000E+00 0.  1.
</event>
<event>
 4    1  0.9925048E-003  0.9118800E+02  0.7818608E-02  0.1130116E+00
         25   -1    0    0    0    0  0.00000000000E+00  0.00000000000E+00  0.99999998245E-14  0.12500000000E+03  0.12500000000E+03 0.  0.
        -13    1    1    0    0    0  0.45718399262E+01 -0.11684389560E+02  0.14852594624E+02  0.19443184173E+02  0.10566000000E+00 0.  1.
         13    1    1    0    0    0 -0.15276698999E+02 -0.27999573097E+02  0.30652249648E+02  0.44237147268E+02  0.10566000000E+00 0. -1.
         22    1    1    0    0    0  0.10704859073E+02  0.39683962657E+02 -0.45504844272E+02  0.61319668558E+02  0.00000000000E+00 0. -1.
</event>
<event>
 4    1  0.9925048E-003  0.9118800E+02  0.7818608E-02  0.1130116E+00
         25   -1    0    0    0    0  0.00000000000E+00  0.00000000000E+00  0.99999998245E-14  0.12500000000E+03  0.12500000000E+03 0.  0.
        -13    1    1    0    0    0  0.43988645481E+02  0.31655018819E+02  0.25438285788E+01  0.54254247535E+02  0.10566000000E+00 0. -1.
         13    1    1    0    0    0  0.67735197052E+01  0.46267908316E+01  0.91647692153E+00  0.82546263743E+01  0.10566000000E+00 0.  1.
         22    1    1    0    0    0 -0.50762165186E+02 -0.36281809651E+02 -0.34603055003E+01  0.62491126091E+02  0.00000000000E+00 0. -1.
</event>
<event>
 4    1  0.9925048E-003  0.9118800E+02  0.7818608E-02  0.1130116E+00
         25   -1    0    0    0    0  0.00000000000E+00  0.00000000000E+00  0.99999998245E-14  0.12500000000E+03  0.12500000000E+03 0.  0.
        -13    1    1    0    0    0 -0.23017040993E+02 -0.83565626431E+01 -0.30185508842E+02  0.38868913329E+02  0.10566000000E+00 0.  1.
         13    1    1    0    0    0 -0.13829379739E+02 -0.54400752940E+01 -0.18374674330E+02  0.23632308053E+02  0.10566000000E+00 0.  1.
         22    1    1    0    0    0  0.36846420732E+02  0.13796637937E+02  0.48560183172E+02  0.62498778618E+02  0.00000000000E+00 0.  1.
</event>
<event>
 4    1  0.9925048E-003  0.9118800E+02  0.7818608E-02  0.1130116E+00
         25   -1    0    0    0    0  0.00000000000E+00  0.00000000000E+00  0.99999998245E-14  0.12500000000E+03  0.12500000000E+03 0.  0.
        -13    1    1    0    0    0  0.28060317298E+01 -0.41783932946E+02  0.13607629976E+02  0.44033505699E+02  0.10566000000E+00 0. -1.
         13    1    1    0    0    0  0.16941933486E+02 -0.71697770229E+01 -0.20713328384E+02  0.27703572867E+02  0.10566000000E+00 0.  1.
         22    1    1    0    0    0 -0.19747965216E+02  0.48953709969E+02  0.71056984080E+01  0.53262921435E+02  0.00000000000E+00 0.  1.
</event>
<event>
 4    1  0.9925048E-003  0.9118800E+02  0.7818608E-02  0.1130116E+00
         25   -1    0    0    0    0  0.00000000000E+00  0.00000000000E+00  0.99999998245E-14  0.12500000000E+03  0.12500000000E+03 0.  0.
        -13    1    1    0    0    0  0.36916845658E+00 -0.41390660503E+01  0.99614608301E+01  0.10793980685E+02  0.10566000000E+00 0. -1.
         13    1    1    0    0    0 -0.93718020097E+00 -0.19477238981E+02  0.47895071614E+02  0.51712572882E+02  0.10566000000E+00 0.  1.
         22    1    1    0    0    0  0.56801174439E+00  0.23616305031E+02 -0.57856532444E+02  0.62493446434E+02  0.00000000000E+00 0.  1.
</event>
<event>
 4    1  0.9925048E-003  0.9118800E+02  0.7818608E-02  0.1130116E+00
         25   -1    0    0    0    0  0.00000000000E+00  0.00000000000E+00  0.99999998245E-14  0.12500000000E+03  0.12500000000E+03 0.  0.
        -13    1    1    0    0    0 -0.18949711579E+02 -0.33129966389E+01 -0.13913603841E+02  0.23741673310E+02  0.10566000000E+00 0.  1.
         13    1    1    0    0    0 -0.31201895740E+02 -0.52173680227E+01 -0.22393573027E+02  0.38759031254E+02  0.10566000000E+00 0. -1.
         22    1    1    0    0    0  0.50151607319E+02  0.85303646615E+01  0.36307176868E+02  0.62499295436E+02  0.00000000000E+00 0. -1.
</event>
<event>
 4    1  0.9925048E-003  0.9118800E+02  0.7818608E-02  0.1130116E+00
         25   -1    0    0    0    0  0.00000000000E+00  0.00000000000E+00  0.99999998245E-14  0.12500000000E+03  0.12500000000E+03 0.  0.
        -13    1    1    0    0    0 -0.13879089644E+02  0.29051057401E+02  0.49947900593E+02  0.59425558500E+02  0.10566000000E+00 0. -1.
         13    1    1    0    0    0  0.82264800491E+00  0.54367486153E+01 -0.81807909680E+01  0.98575600502E+01  0.10566000000E+00 0.  1.
         22    1    1    0    0    0  0.13056441639E+02 -0.34487806016E+02 -0.41767109625E+02  0.55716881449E+02  0.00000000000E+00 0. -1.
</event>
<event>
 4    1  0.9925048E-003  0.9118800E+02  0.7818608E-02  0.1130116E+00
         25   -1    0    0    0    0  0.00000000000E+00  0.00000000000E+00  0.99999998245E-14  0.12500000000E+03  0.12500000000E+03 0.  0.
        -13    1    1    0    0    0 -0.13378051909E+02 -0.11434523175E+02  0.23674204214E+02  0.29499147485E+02  0.10566000000E+00 0.  1.
         13    1    1    0    0    0 -0.16327144155E+02 -0.18154570559E+02  0.22449510580E+02  0.33168595957E+02  0.10566000000E+00 0. -1.
         22    1    1    0    0    0  0.29705196064E+02  0.29589093734E+02 -0.46123714794E+02  0.62332256558E+02  0.00000000000E+00 0. -1.
</event>
<event>
 4    1  0.9925048E-003  0.9118800E+02  0.7818608E-02  0.1130116E+00
         25   -1    0    0    0    0  0.00000000000E+00  0.00000000000E+00  0.99999998245E-14  0.12500000000E+03  0.12500000000E+03 0.  0.
        -13    1    1    0    0    0  0.34426091460E+02 -0.38736077197E+02 -0.26229596355E+02  0.58083064131E+02  0.10566000000E+00 0.  1.
         13    1    1    0    0    0  0.20276174409E+01 -0.32437984479E+01 -0.22598700779E+01  0.44442814562E+01  0.10566000000E+00 0. -1.
         22    1    1    0    0    0 -0.36453708901E+02  0.41979875645E+02  0.28489466432E+02  0.62472654413E+02  0.00000000000E+00 0.  1.
</event>
<event>
 4    1  0.9925048E-003  0.9118800E+02  0.7818608E-02  0.1130116E+00
         25   -1    0    0    0    0  0.00000000000E+00  0.00000000000E+00  0.99999998245E-14  0.12500000000E+03  0.12500000000E+03 0.  0.
        -13    1    1    0    0    0 -0.13588170546E+02  0.90436540259E+01  0.77206661846E+00  0.16341153809E+02  0.10566000000E+00 0. -1.
         13    1    1    0    0    0 -0.38727961344E+02  0.24958700555E+02  0.28235029080E+01  0.46160319063E+02  0.10566000000E+00 0. -1.
         22    1    1    0    0    0  0.52316131890E+02 -0.34002354581E+02 -0.35955695265E+01  0.62498527128E+02  0.00000000000E+00 0. -1.
</event>
<event>
 4    1  0.9925048E-003  0.9118800E+02  0.7818608E-02  0.1130116E+00
         25   -1    0    0    0    0  0.00000000000E+00  0.00000000000E+00  0.99999998245E-14  0.12500000000E+03  0.12500000000E+03 0.  0.
        -13    1    1    0    0    0  0.35675148937E+01 -0.23107416215E+02  0.26440479938E+01  0.23530448369E+02  0.10566000000E+00 0. -1.
         13    1    1    0    0    0  0.55133294674E+01 -0.38293326310E+02  0.46797964216E+01  0.38970338724E+02  0.10566000000E+00 0. -1.
         22    1    1    0    0    0 -0.90808443611E+01  0.61400742525E+02 -0.73238444153E+01  0.62499212906E+02  0.00000000000E+00 0. -1.
</event>
<event>
 4    1  0.9925048E-003  0.9118800E+02  0.7818608E-02  0.1130116E+00
         25   -1    0    0    0    0  0.00000000000E+00  0.00000000000E+00  0.99999998245E-14  0.12500000000E+03  0.12500000000E+03 0.  0.
        -13    1    1    0    0    0  0.36916501820E+00  0.46731166269E+02 -0.96828787805E+01  0.47725333830E+02  0.10566000000E+00 0. -1.
         13    1    1    0    0    0  0.32484591233E+00  0.14686073255E+02 -0.17652287687E+01  0.14795724692E+02  0.10566000000E+00 0.  1.
         22    1    1    0    0    0 -0.69401093052E+00 -0.61417239523E+02  0.11448107549E+02  0.62478941479E+02  0.00000000000E+00 0. -1.
</event>
<event>
 4    1  0.9925048E-003  0.9118800E+02  0.7818608E-02  0.1130116E+00
         25   -1    0    0    0    0  0.00000000000E+00  0.00000000000E+00  0.99999998245E-14  0.12500000000E+03  0.12500000000E+03 0.  0.
        -13    1    1    0    0    0  0.13551110046E+02 -0.65865440283E+01  0.18015942448E+02  0.23486176616E+02  0.10566000000E+00 0.  1.
         13    1    1    0    0    0  0.22444019275E+02 -0.11189439909E+02  0.29885736816E+02  0.39014176856E+02  0.10566000000E+00 0.  1.
         22    1    1    0    0    0 -0.35995129321E+02  0.17775983937E+02 -0.47901679264E+02  0.62499646528E+02  0.00000000000E+00 0.  1.
</event>
<event>
 4    1  0.9925048E-003  0.9118800E+02  0.7818608E-02  0.1130116E+00
         25   -1    0    0    0    0  0.00000000000E+00  0.00000000000E+00  0.99999998245E-14  0.12500000000E+03  0.12500000000E+03 0.  0.
        -13    1    1    0    0    0 -0.43195599702E-01  0.46934882406E+01 -0.68429044185E-01  0.46953747768E+01  0.10566000000E+00 0. -1.
         13    1    1    0    0    0 -0.83022178143E+01  0.56997089018E+02  0.52466905345E+01  0.57837132560E+02  0.10566000000E+00 0.  1.
         22    1    1    0    0    0  0.83454134140E+01 -0.61690577259E+02 -0.51782614903E+01  0.62467492663E+02  0.00000000000E+00 0.  1.
</event>
<event>
 4    1  0.9925048E-003  0.9118800E+02  0.7818608E-02  0.1130116E+00
         25   -1    0    0    0    0  0.00000000000E+00  0.00000000000E+00  0.99999998245E-14  0.12500000000E+03  0.12500000000E+03 0.  0.
        -13    1    1    0    0    0  0.18797156236E+02  0.88532256256E+01  0.23140993225E+02  0.31100312185E+02  0.10566000000E+00 0. -1.
         13    1    1    0    0    0  0.18963500603E+02  0.86851090931E+01  0.23471554838E+02  0.31400167605E+02  0.10566000000E+00 0.  1.
         22    1    1    0    0    0 -0.37760656839E+02 -0.17538334719E+02 -0.46612548063E+02  0.62499520210E+02  0.00000000000E+00 0.  1.
</event>
<event>
 4    1  0.9925048E-003  0.9118800E+02  0.7818608E-02  0.1130116E+00
         25   -1    0    0    0    0  0.00000000000E+00  0.00000000000E+00  0.99999998245E-14  0.12500000000E+03  0.12500000000E+03 0.  0.
        -13    1    1    0    0    0  0.18707665675E+00  0.26743243015E+01 -0.92696878611E+00  0.28385636000E+01  0.10566000000E+00 0.  1.
         13    1    1    0    0    0 -0.60146121850E+01  0.57887917799E+02 -0.13251618124E+02  0.59689221253E+02  0.10566000000E+00 0. -1.
         22    1    1    0    0    0  0.58275355282E+01 -0.60562242101E+02  0.14178586910E+02  0.62472215147E+02  0.00000000000E+00 0. -1.
</event>
<event>
 4    1  0.9925048E-003  0.9118800E+02  0.7818608E-02  0.1130116E+00
         25   -1    0    0    0    0  0.00000000000E+00  0.00000000000E+00  0.99999998245E-14  0.12500000000E+03  0.12500000000E+03 0.  0.
        -13    1    1    0    0    0  0.20966160573E+02 -0.55222011704E+02 -0.79237411136E+01  0.59597376646E+02  0.10566000000E+00 0. -1.
         13    1    1    0    0    0  0.39440694029E+00 -0.26202190838E+01 -0.14681295641E+01  0.30311175059E+01  0.10566000000E+00 0.  1.
         22    1    1    0    0    0 -0.21360567513E+02  0.57842230788E+02  0.93918706777E+01  0.62371505848E+02  0.00000000000E+00 0. -1.
</event>
<event>
 4    1  0.9925048E-003  0.9118800E+02  0.7818608E-02  0.1130116E+00
         25   -1    0    0    0    0  0.00000000000E+00  0.00000000000E+00  0.99999998245E-14  0.12500000000E+03  0.12500000000E+03 0.  0.
        -13    1    1    0    0    0 -0.10446072245E+01 -0.70655470008E+01  0.61780746069E+01  0.94442007898E+01  0.10566000000E+00 0.  1.
         13    1    1    0    0    0 -0.59871142289E+01 -0.39630361586E+02  0.34763977244E+02  0.53056162451E+02  0.10566000000E+00 0.  1.
         22    1    1    0    0    0  0.70317214534E+01  0.46695908586E+02 -0.40942051851E+02  0.62499636759E+02  0.00000000000E+00 0.  1.
</event>
<event>
 4    1  0.9925048E-003  0.9118800E+02  0.7818608E-02  0.1130116E+00
         25   -1    0    0    0    0  0.00000000000E+00  0.00000000000E+00  0.99999998245E-14  0.12500000000E+03  0.12500000000E+03 0.  0.
        -13    1    1    0    0    0  0.26811207736E+01 -0.11223537490E+02  0.29374726988E+01  0.11907817276E+02  0.10566000000E+00 0. -1.
         13    1    1    0    0    0  0.19680158382E+02 -0.45823114974E+02  0.89761654249E+01  0.50671976571E+02  0.10566000000E+00 0.  1.
         22    1    1    0    0    0 -0.22361279156E+02  0.57046652464E+02 -0.11913638124E+02  0.62420206153E+02  0.00000000000E+00 0.  1.
</event>
<event>
 4    1  0.9925048E-003  0.9118800E+02  0.7818608E-02  0.1130116E+00
         25   -1    0    0    0    0  0.00000000000E+00  0.00000000000E+00  0.99999998245E-14  0.12500000000E+03  0.12500000000E+03 0.  0.
        -13    1    1    0    0    0 -0.24061011734E+02  0.13578707230E+02 -0.21736095695E+02  0.35153699604E+02  0.10566000000E+00 0. -1.
         13    1    1    0    0    0 -0.87638177532E+01  0.10419012298E+02 -0.24650754339E+02  0.28160809157E+02  0.10566000000E+00 0.  1.
         22    1    1    0    0    0  0.32824829488E+02 -0.23997719528E+02  0.46386850034E+02  0.61685491240E+02  0.00000000000E+00 0.  1.
</event>
<event>
 4    1  0.9925048E-003  0.9118800E+02  0.7818608E-02  0.1130116E+00
         25   -1    0    0    0    0  0.00000000000E+00  0.00000000000E+00  0.99999998245E-14  0.12500000000E+03  0.12500000000E+03 0.  0.
        -13    1    1    0    0    0  0.29460649786E+01 -0.42089853739E+01  0.86453786385E+01  0.10057265661E+02  0.10566000000E+00 0.  1.
         13    1    1    0    0    0  0.15051306277E+02 -0.21753383149E+02  0.45282739474E+02  0.52443199344E+02  0.10566000000E+00 0. -1.
         22    1    1    0    0    0 -0.17997371256E+02  0.25962368523E+02 -0.53928118113E+02  0.62499534995E+02  0.00000000000E+00 0. -1.
</event>
<event>
 4    1  0.9925048E-003  0.9118800E+02  0.7818608E-02  0.1130116E+00
         25   -1    0    0    0    0  0.00000000000E+00  0.00000000000E+00  0.99999998245E-14  0.12500000000E+03  0.12500000000E+03 0.  0.
        -13    1    1    0    0    0 -0.29700580338E+02 -0.44805971550E+02 -0.15331033445E+02  0.55899475037E+02  0.10566000000E+00 0.  1.
         13    1    1    0    0    0 -0.34075167303E+01 -0.54680454913E+01 -0.14578661966E+01  0.66066050015E+01  0.10566000000E+00 0. -1.
         22    1    1    0    0    0  0.33108097068E+02  0.50274017041E+02  0.16788899642E+02  0.62493919961E+02  0.00000000000E+00 0.  1.
</event>
<event>
 4    1  0.9925048E-003  0.9118800E+02  0.7818608E-02  0.1130116E+00
         25   -1    0    0    0    0  0.00000000000E+00  0.00000000000E+00  0.99999998245E-14  0.12500000000E+03  0.12500000000E+03 0.  0.
        -13    1    1    0    0    0  0.46435449103E+02  0.23754768608E+02  0.24233861399E+02  0.57513747638E+02  0.10566000000E+00 0. -1.
         13    1    1    0    0    0  0.47734666585E+01  0.81800811559E+00  0.15810372867E+01  0.50956809314E+01  0.10566000000E+00 0.  1.
         22    1    1    0    0    0 -0.51208915761E+02 -0.24572776724E+02 -0.25814898686E+02  0.62390571431E+02  0.00000000000E+00 0. -1.
</event>
<event>
 4    1  0.9925048E-003  0.9118800E+02  0.7818608E-02  0.1130116E+00
         25   -1    0    0    0    0  0.00000000000E+00  0.00000000000E+00  0.99999998245E-14  0.12500000000E+03  0.12500000000E+03 0.  0.
        -13    1    1    0    0    0  0.40321410863E+02 -0.36917741745E+01  0.40282840000E+02  0.57115354617E+02  0.10566000000E+00 0. -1.
         13    1    1    0    0    0  0.50722106870E+01 -0.59973194070E+01 -0.32321438443E+01  0.84942968626E+01  0.10566000000E+00 0.  1.
         22    1    1    0    0    0 -0.45393621550E+02  0.96890935815E+01 -0.37050696155E+02  0.59390348521E+02  0.00000000000E+00 0. -1.
</event>
<event>
 4    1  0.9925048E-003  0.9118800E+02  0.7818608E-02  0.1130116E+00
         25   -1    0    0    0    0  0.00000000000E+00  0.00000000000E+00  0.99999998245E-14  0.12500000000E+03  0.12500000000E+03 0.  0.
        -13    1    1    0    0    0 -0.10996582035E+01 -0.41761554662E+02  0.31403205597E+01  0.41894026700E+02  0.10566000000E+00 0.  1.
         13    1    1    0    0    0 -0.59710243858E+00 -0.20538256272E+02  0.15581786571E+01  0.20606202629E+02  0.10566000000E+00 0.  1.
         22    1    1    0    0    0  0.16967606421E+01  0.62299810933E+02 -0.46984992168E+01  0.62499770671E+02  0.00000000000E+00 0.  1.
</event>
<event>
 4    1  0.9925048E-003  0.9118800E+02  0.7818608E-02  0.1130116E+00
         25   -1    0    0    0    0  0.00000000000E+00  0.00000000000E+00  0.99999998245E-14  0.12500000000E+03  0.12500000000E+03 0.  0.
        -13    1    1    0    0    0  0.42565002353E+02 -0.17745663843E+02 -0.34332703962E+02  0.57492901613E+02  0.10566000000E+00 0. -1.
         13    1    1    0    0    0  0.52712188336E+00 -0.19190870206E+01 -0.53532562327E+01  0.57122034978E+01  0.10566000000E+00 0.  1.
         22    1    1    0    0    0 -0.43092124236E+02  0.19664750863E+02  0.39685960195E+02  0.61794894889E+02  0.00000000000E+00 0. -1.
</event>
<event>
 4    1  0.9925048E-003  0.9118800E+02  0.7818608E-02  0.1130116E+00
         25   -1    0    0    0    0  0.00000000000E+00  0.00000000000E+00  0.99999998245E-14  0.12500000000E+03  0.12500000000E+03 0.  0.
        -13    1    1    0    0    0 -0.38690713787E+01 -0.64035897735E+01  0.23845996669E+02  0.24992366764E+02  0.10566000000E+00 0. -1.
         13    1    1    0    0    0 -0.61673849416E+01 -0.96174373392E+01  0.35725626763E+02  0.37508176570E+02  0.10566000000E+00 0.  1.
         22    1    1    0    0    0  0.10036456320E+02  0.16021027113E+02 -0.59571623432E+02  0.62499456665E+02  0.00000000000E+00 0.  1.
</event>
<event>
 4    1  0.9925048E-003  0.9118800E+02  0.7818608E-02  0.1130116E+00
         25   -1    0    0    0    0  0.00000000000E+00  0.00000000000E+00  0.99999998245E-14  0.12500000000E+03  0.12500000000E+03 0.  0.
        -13    1    1    0    0    0 -0.20916702682E+02  0.28243180400E+02  0.15936636730E+02  0.38589807521E+02  0.10566000000E+00 0. -1.
         13    1    1    0    0    0 -0.10148294716E+02  0.14699123489E+02  0.16462176618E+02  0.24291285269E+02  0.10566000000E+00 0.  1.
         22    1    1    0    0    0  0.31064997398E+02 -0.42942303889E+02 -0.32398813348E+02  0.62118907210E+02  0.00000000000E+00 0. -1.
</event>
<event>
 4    1  0.9925048E-003  0.9118800E+02  0.7818608E-02  0.1130116E+00
         25   -1    0    0    0    0  0.00000000000E+00  0.00000000000E+00  0.99999998245E-14  0.12500000000E+03  0.12500000000E+03 0.  0.
        -13    1    1    0    0    0 -0.41366274738E+02  0.36719307641E+02  0.91648794642E+01  0.56066767510E+02  0.10566000000E+00 0. -1.
         13    1    1    0    0    0 -0.37906664546E+01  0.52935045438E+01 -0.21489580479E+01  0.68570786238E+01  0.10566000000E+00 0.  1.
         22    1    1    0    0    0  0.45156941193E+02 -0.42012812185E+02 -0.70159214163E+01  0.62076153867E+02  0.00000000000E+00 0. -1.
</event>
<event>
 4    1  0.9925048E-003  0.9118800E+02  0.7818608E-02  0.1130116E+00
         25   -1    0    0    0    0  0.00000000000E+00  0.00000000000E+00  0.99999998245E-14  0.12500000000E+03  0.12500000000E+03 0.  0.
        -13    1    1    0    0    0  0.50115472978E+02 -0.54170120814E+01 -0.11637297554E+02  0.51733379071E+02  0.10566000000E+00 0.  1.
         13    1    1    0    0    0  0.10382257982E+02 -0.10643551616E+01 -0.26486667053E+01  0.10768042165E+02  0.10566000000E+00 0. -1.
         22    1    1    0    0    0 -0.60497730960E+02  0.64813672430E+01  0.14285964260E+02  0.62498578764E+02  0.00000000000E+00 0.  1.
</event>
<event>
 4    1  0.9925048E-003  0.9118800E+02  0.7818608E-02  0.1130116E+00
         25   -1    0    0    0    0  0.00000000000E+00  0.00000000000E+00  0.99999998245E-14  0.12500000000E+03  0.12500000000E+03 0.  0.
        -13    1    1    0    0    0  0.15551343023E+02  0.30709041704E+01  0.44291111777E+01  0.16459128534E+02  0.10566000000E+00 0.  1.
         13    1    1    0    0    0  0.42855473626E+02  0.89237101265E+01  0.14286039036E+02  0.46047000961E+02  0.10566000000E+00 0. -1.
         22    1    1    0    0    0 -0.58406816649E+02 -0.11994614297E+02 -0.18715150214E+02  0.62493870505E+02  0.00000000000E+00 0. -1.
</event>
