<event>
 5    1  0.2491889E-009  0.9118800E+02  0.7818608E-02  0.1130116E+00
         25   -1    0    0    0    0  0.00000000000E+00  0.00000000000E+00  0.99999998245E-14  0.12500000000E+03  0.12500000000E+03 0.  0.
        -13    1    3    3    0    0 -0.53748433139E+02  0.11319737936E+02  0.29013353022E+02  0.62119371773E+02  0.10566000000E+00 0.  1.
         23    2    1    0    0    0 -0.24406922461E+02  0.99664852459E+00  0.15760110616E+02  0.95929873428E+02  0.91419190310E+02 0.  0.
         13    1    3    3    0    0  0.29341510678E+02 -0.10323089411E+02 -0.13253242406E+02  0.33810501655E+02  0.10566000000E+00 0. -1.
         22    1    1    0    0    0  0.24406922461E+02 -0.99664852459E+00 -0.15760110616E+02  0.29070126572E+02  0.00000000000E+00 0.  1.
</event>
<event>
 5    1  0.2491889E-009  0.9118800E+02  0.7818608E-02  0.1130116E+00
         25   -1    0    0    0    0  0.00000000000E+00  0.00000000000E+00  0.99999998245E-14  0.12500000000E+03  0.12500000000E+03 0.  0.
        -13    1    3    3    0    0 -0.39125769777E+01 -0.16338396324E+02  0.55174198988E+02  0.57675426752E+02  0.10566000000E+00 0.  1.
         23    2    1    0    0    0 -0.40078238578E+01 -0.23219742939E+02  0.18357407963E+02  0.95130056221E+02  0.90318957342E+02 0.  0.
         13    1    3    3    0    0 -0.95246880159E-01 -0.68813466148E+01 -0.36816791025E+02  0.37454629469E+02  0.10566000000E+00 0. -1.
         22    1    1    0    0    0  0.40078238578E+01  0.23219742939E+02 -0.18357407963E+02  0.29869943779E+02  0.00000000000E+00 0.  1.
</event>
<event>
 5    1  0.2491889E-009  0.9118800E+02  0.7818608E-02  0.1130116E+00
         25   -1    0    0    0    0  0.00000000000E+00  0.00000000000E+00  0.99999998245E-14  0.12500000000E+03  0.12500000000E+03 0.  0.
        -13    1    3    3    0    0 -0.30012078148E+02 -0.83665172957E+01  0.16099658923E+02  0.35070409576E+02  0.10566000000E+00 0.  1.
         23    2    1    0    0    0  0.34107196415E+01  0.30526594610E+02 -0.10111430252E+02  0.92661988176E+02  0.86836035400E+02 0.  0.
         13    1    3    3    0    0  0.33422797789E+02  0.38893111906E+02 -0.26211089175E+02  0.57591578599E+02  0.10566000000E+00 0. -1.
         22    1    1    0    0    0 -0.34107196415E+01 -0.30526594610E+02  0.10111430252E+02  0.32338011824E+02  0.00000000000E+00 0. -1.
</event>
<event>
 5    1  0.2491889E-009  0.9118800E+02  0.7818608E-02  0.1130116E+00
         25   -1    0    0    0    0  0.00000000000E+00  0.00000000000E+00  0.99999998245E-14  0.12500000000E+03  0.12500000000E+03 0.  0.
        -13    1    3    3    0    0  0.45188436200E+02 -0.32840418303E+01 -0.30812055478E+02  0.54792094537E+02  0.10566000000E+00 0.  1.
         23    2    1    0    0    0  0.11054224048E+02 -0.21489207494E+02 -0.14812736164E+02  0.96655704971E+02  0.92406310622E+02 0.  0.
         13    1    3    3    0    0 -0.34134212151E+02 -0.18205165664E+02  0.15999319314E+02  0.41863610434E+02  0.10566000000E+00 0. -1.
         22    1    1    0    0    0 -0.11054224048E+02  0.21489207494E+02  0.14812736164E+02  0.28344295029E+02  0.00000000000E+00 0.  1.
</event>
<event>
 5    1  0.2491889E-009  0.9118800E+02  0.7818608E-02  0.1130116E+00
         25   -1    0    0    0    0  0.00000000000E+00  0.00000000000E+00  0.99999998245E-14  0.12500000000E+03  0.12500000000E+03 0.  0.
        -13    1    3    3    0    0  0.47640901563E+02 -0.12227672910E+02  0.10988376906E+02  0.50397689209E+02  0.10566000000E+00 0. -1.
         23    2    1    0    0    0  0.32341322793E+01 -0.86204577170E+01  0.26004783365E+02  0.97413397080E+02  0.93425634972E+02 0.  0.
         13    1    3    3    0    0 -0.44406769284E+02  0.36072151926E+01  0.15016406459E+02  0.47015707871E+02  0.10566000000E+00 0.  1.
         22    1    1    0    0    0 -0.32341322793E+01  0.86204577170E+01 -0.26004783365E+02  0.27586602920E+02  0.00000000000E+00 0.  1.
</event>
<event>
 5    1  0.2491889E-009  0.9118800E+02  0.7818608E-02  0.1130116E+00
         25   -1    0    0    0    0  0.00000000000E+00  0.00000000000E+00  0.99999998245E-14  0.12500000000E+03  0.12500000000E+03 0.  0.
        -13    1    3    3    0    0  0.10496126802E+02 -0.36937410090E+02 -0.12596374789E+02  0.40413126133E+02  0.10566000000E+00 0.  1.
         23    2    1    0    0    0  0.23675952129E+02  0.44622495927E+01  0.19150669594E+02  0.94223214487E+02  0.89055059495E+02 0.  0.
         13    1    3    3    0    0  0.13179825326E+02  0.41399659683E+02  0.31747044384E+02  0.53810088353E+02  0.10566000000E+00 0. -1.
         22    1    1    0    0    0 -0.23675952129E+02 -0.44622495927E+01 -0.19150669594E+02  0.30776785513E+02  0.00000000000E+00 0. -1.
</event>
<event>
 5    1  0.2491889E-009  0.9118800E+02  0.7818608E-02  0.1130116E+00
         25   -1    0    0    0    0  0.00000000000E+00  0.00000000000E+00  0.99999998245E-14  0.12500000000E+03  0.12500000000E+03 0.  0.
        -13    1    3    3    0    0  0.11857234399E+00 -0.31217713048E+02  0.22747698786E+02  0.38626786450E+02  0.10566000000E+00 0. -1.
         23    2    1    0    0    0 -0.18734130918E+02  0.58642434990E+01 -0.19084208301E+02  0.97621833160E+02  0.93704099643E+02 0.  0.
         13    1    3    3    0    0 -0.18852703262E+02  0.37081956547E+02 -0.41831907087E+02  0.58995046709E+02  0.10566000000E+00 0.  1.
         22    1    1    0    0    0  0.18734130918E+02 -0.58642434990E+01  0.19084208301E+02  0.27378166840E+02  0.00000000000E+00 0.  1.
</event>
<event>
 5    1  0.2491889E-009  0.9118800E+02  0.7818608E-02  0.1130116E+00
         25   -1    0    0    0    0  0.00000000000E+00  0.00000000000E+00  0.99999998245E-14  0.12500000000E+03  0.12500000000E+03 0.  0.
        -13    1    3    3    0    0  0.26849438091E+02 -0.19486963664E+02  0.40224290968E+02  0.52140567954E+02  0.10566000000E+00 0. -1.
         23    2    1    0    0    0  0.10250598281E+02  0.16512211842E+02  0.21612468248E+02  0.95934097488E+02  0.91424965803E+02 0.  0.
         13    1    3    3    0    0 -0.16598839809E+02  0.35999175506E+02 -0.18611822720E+02  0.43793529535E+02  0.10566000000E+00 0.  1.
         22    1    1    0    0    0 -0.10250598281E+02 -0.16512211842E+02 -0.21612468248E+02  0.29065902512E+02  0.00000000000E+00 0. -1.
</event>
<event>
 5    1  0.2491889E-009  0.9118800E+02  0.7818608E-02  0.1130116E+00
         25   -1    0    0    0    0  0.00000000000E+00  0.00000000000E+00  0.99999998245E-14  0.12500000000E+03  0.12500000000E+03 0.  0.
        -13    1    3    3    0    0  0.21725679179E+02 -0.83763967695E+01  0.14219080708E+02  0.27283008977E+02  0.10566000000E+00 0. -1.
         23    2    1    0    0    0 -0.15114796494E+02  0.17080513269E+01 -0.33383006485E+02  0.88314858125E+02  0.80335014354E+02 0.  0.
         13    1    3    3    0    0 -0.36840475673E+02  0.10084448096E+02 -0.47602087193E+02  0.61031849148E+02  0.10566000000E+00 0.  1.
         22    1    1    0    0    0  0.15114796494E+02 -0.17080513269E+01  0.33383006485E+02  0.36685141875E+02  0.00000000000E+00 0.  1.
</event>
<event>
 5    1  0.2491889E-009  0.9118800E+02  0.7818608E-02  0.1130116E+00
         25   -1    0    0    0    0  0.00000000000E+00  0.00000000000E+00  0.99999998245E-14  0.12500000000E+03  0.12500000000E+03 0.  0.
        -13    1    3    3    0    0 -0.22641649036E+02 -0.28020294711E+02  0.14698976050E+02  0.38908254236E+02  0.10566000000E+00 0. -1.
         23    2    1    0    0    0 -0.20109980814E+02 -0.20753202750E+02 -0.29459839935E+02  0.83732713662E+02  0.72857246828E+02 0.  0.
         13    1    3    3    0    0  0.25316682221E+01  0.72670919611E+01 -0.44158815985E+02  0.44824459426E+02  0.10566000000E+00 0.  1.
         22    1    1    0    0    0  0.20109980814E+02  0.20753202750E+02  0.29459839935E+02  0.41267286338E+02  0.00000000000E+00 0.  1.
</event>
<event>
 5    1  0.2491889E-009  0.9118800E+02  0.7818608E-02  0.1130116E+00
         25   -1    0    0    0    0  0.00000000000E+00  0.00000000000E+00  0.99999998245E-14  0.12500000000E+03  0.12500000000E+03 0.  0.
        -13    1    3    3    0    0 -0.24839460329E+02  0.47194980894E+02  0.31903770555E+02  0.62146816095E+02  0.10566000000E+00 0.  1.
         23    2    1    0    0    0 -0.81512768267E+01  0.24316478635E+02  0.17790445295E+02  0.93787271973E+02  0.88441042471E+02 0.  0.
         13    1    3    3    0    0  0.16688183502E+02 -0.22878502260E+02 -0.14113325260E+02  0.31640455878E+02  0.10566000000E+00 0. -1.
         22    1    1    0    0    0  0.81512768267E+01 -0.24316478635E+02 -0.17790445295E+02  0.31212728027E+02  0.00000000000E+00 0.  1.
</event>
<event>
 5    1  0.2491889E-009  0.9118800E+02  0.7818608E-02  0.1130116E+00
         25   -1    0    0    0    0  0.00000000000E+00  0.00000000000E+00  0.99999998245E-14  0.12500000000E+03  0.12500000000E+03 0.  0.
        -13    1    3    3    0    0 -0.48844621177E+01  0.11957735285E+02 -0.31144061360E+02  0.33716600145E+02  0.10566000000E+00 0. -1.
         23    2    1    0    0    0  0.86564189466E+01 -0.11833497154E+02  0.24908511225E+02  0.96096727256E+02  0.91647050220E+02 0.  0.
         13    1    3    3    0    0  0.13540881064E+02 -0.23791232438E+02  0.56052572585E+02  0.62380127111E+02  0.10566000000E+00 0.  1.
         22    1    1    0    0    0 -0.86564189466E+01  0.11833497154E+02 -0.24908511225E+02  0.28903272744E+02  0.00000000000E+00 0.  1.
</event>
<event>
 5    1  0.2491889E-009  0.9118800E+02  0.7818608E-02  0.1130116E+00
         25   -1    0    0    0    0  0.00000000000E+00  0.00000000000E+00  0.99999998245E-14  0.12500000000E+03  0.12500000000E+03 0.  0.
        -13    1    3    3    0    0  0.83817604141E+01 -0.34476672788E+02  0.14795816555E+02  0.38442453430E+02  0.10566000000E+00 0. -1.
         23    2    1    0    0    0 -0.26586222404E+02  0.10166624703E+02  0.70416567147E+01  0.95678124056E+02  0.91074315886E+02 0.  0.
         13    1    3    3    0    0 -0.34967982818E+02  0.44643297491E+02 -0.77541598403E+01  0.57235670627E+02  0.10566000000E+00 0.  1.
         22    1    1    0    0    0  0.26586222404E+02 -0.10166624703E+02 -0.70416567147E+01  0.29321875944E+02  0.00000000000E+00 0.  1.
</event>
<event>
 5    1  0.2491889E-009  0.9118800E+02  0.7818608E-02  0.1130116E+00
         25   -1    0    0    0    0  0.00000000000E+00  0.00000000000E+00  0.99999998245E-14  0.12500000000E+03  0.12500000000E+03 0.  0.
        -13    1    3    3    0    0 -0.15521892228E+02 -0.39754431856E+02 -0.18836112845E+02  0.46649269037E+02  0.10566000000E+00 0.  1.
         23    2    1    0    0    0  0.23958325324E+02 -0.14547989320E+02 -0.45672638884E+00  0.96966913396E+02  0.92826334350E+02 0.  0.
         13    1    3    3    0    0  0.39480217552E+02  0.25206442537E+02  0.18379386456E+02  0.50317644359E+02  0.10566000000E+00 0. -1.
         22    1    1    0    0    0 -0.23958325324E+02  0.14547989320E+02  0.45672638884E+00  0.28033086604E+02  0.00000000000E+00 0. -1.
</event>
<event>
 5    1  0.2491889E-009  0.9118800E+02  0.7818608E-02  0.1130116E+00
         25   -1    0    0    0    0  0.00000000000E+00  0.00000000000E+00  0.99999998245E-14  0.12500000000E+03  0.12500000000E+03 0.  0.
        -13    1    3    3    0    0  0.50470592702E+02 -0.10580327075E+01 -0.23126302932E+02  0.55526905300E+02  0.10566000000E+00 0.  1.
         23    2    1    0    0    0  0.25214777567E+02  0.14603825049E+02  0.37819749200E+01  0.95617010906E+02  0.90990399089E+02 0.  0.
         13    1    3    3    0    0 -0.25255815135E+02  0.15661857757E+02  0.26908277852E+02  0.40090105606E+02  0.10566000000E+00 0. -1.
         22    1    1    0    0    0 -0.25214777567E+02 -0.14603825049E+02 -0.37819749200E+01  0.29382989094E+02  0.00000000000E+00 0.  1.
</event>
<event>
 5    1  0.2491889E-009  0.9118800E+02  0.7818608E-02  0.1130116E+00
         25   -1    0    0    0    0  0.00000000000E+00  0.00000000000E+00  0.99999998245E-14  0.12500000000E+03  0.12500000000E+03 0.  0.
        -13    1    3    3    0    0 -0.58137506449E+02  0.14288457775E+02  0.14373775168E+02  0.61569036523E+02  0.10566000000E+00 0. -1.
         23    2    1    0    0    0 -0.30075918568E+02  0.11249751318E+01  0.11803458441E+02  0.92671249979E+02  0.86849366692E+02 0.  0.
         13    1    3    3    0    0  0.28061587882E+02 -0.13163482644E+02 -0.25703167266E+01  0.31102213456E+02  0.10566000000E+00 0.  1.
         22    1    1    0    0    0  0.30075918568E+02 -0.11249751318E+01 -0.11803458441E+02  0.32328750021E+02  0.00000000000E+00 0. -1.
</event>
<event>
 5    1  0.2491889E-009  0.9118800E+02  0.7818608E-02  0.1130116E+00
         25   -1    0    0    0    0  0.00000000000E+00  0.00000000000E+00  0.99999998245E-14  0.12500000000E+03  0.12500000000E+03 0.  0.
        -13    1    3    3    0    0  0.39676009350E+02 -0.36818880479E+02 -0.18762791816E+02  0.57287600740E+02  0.10566000000E+00 0. -1.
         23    2    1    0    0    0  0.74970093568E+01 -0.27935244535E+02  0.95803971419E+00  0.96060392598E+02  0.91597478947E+02 0.  0.
         13    1    3    3    0    0 -0.32178999994E+02  0.88836359449E+01  0.19720831530E+02  0.38772791858E+02  0.10566000000E+00 0.  1.
         22    1    1    0    0    0 -0.74970093568E+01  0.27935244535E+02 -0.95803971419E+00  0.28939607402E+02  0.00000000000E+00 0. -1.
</event>
<event>
 5    1  0.2491889E-009  0.9118800E+02  0.7818608E-02  0.1130116E+00
         25   -1    0    0    0    0  0.00000000000E+00  0.00000000000E+00  0.99999998245E-14  0.12500000000E+03  0.12500000000E+03 0.  0.
        -13    1    3    3    0    0 -0.35406435551E+02  0.22959425366E+02 -0.33876408176E+02  0.54114444342E+02  0.10566000000E+00 0.  1.
         23    2    1    0    0    0 -0.93593284352E+01 -0.80982992257E+01 -0.27094759144E+02  0.95212327178E+02  0.90432747356E+02 0.  0.
         13    1    3    3    0    0  0.26047107116E+02 -0.31057724592E+02  0.67816490320E+01  0.41097882835E+02  0.10566000000E+00 0. -1.
         22    1    1    0    0    0  0.93593284352E+01  0.80982992257E+01  0.27094759144E+02  0.29787672822E+02  0.00000000000E+00 0.  1.
</event>
<event>
 5    1  0.2491889E-009  0.9118800E+02  0.7818608E-02  0.1130116E+00
         25   -1    0    0    0    0  0.00000000000E+00  0.00000000000E+00  0.99999998245E-14  0.12500000000E+03  0.12500000000E+03 0.  0.
        -13    1    3    3    0    0 -0.24340214937E+02 -0.39092168994E+02  0.38732909277E+02  0.60173857819E+02  0.10566000000E+00 0.  1.
         23    2    1    0    0    0 -0.20730313284E+02 -0.11494813172E+02  0.13618001800E+02  0.97662725232E+02  0.93758633246E+02 0.  0.
         13    1    3    3    0    0  0.36099016526E+01  0.27597355822E+02 -0.25114907477E+02  0.37488867413E+02  0.10566000000E+00 0. -1.
         22    1    1    0    0    0  0.20730313284E+02  0.11494813172E+02 -0.13618001800E+02  0.27337274768E+02  0.00000000000E+00 0.  1.
</event>
<event>
 5    1  0.2491889E-009  0.9118800E+02  0.7818608E-02  0.1130116E+00
         25   -1    0    0    0    0  0.00000000000E+00  0.00000000000E+00  0.99999998245E-14  0.12500000000E+03  0.12500000000E+03 0.  0.
        -13    1    3    3    0    0 -0.30736482806E+02  0.26342248283E+02  0.46746517057E+02  0.61837637737E+02  0.10566000000E+00 0.  1.
         23    2    1    0    0    0 -0.16074920564E+02  0.63685497145E+01  0.23594017361E+02  0.95748689741E+02  0.91171116234E+02 0.  0.
         13    1    3    3    0    0  0.14661562242E+02 -0.19973698569E+02 -0.23152499695E+02  0.33911052005E+02  0.10566000000E+00 0. -1.
         22    1    1    0    0    0  0.16074920564E+02 -0.63685497145E+01 -0.23594017361E+02  0.29251310259E+02  0.00000000000E+00 0.  1.
</event>
<event>
 5    1  0.2491889E-009  0.9118800E+02  0.7818608E-02  0.1130116E+00
         25   -1    0    0    0    0  0.00000000000E+00  0.00000000000E+00  0.99999998245E-14  0.12500000000E+03  0.12500000000E+03 0.  0.
        -13    1    3    3    0    0  0.54271217312E+01 -0.10806119186E+01  0.36068691300E+02  0.36490862261E+02  0.10566000000E+00 0.  1.
         23    2    1    0    0    0  0.80273855575E+01  0.29197856088E+02 -0.11223503365E+02  0.92705716499E+02  0.86898959285E+02 0.  0.
         13    1    3    3    0    0  0.26002638262E+01  0.30278468007E+02 -0.47292194665E+02  0.56214854239E+02  0.10566000000E+00 0. -1.
         22    1    1    0    0    0 -0.80273855575E+01 -0.29197856088E+02  0.11223503365E+02  0.32294283501E+02  0.00000000000E+00 0. -1.
</event>
<event>
 5    1  0.2491889E-009  0.9118800E+02  0.7818608E-02  0.1130116E+00
         25   -1    0    0    0    0  0.00000000000E+00  0.00000000000E+00  0.99999998245E-14  0.12500000000E+03  0.12500000000E+03 0.  0.
        -13    1    3    3    0    0  0.30825935646E+02 -0.88400884041E+01  0.13632041274E+02  0.34845791493E+02  0.10566000000E+00 0.  1.
         23    2    1    0    0    0 -0.25255915692E+02  0.10862840716E+02  0.13687778241E+02  0.94288147906E+02  0.89146155142E+02 0.  0.
         13    1    3    3    0    0 -0.56081851337E+02  0.19702929120E+02  0.55736966761E-01  0.59442356414E+02  0.10566000000E+00 0. -1.
         22    1    1    0    0    0  0.25255915692E+02 -0.10862840716E+02 -0.13687778241E+02  0.30711852094E+02  0.00000000000E+00 0. -1.
</event>
<event>
 5    1  0.2491889E-009  0.9118800E+02  0.7818608E-02  0.1130116E+00
         25   -1    0    0    0    0  0.00000000000E+00  0.00000000000E+00  0.99999998245E-14  0.12500000000E+03  0.12500000000E+03 0.  0.
        -13    1    3    3    0    0 -0.29687303049E+02  0.39689517319E+02 -0.54189705894E+01  0.49859504145E+02  0.10566000000E+00 0.  1.
         23    2    1    0    0    0 -0.23290292880E+02 -0.30654824580E+01 -0.18579655808E+02  0.95049398418E+02  0.90207259157E+02 0.  0.
         13    1    3    3    0    0  0.63970101687E+01 -0.42754999777E+02 -0.13160685219E+02  0.45189894274E+02  0.10566000000E+00 0. -1.
         22    1    1    0    0    0  0.23290292880E+02  0.30654824580E+01  0.18579655808E+02  0.29950601582E+02  0.00000000000E+00 0.  1.
</event>
<event>
 5    1  0.2491889E-009  0.9118800E+02  0.7818608E-02  0.1130116E+00
         25   -1    0    0    0    0  0.00000000000E+00  0.00000000000E+00  0.99999998245E-14  0.12500000000E+03  0.12500000000E+03 0.  0.
        -13    1    3    3    0    0 -0.10020483282E+02 -0.46388127620E+01 -0.51920490346E+02  0.53081796794E+02  0.10566000000E+00 0.  1.
         23    2    1    0    0    0 -0.25809887881E+02  0.36101255411E+01 -0.13019871140E+02  0.95867537636E+02  0.91333917079E+02 0.  0.
         13    1    3    3    0    0 -0.15789404599E+02  0.82489383031E+01  0.38900619207E+02  0.42785740842E+02  0.10566000000E+00 0. -1.
         22    1    1    0    0    0  0.25809887881E+02 -0.36101255411E+01  0.13019871140E+02  0.29132462364E+02  0.00000000000E+00 0. -1.
</event>
<event>
 5    1  0.2491889E-009  0.9118800E+02  0.7818608E-02  0.1130116E+00
         25   -1    0    0    0    0  0.00000000000E+00  0.00000000000E+00  0.99999998245E-14  0.12500000000E+03  0.12500000000E+03 0.  0.
        -13    1    3    3    0    0  0.25354049190E+02  0.83711841129E+00  0.35032605864E+02  0.43253013943E+02  0.10566000000E+00 0.  1.
         23    2    1    0    0    0 -0.14092975305E+02 -0.17220480998E+02 -0.48973322830E+01  0.10221533888E+03  0.99643538279E+02 0.  0.
         13    1    3    3    0    0 -0.39447024494E+02 -0.18057599409E+02 -0.39929938147E+02  0.58962324940E+02  0.10566000000E+00 0. -1.
         22    1    1    0    0    0  0.14092975305E+02  0.17220480998E+02  0.48973322830E+01  0.22784661117E+02  0.00000000000E+00 0. -1.
</event>
<event>
 5    1  0.2491889E-009  0.9118800E+02  0.7818608E-02  0.1130116E+00
         25   -1    0    0    0    0  0.00000000000E+00  0.00000000000E+00  0.99999998245E-14  0.12500000000E+03  0.12500000000E+03 0.  0.
        -13    1    3    3    0    0  0.32918772362E+02 -0.46262242864E+02 -0.24301430602E+00  0.56779493734E+02  0.10566000000E+00 0. -1.
         23    2    1    0    0    0  0.23619784209E+02 -0.15044243627E+02  0.15537540218E+02  0.92974406666E+02  0.87284601543E+02 0.  0.
         13    1    3    3    0    0 -0.92989881533E+01  0.31217999238E+02  0.15780554524E+02  0.36194912933E+02  0.10566000000E+00 0.  1.
         22    1    1    0    0    0 -0.23619784209E+02  0.15044243627E+02 -0.15537540218E+02  0.32025593334E+02  0.00000000000E+00 0. -1.
</event>
<event>
 5    1  0.2491889E-009  0.9118800E+02  0.7818608E-02  0.1130116E+00
         25   -1    0    0    0    0  0.00000000000E+00  0.00000000000E+00  0.99999998245E-14  0.12500000000E+03  0.12500000000E+03 0.  0.
        -13    1    3    3    0    0 -0.42584431379E+01  0.16527641458E+02 -0.33118740085E+02  0.37258010937E+02  0.10566000000E+00 0.  1.
         23    2    1    0    0    0 -0.12074714322E+02  0.57081933861E+01  0.24874022848E+02  0.96767054523E+02  0.92556812989E+02 0.  0.
         13    1    3    3    0    0 -0.78162711837E+01 -0.10819448072E+02  0.57992762933E+02  0.59509043585E+02  0.10566000000E+00 0. -1.
         22    1    1    0    0    0  0.12074714322E+02 -0.57081933861E+01 -0.24874022848E+02  0.28232945477E+02  0.00000000000E+00 0. -1.
</event>
<event>
 5    1  0.2491889E-009  0.9118800E+02  0.7818608E-02  0.1130116E+00
         25   -1    0    0    0    0  0.00000000000E+00  0.00000000000E+00  0.99999998245E-14  0.12500000000E+03  0.12500000000E+03 0.  0.
        -13    1    3    3    0    0  0.87326030408E+01 -0.36254127382E+01  0.32991366042E+02  0.34319722767E+02  0.10566000000E+00 0.  1.
         23    2    1    0    0    0 -0.27640402354E+01 -0.10752100043E+02 -0.26994494309E+02  0.95811812377E+02  0.91257619376E+02 0.  0.
         13    1    3    3    0    0 -0.11496643276E+02 -0.71266873046E+01 -0.59985860351E+02  0.61492089610E+02  0.10566000000E+00 0. -1.
         22    1    1    0    0    0  0.27640402354E+01  0.10752100043E+02  0.26994494309E+02  0.29188187623E+02  0.00000000000E+00 0. -1.
</event>
<event>
 5    1  0.2491889E-009  0.9118800E+02  0.7818608E-02  0.1130116E+00
         25   -1    0    0    0    0  0.00000000000E+00  0.00000000000E+00  0.99999998245E-14  0.12500000000E+03  0.12500000000E+03 0.  0.
        -13    1    3    3    0    0  0.45658037608E+02 -0.18511079505E+02  0.14888308353E+02  0.51468333490E+02  0.10566000000E+00 0. -1.
         23    2    1    0    0    0  0.30220839532E+01 -0.28129582865E+02  0.52636729165E+01  0.96223053043E+02  0.91819187868E+02 0.  0.
         13    1    3    3    0    0 -0.42635953655E+02 -0.96185033602E+01 -0.96246354366E+01  0.44754719553E+02  0.10566000000E+00 0.  1.
         22    1    1    0    0    0 -0.30220839532E+01  0.28129582865E+02 -0.52636729165E+01  0.28776946957E+02  0.00000000000E+00 0. -1.
</event>
<event>
 5    1  0.2491889E-009  0.9118800E+02  0.7818608E-02  0.1130116E+00
         25   -1    0    0    0    0  0.00000000000E+00  0.00000000000E+00  0.99999998245E-14  0.12500000000E+03  0.12500000000E+03 0.  0.
        -13    1    3    3    0    0  0.33325970885E+02 -0.10967219337E+02 -0.10328626643E+02  0.36573103885E+02  0.10566000000E+00 0.  1.
         23    2    1    0    0    0 -0.94033682571E+01  0.39929873814E+01  0.27559425446E+02  0.95608007659E+02  0.90978029847E+02 0.  0.
         13    1    3    3    0    0 -0.42729339142E+02  0.14960206718E+02  0.37888052089E+02  0.59034903775E+02  0.10566000000E+00 0. -1.
         22    1    1    0    0    0  0.94033682571E+01 -0.39929873814E+01 -0.27559425446E+02  0.29391992341E+02  0.00000000000E+00 0. -1.
</event>
<event>
 5    1  0.2491889E-009  0.9118800E+02  0.7818608E-02  0.1130116E+00
         25   -1    0    0    0    0  0.00000000000E+00  0.00000000000E+00  0.99999998245E-14  0.12500000000E+03  0.12500000000E+03 0.  0.
        -13    1    3    3    0    0 -0.39075057939E+02 -0.20926081635E+02 -0.16335864051E+02  0.47240159440E+02  0.10566000000E+00 0. -1.
         23    2    1    0    0    0  0.46552423767E+01 -0.30120198537E+01 -0.28441183347E+02  0.96023380884E+02  0.91546956372E+02 0.  0.
         13    1    3    3    0    0  0.43730300316E+02  0.17914061781E+02 -0.12105319296E+02  0.48783221445E+02  0.10566000000E+00 0.  1.
         22    1    1    0    0    0 -0.46552423767E+01  0.30120198537E+01  0.28441183347E+02  0.28976619116E+02  0.00000000000E+00 0. -1.
</event>
<event>
 5    1  0.2491889E-009  0.9118800E+02  0.7818608E-02  0.1130116E+00
         25   -1    0    0    0    0  0.00000000000E+00  0.00000000000E+00  0.99999998245E-14  0.12500000000E+03  0.12500000000E+03 0.  0.
        -13    1    3    3    0    0 -0.14351576759E+02  0.50993336312E+02  0.13489194003E+01  0.52991686624E+02  0.10566000000E+00 0.  1.
         23    2    1    0    0    0  0.18041544731E+02  0.20104223087E+02  0.32534352104E+01  0.97792244435E+02  0.93931150897E+02 0.  0.
         13    1    3    3    0    0  0.32393121490E+02 -0.30889113225E+02  0.19045158100E+01  0.44800557811E+02  0.10566000000E+00 0. -1.
         22    1    1    0    0    0 -0.18041544731E+02 -0.20104223087E+02 -0.32534352104E+01  0.27207755565E+02  0.00000000000E+00 0.  1.
</event>
<event>
 5    1  0.2491889E-009  0.9118800E+02  0.7818608E-02  0.1130116E+00
         25   -1    0    0    0    0  0.00000000000E+00  0.00000000000E+00  0.99999998245E-14  0.12500000000E+03  0.12500000000E+03 0.  0.
        -13    1    3    3    0    0  0.19802200212E+02  0.28659537421E+02  0.62339701893E+01  0.35388836754E+02  0.10566000000E+00 0. -1.
         23    2    1    0    0    0 -0.27219252308E+02 -0.42200629272E+01 -0.11064147528E+02  0.95316469418E+02  0.90576582815E+02 0.  0.
         13    1    3    3    0    0 -0.47021452519E+02 -0.32879600349E+02 -0.17298117717E+02  0.59927632664E+02  0.10566000000E+00 0.  1.
         22    1    1    0    0    0  0.27219252308E+02  0.42200629272E+01  0.11064147528E+02  0.29683530582E+02  0.00000000000E+00 0.  1.
</event>
<event>
 5    1  0.2491889E-009  0.9118800E+02  0.7818608E-02  0.1130116E+00
         25   -1    0    0    0    0  0.00000000000E+00  0.00000000000E+00  0.99999998245E-14  0.12500000000E+03  0.12500000000E+03 0.  0.
        -13    1    3    3    0    0  0.34742279716E+02 -0.14824082788E+02 -0.47409160022E+02  0.60616986467E+02  0.10566000000E+00 0.  1.
         23    2    1    0    0    0  0.81738557161E+01 -0.14004468361E+02 -0.23993650558E+02  0.96040850868E+02  0.91570807122E+02 0.  0.
         13    1    3    3    0    0 -0.26568424000E+02  0.81961442711E+00  0.23415509463E+02  0.35423864401E+02  0.10566000000E+00 0. -1.
         22    1    1    0    0    0 -0.81738557161E+01  0.14004468361E+02  0.23993650558E+02  0.28959149132E+02  0.00000000000E+00 0.  1.
</event>
<event>
 5    1  0.2491889E-009  0.9118800E+02  0.7818608E-02  0.1130116E+00
         25   -1    0    0    0    0  0.00000000000E+00  0.00000000000E+00  0.99999998245E-14  0.12500000000E+03  0.12500000000E+03 0.  0.
        -13    1    3    3    0    0 -0.19069993467E+02  0.39361057834E+02  0.64635955582E+01  0.44212518094E+02  0.10566000000E+00 0.  1.
         23    2    1    0    0    0 -0.11823985265E+02  0.15018287366E+02 -0.30466730220E+02  0.89033665279E+02  0.81445787613E+02 0.  0.
         13    1    3    3    0    0  0.72460082024E+01 -0.24342770468E+02 -0.36930325778E+02  0.44821147186E+02  0.10566000000E+00 0. -1.
         22    1    1    0    0    0  0.11823985265E+02 -0.15018287366E+02  0.30466730220E+02  0.35966334721E+02  0.00000000000E+00 0.  1.
</event>
<event>
 5    1  0.2491889E-009  0.9118800E+02  0.7818608E-02  0.1130116E+00
         25   -1    0    0    0    0  0.00000000000E+00  0.00000000000E+00  0.99999998245E-14  0.12500000000E+03  0.12500000000E+03 0.  0.
        -13    1    3    3    0    0  0.47692528852E+02  0.29032452361E+02  0.25925787250E+02  0.61559874975E+02  0.10566000000E+00 0.  1.
         23    2    1    0    0    0  0.21390997546E+02  0.16417016351E+02  0.47165995346E+01  0.97625933567E+02  0.93709569372E+02 0.  0.
         13    1    3    3    0    0 -0.26301531306E+02 -0.12615436010E+02 -0.21209187715E+02  0.36066058592E+02  0.10566000000E+00 0. -1.
         22    1    1    0    0    0 -0.21390997546E+02 -0.16417016351E+02 -0.47165995346E+01  0.27374066433E+02  0.00000000000E+00 0.  1.
</event>
<event>
 5    1  0.2491889E-009  0.9118800E+02  0.7818608E-02  0.1130116E+00
         25   -1    0    0    0    0  0.00000000000E+00  0.00000000000E+00  0.99999998245E-14  0.12500000000E+03  0.12500000000E+03 0.  0.
        -13    1    3    3    0    0 -0.28271326819E+02  0.21648781314E+02  0.43524939229E+02  0.56234945998E+02  0.10566000000E+00 0.  1.
         23    2    1    0    0    0 -0.28325961417E+02 -0.20272915187E+01  0.16532763056E+02  0.92139655276E+02  0.86080856287E+02 0.  0.
         13    1    3    3    0    0 -0.54634597559E-01 -0.23676072833E+02 -0.26992176173E+02  0.35904709278E+02  0.10566000000E+00 0. -1.
         22    1    1    0    0    0  0.28325961417E+02  0.20272915187E+01 -0.16532763056E+02  0.32860344724E+02  0.00000000000E+00 0.  1.
</event>
<event>
 5    1  0.2491889E-009  0.9118800E+02  0.7818608E-02  0.1130116E+00
         25   -1    0    0    0    0  0.00000000000E+00  0.00000000000E+00  0.99999998245E-14  0.12500000000E+03  0.12500000000E+03 0.  0.
        -13    1    3    3    0    0  0.15007105640E+02 -0.47974752939E+02 -0.21101967780E+02  0.54516917993E+02  0.10566000000E+00 0.  1.
         23    2    1    0    0    0  0.24539361779E+02 -0.15493807030E+02  0.26324582472E+01  0.95859509797E+02  0.91322929483E+02 0.  0.
         13    1    3    3    0    0  0.95322561394E+01  0.32480945908E+02  0.23734426028E+02  0.41342591804E+02  0.10566000000E+00 0. -1.
         22    1    1    0    0    0 -0.24539361779E+02  0.15493807030E+02 -0.26324582472E+01  0.29140490203E+02  0.00000000000E+00 0. -1.
</event>
<event>
 5    1  0.2491889E-009  0.9118800E+02  0.7818608E-02  0.1130116E+00
         25   -1    0    0    0    0  0.00000000000E+00  0.00000000000E+00  0.99999998245E-14  0.12500000000E+03  0.12500000000E+03 0.  0.
        -13    1    3    3    0    0 -0.35525042719E+02  0.79441477353E+01  0.40641605268E+02  0.54560877799E+02  0.10566000000E+00 0.  1.
         23    2    1    0    0    0  0.32663257326E+01 -0.49017713023E+00  0.28833884274E+02  0.95977559721E+02  0.91484369869E+02 0.  0.
         13    1    3    3    0    0  0.38791368452E+02 -0.84343248655E+01 -0.11807720994E+02  0.41416681922E+02  0.10566000000E+00 0. -1.
         22    1    1    0    0    0 -0.32663257326E+01  0.49017713023E+00 -0.28833884274E+02  0.29022440279E+02  0.00000000000E+00 0.  1.
</event>
<event>
 5    1  0.2491889E-009  0.9118800E+02  0.7818608E-02  0.1130116E+00
         25   -1    0    0    0    0  0.00000000000E+00  0.00000000000E+00  0.99999998245E-14  0.12500000000E+03  0.12500000000E+03 0.  0.
        -13    1    3    3    0    0  0.23749067879E+02 -0.42028146030E+02 -0.34047260651E+01  0.48394076161E+02  0.10566000000E+00 0. -1.
         23    2    1    0    0    0 -0.18857263284E+02 -0.21880733563E+02  0.30088321015E+01  0.95958375555E+02  0.91458153757E+02 0.  0.
         13    1    3    3    0    0 -0.42606331164E+02  0.20147412468E+02  0.64135581666E+01  0.47564299393E+02  0.10566000000E+00 0.  1.
         22    1    1    0    0    0  0.18857263284E+02  0.21880733563E+02 -0.30088321015E+01  0.29041624445E+02  0.00000000000E+00 0. -1.
</event>
<event>
 5    1  0.2491889E-009  0.9118800E+02  0.7818608E-02  0.1130116E+00
         25   -1    0    0    0    0  0.00000000000E+00  0.00000000000E+00  0.99999998245E-14  0.12500000000E+03  0.12500000000E+03 0.  0.
        -13    1    3    3    0    0  0.19351808627E+02 -0.13809021815E+02  0.24246482969E+02  0.33957100598E+02  0.10566000000E+00 0. -1.
         23    2    1    0    0    0 -0.14509869167E+02  0.26659334979E+02 -0.49255780908E+01  0.94250727418E+02  0.89093668993E+02 0.  0.
         13    1    3    3    0    0 -0.33861677794E+02  0.40468356794E+02 -0.29172061060E+02  0.60293626820E+02  0.10566000000E+00 0.  1.
         22    1    1    0    0    0  0.14509869167E+02 -0.26659334979E+02  0.49255780908E+01  0.30749272582E+02  0.00000000000E+00 0.  1.
</event>
<event>
 5    1  0.2491889E-009  0.9118800E+02  0.7818608E-02  0.1130116E+00
         25   -1    0    0    0    0  0.00000000000E+00  0.00000000000E+00  0.99999998245E-14  0.12500000000E+03  0.12500000000E+03 0.  0.
        -13    1    3    3    0    0 -0.12208812802E+02 -0.25167722319E+02 -0.21089966645E+02  0.35032373797E+02  0.10566000000E+00 0.  1.
         23    2    1    0    0    0 -0.74867309770E+01  0.25936757509E+02  0.11315112252E+02  0.95728882903E+02  0.91143956058E+02 0.  0.
         13    1    3    3    0    0  0.47220818253E+01  0.51104479828E+02  0.32405078897E+02  0.60696509106E+02  0.10566000000E+00 0. -1.
         22    1    1    0    0    0  0.74867309770E+01 -0.25936757509E+02 -0.11315112252E+02  0.29271117097E+02  0.00000000000E+00 0. -1.
</event>
<event>
 5    1  0.2491889E-009  0.9118800E+02  0.7818608E-02  0.1130116E+00
         25   -1    0    0    0    0  0.00000000000E+00  0.00000000000E+00  0.99999998245E-14  0.12500000000E+03  0.12500000000E+03 0.  0.
        -13    1    3    3    0    0 -0.10439398393E+02  0.47992291803E+01  0.37673452220E+02  0.39386721185E+02  0.10566000000E+00 0.  1.
         23    2    1    0    0    0  0.27969092667E+02 -0.95574773365E+01 -0.54189240350E+00  0.95438045311E+02  0.90744208233E+02 0.  0.
         13    1    3    3    0    0  0.38408491060E+02 -0.14356706517E+02 -0.38215344623E+02  0.56051324126E+02  0.10566000000E+00 0. -1.
         22    1    1    0    0    0 -0.27969092667E+02  0.95574773365E+01  0.54189240350E+00  0.29561954689E+02  0.00000000000E+00 0. -1.
</event>
<event>
 5    1  0.2491889E-009  0.9118800E+02  0.7818608E-02  0.1130116E+00
         25   -1    0    0    0    0  0.00000000000E+00  0.00000000000E+00  0.99999998245E-14  0.12500000000E+03  0.12500000000E+03 0.  0.
        -13    1    3    3    0    0  0.43677589789E+02 -0.13815775510E+01  0.23848108053E+02  0.49783370999E+02  0.10566000000E+00 0.  1.
         23    2    1    0    0    0  0.53621019280E+01 -0.25152562969E+02  0.13104111539E+02  0.96136159295E+02  0.91700816920E+02 0.  0.
         13    1    3    3    0    0 -0.38315487861E+02 -0.23770985418E+02 -0.10743996514E+02  0.46352788297E+02  0.10566000000E+00 0. -1.
         22    1    1    0    0    0 -0.53621019280E+01  0.25152562969E+02 -0.13104111539E+02  0.28863840705E+02  0.00000000000E+00 0. -1.
</event>
<event>
 5    1  0.2491889E-009  0.9118800E+02  0.7818608E-02  0.1130116E+00
         25   -1    0    0    0    0  0.00000000000E+00  0.00000000000E+00  0.99999998245E-14  0.12500000000E+03  0.12500000000E+03 0.  0.
        -13    1    3    3    0    0  0.27594640896E+02 -0.14855249121E+02  0.14341039557E+02  0.34464753188E+02  0.10566000000E+00 0.  1.
         23    2    1    0    0    0 -0.27582914370E+02  0.51221347916E-01 -0.86815518639E+01  0.96083064970E+02  0.91628413947E+02 0.  0.
         13    1    3    3    0    0 -0.55177555267E+02  0.14906470469E+02 -0.23022591421E+02  0.61618311782E+02  0.10566000000E+00 0. -1.
         22    1    1    0    0    0  0.27582914370E+02 -0.51221347916E-01  0.86815518639E+01  0.28916935030E+02  0.00000000000E+00 0. -1.
</event>
<event>
 5    1  0.2491889E-009  0.9118800E+02  0.7818608E-02  0.1130116E+00
         25   -1    0    0    0    0  0.00000000000E+00  0.00000000000E+00  0.99999998245E-14  0.12500000000E+03  0.12500000000E+03 0.  0.
        -13    1    3    3    0    0  0.49853533267E+02  0.17423861044E+02  0.22677412596E+02  0.57473836821E+02  0.10566000000E+00 0. -1.
         23    2    1    0    0    0  0.24645519523E+02  0.12463038421E+02 -0.67814359494E+01  0.96562052944E+02  0.92279538555E+02 0.  0.
         13    1    3    3    0    0 -0.25208013744E+02 -0.49608226224E+01 -0.29458848545E+02  0.39088216123E+02  0.10566000000E+00 0.  1.
         22    1    1    0    0    0 -0.24645519523E+02 -0.12463038421E+02  0.67814359494E+01  0.28437947056E+02  0.00000000000E+00 0. -1.
</event>
<event>
 5    1  0.2491889E-009  0.9118800E+02  0.7818608E-02  0.1130116E+00
         25   -1    0    0    0    0  0.00000000000E+00  0.00000000000E+00  0.99999998245E-14  0.12500000000E+03  0.12500000000E+03 0.  0.
        -13    1    3    3    0    0 -0.84047498582E+01  0.35377007008E+02 -0.26273954693E+02  0.44860944086E+02  0.10566000000E+00 0.  1.
         23    2    1    0    0    0  0.26708548168E+02  0.37079803406E+01 -0.17222316644E+02  0.93004627615E+02  0.87327870143E+02 0.  0.
         13    1    3    3    0    0  0.35113298026E+02 -0.31669026668E+02  0.90516380486E+01  0.48143683529E+02  0.10566000000E+00 0. -1.
         22    1    1    0    0    0 -0.26708548168E+02 -0.37079803406E+01  0.17222316644E+02  0.31995372385E+02  0.00000000000E+00 0. -1.
</event>
<event>
 5    1  0.2491889E-009  0.9118800E+02  0.7818608E-02  0.1130116E+00
         25   -1    0    0    0    0  0.00000000000E+00  0.00000000000E+00  0.99999998245E-14  0.12500000000E+03  0.12500000000E+03 0.  0.
        -13    1    3    3    0    0 -0.18275982814E+02  0.51273928391E+02 -0.15046055013E+02  0.56474969818E+02  0.10566000000E+00 0.  1.
         23    2    1    0    0    0  0.45640327903E+01  0.37113799837E+02  0.65847561422E+00  0.87600827231E+02  0.79216202937E+02 0.  0.
         13    1    3    3    0    0  0.22840015604E+02 -0.14160128554E+02  0.15704530627E+02  0.31125857413E+02  0.10566000000E+00 0. -1.
         22    1    1    0    0    0 -0.45640327903E+01 -0.37113799837E+02 -0.65847561422E+00  0.37399172769E+02  0.00000000000E+00 0.  1.
</event>
<event>
 5    1  0.2491889E-009  0.9118800E+02  0.7818608E-02  0.1130116E+00
         25   -1    0    0    0    0  0.00000000000E+00  0.00000000000E+00  0.99999998245E-14  0.12500000000E+03  0.12500000000E+03 0.  0.
        -13    1    3    3    0    0  0.52463026185E+02  0.24175006402E+02  0.22494618964E+02  0.61990475860E+02  0.10566000000E+00 0. -1.
         23    2    1    0    0    0  0.20648631058E+02  0.15576965742E+02  0.87952656621E+01  0.97680327156E+02  0.93782097379E+02 0.  0.
         13    1    3    3    0    0 -0.31814395128E+02 -0.85980406603E+01 -0.13699353302E+02  0.35689851295E+02  0.10566000000E+00 0.  1.
         22    1    1    0    0    0 -0.20648631058E+02 -0.15576965742E+02 -0.87952656621E+01  0.27319672844E+02  0.00000000000E+00 0. -1.
</event>
<event>
 5    1  0.2491889E-009  0.9118800E+02  0.7818608E-02  0.1130116E+00
         25   -1    0    0    0    0  0.00000000000E+00  0.00000000000E+00  0.99999998245E-14  0.12500000000E+03  0.12500000000E+03 0.  0.
        -13    1    3    3    0    0  0.39278223063E+02 -0.14358205182E+02  0.38269088480E+02  0.56687486804E+02  0.10566000000E+00 0.  1.
         23    2    1    0    0    0  0.56452488048E+01 -0.20553426713E+02  0.21307516704E+02  0.94861611658E+02  0.89946667057E+02 0.  0.
         13    1    3    3    0    0 -0.33632974258E+02 -0.61952215310E+01 -0.16961571775E+02  0.38174124854E+02  0.10566000000E+00 0. -1.
         22    1    1    0    0    0 -0.56452488048E+01  0.20553426713E+02 -0.21307516704E+02  0.30138388342E+02  0.00000000000E+00 0.  1.
</event>
<event>
 5    1  0.2491889E-009  0.9118800E+02  0.7818608E-02  0.1130116E+00
         25   -1    0    0    0    0  0.00000000000E+00  0.00000000000E+00  0.99999998245E-14  0.12500000000E+03  0.12500000000E+03 0.  0.
        -13    1    3    3    0    0 -0.45780929441E+02  0.34981781512E+02  0.44179900790E+01  0.57785364398E+02  0.10566000000E+00 0. -1.
         23    2    1    0    0    0 -0.17873248396E+02  0.17198232086E+02  0.18808614185E+02  0.93871296804E+02  0.88559721098E+02 0.  0.
         13    1    3    3    0    0  0.27907681045E+02 -0.17783549425E+02  0.14390624106E+02  0.36085932406E+02  0.10566000000E+00 0.  1.
         22    1    1    0    0    0  0.17873248396E+02 -0.17198232086E+02 -0.18808614185E+02  0.31128703196E+02  0.00000000000E+00 0. -1.
</event>
<event>
 5    1  0.2491889E-009  0.9118800E+02  0.7818608E-02  0.1130116E+00
         25   -1    0    0    0    0  0.00000000000E+00  0.00000000000E+00  0.99999998245E-14  0.12500000000E+03  0.12500000000E+03 0.  0.
        -13    1    3    3    0    0  0.21124991308E+02  0.27338443981E+02  0.47169570699E+02  0.58469097316E+02  0.10566000000E+00 0. -1.
         23    2    1    0    0    0 -0.22532289354E+01  0.11908836902E+02  0.32968077347E+02  0.89874630807E+02  0.82726402688E+02 0.  0.
         13    1    3    3    0    0 -0.23378220244E+02 -0.15429607078E+02 -0.14201493352E+02  0.31405533490E+02  0.10566000000E+00 0.  1.
         22    1    1    0    0    0  0.22532289354E+01 -0.11908836902E+02 -0.32968077347E+02  0.35125369193E+02  0.00000000000E+00 0. -1.
</event>
<event>
 5    1  0.2491889E-009  0.9118800E+02  0.7818608E-02  0.1130116E+00
         25   -1    0    0    0    0  0.00000000000E+00  0.00000000000E+00  0.99999998245E-14  0.12500000000E+03  0.12500000000E+03 0.  0.
        -13    1    3    3    0    0 -0.39208455338E+02 -0.20277409647E+02  0.19047758743E+02  0.48076029257E+02  0.10566000000E+00 0. -1.
         23    2    1    0    0    0  0.65311246737E+01 -0.21180942122E+02  0.21804729599E+02  0.93907651559E+02  0.88611020138E+02 0.  0.
         13    1    3    3    0    0  0.45739580011E+02 -0.90353247498E+00  0.27569708562E+01  0.45831622303E+02  0.10566000000E+00 0.  1.
         22    1    1    0    0    0 -0.65311246737E+01  0.21180942122E+02 -0.21804729599E+02  0.31092348441E+02  0.00000000000E+00 0. -1.
</event>
<event>
 5    1  0.2491889E-009  0.9118800E+02  0.7818608E-02  0.1130116E+00
         25   -1    0    0    0    0  0.00000000000E+00  0.00000000000E+00  0.99999998245E-14  0.12500000000E+03  0.12500000000E+03 0.  0.
        -13    1    3    3    0    0 -0.32680167471E+01 -0.30987478038E+02 -0.34328686990E+02  0.46361337805E+02  0.10566000000E+00 0.  1.
         23    2    1    0    0    0  0.28294780779E+02 -0.12943879757E+02 -0.41532090619E+01  0.93609112978E+02  0.88188878236E+02 0.  0.
         13    1    3    3    0    0  0.31562797526E+02  0.18043598281E+02  0.30175477928E+02  0.47247775173E+02  0.10566000000E+00 0. -1.
         22    1    1    0    0    0 -0.28294780779E+02  0.12943879757E+02  0.41532090619E+01  0.31390887022E+02  0.00000000000E+00 0. -1.
</event>
<event>
 5    1  0.2491889E-009  0.9118800E+02  0.7818608E-02  0.1130116E+00
         25   -1    0    0    0    0  0.00000000000E+00  0.00000000000E+00  0.99999998245E-14  0.12500000000E+03  0.12500000000E+03 0.  0.
        -13    1    3    3    0    0  0.29098143049E+02 -0.17548383518E+02 -0.13199726471E+02  0.36453965984E+02  0.10566000000E+00 0.  1.
         23    2    1    0    0    0 -0.48024490017E+01  0.14643708167E+02  0.24190668131E+02  0.96317424629E+02  0.91947572873E+02 0.  0.
         13    1    3    3    0    0 -0.33900592051E+02  0.32192091685E+02  0.37390394602E+02  0.59863458645E+02  0.10566000000E+00 0. -1.
         22    1    1    0    0    0  0.48024490017E+01 -0.14643708167E+02 -0.24190668131E+02  0.28682575371E+02  0.00000000000E+00 0. -1.
</event>
<event>
 5    1  0.2491889E-009  0.9118800E+02  0.7818608E-02  0.1130116E+00
         25   -1    0    0    0    0  0.00000000000E+00  0.00000000000E+00  0.99999998245E-14  0.12500000000E+03  0.12500000000E+03 0.  0.
        -13    1    3    3    0    0  0.39767746471E+02  0.26012750530E+02 -0.12682541808E+02  0.49183278462E+02  0.10566000000E+00 0.  1.
         23    2    1    0    0    0 -0.51301294616E+01  0.28288032345E+02 -0.11147187852E+02  0.94165104196E+02  0.88973456991E+02 0.  0.
         13    1    3    3    0    0 -0.44897875932E+02  0.22752818146E+01  0.15353539562E+01  0.44981825734E+02  0.10566000000E+00 0. -1.
         22    1    1    0    0    0  0.51301294616E+01 -0.28288032345E+02  0.11147187852E+02  0.30834895804E+02  0.00000000000E+00 0. -1.
</event>
<event>
 5    1  0.2491889E-009  0.9118800E+02  0.7818608E-02  0.1130116E+00
         25   -1    0    0    0    0  0.00000000000E+00  0.00000000000E+00  0.99999998245E-14  0.12500000000E+03  0.12500000000E+03 0.  0.
        -13    1    3    3    0    0 -0.43456775819E+02  0.77533128658E+01 -0.58746715487E+00  0.44147044144E+02  0.10566000000E+00 0.  1.
         23    2    1    0    0    0 -0.67520104685E+01 -0.24523012357E+02  0.15025870954E+02  0.95457749267E+02  0.90771346343E+02 0.  0.
         13    1    3    3    0    0  0.36704765350E+02 -0.32276325222E+02  0.15613338109E+02  0.51310705123E+02  0.10566000000E+00 0. -1.
         22    1    1    0    0    0  0.67520104685E+01  0.24523012357E+02 -0.15025870954E+02  0.29542250733E+02  0.00000000000E+00 0.  1.
</event>
<event>
 5    1  0.2491889E-009  0.9118800E+02  0.7818608E-02  0.1130116E+00
         25   -1    0    0    0    0  0.00000000000E+00  0.00000000000E+00  0.99999998245E-14  0.12500000000E+03  0.12500000000E+03 0.  0.
        -13    1    3    3    0    0  0.39869123786E+01  0.28706664417E+02  0.30288133984E+02  0.41920761879E+02  0.10566000000E+00 0.  1.
         23    2    1    0    0    0  0.48472170360E+01 -0.23719506815E+02  0.14928876330E+02  0.96557393491E+02  0.92273226739E+02 0.  0.
         13    1    3    3    0    0  0.86030465736E+00 -0.52426171232E+02 -0.15359257655E+02  0.54636631612E+02  0.10566000000E+00 0. -1.
         22    1    1    0    0    0 -0.48472170360E+01  0.23719506815E+02 -0.14928876330E+02  0.28442606509E+02  0.00000000000E+00 0.  1.
</event>
<event>
 5    1  0.2491889E-009  0.9118800E+02  0.7818608E-02  0.1130116E+00
         25   -1    0    0    0    0  0.00000000000E+00  0.00000000000E+00  0.99999998245E-14  0.12500000000E+03  0.12500000000E+03 0.  0.
        -13    1    3    3    0    0 -0.46859470105E+02 -0.14849453104E+02 -0.14662248027E+02  0.51296285219E+02  0.10566000000E+00 0.  1.
         23    2    1    0    0    0 -0.90288884379E+01 -0.29446664724E+02 -0.66631992272E+00  0.94193006118E+02  0.89012648144E+02 0.  0.
         13    1    3    3    0    0  0.37830581667E+02 -0.14597211620E+02  0.13995928104E+02  0.42896720899E+02  0.10566000000E+00 0. -1.
         22    1    1    0    0    0  0.90288884379E+01  0.29446664724E+02  0.66631992272E+00  0.30806993882E+02  0.00000000000E+00 0. -1.
</event>
<event>
 5    1  0.2491889E-009  0.9118800E+02  0.7818608E-02  0.1130116E+00
         25   -1    0    0    0    0  0.00000000000E+00  0.00000000000E+00  0.99999998245E-14  0.12500000000E+03  0.12500000000E+03 0.  0.
        -13    1    3    3    0    0  0.43179008225E+02 -0.37814041358E+01  0.11776442008E+02  0.44915715723E+02  0.10566000000E+00 0. -1.
         23    2    1    0    0    0  0.83012307816E+01  0.25721203561E+02 -0.10827275646E+02  0.95884357417E+02  0.91356933805E+02 0.  0.
         13    1    3    3    0    0 -0.34877777443E+02  0.29502607697E+02 -0.22603717654E+02  0.50968641694E+02  0.10566000000E+00 0.  1.
         22    1    1    0    0    0 -0.83012307816E+01 -0.25721203561E+02  0.10827275646E+02  0.29115642583E+02  0.00000000000E+00 0.  1.
</event>
<event>
 5    1  0.2491889E-009  0.9118800E+02  0.7818608E-02  0.1130116E+00
         25   -1    0    0    0    0  0.00000000000E+00  0.00000000000E+00  0.99999998245E-14  0.12500000000E+03  0.12500000000E+03 0.  0.
        -13    1    3    3    0    0 -0.38083793268E+02 -0.95304318369E+01  0.27319821152E+01  0.39353263283E+02  0.10566000000E+00 0. -1.
         23    2    1    0    0    0  0.21237026517E+02 -0.14429640645E+02 -0.29926277879E+01  0.99150790234E+02  0.95721980540E+02 0.  0.
         13    1    3    3    0    0  0.59320819785E+02 -0.48992088080E+01 -0.57246099031E+01  0.59797526952E+02  0.10566000000E+00 0.  1.
         22    1    1    0    0    0 -0.21237026517E+02  0.14429640645E+02  0.29926277879E+01  0.25849209766E+02  0.00000000000E+00 0.  1.
</event>
<event>
 5    1  0.2491889E-009  0.9118800E+02  0.7818608E-02  0.1130116E+00
         25   -1    0    0    0    0  0.00000000000E+00  0.00000000000E+00  0.99999998245E-14  0.12500000000E+03  0.12500000000E+03 0.  0.
        -13    1    3    3    0    0 -0.25544452906E+02 -0.11760245919E+02  0.35289264989E+02  0.45123894400E+02  0.10566000000E+00 0. -1.
         23    2    1    0    0    0  0.21809896181E+02 -0.81889840397E+01  0.17608420175E+02  0.95797474560E+02  0.91237978057E+02 0.  0.
         13    1    3    3    0    0  0.47354349087E+02  0.35712618796E+01 -0.17680844814E+02  0.50673580160E+02  0.10566000000E+00 0.  1.
         22    1    1    0    0    0 -0.21809896181E+02  0.81889840397E+01 -0.17608420175E+02  0.29202525440E+02  0.00000000000E+00 0.  1.
</event>
<event>
 5    1  0.2491889E-009  0.9118800E+02  0.7818608E-02  0.1130116E+00
         25   -1    0    0    0    0  0.00000000000E+00  0.00000000000E+00  0.99999998245E-14  0.12500000000E+03  0.12500000000E+03 0.  0.
        -13    1    3    3    0    0  0.20210728263E+02 -0.72981791561E+00  0.40933873663E+02  0.45657412850E+02  0.10566000000E+00 0. -1.
         23    2    1    0    0    0 -0.19990647672E+02 -0.15327587163E+02  0.14593107117E+02  0.95887808432E+02  0.91361655567E+02 0.  0.
         13    1    3    3    0    0 -0.40201375935E+02 -0.14597769247E+02 -0.26340766545E+02  0.50230395581E+02  0.10566000000E+00 0.  1.
         22    1    1    0    0    0  0.19990647672E+02  0.15327587163E+02 -0.14593107117E+02  0.29112191568E+02  0.00000000000E+00 0.  1.
</event>
<event>
 5    1  0.2491889E-009  0.9118800E+02  0.7818608E-02  0.1130116E+00
         25   -1    0    0    0    0  0.00000000000E+00  0.00000000000E+00  0.99999998245E-14  0.12500000000E+03  0.12500000000E+03 0.  0.
        -13    1    3    3    0    0  0.78142367025E+01 -0.20102345084E+02 -0.45750253274E+02  0.50579278483E+02  0.10566000000E+00 0.  1.
         23    2    1    0    0    0 -0.11395217421E+02  0.13881129959E+02 -0.23198361868E+02  0.95662298277E+02  0.91052592325E+02 0.  0.
         13    1    3    3    0    0 -0.19209454124E+02  0.33983475043E+02  0.22551891406E+02  0.45083019794E+02  0.10566000000E+00 0. -1.
         22    1    1    0    0    0  0.11395217421E+02 -0.13881129959E+02  0.23198361868E+02  0.29337701723E+02  0.00000000000E+00 0.  1.
</event>
<event>
 4    1  0.2491889E-009  0.9118800E+02  0.7818608E-02  0.1130116E+00
         25   -1    0    0    0    0  0.00000000000E+00  0.00000000000E+00  0.99999998245E-14  0.12500000000E+03  0.12500000000E+03 0.  0.
        -13    1    1    0    0    0  0.89686355070E+01 -0.48732649453E+01  0.35922170538E+02  0.37344325329E+02  0.10566000000E+00 0.  1.
         13    1    1    0    0    0 -0.20265434436E+02  0.28967097058E+02  0.80509688101E+01  0.36257548285E+02  0.10566000000E+00 0. -1.
         22    1    1    0    0    0  0.11296798929E+02 -0.24093832113E+02 -0.43973139348E+02  0.51398126386E+02  0.00000000000E+00 0.  1.
</event>
<event>
 5    1  0.2491889E-009  0.9118800E+02  0.7818608E-02  0.1130116E+00
         25   -1    0    0    0    0  0.00000000000E+00  0.00000000000E+00  0.99999998245E-14  0.12500000000E+03  0.12500000000E+03 0.  0.
        -13    1    3    3    0    0 -0.42626309761E+02  0.14348838562E+02 -0.25666351297E+02  0.51784787388E+02  0.10566000000E+00 0. -1.
         23    2    1    0    0    0 -0.93549047855E+01 -0.18787417503E+02 -0.34572251699E+01  0.10372951092E+03  0.10152525661E+03 0.  0.
         13    1    3    3    0    0  0.33271404976E+02 -0.33136256065E+02  0.22209126127E+02  0.51944723528E+02  0.10566000000E+00 0.  1.
         22    1    1    0    0    0  0.93549047855E+01  0.18787417503E+02  0.34572251699E+01  0.21270489084E+02  0.00000000000E+00 0.  1.
</event>
<event>
 5    1  0.2491889E-009  0.9118800E+02  0.7818608E-02  0.1130116E+00
         25   -1    0    0    0    0  0.00000000000E+00  0.00000000000E+00  0.99999998245E-14  0.12500000000E+03  0.12500000000E+03 0.  0.
        -13    1    3    3    0    0  0.35134848745E+02 -0.52932679308E+01 -0.46934324381E+02  0.58866953809E+02  0.10566000000E+00 0. -1.
         23    2    1    0    0    0  0.37621520749E+01  0.34591067217E+01 -0.27991532345E+02  0.96545736865E+02  0.92257434477E+02 0.  0.
         13    1    3    3    0    0 -0.31372696670E+02  0.87523746525E+01  0.18942792036E+02  0.37678783055E+02  0.10566000000E+00 0.  1.
         22    1    1    0    0    0 -0.37621520749E+01 -0.34591067217E+01  0.27991532345E+02  0.28454263135E+02  0.00000000000E+00 0. -1.
</event>
<event>
 5    1  0.2491889E-009  0.9118800E+02  0.7818608E-02  0.1130116E+00
         25   -1    0    0    0    0  0.00000000000E+00  0.00000000000E+00  0.99999998245E-14  0.12500000000E+03  0.12500000000E+03 0.  0.
        -13    1    3    3    0    0 -0.38888732529E+02 -0.25019536296E+02 -0.40668885837E+02  0.61581491972E+02  0.10566000000E+00 0. -1.
         23    2    1    0    0    0 -0.11802697075E+02 -0.94980488298E+01 -0.23016753717E+02  0.97444827319E+02  0.93467677995E+02 0.  0.
         13    1    3    3    0    0  0.27086035454E+02  0.15521487466E+02  0.17652132120E+02  0.35863335347E+02  0.10566000000E+00 0.  1.
         22    1    1    0    0    0  0.11802697075E+02  0.94980488298E+01  0.23016753717E+02  0.27555172681E+02  0.00000000000E+00 0. -1.
</event>
<event>
 5    1  0.2491889E-009  0.9118800E+02  0.7818608E-02  0.1130116E+00
         25   -1    0    0    0    0  0.00000000000E+00  0.00000000000E+00  0.99999998245E-14  0.12500000000E+03  0.12500000000E+03 0.  0.
        -13    1    3    3    0    0  0.27291101101E+02 -0.31769842299E+02  0.31438818657E+02  0.52369242515E+02  0.10566000000E+00 0. -1.
         23    2    1    0    0    0 -0.11542239412E+02 -0.20903637130E+02  0.18737750078E+02  0.94647263486E+02  0.89648289841E+02 0.  0.
         13    1    3    3    0    0 -0.38833340513E+02  0.10866205169E+02 -0.12701068578E+02  0.42278020971E+02  0.10566000000E+00 0.  1.
         22    1    1    0    0    0  0.11542239412E+02  0.20903637130E+02 -0.18737750078E+02  0.30352736514E+02  0.00000000000E+00 0. -1.
</event>
<event>
 5    1  0.2491889E-009  0.9118800E+02  0.7818608E-02  0.1130116E+00
         25   -1    0    0    0    0  0.00000000000E+00  0.00000000000E+00  0.99999998245E-14  0.12500000000E+03  0.12500000000E+03 0.  0.
        -13    1    3    3    0    0  0.82047409635E+01  0.16971949661E+02 -0.31331997201E+02  0.36565968635E+02  0.10566000000E+00 0.  1.
         23    2    1    0    0    0 -0.15892554952E+02  0.14945581365E+02  0.21313953741E+02  0.94500355260E+02  0.89443215589E+02 0.  0.
         13    1    3    3    0    0 -0.24097295915E+02 -0.20263682962E+01  0.52645950942E+02  0.57934386624E+02  0.10566000000E+00 0. -1.
         22    1    1    0    0    0  0.15892554952E+02 -0.14945581365E+02 -0.21313953741E+02  0.30499644740E+02  0.00000000000E+00 0. -1.
</event>
<event>
 5    1  0.2491889E-009  0.9118800E+02  0.7818608E-02  0.1130116E+00
         25   -1    0    0    0    0  0.00000000000E+00  0.00000000000E+00  0.99999998245E-14  0.12500000000E+03  0.12500000000E+03 0.  0.
        -13    1    3    3    0    0  0.86524153559E+01  0.36133476953E+02  0.42417308993E+02  0.56389109892E+02  0.10566000000E+00 0. -1.
         23    2    1    0    0    0 -0.22745276574E+01  0.85858006567E+00  0.29331748602E+02  0.95567668936E+02  0.90922589239E+02 0.  0.
         13    1    3    3    0    0 -0.10926943013E+02 -0.35274896887E+02 -0.13085560390E+02  0.39178559044E+02  0.10566000000E+00 0.  1.
         22    1    1    0    0    0  0.22745276574E+01 -0.85858006567E+00 -0.29331748602E+02  0.29432331064E+02  0.00000000000E+00 0. -1.
</event>
<event>
 5    1  0.2491889E-009  0.9118800E+02  0.7818608E-02  0.1130116E+00
         25   -1    0    0    0    0  0.00000000000E+00  0.00000000000E+00  0.99999998245E-14  0.12500000000E+03  0.12500000000E+03 0.  0.
        -13    1    3    3    0    0 -0.27929159836E+02  0.21882885780E+02  0.45055048784E+02  0.57348646403E+02  0.10566000000E+00 0.  1.
         23    2    1    0    0    0  0.30510908088E+01  0.17579944117E+02  0.24166657158E+02  0.94960177956E+02  0.90083541720E+02 0.  0.
         13    1    3    3    0    0  0.30980250645E+02 -0.43029416638E+01 -0.20888391626E+02  0.37611531553E+02  0.10566000000E+00 0. -1.
         22    1    1    0    0    0 -0.30510908088E+01 -0.17579944117E+02 -0.24166657158E+02  0.30039822044E+02  0.00000000000E+00 0.  1.
</event>
<event>
 5    1  0.2491889E-009  0.9118800E+02  0.7818608E-02  0.1130116E+00
         25   -1    0    0    0    0  0.00000000000E+00  0.00000000000E+00  0.99999998245E-14  0.12500000000E+03  0.12500000000E+03 0.  0.
        -13    1    3    3    0    0 -0.23331683856E+02 -0.19166630058E+02  0.33639002937E+02  0.45203106774E+02  0.10566000000E+00 0. -1.
         23    2    1    0    0    0  0.63315716797E+01 -0.26568702964E+02 -0.77031129595E+01  0.96621791346E+02  0.92360423540E+02 0.  0.
         13    1    3    3    0    0  0.29663255536E+02 -0.74020729059E+01 -0.41342115897E+02  0.51418684572E+02  0.10566000000E+00 0.  1.
         22    1    1    0    0    0 -0.63315716797E+01  0.26568702964E+02  0.77031129595E+01  0.28378208654E+02  0.00000000000E+00 0.  1.
</event>
<event>
 5    1  0.2491889E-009  0.9118800E+02  0.7818608E-02  0.1130116E+00
         25   -1    0    0    0    0  0.00000000000E+00  0.00000000000E+00  0.99999998245E-14  0.12500000000E+03  0.12500000000E+03 0.  0.
        -13    1    3    3    0    0  0.45320565142E+02  0.59892420891E+01 -0.84808261591E+01  0.46494733272E+02  0.10566000000E+00 0.  1.
         23    2    1    0    0    0  0.52132956528E+01 -0.10769548263E+02 -0.28305111575E+02  0.94269868816E+02  0.89120520667E+02 0.  0.
         13    1    3    3    0    0 -0.40107269490E+02 -0.16758790352E+02 -0.19824285415E+02  0.47775135544E+02  0.10566000000E+00 0. -1.
         22    1    1    0    0    0 -0.52132956528E+01  0.10769548263E+02  0.28305111575E+02  0.30730131184E+02  0.00000000000E+00 0. -1.
</event>
<event>
 5    1  0.2491889E-009  0.9118800E+02  0.7818608E-02  0.1130116E+00
         25   -1    0    0    0    0  0.00000000000E+00  0.00000000000E+00  0.99999998245E-14  0.12500000000E+03  0.12500000000E+03 0.  0.
        -13    1    3    3    0    0  0.78169288867E+01  0.30565182584E+02  0.12270943012E+02  0.33851469245E+02  0.10566000000E+00 0. -1.
         23    2    1    0    0    0 -0.15772745881E+02 -0.13733740920E+02 -0.22016205007E+02  0.94633761589E+02  0.89629461659E+02 0.  0.
         13    1    3    3    0    0 -0.23589674768E+02 -0.44298923504E+02 -0.34287148020E+02  0.60782292344E+02  0.10566000000E+00 0.  1.
         22    1    1    0    0    0  0.15772745881E+02  0.13733740920E+02  0.22016205007E+02  0.30366238411E+02  0.00000000000E+00 0.  1.
</event>
<event>
 5    1  0.2491889E-009  0.9118800E+02  0.7818608E-02  0.1130116E+00
         25   -1    0    0    0    0  0.00000000000E+00  0.00000000000E+00  0.99999998245E-14  0.12500000000E+03  0.12500000000E+03 0.  0.
        -13    1    3    3    0    0 -0.37398644825E+02 -0.18989279749E+02 -0.32984538555E+02  0.53359557044E+02  0.10566000000E+00 0. -1.
         23    2    1    0    0    0 -0.16442265536E+02  0.14724824384E+02 -0.20243027212E+02  0.95050898180E+02  0.90209337350E+02 0.  0.
         13    1    3    3    0    0  0.20956379289E+02  0.33714104134E+02  0.12741511343E+02  0.41691341137E+02  0.10566000000E+00 0.  1.
         22    1    1    0    0    0  0.16442265536E+02 -0.14724824384E+02  0.20243027212E+02  0.29949101820E+02  0.00000000000E+00 0.  1.
</event>
<event>
 5    1  0.2491889E-009  0.9118800E+02  0.7818608E-02  0.1130116E+00
         25   -1    0    0    0    0  0.00000000000E+00  0.00000000000E+00  0.99999998245E-14  0.12500000000E+03  0.12500000000E+03 0.  0.
        -13    1    3    3    0    0  0.61798172572E+02  0.67654169794E+00  0.11223035296E+01  0.61812155529E+02  0.10566000000E+00 0. -1.
         23    2    1    0    0    0  0.28760087112E+02 -0.29181635596E-01  0.70572984183E+01  0.95386676592E+02  0.90673420295E+02 0.  0.
         13    1    3    3    0    0 -0.33038085460E+02 -0.70572333354E+00  0.59349948888E+01  0.33574521063E+02  0.10566000000E+00 0.  1.
         22    1    1    0    0    0 -0.28760087112E+02  0.29181635596E-01 -0.70572984183E+01  0.29613323408E+02  0.00000000000E+00 0. -1.
</event>
<event>
 5    1  0.2491889E-009  0.9118800E+02  0.7818608E-02  0.1130116E+00
         25   -1    0    0    0    0  0.00000000000E+00  0.00000000000E+00  0.99999998245E-14  0.12500000000E+03  0.12500000000E+03 0.  0.
        -13    1    3    3    0    0  0.21535540304E+02  0.21755002581E+02 -0.71887886103E+01  0.31444387086E+02  0.10566000000E+00 0.  1.
         23    2    1    0    0    0 -0.27066798753E+02 -0.93448036646E+01  0.14270459666E+02  0.93006516767E+02  0.87330574210E+02 0.  0.
         13    1    3    3    0    0 -0.48602339057E+02 -0.31099806246E+02  0.21459248277E+02  0.61562129682E+02  0.10566000000E+00 0. -1.
         22    1    1    0    0    0  0.27066798753E+02  0.93448036646E+01 -0.14270459666E+02  0.31993483233E+02  0.00000000000E+00 0. -1.
</event>
<event>
 5    1  0.2491889E-009  0.9118800E+02  0.7818608E-02  0.1130116E+00
         25   -1    0    0    0    0  0.00000000000E+00  0.00000000000E+00  0.99999998245E-14  0.12500000000E+03  0.12500000000E+03 0.  0.
        -13    1    3    3    0    0 -0.24088064957E+02 -0.21308312276E+02 -0.24774665920E+02  0.40596481139E+02  0.10566000000E+00 0.  1.
         23    2    1    0    0    0 -0.15439998079E+02  0.23152702223E+02  0.74582380519E+01  0.96189125738E+02  0.91772988589E+02 0.  0.
         13    1    3    3    0    0  0.86480668776E+01  0.44461014499E+02  0.32232903972E+02  0.55592644599E+02  0.10566000000E+00 0. -1.
         22    1    1    0    0    0  0.15439998079E+02 -0.23152702223E+02 -0.74582380519E+01  0.28810874262E+02  0.00000000000E+00 0. -1.
</event>
<event>
 5    1  0.2491889E-009  0.9118800E+02  0.7818608E-02  0.1130116E+00
         25   -1    0    0    0    0  0.00000000000E+00  0.00000000000E+00  0.99999998245E-14  0.12500000000E+03  0.12500000000E+03 0.  0.
        -13    1    3    3    0    0  0.40935973534E+01  0.34268187951E+02  0.22817743702E+00  0.34512743643E+02  0.10566000000E+00 0.  1.
         23    2    1    0    0    0  0.84692920381E+01 -0.27391751568E+02 -0.91675795742E-01  0.96328666476E+02  0.91962854560E+02 0.  0.
         13    1    3    3    0    0  0.43756946847E+01 -0.61659939520E+02 -0.31985323276E+00  0.61815922833E+02  0.10566000000E+00 0. -1.
         22    1    1    0    0    0 -0.84692920381E+01  0.27391751568E+02  0.91675795742E-01  0.28671333524E+02  0.00000000000E+00 0. -1.
</event>
<event>
 5    1  0.2491889E-009  0.9118800E+02  0.7818608E-02  0.1130116E+00
         25   -1    0    0    0    0  0.00000000000E+00  0.00000000000E+00  0.99999998245E-14  0.12500000000E+03  0.12500000000E+03 0.  0.
        -13    1    3    3    0    0 -0.16560511601E+02  0.48714704390E+02 -0.47020450529E+01  0.51667140041E+02  0.10566000000E+00 0.  1.
         23    2    1    0    0    0 -0.23367697729E+02  0.13170499227E+02  0.16399754908E+02  0.93560163676E+02  0.88119469579E+02 0.  0.
         13    1    3    3    0    0 -0.68071861287E+01 -0.35544205163E+02  0.21101799961E+02  0.41893023635E+02  0.10566000000E+00 0. -1.
         22    1    1    0    0    0  0.23367697729E+02 -0.13170499227E+02 -0.16399754908E+02  0.31439836324E+02  0.00000000000E+00 0.  1.
</event>
<event>
 5    1  0.2491889E-009  0.9118800E+02  0.7818608E-02  0.1130116E+00
         25   -1    0    0    0    0  0.00000000000E+00  0.00000000000E+00  0.99999998245E-14  0.12500000000E+03  0.12500000000E+03 0.  0.
        -13    1    3    3    0    0  0.34570789124E+02 -0.31535467115E+00  0.12790415908E+02  0.36862512290E+02  0.10566000000E+00 0.  1.
         23    2    1    0    0    0 -0.78251992565E+01  0.27850111627E+01 -0.28010380173E+02  0.95784055243E+02  0.91219591157E+02 0.  0.
         13    1    3    3    0    0 -0.42395988380E+02  0.31003658338E+01 -0.40800796082E+02  0.58921542953E+02  0.10566000000E+00 0. -1.
         22    1    1    0    0    0  0.78251992565E+01 -0.27850111627E+01  0.28010380173E+02  0.29215944757E+02  0.00000000000E+00 0. -1.
</event>
<event>
 5    1  0.2491889E-009  0.9118800E+02  0.7818608E-02  0.1130116E+00
         25   -1    0    0    0    0  0.00000000000E+00  0.00000000000E+00  0.99999998245E-14  0.12500000000E+03  0.12500000000E+03 0.  0.
        -13    1    3    3    0    0 -0.16386753581E+02  0.41754111416E+02 -0.11149264453E+01  0.44868538399E+02  0.10566000000E+00 0. -1.
         23    2    1    0    0    0 -0.12151676992E+02  0.68962515507E+00 -0.28228970242E+02  0.94258926540E+02  0.89105171763E+02 0.  0.
         13    1    3    3    0    0  0.42350765892E+01 -0.41064486261E+02 -0.27114043797E+02  0.49390388140E+02  0.10566000000E+00 0.  1.
         22    1    1    0    0    0  0.12151676992E+02 -0.68962515507E+00  0.28228970242E+02  0.30741073460E+02  0.00000000000E+00 0.  1.
</event>
<event>
 5    1  0.2491889E-009  0.9118800E+02  0.7818608E-02  0.1130116E+00
         25   -1    0    0    0    0  0.00000000000E+00  0.00000000000E+00  0.99999998245E-14  0.12500000000E+03  0.12500000000E+03 0.  0.
        -13    1    3    3    0    0 -0.13388602862E+02 -0.25162387914E+02 -0.50053220520E+02  0.57599796011E+02  0.10566000000E+00 0. -1.
         23    2    1    0    0    0  0.87736349608E+01 -0.20435576221E+02 -0.21338538960E+02  0.94179184131E+02  0.88993235882E+02 0.  0.
         13    1    3    3    0    0  0.22162237822E+02  0.47268116936E+01  0.28714681560E+02  0.36579388119E+02  0.10566000000E+00 0.  1.
         22    1    1    0    0    0 -0.87736349608E+01  0.20435576221E+02  0.21338538960E+02  0.30820815869E+02  0.00000000000E+00 0. -1.
</event>
<event>
 5    1  0.2491889E-009  0.9118800E+02  0.7818608E-02  0.1130116E+00
         25   -1    0    0    0    0  0.00000000000E+00  0.00000000000E+00  0.99999998245E-14  0.12500000000E+03  0.12500000000E+03 0.  0.
        -13    1    3    3    0    0  0.28881785291E+01  0.66624709598E+01  0.39163135126E+02  0.39830797274E+02  0.10566000000E+00 0. -1.
         23    2    1    0    0    0 -0.74914480365E+01 -0.28118378713E+02 -0.33244633056E+01  0.95711485675E+02  0.91120093386E+02 0.  0.
         13    1    3    3    0    0 -0.10379626566E+02 -0.34780849673E+02 -0.42487598432E+02  0.55880688401E+02  0.10566000000E+00 0.  1.
         22    1    1    0    0    0  0.74914480365E+01  0.28118378713E+02  0.33244633056E+01  0.29288514325E+02  0.00000000000E+00 0.  1.
</event>
<event>
 5    1  0.2491889E-009  0.9118800E+02  0.7818608E-02  0.1130116E+00
         25   -1    0    0    0    0  0.00000000000E+00  0.00000000000E+00  0.99999998245E-14  0.12500000000E+03  0.12500000000E+03 0.  0.
        -13    1    3    3    0    0 -0.19707104986E+02 -0.32164924674E+02  0.11298574880E+02  0.39377929409E+02  0.10566000000E+00 0. -1.
         23    2    1    0    0    0 -0.57311268991E+01  0.21396124275E+02  0.19687989658E+02  0.95364600791E+02  0.90642982065E+02 0.  0.
         13    1    3    3    0    0  0.13975978087E+02  0.53561048949E+02  0.83894147775E+01  0.55986671381E+02  0.10566000000E+00 0.  1.
         22    1    1    0    0    0  0.57311268991E+01 -0.21396124275E+02 -0.19687989658E+02  0.29635399209E+02  0.00000000000E+00 0.  1.
</event>
<event>
 5    1  0.2491889E-009  0.9118800E+02  0.7818608E-02  0.1130116E+00
         25   -1    0    0    0    0  0.00000000000E+00  0.00000000000E+00  0.99999998245E-14  0.12500000000E+03  0.12500000000E+03 0.  0.
        -13    1    3    3    0    0  0.13855322084E+02 -0.53735216099E+01 -0.15219639433E+02  0.21271889269E+02  0.10566000000E+00 0. -1.
         23    2    1    0    0    0  0.31262756782E+02  0.36853310126E+02  0.12992491041E+02  0.74956706221E+02  0.55804807635E+02 0.  0.
         13    1    3    3    0    0  0.17407434698E+02  0.42226831736E+02  0.28212130474E+02  0.53684816952E+02  0.10566000000E+00 0.  1.
         22    1    1    0    0    0 -0.31262756782E+02 -0.36853310126E+02 -0.12992491041E+02  0.50043293779E+02  0.00000000000E+00 0.  1.
</event>
<event>
 5    1  0.2491889E-009  0.9118800E+02  0.7818608E-02  0.1130116E+00
         25   -1    0    0    0    0  0.00000000000E+00  0.00000000000E+00  0.99999998245E-14  0.12500000000E+03  0.12500000000E+03 0.  0.
        -13    1    3    3    0    0  0.74468877282E+01 -0.71387816820E+00  0.33878107742E+02  0.34694424726E+02  0.10566000000E+00 0.  1.
         23    2    1    0    0    0  0.98972828728E+01 -0.19668433552E+02 -0.22074747267E+02  0.93821514573E+02  0.88489426731E+02 0.  0.
         13    1    3    3    0    0  0.24503951446E+01 -0.18954555384E+02 -0.55952855008E+02  0.59127089847E+02  0.10566000000E+00 0. -1.
         22    1    1    0    0    0 -0.98972828728E+01  0.19668433552E+02  0.22074747267E+02  0.31178485427E+02  0.00000000000E+00 0. -1.
</event>
<event>
 5    1  0.2491889E-009  0.9118800E+02  0.7818608E-02  0.1130116E+00
         25   -1    0    0    0    0  0.00000000000E+00  0.00000000000E+00  0.99999998245E-14  0.12500000000E+03  0.12500000000E+03 0.  0.
        -13    1    3    3    0    0 -0.53780286940E+02  0.11214232995E+01  0.31537858234E+02  0.62355629414E+02  0.10566000000E+00 0.  1.
         23    2    1    0    0    0 -0.23994236265E+02  0.11940341003E+01  0.17461821332E+02  0.95300432737E+02  0.90554448728E+02 0.  0.
         13    1    3    3    0    0  0.29786050675E+02  0.72610800841E-01 -0.14076036903E+02  0.32944803324E+02  0.10566000000E+00 0. -1.
         22    1    1    0    0    0  0.23994236265E+02 -0.11940341003E+01 -0.17461821332E+02  0.29699567263E+02  0.00000000000E+00 0.  1.
</event>
<event>
 5    1  0.2491889E-009  0.9118800E+02  0.7818608E-02  0.1130116E+00
         25   -1    0    0    0    0  0.00000000000E+00  0.00000000000E+00  0.99999998245E-14  0.12500000000E+03  0.12500000000E+03 0.  0.
        -13    1    3    3    0    0 -0.30563310483E+02 -0.21822874165E+02  0.10911304718E+02  0.39107819157E+02  0.10566000000E+00 0.  1.
         23    2    1    0    0    0  0.85832156227E+01  0.16556863827E+02  0.23143037274E+02  0.95277929001E+02  0.90523379578E+02 0.  0.
         13    1    3    3    0    0  0.39146526106E+02  0.38379737992E+02  0.12231732556E+02  0.56170109844E+02  0.10566000000E+00 0. -1.
         22    1    1    0    0    0 -0.85832156227E+01 -0.16556863827E+02 -0.23143037274E+02  0.29722070999E+02  0.00000000000E+00 0. -1.
</event>
<event>
 5    1  0.2491889E-009  0.9118800E+02  0.7818608E-02  0.1130116E+00
         25   -1    0    0    0    0  0.00000000000E+00  0.00000000000E+00  0.99999998245E-14  0.12500000000E+03  0.12500000000E+03 0.  0.
        -13    1    3    3    0    0  0.38437607966E+02  0.12636583575E+02 -0.42589732360E+02  0.58745462949E+02  0.10566000000E+00 0. -1.
         23    2    1    0    0    0  0.24235854252E+02  0.14198952384E+02 -0.85873794305E+01  0.95627734756E+02  0.91005130014E+02 0.  0.
         13    1    3    3    0    0 -0.14201753714E+02  0.15623688083E+01  0.34002352929E+02  0.36882271807E+02  0.10566000000E+00 0.  1.
         22    1    1    0    0    0 -0.24235854252E+02 -0.14198952384E+02  0.85873794305E+01  0.29372265244E+02  0.00000000000E+00 0. -1.
</event>
<event>
 5    1  0.2491889E-009  0.9118800E+02  0.7818608E-02  0.1130116E+00
         25   -1    0    0    0    0  0.00000000000E+00  0.00000000000E+00  0.99999998245E-14  0.12500000000E+03  0.12500000000E+03 0.  0.
        -13    1    3    3    0    0  0.18600345239E+01 -0.75339480199E+01 -0.42247137494E+02  0.42954067230E+02  0.10566000000E+00 0.  1.
         23    2    1    0    0    0 -0.22238569876E+02 -0.19202244248E+02  0.29332102315E+01  0.95472319824E+02  0.90791409043E+02 0.  0.
         13    1    3    3    0    0 -0.24098604400E+02 -0.11668296228E+02  0.45180347725E+02  0.52518252594E+02  0.10566000000E+00 0. -1.
         22    1    1    0    0    0  0.22238569876E+02  0.19202244248E+02 -0.29332102315E+01  0.29527680176E+02  0.00000000000E+00 0. -1.
</event>
<event>
 5    1  0.2491889E-009  0.9118800E+02  0.7818608E-02  0.1130116E+00
         25   -1    0    0    0    0  0.00000000000E+00  0.00000000000E+00  0.99999998245E-14  0.12500000000E+03  0.12500000000E+03 0.  0.
        -13    1    3    3    0    0  0.33073057333E+02 -0.15811074489E+02  0.46417355845E+02  0.59147267778E+02  0.10566000000E+00 0.  1.
         23    2    1    0    0    0  0.39161582451E+01 -0.14644864702E+02  0.26477855966E+02  0.94489588431E+02  0.89428167306E+02 0.  0.
         13    1    3    3    0    0 -0.29156899088E+02  0.11662097863E+01 -0.19939499879E+02  0.35342320654E+02  0.10566000000E+00 0. -1.
         22    1    1    0    0    0 -0.39161582451E+01  0.14644864702E+02 -0.26477855966E+02  0.30510411569E+02  0.00000000000E+00 0.  1.
</event>
<event>
 5    1  0.2491889E-009  0.9118800E+02  0.7818608E-02  0.1130116E+00
         25   -1    0    0    0    0  0.00000000000E+00  0.00000000000E+00  0.99999998245E-14  0.12500000000E+03  0.12500000000E+03 0.  0.
        -13    1    3    3    0    0 -0.34807085027E+01  0.43643301415E+02 -0.58830170495E+01  0.44175492569E+02  0.10566000000E+00 0.  1.
         23    2    1    0    0    0  0.12897646622E+02 -0.99469068373E+00 -0.26121026554E+02  0.95851299751E+02  0.91311691135E+02 0.  0.
         13    1    3    3    0    0  0.16378355124E+02 -0.44637992099E+02 -0.20238009505E+02  0.51675807182E+02  0.10566000000E+00 0. -1.
         22    1    1    0    0    0 -0.12897646622E+02  0.99469068373E+00  0.26121026554E+02  0.29148700249E+02  0.00000000000E+00 0.  1.
</event>
<event>
 5    1  0.2491889E-009  0.9118800E+02  0.7818608E-02  0.1130116E+00
         25   -1    0    0    0    0  0.00000000000E+00  0.00000000000E+00  0.99999998245E-14  0.12500000000E+03  0.12500000000E+03 0.  0.
        -13    1    3    3    0    0 -0.10947087703E+02 -0.21785074812E+02  0.44750935738E+02  0.50961609347E+02  0.10566000000E+00 0.  1.
         23    2    1    0    0    0 -0.26683198943E+02  0.33950687749E+01  0.10934565859E+02  0.95964085543E+02  0.91465957524E+02 0.  0.
         13    1    3    3    0    0 -0.15736111240E+02  0.25180143587E+02 -0.33816369879E+02  0.45002476197E+02  0.10566000000E+00 0. -1.
         22    1    1    0    0    0  0.26683198943E+02 -0.33950687749E+01 -0.10934565859E+02  0.29035914457E+02  0.00000000000E+00 0.  1.
</event>
<event>
 5    1  0.2491889E-009  0.9118800E+02  0.7818608E-02  0.1130116E+00
         25   -1    0    0    0    0  0.00000000000E+00  0.00000000000E+00  0.99999998245E-14  0.12500000000E+03  0.12500000000E+03 0.  0.
        -13    1    3    3    0    0  0.12306160167E+02 -0.93155501896E+01  0.31009727537E+02  0.34638640552E+02  0.10566000000E+00 0.  1.
         23    2    1    0    0    0 -0.35085534426E+01 -0.19192886492E+02 -0.24779348019E+02  0.93461247213E+02  0.87979041841E+02 0.  0.
         13    1    3    3    0    0 -0.15814713610E+02 -0.98773363023E+01 -0.55789075555E+02  0.58822606660E+02  0.10566000000E+00 0. -1.
         22    1    1    0    0    0  0.35085534426E+01  0.19192886492E+02  0.24779348019E+02  0.31538752787E+02  0.00000000000E+00 0. -1.
</event>
<event>
 5    1  0.2491889E-009  0.9118800E+02  0.7818608E-02  0.1130116E+00
         25   -1    0    0    0    0  0.00000000000E+00  0.00000000000E+00  0.99999998245E-14  0.12500000000E+03  0.12500000000E+03 0.  0.
        -13    1    3    3    0    0 -0.37139920215E+02  0.17181981398E+02  0.31638361232E+02  0.51726117425E+02  0.10566000000E+00 0.  1.
         23    2    1    0    0    0 -0.13437503852E+02  0.26002383200E+02 -0.40339866978E+01  0.95454044431E+02  0.90766244318E+02 0.  0.
         13    1    3    3    0    0  0.23702416363E+02  0.88204018013E+01 -0.35672347930E+02  0.43727927006E+02  0.10566000000E+00 0. -1.
         22    1    1    0    0    0  0.13437503852E+02 -0.26002383200E+02  0.40339866978E+01  0.29545955569E+02  0.00000000000E+00 0. -1.
</event>
<event>
 5    1  0.2491889E-009  0.9118800E+02  0.7818608E-02  0.1130116E+00
         25   -1    0    0    0    0  0.00000000000E+00  0.00000000000E+00  0.99999998245E-14  0.12500000000E+03  0.12500000000E+03 0.  0.
        -13    1    3    3    0    0 -0.18661386085E+02  0.89659698545E+01 -0.32798134833E+02  0.38786141322E+02  0.10566000000E+00 0.  1.
         23    2    1    0    0    0 -0.27236266517E+01  0.23898158646E+02  0.18575446513E+02  0.94609420178E+02  0.89595507948E+02 0.  0.
         13    1    3    3    0    0  0.15937759434E+02  0.14932188791E+02  0.51373581346E+02  0.55823278856E+02  0.10566000000E+00 0. -1.
         22    1    1    0    0    0  0.27236266517E+01 -0.23898158646E+02 -0.18575446513E+02  0.30390579822E+02  0.00000000000E+00 0. -1.
</event>
<event>
 5    1  0.2491889E-009  0.9118800E+02  0.7818608E-02  0.1130116E+00
         25   -1    0    0    0    0  0.00000000000E+00  0.00000000000E+00  0.99999998245E-14  0.12500000000E+03  0.12500000000E+03 0.  0.
        -13    1    3    3    0    0  0.17561308260E+02 -0.32981746528E+02  0.18884746246E+02  0.41866931541E+02  0.10566000000E+00 0. -1.
         23    2    1    0    0    0 -0.82146901033E+01 -0.17413359825E+02 -0.23977000374E+02  0.94249345034E+02  0.89091729462E+02 0.  0.
         13    1    3    3    0    0 -0.25775998363E+02  0.15568386703E+02 -0.42861746620E+02  0.52382413494E+02  0.10566000000E+00 0.  1.
         22    1    1    0    0    0  0.82146901033E+01  0.17413359825E+02  0.23977000374E+02  0.30750654966E+02  0.00000000000E+00 0.  1.
</event>
<event>
 5    1  0.2491889E-009  0.9118800E+02  0.7818608E-02  0.1130116E+00
         25   -1    0    0    0    0  0.00000000000E+00  0.00000000000E+00  0.99999998245E-14  0.12500000000E+03  0.12500000000E+03 0.  0.
        -13    1    3    3    0    0 -0.36610190030E+02  0.34411095541E+02 -0.36288603069E+01  0.50374689096E+02  0.10566000000E+00 0. -1.
         23    2    1    0    0    0 -0.43985246286E+01  0.16402484362E+02  0.23377849865E+02  0.96105149655E+02  0.91658537047E+02 0.  0.
         13    1    3    3    0    0  0.32211665402E+02 -0.18008611179E+02  0.27006710172E+02  0.45730460558E+02  0.10566000000E+00 0.  1.
         22    1    1    0    0    0  0.43985246286E+01 -0.16402484362E+02 -0.23377849865E+02  0.28894850345E+02  0.00000000000E+00 0.  1.
</event>
<event>
 5    1  0.2491889E-009  0.9118800E+02  0.7818608E-02  0.1130116E+00
         25   -1    0    0    0    0  0.00000000000E+00  0.00000000000E+00  0.99999998245E-14  0.12500000000E+03  0.12500000000E+03 0.  0.
        -13    1    3    3    0    0 -0.10486935626E+02  0.55290073901E+02  0.28677727227E+01  0.56348942983E+02  0.10566000000E+00 0.  1.
         23    2    1    0    0    0 -0.22695722496E+02  0.18380839118E+02 -0.29016001341E+01  0.95650888435E+02  0.91036927171E+02 0.  0.
         13    1    3    3    0    0 -0.12208786870E+02 -0.36909234784E+02 -0.57693728568E+01  0.39301945452E+02  0.10566000000E+00 0. -1.
         22    1    1    0    0    0  0.22695722496E+02 -0.18380839118E+02  0.29016001341E+01  0.29349111565E+02  0.00000000000E+00 0.  1.
</event>
<event>
 5    1  0.2491889E-009  0.9118800E+02  0.7818608E-02  0.1130116E+00
         25   -1    0    0    0    0  0.00000000000E+00  0.00000000000E+00  0.99999998245E-14  0.12500000000E+03  0.12500000000E+03 0.  0.
        -13    1    3    3    0    0 -0.25163113106E+02  0.21981350671E+02 -0.47017306288E+02  0.57680155107E+02  0.10566000000E+00 0.  1.
         23    2    1    0    0    0 -0.14838177235E+02 -0.65966731297E+01 -0.24938573094E+02  0.95240631257E+02  0.90471862003E+02 0.  0.
         13    1    3    3    0    0  0.10324935871E+02 -0.28578023801E+02  0.22078733194E+02  0.37560476150E+02  0.10566000000E+00 0. -1.
         22    1    1    0    0    0  0.14838177235E+02  0.65966731297E+01  0.24938573094E+02  0.29759368743E+02  0.00000000000E+00 0.  1.
</event>
<event>
 5    1  0.2491889E-009  0.9118800E+02  0.7818608E-02  0.1130116E+00
         25   -1    0    0    0    0  0.00000000000E+00  0.00000000000E+00  0.99999998245E-14  0.12500000000E+03  0.12500000000E+03 0.  0.
        -13    1    3    3    0    0  0.60799697015E+02 -0.76935956496E+00 -0.83772289405E+00  0.60810426860E+02  0.10566000000E+00 0. -1.
         23    2    1    0    0    0  0.30764388715E+02 -0.72484952054E+01  0.72269254209E+01  0.92577527133E+02  0.86714368955E+02 0.  0.
         13    1    3    3    0    0 -0.30035308299E+02 -0.64791356404E+01  0.80646483149E+01  0.31767100273E+02  0.10566000000E+00 0.  1.
         22    1    1    0    0    0 -0.30764388715E+02  0.72484952054E+01 -0.72269254209E+01  0.32422472867E+02  0.00000000000E+00 0. -1.
</event>
<event>
 5    1  0.2491889E-009  0.9118800E+02  0.7818608E-02  0.1130116E+00
         25   -1    0    0    0    0  0.00000000000E+00  0.00000000000E+00  0.99999998245E-14  0.12500000000E+03  0.12500000000E+03 0.  0.
        -13    1    3    3    0    0  0.10379988750E+02 -0.45144002498E+02 -0.20186891844E+02  0.50529663509E+02  0.10566000000E+00 0. -1.
         23    2    1    0    0    0 -0.83120495888E+01 -0.25941982689E+02  0.14323476262E+02  0.94222758304E+02  0.89054419183E+02 0.  0.
         13    1    3    3    0    0 -0.18692038338E+02  0.19202019810E+02  0.34510368105E+02  0.43693094795E+02  0.10566000000E+00 0.  1.
         22    1    1    0    0    0  0.83120495888E+01  0.25941982689E+02 -0.14323476262E+02  0.30777241696E+02  0.00000000000E+00 0.  1.
</event>
<event>
 5    1  0.2491889E-009  0.9118800E+02  0.7818608E-02  0.1130116E+00
         25   -1    0    0    0    0  0.00000000000E+00  0.00000000000E+00  0.99999998245E-14  0.12500000000E+03  0.12500000000E+03 0.  0.
        -13    1    3    3    0    0  0.26282877397E+02 -0.89528005083E+01 -0.45162456737E+02  0.53015101092E+02  0.10566000000E+00 0.  1.
         23    2    1    0    0    0 -0.78225533626E+01 -0.16961187802E+02 -0.26118936967E+02  0.92889672984E+02  0.87163170239E+02 0.  0.
         13    1    3    3    0    0 -0.34105430760E+02 -0.80083872934E+01  0.19043519769E+02  0.39874571892E+02  0.10566000000E+00 0. -1.
         22    1    1    0    0    0  0.78225533626E+01  0.16961187802E+02  0.26118936967E+02  0.32110327016E+02  0.00000000000E+00 0.  1.
</event>
<event>
 5    1  0.2491889E-009  0.9118800E+02  0.7818608E-02  0.1130116E+00
         25   -1    0    0    0    0  0.00000000000E+00  0.00000000000E+00  0.99999998245E-14  0.12500000000E+03  0.12500000000E+03 0.  0.
        -13    1    3    3    0    0 -0.40063431648E+02 -0.75028383396E+01 -0.15234704726E+02  0.43514118751E+02  0.10566000000E+00 0. -1.
         23    2    1    0    0    0  0.50835894997E+01 -0.26959503277E+02  0.57542553649E+01  0.96968425768E+02  0.92828370889E+02 0.  0.
         13    1    3    3    0    0  0.45147021147E+02 -0.19456664937E+02  0.20988960091E+02  0.53454307017E+02  0.10566000000E+00 0.  1.
         22    1    1    0    0    0 -0.50835894997E+01  0.26959503277E+02 -0.57542553649E+01  0.28031574232E+02  0.00000000000E+00 0. -1.
</event>
<event>
 5    1  0.2491889E-009  0.9118800E+02  0.7818608E-02  0.1130116E+00
         25   -1    0    0    0    0  0.00000000000E+00  0.00000000000E+00  0.99999998245E-14  0.12500000000E+03  0.12500000000E+03 0.  0.
        -13    1    3    3    0    0 -0.45727311667E+02 -0.29196610295E+02  0.18765411299E+02  0.57407150341E+02  0.10566000000E+00 0. -1.
         23    2    1    0    0    0 -0.29254760197E+02  0.16101986695E+01  0.36389435120E+01  0.95475846434E+02  0.90796264287E+02 0.  0.
         13    1    3    3    0    0  0.16472551470E+02  0.30806808964E+02 -0.15126467787E+02  0.38068696093E+02  0.10566000000E+00 0.  1.
         22    1    1    0    0    0  0.29254760197E+02 -0.16101986695E+01 -0.36389435120E+01  0.29524153566E+02  0.00000000000E+00 0. -1.
</event>
<event>
 5    1  0.2491889E-009  0.9118800E+02  0.7818608E-02  0.1130116E+00
         25   -1    0    0    0    0  0.00000000000E+00  0.00000000000E+00  0.99999998245E-14  0.12500000000E+03  0.12500000000E+03 0.  0.
        -13    1    3    3    0    0 -0.13336966095E+02 -0.26381208450E+02 -0.20899676266E+02  0.36202906733E+02  0.10566000000E+00 0. -1.
         23    2    1    0    0    0  0.18760258911E+01  0.24894934511E+02  0.10152739477E+02  0.98049019381E+02  0.94272237934E+02 0.  0.
         13    1    3    3    0    0  0.15212991986E+02  0.51276142961E+02  0.31052415743E+02  0.61846112647E+02  0.10566000000E+00 0.  1.
         22    1    1    0    0    0 -0.18760258911E+01 -0.24894934511E+02 -0.10152739477E+02  0.26950980619E+02  0.00000000000E+00 0.  1.
</event>
<event>
 5    1  0.2491889E-009  0.9118800E+02  0.7818608E-02  0.1130116E+00
         25   -1    0    0    0    0  0.00000000000E+00  0.00000000000E+00  0.99999998245E-14  0.12500000000E+03  0.12500000000E+03 0.  0.
        -13    1    3    3    0    0 -0.18237520678E+02 -0.77374098633E+01  0.53456219191E+02  0.57009237901E+02  0.10566000000E+00 0. -1.
         23    2    1    0    0    0 -0.26469144421E+02  0.45998614499E+01  0.38316342763E+02  0.78203456811E+02  0.62656717140E+02 0.  0.
         13    1    3    3    0    0 -0.82316237434E+01  0.12337271313E+02 -0.15139876428E+02  0.21194218910E+02  0.10566000000E+00 0.  1.
         22    1    1    0    0    0  0.26469144421E+02 -0.45998614499E+01 -0.38316342763E+02  0.46796543189E+02  0.00000000000E+00 0. -1.
</event>
<event>
 5    1  0.2491889E-009  0.9118800E+02  0.7818608E-02  0.1130116E+00
         25   -1    0    0    0    0  0.00000000000E+00  0.00000000000E+00  0.99999998245E-14  0.12500000000E+03  0.12500000000E+03 0.  0.
        -13    1    3    3    0    0  0.54896865859E+01  0.36969714415E+02  0.25942190334E+02  0.45496206942E+02  0.10566000000E+00 0.  1.
         23    2    1    0    0    0 -0.20499092970E+02 -0.20357912210E+01  0.25303782514E+02  0.92371198796E+02  0.86416431881E+02 0.  0.
         13    1    3    3    0    0 -0.25988779556E+02 -0.39005505636E+02 -0.63840782060E+00  0.46874991854E+02  0.10566000000E+00 0. -1.
         22    1    1    0    0    0  0.20499092970E+02  0.20357912210E+01 -0.25303782514E+02  0.32628801204E+02  0.00000000000E+00 0. -1.
</event>
<event>
 5    1  0.2491889E-009  0.9118800E+02  0.7818608E-02  0.1130116E+00
         25   -1    0    0    0    0  0.00000000000E+00  0.00000000000E+00  0.99999998245E-14  0.12500000000E+03  0.12500000000E+03 0.  0.
        -13    1    3    3    0    0 -0.46048684351E+01 -0.37984140929E+02  0.16297989470E+02  0.41588885537E+02  0.10566000000E+00 0. -1.
         23    2    1    0    0    0 -0.22218985437E+02 -0.24310797975E+01 -0.19732524622E+02  0.95184467290E+02  0.90394230028E+02 0.  0.
         13    1    3    3    0    0 -0.17614117002E+02  0.35553061132E+02 -0.36030514092E+02  0.53595581752E+02  0.10566000000E+00 0.  1.
         22    1    1    0    0    0  0.22218985437E+02  0.24310797975E+01  0.19732524622E+02  0.29815532710E+02  0.00000000000E+00 0.  1.
</event>
<event>
 5    1  0.2491889E-009  0.9118800E+02  0.7818608E-02  0.1130116E+00
         25   -1    0    0    0    0  0.00000000000E+00  0.00000000000E+00  0.99999998245E-14  0.12500000000E+03  0.12500000000E+03 0.  0.
        -13    1    3    3    0    0  0.15256047741E+02 -0.30018008867E+02 -0.13133655647E+02  0.36143214076E+02  0.10566000000E+00 0.  1.
         23    2    1    0    0    0 -0.17063468905E+02 -0.36247963301E+01  0.26224392491E+02  0.93503652894E+02  0.88039270917E+02 0.  0.
         13    1    3    3    0    0 -0.32319516646E+02  0.26393212537E+02  0.39358048137E+02  0.57360438819E+02  0.10566000000E+00 0. -1.
         22    1    1    0    0    0  0.17063468905E+02  0.36247963301E+01 -0.26224392491E+02  0.31496347106E+02  0.00000000000E+00 0. -1.
</event>
<event>
 5    1  0.2491889E-009  0.9118800E+02  0.7818608E-02  0.1130116E+00
         25   -1    0    0    0    0  0.00000000000E+00  0.00000000000E+00  0.99999998245E-14  0.12500000000E+03  0.12500000000E+03 0.  0.
        -13    1    3    3    0    0  0.40958744463E+02 -0.25467695255E+02  0.35094402444E+02  0.59647719960E+02  0.10566000000E+00 0.  1.
         23    2    1    0    0    0  0.23548878094E+02 -0.16849588930E+02  0.47808823973E+01  0.95651828965E+02  0.91038218575E+02 0.  0.
         13    1    3    3    0    0 -0.17409866368E+02  0.86181063244E+01 -0.30313520046E+02  0.36004109005E+02  0.10566000000E+00 0. -1.
         22    1    1    0    0    0 -0.23548878094E+02  0.16849588930E+02 -0.47808823973E+01  0.29348171035E+02  0.00000000000E+00 0. -1.
</event>
<event>
 5    1  0.2491889E-009  0.9118800E+02  0.7818608E-02  0.1130116E+00
         25   -1    0    0    0    0  0.00000000000E+00  0.00000000000E+00  0.99999998245E-14  0.12500000000E+03  0.12500000000E+03 0.  0.
        -13    1    3    3    0    0 -0.40516514931E+02  0.56937544252E+01 -0.41956646785E+02  0.58603568109E+02  0.10566000000E+00 0. -1.
         23    2    1    0    0    0 -0.73668854438E+01  0.10672153989E+02 -0.26458630272E+02  0.95534342231E+02  0.90876760273E+02 0.  0.
         13    1    3    3    0    0  0.33149629488E+02  0.49783995635E+01  0.15498016512E+02  0.36930774122E+02  0.10566000000E+00 0.  1.
         22    1    1    0    0    0  0.73668854438E+01 -0.10672153989E+02  0.26458630272E+02  0.29465657769E+02  0.00000000000E+00 0. -1.
</event>
<event>
 5    1  0.2491889E-009  0.9118800E+02  0.7818608E-02  0.1130116E+00
         25   -1    0    0    0    0  0.00000000000E+00  0.00000000000E+00  0.99999998245E-14  0.12500000000E+03  0.12500000000E+03 0.  0.
        -13    1    3    3    0    0  0.26059502818E+02  0.42121381418E+02 -0.37841377994E+02  0.62332090549E+02  0.10566000000E+00 0. -1.
         23    2    1    0    0    0  0.13896506756E+02  0.16423620517E+02 -0.16856155066E+02  0.97669098542E+02  0.93767129824E+02 0.  0.
         13    1    3    3    0    0 -0.12162996062E+02 -0.25697760901E+02  0.20985222928E+02  0.35337007993E+02  0.10566000000E+00 0.  1.
         22    1    1    0    0    0 -0.13896506756E+02 -0.16423620517E+02  0.16856155066E+02  0.27330901458E+02  0.00000000000E+00 0. -1.
</event>
<event>
 5    1  0.2491889E-009  0.9118800E+02  0.7818608E-02  0.1130116E+00
         25   -1    0    0    0    0  0.00000000000E+00  0.00000000000E+00  0.99999998245E-14  0.12500000000E+03  0.12500000000E+03 0.  0.
        -13    1    3    3    0    0 -0.43903782008E+02  0.35753860994E+02  0.20771122962E+02  0.60310292353E+02  0.10566000000E+00 0.  1.
         23    2    1    0    0    0 -0.27042656510E+02  0.92816072257E+01  0.33334436785E+01  0.96215188892E+02  0.91808481214E+02 0.  0.
         13    1    3    3    0    0  0.16861125498E+02 -0.26472253768E+02 -0.17437679283E+02  0.35904896539E+02  0.10566000000E+00 0. -1.
         22    1    1    0    0    0  0.27042656510E+02 -0.92816072257E+01 -0.33334436785E+01  0.28784811108E+02  0.00000000000E+00 0.  1.
</event>
<event>
 5    1  0.2491889E-009  0.9118800E+02  0.7818608E-02  0.1130116E+00
         25   -1    0    0    0    0  0.00000000000E+00  0.00000000000E+00  0.99999998245E-14  0.12500000000E+03  0.12500000000E+03 0.  0.
        -13    1    3    3    0    0  0.58010037707E+01  0.10532636182E+02 -0.49938822469E+02  0.51366187549E+02  0.10566000000E+00 0.  1.
         23    2    1    0    0    0  0.28433190674E+02  0.40948717823E+01 -0.17772644562E+02  0.91220106549E+02  0.84735037837E+02 0.  0.
         13    1    3    3    0    0  0.22632186904E+02 -0.64377643997E+01  0.32166177907E+02  0.39853919000E+02  0.10566000000E+00 0. -1.
         22    1    1    0    0    0 -0.28433190674E+02 -0.40948717823E+01  0.17772644562E+02  0.33779893451E+02  0.00000000000E+00 0.  1.
</event>
<event>
 5    1  0.2491889E-009  0.9118800E+02  0.7818608E-02  0.1130116E+00
         25   -1    0    0    0    0  0.00000000000E+00  0.00000000000E+00  0.99999998245E-14  0.12500000000E+03  0.12500000000E+03 0.  0.
        -13    1    3    3    0    0  0.32905239372E+02 -0.62697423755E+01  0.21490454660E+02  0.39798432797E+02  0.10566000000E+00 0. -1.
         23    2    1    0    0    0  0.49233902607E+01  0.21688312483E+02 -0.18518063793E+02  0.96059693217E+02  0.91596524521E+02 0.  0.
         13    1    3    3    0    0 -0.27981849112E+02  0.27958054858E+02 -0.40008518453E+02  0.56261260420E+02  0.10566000000E+00 0.  1.
         22    1    1    0    0    0 -0.49233902607E+01 -0.21688312483E+02  0.18518063793E+02  0.28940306783E+02  0.00000000000E+00 0.  1.
</event>
<event>
 5    1  0.2491889E-009  0.9118800E+02  0.7818608E-02  0.1130116E+00
         25   -1    0    0    0    0  0.00000000000E+00  0.00000000000E+00  0.99999998245E-14  0.12500000000E+03  0.12500000000E+03 0.  0.
        -13    1    3    3    0    0 -0.42558406218E+02  0.13055611747E+02  0.47130389023E+01  0.44764839301E+02  0.10566000000E+00 0.  1.
         23    2    1    0    0    0 -0.92123431815E+01 -0.12629728659E+02 -0.24455308711E+02  0.95975192730E+02  0.91481135665E+02 0.  0.
         13    1    3    3    0    0  0.33346063037E+02 -0.25685340406E+02 -0.29168347613E+02  0.51210353429E+02  0.10566000000E+00 0. -1.
         22    1    1    0    0    0  0.92123431815E+01  0.12629728659E+02  0.24455308711E+02  0.29024807270E+02  0.00000000000E+00 0. -1.
</event>
<event>
 5    1  0.2491889E-009  0.9118800E+02  0.7818608E-02  0.1130116E+00
         25   -1    0    0    0    0  0.00000000000E+00  0.00000000000E+00  0.99999998245E-14  0.12500000000E+03  0.12500000000E+03 0.  0.
        -13    1    3    3    0    0  0.10893377515E+02  0.14633527374E+01  0.40498588164E+02  0.41963721024E+02  0.10566000000E+00 0.  1.
         23    2    1    0    0    0  0.23828796872E+02 -0.15358638213E+02 -0.85360212409E+01  0.95393193574E+02  0.90682403990E+02 0.  0.
         13    1    3    3    0    0  0.12935419357E+02 -0.16821990950E+02 -0.49034609404E+02  0.53429472550E+02  0.10566000000E+00 0. -1.
         22    1    1    0    0    0 -0.23828796872E+02  0.15358638213E+02  0.85360212409E+01  0.29606806426E+02  0.00000000000E+00 0. -1.
</event>
<event>
 5    1  0.2491889E-009  0.9118800E+02  0.7818608E-02  0.1130116E+00
         25   -1    0    0    0    0  0.00000000000E+00  0.00000000000E+00  0.99999998245E-14  0.12500000000E+03  0.12500000000E+03 0.  0.
        -13    1    3    3    0    0 -0.95809012334E+01 -0.42634035358E+01  0.31852314563E+02  0.33534331441E+02  0.10566000000E+00 0.  1.
         23    2    1    0    0    0  0.13693602857E+02 -0.79319770988E+00 -0.25786812759E+02  0.95792062139E+02  0.91230562504E+02 0.  0.
         13    1    3    3    0    0  0.23274504091E+02  0.34702058259E+01 -0.57639127322E+02  0.62257730698E+02  0.10566000000E+00 0. -1.
         22    1    1    0    0    0 -0.13693602857E+02  0.79319770988E+00  0.25786812759E+02  0.29207937861E+02  0.00000000000E+00 0. -1.
</event>
<event>
 5    1  0.2491889E-009  0.9118800E+02  0.7818608E-02  0.1130116E+00
         25   -1    0    0    0    0  0.00000000000E+00  0.00000000000E+00  0.99999998245E-14  0.12500000000E+03  0.12500000000E+03 0.  0.
        -13    1    3    3    0    0  0.35904586254E+02 -0.14594247714E+01  0.18616980488E+02  0.40470635790E+02  0.10566000000E+00 0. -1.
         23    2    1    0    0    0 -0.17205182646E+02 -0.16757582728E+02  0.16651576568E+02  0.95774841472E+02  0.91206964471E+02 0.  0.
         13    1    3    3    0    0 -0.53109768900E+02 -0.15298157957E+02 -0.19654039200E+01  0.55304205682E+02  0.10566000000E+00 0.  1.
         22    1    1    0    0    0  0.17205182646E+02  0.16757582728E+02 -0.16651576568E+02  0.29225158528E+02  0.00000000000E+00 0.  1.
</event>
<event>
 5    1  0.2491889E-009  0.9118800E+02  0.7818608E-02  0.1130116E+00
         25   -1    0    0    0    0  0.00000000000E+00  0.00000000000E+00  0.99999998245E-14  0.12500000000E+03  0.12500000000E+03 0.  0.
        -13    1    3    3    0    0 -0.10283760959E+02 -0.40112009078E+01  0.35185344498E+02  0.36876348839E+02  0.10566000000E+00 0.  1.
         23    2    1    0    0    0  0.23795818310E+02 -0.80969955981E+01 -0.13518379827E+02  0.96459696920E+02  0.92140784835E+02 0.  0.
         13    1    3    3    0    0  0.34079579269E+02 -0.40857946902E+01 -0.48703724325E+02  0.59583348081E+02  0.10566000000E+00 0. -1.
         22    1    1    0    0    0 -0.23795818310E+02  0.80969955981E+01  0.13518379827E+02  0.28540303080E+02  0.00000000000E+00 0. -1.
</event>
<event>
 5    1  0.2491889E-009  0.9118800E+02  0.7818608E-02  0.1130116E+00
         25   -1    0    0    0    0  0.00000000000E+00  0.00000000000E+00  0.99999998245E-14  0.12500000000E+03  0.12500000000E+03 0.  0.
        -13    1    3    3    0    0 -0.40135490384E+02 -0.36445273511E+02 -0.10290465638E+02  0.55181703460E+02  0.10566000000E+00 0. -1.
         23    2    1    0    0    0 -0.65936891912E+01 -0.17591591545E+02 -0.22628742597E+02  0.95589103690E+02  0.90952052876E+02 0.  0.
         13    1    3    3    0    0  0.33541801193E+02  0.18853681966E+02 -0.12338276959E+02  0.40407400229E+02  0.10566000000E+00 0.  1.
         22    1    1    0    0    0  0.65936891912E+01  0.17591591545E+02  0.22628742597E+02  0.29410896310E+02  0.00000000000E+00 0. -1.
</event>
<event>
 5    1  0.2491889E-009  0.9118800E+02  0.7818608E-02  0.1130116E+00
         25   -1    0    0    0    0  0.00000000000E+00  0.00000000000E+00  0.99999998245E-14  0.12500000000E+03  0.12500000000E+03 0.  0.
        -13    1    3    3    0    0 -0.20407331459E+02  0.12764770998E+02  0.29485279725E+02  0.38062993056E+02  0.10566000000E+00 0.  1.
         23    2    1    0    0    0  0.11633259006E+02 -0.26460928117E+02  0.12101951741E+01  0.96069427861E+02  0.91609808237E+02 0.  0.
         13    1    3    3    0    0  0.32040590464E+02 -0.39225699116E+02 -0.28275084551E+02  0.58006434805E+02  0.10566000000E+00 0. -1.
         22    1    1    0    0    0 -0.11633259006E+02  0.26460928117E+02 -0.12101951741E+01  0.28930572139E+02  0.00000000000E+00 0. -1.
</event>
<event>
 5    1  0.2491889E-009  0.9118800E+02  0.7818608E-02  0.1130116E+00
         25   -1    0    0    0    0  0.00000000000E+00  0.00000000000E+00  0.99999998245E-14  0.12500000000E+03  0.12500000000E+03 0.  0.
        -13    1    3    3    0    0  0.52448334946E+02 -0.35512514041E+01 -0.17800378947E+01  0.52598658957E+02  0.10566000000E+00 0.  1.
         23    2    1    0    0    0  0.17238047429E+02 -0.25497931996E+02  0.12249019984E+01  0.94197480621E+02  0.89018931442E+02 0.  0.
         13    1    3    3    0    0 -0.35210287517E+02 -0.21946680592E+02  0.30049398930E+01  0.41598821664E+02  0.10566000000E+00 0. -1.
         22    1    1    0    0    0 -0.17238047429E+02  0.25497931996E+02 -0.12249019984E+01  0.30802519379E+02  0.00000000000E+00 0.  1.
</event>
<event>
 5    1  0.2491889E-009  0.9118800E+02  0.7818608E-02  0.1130116E+00
         25   -1    0    0    0    0  0.00000000000E+00  0.00000000000E+00  0.99999998245E-14  0.12500000000E+03  0.12500000000E+03 0.  0.
        -13    1    3    3    0    0  0.38874072527E+02  0.62497550634E+01 -0.33713183740E+02  0.51834765120E+02  0.10566000000E+00 0.  1.
         23    2    1    0    0    0  0.15234334074E+02  0.23208843733E+02  0.11143095084E+01  0.97215525059E+02  0.93160513442E+02 0.  0.
         13    1    3    3    0    0 -0.23639738453E+02  0.16959088669E+02  0.34827493248E+02  0.45380759939E+02  0.10566000000E+00 0. -1.
         22    1    1    0    0    0 -0.15234334074E+02 -0.23208843733E+02 -0.11143095084E+01  0.27784474941E+02  0.00000000000E+00 0.  1.
</event>
<event>
 5    1  0.2491889E-009  0.9118800E+02  0.7818608E-02  0.1130116E+00
         25   -1    0    0    0    0  0.00000000000E+00  0.00000000000E+00  0.99999998245E-14  0.12500000000E+03  0.12500000000E+03 0.  0.
        -13    1    3    3    0    0  0.22397091996E+02  0.25030806092E+02  0.37079338778E+02  0.50030585763E+02  0.10566000000E+00 0.  1.
         23    2    1    0    0    0  0.10476258036E+02  0.25916873491E+02 -0.73956030384E+01  0.96084065668E+02  0.91629779095E+02 0.  0.
         13    1    3    3    0    0 -0.11920833960E+02  0.88606739951E+00 -0.44474941817E+02  0.46053479905E+02  0.10566000000E+00 0. -1.
         22    1    1    0    0    0 -0.10476258036E+02 -0.25916873491E+02  0.73956030384E+01  0.28915934332E+02  0.00000000000E+00 0.  1.
</event>
<event>
 5    1  0.2491889E-009  0.9118800E+02  0.7818608E-02  0.1130116E+00
         25   -1    0    0    0    0  0.00000000000E+00  0.00000000000E+00  0.99999998245E-14  0.12500000000E+03  0.12500000000E+03 0.  0.
        -13    1    3    3    0    0  0.53590262458E+02  0.13454353140E+02 -0.25912866820E+02  0.61028056495E+02  0.10566000000E+00 0.  1.
         23    2    1    0    0    0  0.29904704459E+02  0.11403998634E+01 -0.56448971665E+01  0.94545825826E+02  0.89506739726E+02 0.  0.
         13    1    3    3    0    0 -0.23685557999E+02 -0.12313953277E+02  0.20267969653E+02  0.33517769331E+02  0.10566000000E+00 0. -1.
         22    1    1    0    0    0 -0.29904704459E+02 -0.11403998634E+01  0.56448971665E+01  0.30454174174E+02  0.00000000000E+00 0.  1.
</event>
<event>
 5    1  0.2491889E-009  0.9118800E+02  0.7818608E-02  0.1130116E+00
         25   -1    0    0    0    0  0.00000000000E+00  0.00000000000E+00  0.99999998245E-14  0.12500000000E+03  0.12500000000E+03 0.  0.
        -13    1    3    3    0    0 -0.53186823799E+02 -0.20255525269E+02  0.87857178452E+01  0.57587537991E+02  0.10566000000E+00 0. -1.
         23    2    1    0    0    0 -0.15530881150E+02 -0.23569445782E+02  0.89472826239E+01  0.95389513511E+02  0.90677331112E+02 0.  0.
         13    1    3    3    0    0  0.37655942649E+02 -0.33139205134E+01  0.16156477870E+00  0.37801975520E+02  0.10566000000E+00 0.  1.
         22    1    1    0    0    0  0.15530881150E+02  0.23569445782E+02 -0.89472826239E+01  0.29610486489E+02  0.00000000000E+00 0. -1.
</event>
<event>
 5    1  0.2491889E-009  0.9118800E+02  0.7818608E-02  0.1130116E+00
         25   -1    0    0    0    0  0.00000000000E+00  0.00000000000E+00  0.99999998245E-14  0.12500000000E+03  0.12500000000E+03 0.  0.
        -13    1    3    3    0    0  0.49337591070E+01 -0.23960853843E+02  0.48621239742E+02  0.54428858282E+02  0.10566000000E+00 0. -1.
         23    2    1    0    0    0 -0.11805292602E+02  0.66230814658E+01  0.25088407934E+02  0.96492836792E+02  0.92185732073E+02 0.  0.
         13    1    3    3    0    0 -0.16739051709E+02  0.30583935309E+02 -0.23532831808E+02  0.42063978510E+02  0.10566000000E+00 0.  1.
         22    1    1    0    0    0  0.11805292602E+02 -0.66230814658E+01 -0.25088407934E+02  0.28507163208E+02  0.00000000000E+00 0. -1.
</event>
<event>
 5    1  0.2491889E-009  0.9118800E+02  0.7818608E-02  0.1130116E+00
         25   -1    0    0    0    0  0.00000000000E+00  0.00000000000E+00  0.99999998245E-14  0.12500000000E+03  0.12500000000E+03 0.  0.
        -13    1    3    3    0    0 -0.43114205856E+01 -0.40464733369E+02  0.16313567002E+02  0.43842064578E+02  0.10566000000E+00 0.  1.
         23    2    1    0    0    0 -0.41877483573E+01 -0.11016105616E+02 -0.26610203249E+02  0.95896826011E+02  0.91373992486E+02 0.  0.
         13    1    3    3    0    0  0.12367222835E+00  0.29448627753E+02 -0.42923770251E+02  0.52054761434E+02  0.10566000000E+00 0. -1.
         22    1    1    0    0    0  0.41877483573E+01  0.11016105616E+02  0.26610203249E+02  0.29103173989E+02  0.00000000000E+00 0.  1.
</event>
<event>
 5    1  0.2491889E-009  0.9118800E+02  0.7818608E-02  0.1130116E+00
         25   -1    0    0    0    0  0.00000000000E+00  0.00000000000E+00  0.99999998245E-14  0.12500000000E+03  0.12500000000E+03 0.  0.
        -13    1    3    3    0    0  0.38369467364E+02 -0.22535085612E+02  0.10493262728E+01  0.44510205111E+02  0.10566000000E+00 0.  1.
         23    2    1    0    0    0  0.95958005203E+01  0.10763036340E+02 -0.25354945071E+02  0.95831599659E+02  0.91284718956E+02 0.  0.
         13    1    3    3    0    0 -0.28773666844E+02  0.33298121952E+02 -0.26404271344E+02  0.51321394548E+02  0.10566000000E+00 0. -1.
         22    1    1    0    0    0 -0.95958005203E+01 -0.10763036340E+02  0.25354945071E+02  0.29168400341E+02  0.00000000000E+00 0. -1.
</event>
<event>
 5    1  0.2491889E-009  0.9118800E+02  0.7818608E-02  0.1130116E+00
         25   -1    0    0    0    0  0.00000000000E+00  0.00000000000E+00  0.99999998245E-14  0.12500000000E+03  0.12500000000E+03 0.  0.
        -13    1    3    3    0    0 -0.47599879782E+02  0.21796305839E+02  0.22004264207E+02  0.56789315111E+02  0.10566000000E+00 0. -1.
         23    2    1    0    0    0 -0.25952277817E+02 -0.85173227426E+01  0.93363888553E+01  0.96134212856E+02  0.91698163635E+02 0.  0.
         13    1    3    3    0    0  0.21647601965E+02 -0.30313628582E+02 -0.12667875351E+02  0.39344897745E+02  0.10566000000E+00 0.  1.
         22    1    1    0    0    0  0.25952277817E+02  0.85173227426E+01 -0.93363888553E+01  0.28865787144E+02  0.00000000000E+00 0. -1.
</event>
<event>
 5    1  0.2491889E-009  0.9118800E+02  0.7818608E-02  0.1130116E+00
         25   -1    0    0    0    0  0.00000000000E+00  0.00000000000E+00  0.99999998245E-14  0.12500000000E+03  0.12500000000E+03 0.  0.
        -13    1    3    3    0    0 -0.11397221522E+02  0.37715686722E+02  0.26366489063E+02  0.47408570880E+02  0.10566000000E+00 0.  1.
         23    2    1    0    0    0 -0.13917189905E+02 -0.12019449315E+02  0.20354134667E+02  0.97569248374E+02  0.93633925976E+02 0.  0.
         13    1    3    3    0    0 -0.25199683834E+01 -0.49735136037E+02 -0.60123543961E+01  0.50160677494E+02  0.10566000000E+00 0. -1.
         22    1    1    0    0    0  0.13917189905E+02  0.12019449315E+02 -0.20354134667E+02  0.27430751626E+02  0.00000000000E+00 0. -1.
</event>
<event>
 5    1  0.2491889E-009  0.9118800E+02  0.7818608E-02  0.1130116E+00
         25   -1    0    0    0    0  0.00000000000E+00  0.00000000000E+00  0.99999998245E-14  0.12500000000E+03  0.12500000000E+03 0.  0.
        -13    1    3    3    0    0 -0.50565708857E+02  0.21689469286E+01 -0.27021245115E+02  0.57373810180E+02  0.10566000000E+00 0.  1.
         23    2    1    0    0    0 -0.21099979774E+02 -0.16525501251E+02 -0.15027771017E+02  0.94273216247E+02  0.89125215634E+02 0.  0.
         13    1    3    3    0    0  0.29465729083E+02 -0.18694448180E+02  0.11993474098E+02  0.36899406067E+02  0.10566000000E+00 0. -1.
         22    1    1    0    0    0  0.21099979774E+02  0.16525501251E+02  0.15027771017E+02  0.30726783753E+02  0.00000000000E+00 0.  1.
</event>
<event>
 5    1  0.2491889E-009  0.9118800E+02  0.7818608E-02  0.1130116E+00
         25   -1    0    0    0    0  0.00000000000E+00  0.00000000000E+00  0.99999998245E-14  0.12500000000E+03  0.12500000000E+03 0.  0.
        -13    1    3    3    0    0 -0.35613647465E+01  0.33676093403E+02 -0.12940109912E+02  0.36252175029E+02  0.10566000000E+00 0. -1.
         23    2    1    0    0    0 -0.10702038891E+02 -0.10235203267E+02  0.25805570164E+02  0.95247345096E+02  0.90481137669E+02 0.  0.
         13    1    3    3    0    0 -0.71406741442E+01 -0.43911296671E+02  0.38745680077E+02  0.58995170067E+02  0.10566000000E+00 0.  1.
         22    1    1    0    0    0  0.10702038891E+02  0.10235203267E+02 -0.25805570164E+02  0.29752654904E+02  0.00000000000E+00 0.  1.
</event>
<event>
 5    1  0.2491889E-009  0.9118800E+02  0.7818608E-02  0.1130116E+00
         25   -1    0    0    0    0  0.00000000000E+00  0.00000000000E+00  0.99999998245E-14  0.12500000000E+03  0.12500000000E+03 0.  0.
        -13    1    3    3    0    0 -0.58528312503E+02 -0.95006008574E+01 -0.19684563546E+01  0.59327150324E+02  0.10566000000E+00 0.  1.
         23    2    1    0    0    0 -0.26053755303E+02  0.97102742492E+01 -0.26915697018E+01  0.97065574306E+02  0.92959096254E+02 0.  0.
         13    1    3    3    0    0  0.32474557200E+02  0.19210875107E+02 -0.72311334715E+00  0.37738423982E+02  0.10566000000E+00 0. -1.
         22    1    1    0    0    0  0.26053755303E+02 -0.97102742492E+01  0.26915697018E+01  0.27934425694E+02  0.00000000000E+00 0.  1.
</event>
<event>
 5    1  0.2491889E-009  0.9118800E+02  0.7818608E-02  0.1130116E+00
         25   -1    0    0    0    0  0.00000000000E+00  0.00000000000E+00  0.99999998245E-14  0.12500000000E+03  0.12500000000E+03 0.  0.
        -13    1    3    3    0    0  0.16217824036E+02 -0.43223141216E+02 -0.31877581979E+02  0.56102131421E+02  0.10566000000E+00 0. -1.
         23    2    1    0    0    0  0.17921428329E+02 -0.21793733425E+02  0.25273668357E+01  0.96671004376E+02  0.92427004138E+02 0.  0.
         13    1    3    3    0    0  0.17036042930E+01  0.21429407791E+02  0.34404948815E+02  0.40568872955E+02  0.10566000000E+00 0.  1.
         22    1    1    0    0    0 -0.17921428329E+02  0.21793733425E+02 -0.25273668357E+01  0.28328995624E+02  0.00000000000E+00 0. -1.
</event>
<event>
 5    1  0.2491889E-009  0.9118800E+02  0.7818608E-02  0.1130116E+00
         25   -1    0    0    0    0  0.00000000000E+00  0.00000000000E+00  0.99999998245E-14  0.12500000000E+03  0.12500000000E+03 0.  0.
        -13    1    3    3    0    0  0.15898483189E+02  0.10835524234E+02  0.54575711349E+02  0.57867864886E+02  0.10566000000E+00 0.  1.
         23    2    1    0    0    0  0.22230631205E+02 -0.22522958530E+01  0.21529963938E+02  0.93970769466E+02  0.88700013339E+02 0.  0.
         13    1    3    3    0    0  0.63321480165E+01 -0.13087820087E+02 -0.33045747411E+02  0.36102904580E+02  0.10566000000E+00 0. -1.
         22    1    1    0    0    0 -0.22230631205E+02  0.22522958530E+01 -0.21529963938E+02  0.31029230534E+02  0.00000000000E+00 0.  1.
</event>
<event>
 5    1  0.2491889E-009  0.9118800E+02  0.7818608E-02  0.1130116E+00
         25   -1    0    0    0    0  0.00000000000E+00  0.00000000000E+00  0.99999998245E-14  0.12500000000E+03  0.12500000000E+03 0.  0.
        -13    1    3    3    0    0  0.11343232987E+02  0.38321832908E+02  0.37460379699E+02  0.54777030070E+02  0.10566000000E+00 0.  1.
         23    2    1    0    0    0  0.16800374160E+02  0.22654547482E+02 -0.11200263106E+01  0.96773495567E+02  0.92565511352E+02 0.  0.
         13    1    3    3    0    0  0.54571411733E+01 -0.15667285426E+02 -0.38580406010E+02  0.41996465498E+02  0.10566000000E+00 0. -1.
         22    1    1    0    0    0 -0.16800374160E+02 -0.22654547482E+02  0.11200263106E+01  0.28226504433E+02  0.00000000000E+00 0.  1.
</event>
<event>
 5    1  0.2491889E-009  0.9118800E+02  0.7818608E-02  0.1130116E+00
         25   -1    0    0    0    0  0.00000000000E+00  0.00000000000E+00  0.99999998245E-14  0.12500000000E+03  0.12500000000E+03 0.  0.
        -13    1    3    3    0    0 -0.16205006164E+02  0.54506228871E+02 -0.89732441610E+01  0.57567885885E+02  0.10566000000E+00 0. -1.
         23    2    1    0    0    0  0.13786552248E+01  0.30889683855E+02  0.98906344183E+01  0.92536206197E+02  0.86654783764E+02 0.  0.
         13    1    3    3    0    0  0.17583661389E+02 -0.23616545016E+02  0.18863878579E+02  0.34968320311E+02  0.10566000000E+00 0.  1.
         22    1    1    0    0    0 -0.13786552248E+01 -0.30889683855E+02 -0.98906344183E+01  0.32463793803E+02  0.00000000000E+00 0. -1.
</event>
<event>
 5    1  0.2491889E-009  0.9118800E+02  0.7818608E-02  0.1130116E+00
         25   -1    0    0    0    0  0.00000000000E+00  0.00000000000E+00  0.99999998245E-14  0.12500000000E+03  0.12500000000E+03 0.  0.
        -13    1    3    3    0    0 -0.19072475152E+02  0.57970329901E+02 -0.60735172965E+00  0.61030308023E+02  0.10566000000E+00 0.  1.
         23    2    1    0    0    0 -0.65268805551E+01  0.28371172280E+02  0.89047396935E+01  0.94556314688E+02  0.89521386674E+02 0.  0.
         13    1    3    3    0    0  0.12545594597E+02 -0.29599157621E+02  0.95120914231E+01  0.33526006665E+02  0.10566000000E+00 0. -1.
         22    1    1    0    0    0  0.65268805551E+01 -0.28371172280E+02 -0.89047396935E+01  0.30443685312E+02  0.00000000000E+00 0.  1.
</event>
<event>
 5    1  0.2491889E-009  0.9118800E+02  0.7818608E-02  0.1130116E+00
         25   -1    0    0    0    0  0.00000000000E+00  0.00000000000E+00  0.99999998245E-14  0.12500000000E+03  0.12500000000E+03 0.  0.
        -13    1    3    3    0    0 -0.11375997464E+02 -0.13026821664E+02 -0.27353970627E+02  0.32362976904E+02  0.10566000000E+00 0.  1.
         23    2    1    0    0    0  0.19025374943E+02  0.22992670283E+02  0.11064868661E+02  0.93171410698E+02  0.87566275898E+02 0.  0.
         13    1    3    3    0    0  0.30401372406E+02  0.36019491947E+02  0.38418839288E+02  0.60808433795E+02  0.10566000000E+00 0. -1.
         22    1    1    0    0    0 -0.19025374943E+02 -0.22992670283E+02 -0.11064868661E+02  0.31828589302E+02  0.00000000000E+00 0. -1.
</event>
<event>
 5    1  0.2491889E-009  0.9118800E+02  0.7818608E-02  0.1130116E+00
         25   -1    0    0    0    0  0.00000000000E+00  0.00000000000E+00  0.99999998245E-14  0.12500000000E+03  0.12500000000E+03 0.  0.
        -13    1    3    3    0    0 -0.40295427536E+02  0.19685784831E+02 -0.41812377884E+02  0.61315069217E+02  0.10566000000E+00 0.  1.
         23    2    1    0    0    0 -0.16518638073E+02  0.17227441290E+02 -0.17548561094E+02  0.95375649650E+02  0.90658217568E+02 0.  0.
         13    1    3    3    0    0  0.23776789463E+02 -0.24583435406E+01  0.24263816790E+02  0.34060580433E+02  0.10566000000E+00 0. -1.
         22    1    1    0    0    0  0.16518638073E+02 -0.17227441290E+02  0.17548561094E+02  0.29624350350E+02  0.00000000000E+00 0.  1.
</event>
<event>
 5    1  0.2491889E-009  0.9118800E+02  0.7818608E-02  0.1130116E+00
         25   -1    0    0    0    0  0.00000000000E+00  0.00000000000E+00  0.99999998245E-14  0.12500000000E+03  0.12500000000E+03 0.  0.
        -13    1    3    3    0    0  0.16171859239E+02  0.12607634863E+02  0.56040016345E+02  0.59673914603E+02  0.10566000000E+00 0.  1.
         23    2    1    0    0    0 -0.30348142377E+01  0.13779609164E+02  0.27440557325E+02  0.94144337432E+02  0.88944276702E+02 0.  0.
         13    1    3    3    0    0 -0.19206673476E+02  0.11719743005E+01 -0.28599459019E+02  0.34470422829E+02  0.10566000000E+00 0. -1.
         22    1    1    0    0    0  0.30348142377E+01 -0.13779609164E+02 -0.27440557325E+02  0.30855662568E+02  0.00000000000E+00 0.  1.
</event>
<event>
 5    1  0.2491889E-009  0.9118800E+02  0.7818608E-02  0.1130116E+00
         25   -1    0    0    0    0  0.00000000000E+00  0.00000000000E+00  0.99999998245E-14  0.12500000000E+03  0.12500000000E+03 0.  0.
        -13    1    3    3    0    0 -0.30837077034E+02 -0.43775391307E+01 -0.93403701027E+01  0.32516793300E+02  0.10566000000E+00 0.  1.
         23    2    1    0    0    0  0.26455176671E+02 -0.10834716097E+02 -0.18576077219E+02  0.90906920197E+02  0.84271763060E+02 0.  0.
         13    1    3    3    0    0  0.57292253705E+02 -0.64571769664E+01 -0.92357071164E+01  0.58390126897E+02  0.10566000000E+00 0. -1.
         22    1    1    0    0    0 -0.26455176671E+02  0.10834716097E+02  0.18576077219E+02  0.34093079803E+02  0.00000000000E+00 0. -1.
</event>
<event>
 5    1  0.2491889E-009  0.9118800E+02  0.7818608E-02  0.1130116E+00
         25   -1    0    0    0    0  0.00000000000E+00  0.00000000000E+00  0.99999998245E-14  0.12500000000E+03  0.12500000000E+03 0.  0.
        -13    1    3    3    0    0 -0.11724421820E+02  0.26469611399E+02 -0.65171399942E+01  0.29674680661E+02  0.10566000000E+00 0. -1.
         23    2    1    0    0    0  0.15882331166E+02 -0.21736329880E+02  0.20225782265E+02  0.91328071809E+02  0.84894157350E+02 0.  0.
         13    1    3    3    0    0  0.27606752986E+02 -0.48205941279E+02  0.26742922259E+02  0.61653391147E+02  0.10566000000E+00 0.  1.
         22    1    1    0    0    0 -0.15882331166E+02  0.21736329880E+02 -0.20225782265E+02  0.33671928191E+02  0.00000000000E+00 0.  1.
</event>
<event>
 5    1  0.2491889E-009  0.9118800E+02  0.7818608E-02  0.1130116E+00
         25   -1    0    0    0    0  0.00000000000E+00  0.00000000000E+00  0.99999998245E-14  0.12500000000E+03  0.12500000000E+03 0.  0.
        -13    1    3    3    0    0 -0.10607319912E+02 -0.31965430012E+02  0.42659805039E+01  0.33948692247E+02  0.10566000000E+00 0.  1.
         23    2    1    0    0    0  0.16382638675E+02  0.19482282523E+02 -0.15357790903E+02  0.95271025519E+02  0.90513846343E+02 0.  0.
         13    1    3    3    0    0  0.26989958587E+02  0.51447712535E+02 -0.19623771407E+02  0.61322333272E+02  0.10566000000E+00 0. -1.
         22    1    1    0    0    0 -0.16382638675E+02 -0.19482282523E+02  0.15357790903E+02  0.29728974481E+02  0.00000000000E+00 0. -1.
</event>
<event>
 5    1  0.2491889E-009  0.9118800E+02  0.7818608E-02  0.1130116E+00
         25   -1    0    0    0    0  0.00000000000E+00  0.00000000000E+00  0.99999998245E-14  0.12500000000E+03  0.12500000000E+03 0.  0.
        -13    1    3    3    0    0 -0.12286995878E+02  0.30169993923E+02 -0.10128873178E+02  0.34114572208E+02  0.10566000000E+00 0. -1.
         23    2    1    0    0    0 -0.37520739351E+01 -0.29142961887E+02  0.30121541057E+01  0.95462509268E+02  0.90777901039E+02 0.  0.
         13    1    3    3    0    0  0.85349219432E+01 -0.59312955810E+02  0.13141027284E+02  0.61347937061E+02  0.10566000000E+00 0.  1.
         22    1    1    0    0    0  0.37520739351E+01  0.29142961887E+02 -0.30121541057E+01  0.29537490732E+02  0.00000000000E+00 0.  1.
</event>
<event>
 5    1  0.2491889E-009  0.9118800E+02  0.7818608E-02  0.1130116E+00
         25   -1    0    0    0    0  0.00000000000E+00  0.00000000000E+00  0.99999998245E-14  0.12500000000E+03  0.12500000000E+03 0.  0.
        -13    1    3    3    0    0  0.52815387466E+00 -0.75320717573E+01  0.46273044571E+02  0.46885145508E+02  0.10566000000E+00 0.  1.
         23    2    1    0    0    0 -0.13487939924E+01 -0.29828073971E+02  0.37879269341E+01  0.94902132426E+02  0.90002961654E+02 0.  0.
         13    1    3    3    0    0 -0.18769478671E+01 -0.22296002214E+02 -0.42485117636E+02  0.48016986917E+02  0.10566000000E+00 0. -1.
         22    1    1    0    0    0  0.13487939924E+01  0.29828073971E+02 -0.37879269341E+01  0.30097867574E+02  0.00000000000E+00 0.  1.
</event>
<event>
 5    1  0.2491889E-009  0.9118800E+02  0.7818608E-02  0.1130116E+00
         25   -1    0    0    0    0  0.00000000000E+00  0.00000000000E+00  0.99999998245E-14  0.12500000000E+03  0.12500000000E+03 0.  0.
        -13    1    3    3    0    0  0.36071831173E+02 -0.38385665844E+02  0.96626031696E+01  0.53553836562E+02  0.10566000000E+00 0.  1.
         23    2    1    0    0    0  0.11275295976E+01 -0.30854884990E+02  0.16566014348E+02  0.89961049072E+02  0.82856878218E+02 0.  0.
         13    1    3    3    0    0 -0.34944301575E+02  0.75307808538E+01  0.69034111782E+01  0.36407212511E+02  0.10566000000E+00 0. -1.
         22    1    1    0    0    0 -0.11275295976E+01  0.30854884990E+02 -0.16566014348E+02  0.35038950928E+02  0.00000000000E+00 0. -1.
</event>
<event>
 5    1  0.2491889E-009  0.9118800E+02  0.7818608E-02  0.1130116E+00
         25   -1    0    0    0    0  0.00000000000E+00  0.00000000000E+00  0.99999998245E-14  0.12500000000E+03  0.12500000000E+03 0.  0.
        -13    1    3    3    0    0 -0.70782633829E+01 -0.68021368515E+01  0.61195480698E+02  0.61977971087E+02  0.10566000000E+00 0. -1.
         23    2    1    0    0    0 -0.88433532461E+01 -0.38359081303E+01  0.27314460451E+02  0.96034523350E+02  0.91562169249E+02 0.  0.
         13    1    3    3    0    0 -0.17650898633E+01  0.29662287212E+01 -0.33881020247E+02  0.34056552263E+02  0.10566000000E+00 0.  1.
         22    1    1    0    0    0  0.88433532461E+01  0.38359081303E+01 -0.27314460451E+02  0.28965476650E+02  0.00000000000E+00 0. -1.
</event>
<event>
 5    1  0.2491889E-009  0.9118800E+02  0.7818608E-02  0.1130116E+00
         25   -1    0    0    0    0  0.00000000000E+00  0.00000000000E+00  0.99999998245E-14  0.12500000000E+03  0.12500000000E+03 0.  0.
        -13    1    3    3    0    0  0.21386206621E+02 -0.10477853960E+02 -0.37543544424E+02  0.44459916208E+02  0.10566000000E+00 0. -1.
         23    2    1    0    0    0  0.82377833904E+01  0.27261774861E+02 -0.48132256185E+01  0.96116915251E+02  0.91674581061E+02 0.  0.
         13    1    3    3    0    0 -0.13148423231E+02  0.37739628821E+02  0.32730318805E+02  0.51656999043E+02  0.10566000000E+00 0.  1.
         22    1    1    0    0    0 -0.82377833904E+01 -0.27261774861E+02  0.48132256185E+01  0.28883084749E+02  0.00000000000E+00 0.  1.
</event>
<event>
 5    1  0.2491889E-009  0.9118800E+02  0.7818608E-02  0.1130116E+00
         25   -1    0    0    0    0  0.00000000000E+00  0.00000000000E+00  0.99999998245E-14  0.12500000000E+03  0.12500000000E+03 0.  0.
        -13    1    3    3    0    0  0.60444854912E+01 -0.27205490390E+02 -0.27910968602E+02  0.39442462455E+02  0.10566000000E+00 0.  1.
         23    2    1    0    0    0  0.29036522608E+01 -0.12500993096E+02  0.26319118141E+02  0.95718572362E+02  0.91129814498E+02 0.  0.
         13    1    3    3    0    0 -0.31408332303E+01  0.14704497294E+02  0.54230086743E+02  0.56276109907E+02  0.10566000000E+00 0. -1.
         22    1    1    0    0    0 -0.29036522608E+01  0.12500993096E+02 -0.26319118141E+02  0.29281427638E+02  0.00000000000E+00 0. -1.
</event>
<event>
 5    1  0.2491889E-009  0.9118800E+02  0.7818608E-02  0.1130116E+00
         25   -1    0    0    0    0  0.00000000000E+00  0.00000000000E+00  0.99999998245E-14  0.12500000000E+03  0.12500000000E+03 0.  0.
        -13    1    3    3    0    0  0.20686328206E+02 -0.98979146531E+01  0.30787684617E+02  0.38389915046E+02  0.10566000000E+00 0.  1.
         23    2    1    0    0    0 -0.27029729429E+02 -0.12891386641E+02  0.37890897638E+00  0.95051081914E+02  0.90209591943E+02 0.  0.
         13    1    3    3    0    0 -0.47716057635E+02 -0.29934719875E+01 -0.30408775641E+02  0.56661166868E+02  0.10566000000E+00 0. -1.
         22    1    1    0    0    0  0.27029729429E+02  0.12891386641E+02 -0.37890897638E+00  0.29948918086E+02  0.00000000000E+00 0. -1.
</event>
<event>
 5    1  0.2491889E-009  0.9118800E+02  0.7818608E-02  0.1130116E+00
         25   -1    0    0    0    0  0.00000000000E+00  0.00000000000E+00  0.99999998245E-14  0.12500000000E+03  0.12500000000E+03 0.  0.
        -13    1    3    3    0    0  0.57597037897E+02 -0.22211064447E+02 -0.66432745866E+01  0.62087796060E+02  0.10566000000E+00 0. -1.
         23    2    1    0    0    0  0.26172462541E+02 -0.15141703618E+02 -0.13241960211E+01  0.94734136738E+02  0.89769338777E+02 0.  0.
         13    1    3    3    0    0 -0.31424575356E+02  0.70693608285E+01  0.53190785655E+01  0.32646340678E+02  0.10566000000E+00 0.  1.
         22    1    1    0    0    0 -0.26172462541E+02  0.15141703618E+02  0.13241960211E+01  0.30265863262E+02  0.00000000000E+00 0. -1.
</event>
<event>
 5    1  0.2491889E-009  0.9118800E+02  0.7818608E-02  0.1130116E+00
         25   -1    0    0    0    0  0.00000000000E+00  0.00000000000E+00  0.99999998245E-14  0.12500000000E+03  0.12500000000E+03 0.  0.
        -13    1    3    3    0    0 -0.30614414214E+02  0.48772987418E+02  0.11130987171E+02  0.58651144053E+02  0.10566000000E+00 0.  1.
         23    2    1    0    0    0 -0.76598890133E+01  0.19279947368E+02  0.19027774694E+02  0.96849574070E+02  0.92668190430E+02 0.  0.
         13    1    3    3    0    0  0.22954525200E+02 -0.29493040050E+02  0.78967875231E+01  0.38198430017E+02  0.10566000000E+00 0. -1.
         22    1    1    0    0    0  0.76598890133E+01 -0.19279947368E+02 -0.19027774694E+02  0.28150425930E+02  0.00000000000E+00 0.  1.
</event>
<event>
 5    1  0.2491889E-009  0.9118800E+02  0.7818608E-02  0.1130116E+00
         25   -1    0    0    0    0  0.00000000000E+00  0.00000000000E+00  0.99999998245E-14  0.12500000000E+03  0.12500000000E+03 0.  0.
        -13    1    3    3    0    0 -0.22902950938E+02 -0.27704879842E+02  0.37246957594E+02  0.51763428623E+02  0.10566000000E+00 0.  1.
         23    2    1    0    0    0 -0.36262978452E+01 -0.28027649557E+02 -0.31879643736E+01  0.96559495563E+02  0.92276074314E+02 0.  0.
         13    1    3    3    0    0  0.19276653093E+02 -0.32276971521E+00 -0.40434921968E+02  0.44796066940E+02  0.10566000000E+00 0. -1.
         22    1    1    0    0    0  0.36262978452E+01  0.28027649557E+02  0.31879643736E+01  0.28440504437E+02  0.00000000000E+00 0.  1.
</event>
<event>
 5    1  0.2491889E-009  0.9118800E+02  0.7818608E-02  0.1130116E+00
         25   -1    0    0    0    0  0.00000000000E+00  0.00000000000E+00  0.99999998245E-14  0.12500000000E+03  0.12500000000E+03 0.  0.
        -13    1    3    3    0    0  0.15115479038E+02 -0.29001143051E+02  0.15659674722E+02  0.36259903217E+02  0.10566000000E+00 0.  1.
         23    2    1    0    0    0 -0.21397771471E+02  0.22178447127E+01 -0.19636903483E+02  0.95872840209E+02  0.91341173915E+02 0.  0.
         13    1    3    3    0    0 -0.36513250509E+02  0.31218987764E+02 -0.35296578206E+02  0.59612936992E+02  0.10566000000E+00 0. -1.
         22    1    1    0    0    0  0.21397771471E+02 -0.22178447127E+01  0.19636903483E+02  0.29127159791E+02  0.00000000000E+00 0. -1.
</event>
<event>
 5    1  0.2491889E-009  0.9118800E+02  0.7818608E-02  0.1130116E+00
         25   -1    0    0    0    0  0.00000000000E+00  0.00000000000E+00  0.99999998245E-14  0.12500000000E+03  0.12500000000E+03 0.  0.
        -13    1    3    3    0    0 -0.31955620567E+02  0.16761134981E+02  0.22384404879E+02  0.42463750159E+02  0.10566000000E+00 0. -1.
         23    2    1    0    0    0 -0.29624146060E+02 -0.11849899557E+02 -0.15119389496E+02  0.89692690728E+02  0.82451032025E+02 0.  0.
         13    1    3    3    0    0  0.23314745075E+01 -0.28611034539E+02 -0.37503794375E+02  0.47228940569E+02  0.10566000000E+00 0.  1.
         22    1    1    0    0    0  0.29624146060E+02  0.11849899557E+02  0.15119389496E+02  0.35307309272E+02  0.00000000000E+00 0. -1.
</event>
<event>
 5    1  0.2491889E-009  0.9118800E+02  0.7818608E-02  0.1130116E+00
         25   -1    0    0    0    0  0.00000000000E+00  0.00000000000E+00  0.99999998245E-14  0.12500000000E+03  0.12500000000E+03 0.  0.
        -13    1    3    3    0    0  0.55424978299E+02  0.24763997985E+02 -0.11468305829E+02  0.61779584154E+02  0.10566000000E+00 0.  1.
         23    2    1    0    0    0  0.22612010873E+02  0.15845531033E+02 -0.93481221471E+01  0.95849163355E+02  0.91308766494E+02 0.  0.
         13    1    3    3    0    0 -0.32812967426E+02 -0.89184669518E+01  0.21201836815E+01  0.34069579201E+02  0.10566000000E+00 0. -1.
         22    1    1    0    0    0 -0.22612010873E+02 -0.15845531033E+02  0.93481221471E+01  0.29150836645E+02  0.00000000000E+00 0.  1.
</event>
<event>
 5    1  0.2491889E-009  0.9118800E+02  0.7818608E-02  0.1130116E+00
         25   -1    0    0    0    0  0.00000000000E+00  0.00000000000E+00  0.99999998245E-14  0.12500000000E+03  0.12500000000E+03 0.  0.
        -13    1    3    3    0    0  0.82367062177E+01  0.37667691825E+02  0.14735490428E+01  0.38586018810E+02  0.10566000000E+00 0.  1.
         23    2    1    0    0    0  0.20073494106E+02 -0.17055674337E+02  0.12807271930E+02  0.95710626381E+02  0.91118914585E+02 0.  0.
         13    1    3    3    0    0  0.11836787888E+02 -0.54723366162E+02  0.11333722887E+02  0.57124607571E+02  0.10566000000E+00 0. -1.
         22    1    1    0    0    0 -0.20073494106E+02  0.17055674337E+02 -0.12807271930E+02  0.29289373619E+02  0.00000000000E+00 0. -1.
</event>
<event>
 5    1  0.2491889E-009  0.9118800E+02  0.7818608E-02  0.1130116E+00
         25   -1    0    0    0    0  0.00000000000E+00  0.00000000000E+00  0.99999998245E-14  0.12500000000E+03  0.12500000000E+03 0.  0.
        -13    1    3    3    0    0 -0.31898242411E+02  0.26622217865E+01  0.27841304557E+02  0.42423280133E+02  0.10566000000E+00 0. -1.
         23    2    1    0    0    0  0.73803597769E+01 -0.27227018869E+02  0.74824005646E+01  0.95814959566E+02  0.91261930132E+02 0.  0.
         13    1    3    3    0    0  0.39278602188E+02 -0.29889240656E+02 -0.20358903993E+02  0.53391679433E+02  0.10566000000E+00 0.  1.
         22    1    1    0    0    0 -0.73803597769E+01  0.27227018869E+02 -0.74824005646E+01  0.29185040434E+02  0.00000000000E+00 0.  1.
</event>
<event>
 5    1  0.2491889E-009  0.9118800E+02  0.7818608E-02  0.1130116E+00
         25   -1    0    0    0    0  0.00000000000E+00  0.00000000000E+00  0.99999998245E-14  0.12500000000E+03  0.12500000000E+03 0.  0.
        -13    1    3    3    0    0 -0.57588407521E+02  0.13246462044E+02  0.11365890576E+02  0.60175477315E+02  0.10566000000E+00 0.  1.
         23    2    1    0    0    0 -0.21162514966E+02  0.16551141418E+02  0.13397328489E+01  0.98100423683E+02  0.94340372698E+02 0.  0.
         13    1    3    3    0    0  0.36425892555E+02  0.33046793734E+01 -0.10026157727E+02  0.37924946368E+02  0.10566000000E+00 0. -1.
         22    1    1    0    0    0  0.21162514966E+02 -0.16551141418E+02 -0.13397328489E+01  0.26899576317E+02  0.00000000000E+00 0.  1.
</event>
<event>
 5    1  0.2491889E-009  0.9118800E+02  0.7818608E-02  0.1130116E+00
         25   -1    0    0    0    0  0.00000000000E+00  0.00000000000E+00  0.99999998245E-14  0.12500000000E+03  0.12500000000E+03 0.  0.
        -13    1    3    3    0    0 -0.78061198225E+01  0.34290827998E+02 -0.28446503529E+01  0.35283134655E+02  0.10566000000E+00 0.  1.
         23    2    1    0    0    0 -0.27070170192E+01 -0.22770021791E+02 -0.19452335578E+02  0.94930161409E+02  0.90041881101E+02 0.  0.
         13    1    3    3    0    0  0.50991028032E+01 -0.57060849788E+02 -0.16607685225E+02  0.59647026753E+02  0.10566000000E+00 0. -1.
         22    1    1    0    0    0  0.27070170192E+01  0.22770021791E+02  0.19452335578E+02  0.30069838591E+02  0.00000000000E+00 0. -1.
</event>
<event>
 5    1  0.2491889E-009  0.9118800E+02  0.7818608E-02  0.1130116E+00
         25   -1    0    0    0    0  0.00000000000E+00  0.00000000000E+00  0.99999998245E-14  0.12500000000E+03  0.12500000000E+03 0.  0.
        -13    1    3    3    0    0  0.30255399609E+02 -0.10785490050E+02  0.57877152578E+01  0.32637781987E+02  0.10566000000E+00 0. -1.
         23    2    1    0    0    0 -0.21556828206E+02  0.22052362733E+02  0.20549151749E+01  0.94093265770E+02  0.88872472917E+02 0.  0.
         13    1    3    3    0    0 -0.51812227814E+02  0.32837852783E+02 -0.37328000830E+01  0.61455483783E+02  0.10566000000E+00 0.  1.
         22    1    1    0    0    0  0.21556828206E+02 -0.22052362733E+02 -0.20549151749E+01  0.30906734230E+02  0.00000000000E+00 0.  1.
</event>
<event>
 5    1  0.2491889E-009  0.9118800E+02  0.7818608E-02  0.1130116E+00
         25   -1    0    0    0    0  0.00000000000E+00  0.00000000000E+00  0.99999998245E-14  0.12500000000E+03  0.12500000000E+03 0.  0.
        -13    1    3    3    0    0  0.72147314645E+01 -0.26802846711E+02  0.22080257649E+02  0.35468209481E+02  0.10566000000E+00 0. -1.
         23    2    1    0    0    0 -0.21711384496E+02  0.18087057564E+02 -0.64512767996E+01  0.96014747881E+02  0.91535167943E+02 0.  0.
         13    1    3    3    0    0 -0.28926115960E+02  0.44889904274E+02 -0.28531534448E+02  0.60546538401E+02  0.10566000000E+00 0.  1.
         22    1    1    0    0    0  0.21711384496E+02 -0.18087057564E+02  0.64512767996E+01  0.28985252119E+02  0.00000000000E+00 0.  1.
</event>
<event>
 5    1  0.2491889E-009  0.9118800E+02  0.7818608E-02  0.1130116E+00
         25   -1    0    0    0    0  0.00000000000E+00  0.00000000000E+00  0.99999998245E-14  0.12500000000E+03  0.12500000000E+03 0.  0.
        -13    1    3    3    0    0 -0.47237043353E+02  0.23658051934E+02 -0.31477967513E+02  0.61497278710E+02  0.10566000000E+00 0. -1.
         23    2    1    0    0    0 -0.23926345484E+02  0.36831877463E+01 -0.16865464567E+02  0.95496105761E+02  0.90824151195E+02 0.  0.
         13    1    3    3    0    0  0.23310697868E+02 -0.19974864188E+02  0.14612502946E+02  0.33998827050E+02  0.10566000000E+00 0.  1.
         22    1    1    0    0    0  0.23926345484E+02 -0.36831877463E+01  0.16865464567E+02  0.29503894239E+02  0.00000000000E+00 0. -1.
</event>
<event>
 5    1  0.2491889E-009  0.9118800E+02  0.7818608E-02  0.1130116E+00
         25   -1    0    0    0    0  0.00000000000E+00  0.00000000000E+00  0.99999998245E-14  0.12500000000E+03  0.12500000000E+03 0.  0.
        -13    1    3    3    0    0 -0.29056872002E+02  0.83225289545E+01 -0.22642473784E+02  0.37765845441E+02  0.10566000000E+00 0.  1.
         23    2    1    0    0    0 -0.58564363139E+01 -0.45741182378E+01  0.28586545555E+02  0.95463395748E+02  0.90779121702E+02 0.  0.
         13    1    3    3    0    0  0.23200435689E+02 -0.12896647192E+02  0.51229019339E+02  0.57697550307E+02  0.10566000000E+00 0. -1.
         22    1    1    0    0    0  0.58564363139E+01  0.45741182378E+01 -0.28586545555E+02  0.29536604252E+02  0.00000000000E+00 0. -1.
</event>
<event>
 5    1  0.2491889E-009  0.9118800E+02  0.7818608E-02  0.1130116E+00
         25   -1    0    0    0    0  0.00000000000E+00  0.00000000000E+00  0.99999998245E-14  0.12500000000E+03  0.12500000000E+03 0.  0.
        -13    1    3    3    0    0 -0.47800699972E+02 -0.12012793305E+02  0.14403929382E+02  0.51348792259E+02  0.10566000000E+00 0.  1.
         23    2    1    0    0    0 -0.19746031771E+02  0.20003550075E+02 -0.16485945626E+01  0.96843905627E+02  0.92660543959E+02 0.  0.
         13    1    3    3    0    0  0.28054668201E+02  0.32016343380E+02 -0.16052523945E+02  0.45495113368E+02  0.10566000000E+00 0. -1.
         22    1    1    0    0    0  0.19746031771E+02 -0.20003550075E+02  0.16485945626E+01  0.28156094373E+02  0.00000000000E+00 0.  1.
</event>
<event>
 5    1  0.2491889E-009  0.9118800E+02  0.7818608E-02  0.1130116E+00
         25   -1    0    0    0    0  0.00000000000E+00  0.00000000000E+00  0.99999998245E-14  0.12500000000E+03  0.12500000000E+03 0.  0.
        -13    1    3    3    0    0 -0.39856414865E+02 -0.57785911852E+01 -0.30472732890E+02  0.50502718103E+02  0.10566000000E+00 0.  1.
         23    2    1    0    0    0  0.21314634247E+01 -0.18767728555E+02 -0.23251641132E+02  0.95043204665E+02  0.90198676078E+02 0.  0.
         13    1    3    3    0    0  0.41987878290E+02 -0.12989137370E+02  0.72210917586E+01  0.44540486561E+02  0.10566000000E+00 0. -1.
         22    1    1    0    0    0 -0.21314634247E+01  0.18767728555E+02  0.23251641132E+02  0.29956795335E+02  0.00000000000E+00 0.  1.
</event>
<event>
 5    1  0.2491889E-009  0.9118800E+02  0.7818608E-02  0.1130116E+00
         25   -1    0    0    0    0  0.00000000000E+00  0.00000000000E+00  0.99999998245E-14  0.12500000000E+03  0.12500000000E+03 0.  0.
        -13    1    3    3    0    0  0.19872271737E+02 -0.10197174074E+02 -0.57936595668E+02  0.62093073887E+02  0.10566000000E+00 0. -1.
         23    2    1    0    0    0  0.78823484920E+01 -0.21843171506E-01 -0.28036226533E+02  0.95876780860E+02  0.91346566520E+02 0.  0.
         13    1    3    3    0    0 -0.11989923245E+02  0.10175330902E+02  0.29900369135E+02  0.33783706973E+02  0.10566000000E+00 0.  1.
         22    1    1    0    0    0 -0.78823484920E+01  0.21843171506E-01  0.28036226533E+02  0.29123219140E+02  0.00000000000E+00 0. -1.
</event>
<event>
 5    1  0.2491889E-009  0.9118800E+02  0.7818608E-02  0.1130116E+00
         25   -1    0    0    0    0  0.00000000000E+00  0.00000000000E+00  0.99999998245E-14  0.12500000000E+03  0.12500000000E+03 0.  0.
        -13    1    3    3    0    0 -0.15293484099E+02 -0.43691574975E+02  0.14958573576E+02  0.48647861897E+02  0.10566000000E+00 0. -1.
         23    2    1    0    0    0 -0.21320408119E+02  0.38760138959E+01  0.18194199521E+02  0.96704908866E+02  0.92472845833E+02 0.  0.
         13    1    3    3    0    0 -0.60269240198E+01  0.47567588870E+02  0.32356259455E+01  0.48057046969E+02  0.10566000000E+00 0.  1.
         22    1    1    0    0    0  0.21320408119E+02 -0.38760138959E+01 -0.18194199521E+02  0.28295091134E+02  0.00000000000E+00 0.  1.
</event>
<event>
 5    1  0.2491889E-009  0.9118800E+02  0.7818608E-02  0.1130116E+00
         25   -1    0    0    0    0  0.00000000000E+00  0.00000000000E+00  0.99999998245E-14  0.12500000000E+03  0.12500000000E+03 0.  0.
        -13    1    3    3    0    0 -0.14889545805E+02 -0.30844377886E+02  0.92534707258E+01  0.35478332908E+02  0.10566000000E+00 0.  1.
         23    2    1    0    0    0 -0.29045464268E+01  0.16693948146E+02 -0.24651718137E+02  0.95086265667E+02  0.90258331564E+02 0.  0.
         13    1    3    3    0    0  0.11984999378E+02  0.47538326031E+02 -0.33905188863E+02  0.59607932759E+02  0.10566000000E+00 0. -1.
         22    1    1    0    0    0  0.29045464268E+01 -0.16693948146E+02  0.24651718137E+02  0.29913734333E+02  0.00000000000E+00 0. -1.
</event>
<event>
 5    1  0.2491889E-009  0.9118800E+02  0.7818608E-02  0.1130116E+00
         25   -1    0    0    0    0  0.00000000000E+00  0.00000000000E+00  0.99999998245E-14  0.12500000000E+03  0.12500000000E+03 0.  0.
        -13    1    3    3    0    0 -0.33623899546E+02 -0.46764737380E+02 -0.16582266145E+02  0.59937383972E+02  0.10566000000E+00 0. -1.
         23    2    1    0    0    0 -0.25688945197E+02 -0.27807464620E+02  0.12142545092E+01  0.87123207529E+02  0.78458918436E+02 0.  0.
         13    1    3    3    0    0  0.79349543490E+01  0.18957272760E+02  0.17796520655E+02  0.27185823557E+02  0.10566000000E+00 0.  1.
         22    1    1    0    0    0  0.25688945197E+02  0.27807464620E+02 -0.12142545092E+01  0.37876792471E+02  0.00000000000E+00 0. -1.
</event>
<event>
 5    1  0.2491889E-009  0.9118800E+02  0.7818608E-02  0.1130116E+00
         25   -1    0    0    0    0  0.00000000000E+00  0.00000000000E+00  0.99999998245E-14  0.12500000000E+03  0.12500000000E+03 0.  0.
        -13    1    3    3    0    0 -0.22835435128E+01  0.54994713729E+02 -0.14084135034E+02  0.56815553617E+02  0.10566000000E+00 0.  1.
         23    2    1    0    0    0  0.15364478241E+02  0.25206861382E+02  0.28201484932E+01  0.95345214723E+02  0.90616244022E+02 0.  0.
         13    1    3    3    0    0  0.17648021754E+02 -0.29787852348E+02  0.16904283527E+02  0.38529661106E+02  0.10566000000E+00 0. -1.
         22    1    1    0    0    0 -0.15364478241E+02 -0.25206861382E+02 -0.28201484932E+01  0.29654785277E+02  0.00000000000E+00 0.  1.
</event>
<event>
 5    1  0.2491889E-009  0.9118800E+02  0.7818608E-02  0.1130116E+00
         25   -1    0    0    0    0  0.00000000000E+00  0.00000000000E+00  0.99999998245E-14  0.12500000000E+03  0.12500000000E+03 0.  0.
        -13    1    3    3    0    0 -0.41432118454E+02 -0.19254678237E+02 -0.29075256953E+02  0.54154822542E+02  0.10566000000E+00 0. -1.
         23    2    1    0    0    0 -0.22808695512E+01  0.11387294158E+01 -0.26503676436E+02  0.98373998888E+02  0.94702163239E+02 0.  0.
         13    1    3    3    0    0  0.39151248903E+02  0.20393407653E+02  0.25715805175E+01  0.44219176346E+02  0.10566000000E+00 0.  1.
         22    1    1    0    0    0  0.22808695512E+01 -0.11387294158E+01  0.26503676436E+02  0.26626001112E+02  0.00000000000E+00 0.  1.
</event>
<event>
 5    1  0.2491889E-009  0.9118800E+02  0.7818608E-02  0.1130116E+00
         25   -1    0    0    0    0  0.00000000000E+00  0.00000000000E+00  0.99999998245E-14  0.12500000000E+03  0.12500000000E+03 0.  0.
        -13    1    3    3    0    0  0.37387096186E+02  0.41909557811E+02 -0.19726844869E+02  0.59526175500E+02  0.10566000000E+00 0. -1.
         23    2    1    0    0    0  0.34449571780E+02  0.21432860246E+02 -0.69613529463E+01  0.83834469164E+02  0.73031618434E+02 0.  0.
         13    1    3    3    0    0 -0.29375244060E+01 -0.20476697565E+02  0.12765491923E+02  0.24308293664E+02  0.10566000000E+00 0.  1.
         22    1    1    0    0    0 -0.34449571780E+02 -0.21432860246E+02  0.69613529463E+01  0.41165530836E+02  0.00000000000E+00 0. -1.
</event>
<event>
 5    1  0.2491889E-009  0.9118800E+02  0.7818608E-02  0.1130116E+00
         25   -1    0    0    0    0  0.00000000000E+00  0.00000000000E+00  0.99999998245E-14  0.12500000000E+03  0.12500000000E+03 0.  0.
        -13    1    3    3    0    0  0.14350619048E+02  0.41785313694E+02 -0.13510855708E+02  0.46200726116E+02  0.10566000000E+00 0.  1.
         23    2    1    0    0    0  0.26697431259E+02 -0.63869218636E+01 -0.88954132668E+01  0.96143909068E+02  0.91711380247E+02 0.  0.
         13    1    3    3    0    0  0.12346812211E+02 -0.48172235558E+02  0.46154424413E+01  0.49943182952E+02  0.10566000000E+00 0. -1.
         22    1    1    0    0    0 -0.26697431259E+02  0.63869218636E+01  0.88954132668E+01  0.28856090932E+02  0.00000000000E+00 0. -1.
</event>
<event>
 5    1  0.2491889E-009  0.9118800E+02  0.7818608E-02  0.1130116E+00
         25   -1    0    0    0    0  0.00000000000E+00  0.00000000000E+00  0.99999998245E-14  0.12500000000E+03  0.12500000000E+03 0.  0.
        -13    1    3    3    0    0 -0.96391067817E+01 -0.32508407771E+02 -0.48073669787E+02  0.58828546184E+02  0.10566000000E+00 0.  1.
         23    2    1    0    0    0 -0.29807812355E+01 -0.25727933324E+02 -0.11420375126E+02  0.96693877378E+02  0.92457932836E+02 0.  0.
         13    1    3    3    0    0  0.66583255462E+01  0.67804744469E+01  0.36653294661E+02  0.37865331193E+02  0.10566000000E+00 0. -1.
         22    1    1    0    0    0  0.29807812355E+01  0.25727933324E+02  0.11420375126E+02  0.28306122622E+02  0.00000000000E+00 0.  1.
</event>
<event>
 5    1  0.2491889E-009  0.9118800E+02  0.7818608E-02  0.1130116E+00
         25   -1    0    0    0    0  0.00000000000E+00  0.00000000000E+00  0.99999998245E-14  0.12500000000E+03  0.12500000000E+03 0.  0.
        -13    1    3    3    0    0  0.43386764582E+02  0.18435636272E+02  0.36728222955E+01  0.47284086258E+02  0.10566000000E+00 0. -1.
         23    2    1    0    0    0  0.94905369784E+01 -0.32194713429E+01 -0.25913152199E+02  0.97216430309E+02  0.93161728072E+02 0.  0.
         13    1    3    3    0    0 -0.33896227603E+02 -0.21655107615E+02 -0.29585974495E+02  0.49932344051E+02  0.10566000000E+00 0.  1.
         22    1    1    0    0    0 -0.94905369784E+01  0.32194713429E+01  0.25913152199E+02  0.27783569691E+02  0.00000000000E+00 0. -1.
</event>
<event>
 5    1  0.2491889E-009  0.9118800E+02  0.7818608E-02  0.1130116E+00
         25   -1    0    0    0    0  0.00000000000E+00  0.00000000000E+00  0.99999998245E-14  0.12500000000E+03  0.12500000000E+03 0.  0.
        -13    1    3    3    0    0 -0.13211650037E+02 -0.36449542551E+02 -0.20848665202E+02  0.44020391339E+02  0.10566000000E+00 0.  1.
         23    2    1    0    0    0  0.22271263735E+02  0.35342281804E+01  0.24154255899E+01  0.10232106180E+03  0.99776076539E+02 0.  0.
         13    1    3    3    0    0  0.35482913772E+02  0.39983770731E+02  0.23264090791E+02  0.58300670460E+02  0.10566000000E+00 0. -1.
         22    1    1    0    0    0 -0.22271263735E+02 -0.35342281804E+01 -0.24154255899E+01  0.22678938202E+02  0.00000000000E+00 0. -1.
</event>
<event>
 5    1  0.2491889E-009  0.9118800E+02  0.7818608E-02  0.1130116E+00
         25   -1    0    0    0    0  0.00000000000E+00  0.00000000000E+00  0.99999998245E-14  0.12500000000E+03  0.12500000000E+03 0.  0.
        -13    1    3    3    0    0  0.20241515124E+02 -0.21640542858E+02  0.31617955401E+02  0.43332877789E+02  0.10566000000E+00 0.  1.
         23    2    1    0    0    0  0.20852588724E+02  0.21107525626E+02  0.21619032083E+01  0.95250513953E+02  0.90485515351E+02 0.  0.
         13    1    3    3    0    0  0.61107359971E+00  0.42748068484E+02 -0.29456052193E+02  0.51917636164E+02  0.10566000000E+00 0. -1.
         22    1    1    0    0    0 -0.20852588724E+02 -0.21107525626E+02 -0.21619032083E+01  0.29749486047E+02  0.00000000000E+00 0. -1.
</event>
<event>
 5    1  0.2491889E-009  0.9118800E+02  0.7818608E-02  0.1130116E+00
         25   -1    0    0    0    0  0.00000000000E+00  0.00000000000E+00  0.99999998245E-14  0.12500000000E+03  0.12500000000E+03 0.  0.
        -13    1    3    3    0    0  0.24680572895E+02 -0.21443483647E+02  0.17937093318E+02  0.37292145957E+02  0.10566000000E+00 0.  1.
         23    2    1    0    0    0 -0.25666724595E+02 -0.67534616184E+01 -0.99057972884E+01  0.96671307563E+02  0.92427414174E+02 0.  0.
         13    1    3    3    0    0 -0.50347297490E+02  0.14690022029E+02 -0.27842890606E+02  0.59379161606E+02  0.10566000000E+00 0. -1.
         22    1    1    0    0    0  0.25666724595E+02  0.67534616184E+01  0.99057972884E+01  0.28328692437E+02  0.00000000000E+00 0. -1.
</event>
<event>
 5    1  0.2491889E-009  0.9118800E+02  0.7818608E-02  0.1130116E+00
         25   -1    0    0    0    0  0.00000000000E+00  0.00000000000E+00  0.99999998245E-14  0.12500000000E+03  0.12500000000E+03 0.  0.
        -13    1    3    3    0    0 -0.15010564436E+02 -0.18713455258E+02  0.45955368133E+02  0.51840307451E+02  0.10566000000E+00 0.  1.
         23    2    1    0    0    0  0.80597845711E+01 -0.28148900450E+02  0.13513187125E+02  0.92752101617E+02  0.86965656464E+02 0.  0.
         13    1    3    3    0    0  0.23070349007E+02 -0.94354451914E+01 -0.32442181008E+02  0.40911794166E+02  0.10566000000E+00 0. -1.
         22    1    1    0    0    0 -0.80597845711E+01  0.28148900450E+02 -0.13513187125E+02  0.32247898383E+02  0.00000000000E+00 0.  1.
</event>
<event>
 5    1  0.2491889E-009  0.9118800E+02  0.7818608E-02  0.1130116E+00
         25   -1    0    0    0    0  0.00000000000E+00  0.00000000000E+00  0.99999998245E-14  0.12500000000E+03  0.12500000000E+03 0.  0.
        -13    1    3    3    0    0  0.62003815002E+02 -0.39892582424E+01 -0.39433670206E+01  0.62257116570E+02  0.10566000000E+00 0.  1.
         23    2    1    0    0    0  0.29027279995E+02  0.56459505380E+00  0.12035356088E+01  0.95942294491E+02  0.91436172398E+02 0.  0.
         13    1    3    3    0    0 -0.32976535006E+02  0.45538532962E+01  0.51469026293E+01  0.33685177921E+02  0.10566000000E+00 0. -1.
         22    1    1    0    0    0 -0.29027279995E+02 -0.56459505380E+00 -0.12035356088E+01  0.29057705509E+02  0.00000000000E+00 0.  1.
</event>
<event>
 5    1  0.2491889E-009  0.9118800E+02  0.7818608E-02  0.1130116E+00
         25   -1    0    0    0    0  0.00000000000E+00  0.00000000000E+00  0.99999998245E-14  0.12500000000E+03  0.12500000000E+03 0.  0.
        -13    1    3    3    0    0 -0.19411757537E+02  0.29260691317E+02 -0.17234274303E+02  0.39115671563E+02  0.10566000000E+00 0. -1.
         23    2    1    0    0    0  0.28272874481E+02  0.10771978314E+02  0.39787570645E+01  0.94484078647E+02  0.89420465565E+02 0.  0.
         13    1    3    3    0    0  0.47684632018E+02 -0.18488713004E+02  0.21213031367E+02  0.55368407084E+02  0.10566000000E+00 0.  1.
         22    1    1    0    0    0 -0.28272874481E+02 -0.10771978314E+02 -0.39787570645E+01  0.30515921353E+02  0.00000000000E+00 0.  1.
</event>
<event>
 5    1  0.2491889E-009  0.9118800E+02  0.7818608E-02  0.1130116E+00
         25   -1    0    0    0    0  0.00000000000E+00  0.00000000000E+00  0.99999998245E-14  0.12500000000E+03  0.12500000000E+03 0.  0.
        -13    1    3    3    0    0  0.28596683495E+02  0.17871034536E+02  0.48804547056E+02  0.59321489864E+02  0.10566000000E+00 0. -1.
         23    2    1    0    0    0  0.36502845288E+01  0.18639453726E+02  0.21151531240E+02  0.96572177605E+02  0.92293252198E+02 0.  0.
         13    1    3    3    0    0 -0.24946398966E+02  0.76841918956E+00 -0.27653015816E+02  0.37250687741E+02  0.10566000000E+00 0.  1.
         22    1    1    0    0    0 -0.36502845288E+01 -0.18639453726E+02 -0.21151531240E+02  0.28427822395E+02  0.00000000000E+00 0. -1.
</event>
<event>
 5    1  0.2491889E-009  0.9118800E+02  0.7818608E-02  0.1130116E+00
         25   -1    0    0    0    0  0.00000000000E+00  0.00000000000E+00  0.99999998245E-14  0.12500000000E+03  0.12500000000E+03 0.  0.
        -13    1    3    3    0    0  0.27709175946E+02 -0.12843454995E+02 -0.50657445502E+02  0.59151844575E+02  0.10566000000E+00 0.  1.
         23    2    1    0    0    0  0.90248588393E+00  0.25187782592E+00 -0.28918485311E+02  0.96066339397E+02  0.91605593984E+02 0.  0.
         13    1    3    3    0    0 -0.26806690062E+02  0.13095332821E+02  0.21738960190E+02  0.36914494822E+02  0.10566000000E+00 0. -1.
         22    1    1    0    0    0 -0.90248588393E+00 -0.25187782592E+00  0.28918485311E+02  0.28933660603E+02  0.00000000000E+00 0.  1.
</event>
<event>
 5    1  0.2491889E-009  0.9118800E+02  0.7818608E-02  0.1130116E+00
         25   -1    0    0    0    0  0.00000000000E+00  0.00000000000E+00  0.99999998245E-14  0.12500000000E+03  0.12500000000E+03 0.  0.
        -13    1    3    3    0    0  0.38267655833E+02 -0.43641511701E+02 -0.94148639489E+01  0.58801750431E+02  0.10566000000E+00 0.  1.
         23    2    1    0    0    0  0.26613605571E+02 -0.95997111166E+01  0.22287098538E+01  0.96620331175E+02  0.92358447333E+02 0.  0.
         13    1    3    3    0    0 -0.11654050262E+02  0.34041800585E+02  0.11643573803E+02  0.37818580744E+02  0.10566000000E+00 0. -1.
         22    1    1    0    0    0 -0.26613605571E+02  0.95997111166E+01 -0.22287098538E+01  0.28379668825E+02  0.00000000000E+00 0.  1.
</event>
<event>
 5    1  0.2491889E-009  0.9118800E+02  0.7818608E-02  0.1130116E+00
         25   -1    0    0    0    0  0.00000000000E+00  0.00000000000E+00  0.99999998245E-14  0.12500000000E+03  0.12500000000E+03 0.  0.
        -13    1    3    3    0    0  0.33841411160E+02  0.74306363696E+01  0.28351111049E+02  0.44768874543E+02  0.10566000000E+00 0. -1.
         23    2    1    0    0    0 -0.13470149579E+01  0.30128156737E+02  0.91984751288E+00  0.94827721381E+02  0.89899556980E+02 0.  0.
         13    1    3    3    0    0 -0.35188426118E+02  0.22697520367E+02 -0.27431263536E+02  0.50058846837E+02  0.10566000000E+00 0.  1.
         22    1    1    0    0    0  0.13470149579E+01 -0.30128156737E+02 -0.91984751288E+00  0.30172278619E+02  0.00000000000E+00 0. -1.
</event>
<event>
 5    1  0.2491889E-009  0.9118800E+02  0.7818608E-02  0.1130116E+00
         25   -1    0    0    0    0  0.00000000000E+00  0.00000000000E+00  0.99999998245E-14  0.12500000000E+03  0.12500000000E+03 0.  0.
        -13    1    3    3    0    0  0.27189403700E+02  0.18578293971E+02  0.37925156794E+02  0.50226938612E+02  0.10566000000E+00 0.  1.
         23    2    1    0    0    0  0.19438919711E+02  0.19924199442E+02 -0.73736972803E+01  0.96203876398E+02  0.91793077623E+02 0.  0.
         13    1    3    3    0    0 -0.77504839890E+01  0.13459054708E+01 -0.45298854075E+02  0.45976937785E+02  0.10566000000E+00 0. -1.
         22    1    1    0    0    0 -0.19438919711E+02 -0.19924199442E+02  0.73736972803E+01  0.28796123602E+02  0.00000000000E+00 0.  1.
</event>
<event>
 5    1  0.2491889E-009  0.9118800E+02  0.7818608E-02  0.1130116E+00
         25   -1    0    0    0    0  0.00000000000E+00  0.00000000000E+00  0.99999998245E-14  0.12500000000E+03  0.12500000000E+03 0.  0.
        -13    1    3    3    0    0  0.33298162590E+01 -0.28475954915E+02  0.48820372692E+02  0.56616319542E+02  0.10566000000E+00 0.  1.
         23    2    1    0    0    0  0.18393767429E+02 -0.35238998943E+01  0.18449727333E+02  0.98710439537E+02  0.95145204211E+02 0.  0.
         13    1    3    3    0    0  0.15063951170E+02  0.24952055021E+02 -0.30370645359E+02  0.42094119995E+02  0.10566000000E+00 0. -1.
         22    1    1    0    0    0 -0.18393767429E+02  0.35238998943E+01 -0.18449727333E+02  0.26289560463E+02  0.00000000000E+00 0.  1.
</event>
<event>
 5    1  0.2491889E-009  0.9118800E+02  0.7818608E-02  0.1130116E+00
         25   -1    0    0    0    0  0.00000000000E+00  0.00000000000E+00  0.99999998245E-14  0.12500000000E+03  0.12500000000E+03 0.  0.
        -13    1    3    3    0    0 -0.33232225385E+02  0.30162625698E+02  0.17219156818E+02  0.48069484276E+02  0.10566000000E+00 0.  1.
         23    2    1    0    0    0 -0.24980825730E+02 -0.75011882555E+01 -0.11844750932E+02  0.96353750611E+02  0.91996943715E+02 0.  0.
         13    1    3    3    0    0  0.82513996554E+01 -0.37663813953E+02 -0.29063907750E+02  0.48284266335E+02  0.10566000000E+00 0. -1.
         22    1    1    0    0    0  0.24980825730E+02  0.75011882555E+01  0.11844750932E+02  0.28646249389E+02  0.00000000000E+00 0. -1.
</event>
<event>
 5    1  0.2491889E-009  0.9118800E+02  0.7818608E-02  0.1130116E+00
         25   -1    0    0    0    0  0.00000000000E+00  0.00000000000E+00  0.99999998245E-14  0.12500000000E+03  0.12500000000E+03 0.  0.
        -13    1    3    3    0    0 -0.33708763669E+02  0.27021901036E+02 -0.39823514398E+02  0.58757019553E+02  0.10566000000E+00 0. -1.
         23    2    1    0    0    0 -0.17391999251E+02 -0.13663878150E+01 -0.24537380096E+02  0.94892996237E+02  0.89990272026E+02 0.  0.
         13    1    3    3    0    0  0.16316764419E+02 -0.28388288851E+02  0.15286134301E+02  0.36135976684E+02  0.10566000000E+00 0.  1.
         22    1    1    0    0    0  0.17391999251E+02  0.13663878150E+01  0.24537380096E+02  0.30107003763E+02  0.00000000000E+00 0. -1.
</event>
<event>
 5    1  0.2491889E-009  0.9118800E+02  0.7818608E-02  0.1130116E+00
         25   -1    0    0    0    0  0.00000000000E+00  0.00000000000E+00  0.99999998245E-14  0.12500000000E+03  0.12500000000E+03 0.  0.
        -13    1    3    3    0    0 -0.46031808365E+02 -0.37824897853E+01 -0.21203907234E+02  0.50821761641E+02  0.10566000000E+00 0.  1.
         23    2    1    0    0    0 -0.22323269176E+02  0.98356068356E+01  0.15130765680E+02  0.96294467805E+02  0.91916358452E+02 0.  0.
         13    1    3    3    0    0  0.23708539188E+02  0.13618096621E+02  0.36334672914E+02  0.45472706164E+02  0.10566000000E+00 0. -1.
         22    1    1    0    0    0  0.22323269176E+02 -0.98356068356E+01 -0.15130765680E+02  0.28705532195E+02  0.00000000000E+00 0.  1.
</event>
<event>
 5    1  0.2491889E-009  0.9118800E+02  0.7818608E-02  0.1130116E+00
         25   -1    0    0    0    0  0.00000000000E+00  0.00000000000E+00  0.99999998245E-14  0.12500000000E+03  0.12500000000E+03 0.  0.
        -13    1    3    3    0    0  0.45151330415E+02  0.22300544054E+02 -0.93463172619E+00  0.50367068645E+02  0.10566000000E+00 0.  1.
         23    2    1    0    0    0  0.11086115984E+02  0.82497119802E+01 -0.26429233976E+02  0.95176114876E+02  0.90382679308E+02 0.  0.
         13    1    3    3    0    0 -0.34065214432E+02 -0.14050832074E+02 -0.25494602249E+02  0.44809046231E+02  0.10566000000E+00 0. -1.
         22    1    1    0    0    0 -0.11086115984E+02 -0.82497119802E+01  0.26429233976E+02  0.29823885124E+02  0.00000000000E+00 0.  1.
</event>
<event>
 5    1  0.2491889E-009  0.9118800E+02  0.7818608E-02  0.1130116E+00
         25   -1    0    0    0    0  0.00000000000E+00  0.00000000000E+00  0.99999998245E-14  0.12500000000E+03  0.12500000000E+03 0.  0.
        -13    1    3    3    0    0 -0.13724286732E+02  0.36188159979E+02 -0.98780561217E+01  0.39944037425E+02  0.10566000000E+00 0.  1.
         23    2    1    0    0    0  0.17784256355E+02 -0.80712501150E+01 -0.21971467515E+02  0.95603227434E+02  0.90971461781E+02 0.  0.
         13    1    3    3    0    0  0.31508543087E+02 -0.44259410094E+02 -0.12093411393E+02  0.55659190010E+02  0.10566000000E+00 0. -1.
         22    1    1    0    0    0 -0.17784256355E+02  0.80712501150E+01  0.21971467515E+02  0.29396772566E+02  0.00000000000E+00 0. -1.
</event>
<event>
 5    1  0.2491889E-009  0.9118800E+02  0.7818608E-02  0.1130116E+00
         25   -1    0    0    0    0  0.00000000000E+00  0.00000000000E+00  0.99999998245E-14  0.12500000000E+03  0.12500000000E+03 0.  0.
        -13    1    3    3    0    0  0.23397410848E+02 -0.51509141682E+01  0.25655197927E+02  0.35102294738E+02  0.10566000000E+00 0. -1.
         23    2    1    0    0    0 -0.12627796331E+02  0.21905739607E+02 -0.14841011159E+02  0.95681434548E+02  0.91078859441E+02 0.  0.
         13    1    3    3    0    0 -0.36025207179E+02  0.27056653776E+02 -0.40496209086E+02  0.60579139811E+02  0.10566000000E+00 0.  1.
         22    1    1    0    0    0  0.12627796331E+02 -0.21905739607E+02  0.14841011159E+02  0.29318565452E+02  0.00000000000E+00 0.  1.
</event>
<event>
 5    1  0.2491889E-009  0.9118800E+02  0.7818608E-02  0.1130116E+00
         25   -1    0    0    0    0  0.00000000000E+00  0.00000000000E+00  0.99999998245E-14  0.12500000000E+03  0.12500000000E+03 0.  0.
        -13    1    3    3    0    0  0.83656180255E+01 -0.14038969970E+02 -0.30346044834E+02  0.34466938417E+02  0.10566000000E+00 0. -1.
         23    2    1    0    0    0 -0.16492870491E+02  0.26297785241E+01  0.23557806677E+02  0.96122659964E+02  0.91682413750E+02 0.  0.
         13    1    3    3    0    0 -0.24858488517E+02  0.16668748494E+02  0.53903851511E+02  0.61655721547E+02  0.10566000000E+00 0.  1.
         22    1    1    0    0    0  0.16492870491E+02 -0.26297785241E+01 -0.23557806677E+02  0.28877340036E+02  0.00000000000E+00 0.  1.
</event>
<event>
 5    1  0.2491889E-009  0.9118800E+02  0.7818608E-02  0.1130116E+00
         25   -1    0    0    0    0  0.00000000000E+00  0.00000000000E+00  0.99999998245E-14  0.12500000000E+03  0.12500000000E+03 0.  0.
        -13    1    3    3    0    0  0.44923217776E+02  0.38791889044E+02  0.13959585609E+02  0.60973661079E+02  0.10566000000E+00 0.  1.
         23    2    1    0    0    0  0.22381384191E+02  0.19854994944E+02 -0.29684754942E+01  0.94934088584E+02  0.90047332809E+02 0.  0.
         13    1    3    3    0    0 -0.22541833585E+02 -0.18936894100E+02 -0.16928061104E+02  0.33960427505E+02  0.10566000000E+00 0. -1.
         22    1    1    0    0    0 -0.22381384191E+02 -0.19854994944E+02  0.29684754942E+01  0.30065911416E+02  0.00000000000E+00 0.  1.
</event>
<event>
 5    1  0.2491889E-009  0.9118800E+02  0.7818608E-02  0.1130116E+00
         25   -1    0    0    0    0  0.00000000000E+00  0.00000000000E+00  0.99999998245E-14  0.12500000000E+03  0.12500000000E+03 0.  0.
        -13    1    3    3    0    0 -0.25300528781E+02  0.25507199165E+02 -0.44732263567E+01  0.36204348964E+02  0.10566000000E+00 0.  1.
         23    2    1    0    0    0  0.98445227335E+01 -0.14161739503E+02  0.23278098218E+02  0.96028646041E+02  0.91554145237E+02 0.  0.
         13    1    3    3    0    0  0.35145051514E+02 -0.39668938668E+02  0.27751324575E+02  0.59824297076E+02  0.10566000000E+00 0. -1.
         22    1    1    0    0    0 -0.98445227335E+01  0.14161739503E+02 -0.23278098218E+02  0.28971353959E+02  0.00000000000E+00 0. -1.
</event>
<event>
 5    1  0.2491889E-009  0.9118800E+02  0.7818608E-02  0.1130116E+00
         25   -1    0    0    0    0  0.00000000000E+00  0.00000000000E+00  0.99999998245E-14  0.12500000000E+03  0.12500000000E+03 0.  0.
        -13    1    3    3    0    0 -0.38948203877E+02 -0.12461900088E+02  0.11403749427E+01  0.40909328497E+02  0.10566000000E+00 0.  1.
         23    2    1    0    0    0  0.14368257970E+02 -0.25211322214E+02  0.34481406167E+01  0.95777623667E+02  0.91210777415E+02 0.  0.
         13    1    3    3    0    0  0.53316461846E+02 -0.12749422126E+02  0.23077656740E+01  0.54868295170E+02  0.10566000000E+00 0. -1.
         22    1    1    0    0    0 -0.14368257970E+02  0.25211322214E+02 -0.34481406167E+01  0.29222376333E+02  0.00000000000E+00 0. -1.
</event>
<event>
 5    1  0.2491889E-009  0.9118800E+02  0.7818608E-02  0.1130116E+00
         25   -1    0    0    0    0  0.00000000000E+00  0.00000000000E+00  0.99999998245E-14  0.12500000000E+03  0.12500000000E+03 0.  0.
        -13    1    3    3    0    0  0.51976520103E+02  0.33105034562E+02  0.63160486907E+01  0.61946796451E+02  0.10566000000E+00 0. -1.
         23    2    1    0    0    0  0.19521668167E+02  0.19268617162E+02  0.36500901541E+01  0.97328746080E+02  0.93312306370E+02 0.  0.
         13    1    3    3    0    0 -0.32454851936E+02 -0.13836417400E+02 -0.26659585366E+01  0.35381949630E+02  0.10566000000E+00 0.  1.
         22    1    1    0    0    0 -0.19521668167E+02 -0.19268617162E+02 -0.36500901541E+01  0.27671253920E+02  0.00000000000E+00 0. -1.
</event>
<event>
 5    1  0.2491889E-009  0.9118800E+02  0.7818608E-02  0.1130116E+00
         25   -1    0    0    0    0  0.00000000000E+00  0.00000000000E+00  0.99999998245E-14  0.12500000000E+03  0.12500000000E+03 0.  0.
        -13    1    3    3    0    0  0.34472898961E+02 -0.12802453710E+02 -0.27453396269E+02  0.45890998186E+02  0.10566000000E+00 0. -1.
         23    2    1    0    0    0  0.22833740273E+02  0.20651194371E+02  0.48539035360E+01  0.93832518496E+02  0.88504969487E+02 0.  0.
         13    1    3    3    0    0 -0.11639158688E+02  0.33453648082E+02  0.32307299805E+02  0.47941520310E+02  0.10566000000E+00 0.  1.
         22    1    1    0    0    0 -0.22833740273E+02 -0.20651194371E+02 -0.48539035360E+01  0.31167481504E+02  0.00000000000E+00 0. -1.
</event>
<event>
 5    1  0.2491889E-009  0.9118800E+02  0.7818608E-02  0.1130116E+00
         25   -1    0    0    0    0  0.00000000000E+00  0.00000000000E+00  0.99999998245E-14  0.12500000000E+03  0.12500000000E+03 0.  0.
        -13    1    3    3    0    0  0.18555864719E+02  0.81114138040E+01  0.49439254957E+02  0.53426269233E+02  0.10566000000E+00 0.  1.
         23    2    1    0    0    0  0.31224651769E+02  0.72003768299E+01  0.16027119962E+02  0.89171339979E+02  0.81656812299E+02 0.  0.
         13    1    3    3    0    0  0.12668787050E+02 -0.91103697414E+00 -0.33412134996E+02  0.35745070747E+02  0.10566000000E+00 0. -1.
         22    1    1    0    0    0 -0.31224651769E+02 -0.72003768299E+01 -0.16027119962E+02  0.35828660021E+02  0.00000000000E+00 0. -1.
</event>
<event>
 5    1  0.2491889E-009  0.9118800E+02  0.7818608E-02  0.1130116E+00
         25   -1    0    0    0    0  0.00000000000E+00  0.00000000000E+00  0.99999998245E-14  0.12500000000E+03  0.12500000000E+03 0.  0.
        -13    1    3    3    0    0  0.50752106131E+02 -0.37268259166E+01  0.73602528138E+01  0.51418381865E+02  0.10566000000E+00 0. -1.
         23    2    1    0    0    0  0.86109109997E+01 -0.21638886493E+02  0.14209877292E+02  0.97717958112E+02  0.93832241410E+02 0.  0.
         13    1    3    3    0    0 -0.42141195131E+02 -0.17912060576E+02  0.68496244787E+01  0.46299576247E+02  0.10566000000E+00 0.  1.
         22    1    1    0    0    0 -0.86109109997E+01  0.21638886493E+02 -0.14209877292E+02  0.27282041888E+02  0.00000000000E+00 0.  1.
</event>
<event>
 5    1  0.2491889E-009  0.9118800E+02  0.7818608E-02  0.1130116E+00
         25   -1    0    0    0    0  0.00000000000E+00  0.00000000000E+00  0.99999998245E-14  0.12500000000E+03  0.12500000000E+03 0.  0.
        -13    1    3    3    0    0 -0.39549943435E+02  0.23538629473E+01 -0.12196112736E+02  0.41454734668E+02  0.10566000000E+00 0. -1.
         23    2    1    0    0    0 -0.37874748151E+01 -0.68642131859E+01  0.27930613559E+02  0.95989974803E+02  0.91501331688E+02 0.  0.
         13    1    3    3    0    0  0.35762468620E+02 -0.92180761332E+01  0.40126726295E+02  0.54535240135E+02  0.10566000000E+00 0.  1.
         22    1    1    0    0    0  0.37874748151E+01  0.68642131859E+01 -0.27930613559E+02  0.29010025197E+02  0.00000000000E+00 0.  1.
</event>
<event>
 5    1  0.2491889E-009  0.9118800E+02  0.7818608E-02  0.1130116E+00
         25   -1    0    0    0    0  0.00000000000E+00  0.00000000000E+00  0.99999998245E-14  0.12500000000E+03  0.12500000000E+03 0.  0.
        -13    1    3    3    0    0  0.32937402630E+02 -0.38418108040E+02  0.13725411751E+02  0.52433020218E+02  0.10566000000E+00 0. -1.
         23    2    1    0    0    0  0.29056811689E+02  0.25235058126E+01 -0.14228127904E+00  0.95833467277E+02  0.91287276327E+02 0.  0.
         13    1    3    3    0    0 -0.38805909410E+01  0.40941613853E+02 -0.13867693030E+02  0.43400447059E+02  0.10566000000E+00 0.  1.
         22    1    1    0    0    0 -0.29056811689E+02 -0.25235058126E+01  0.14228127904E+00  0.29166532723E+02  0.00000000000E+00 0. -1.
</event>
<event>
 5    1  0.2491889E-009  0.9118800E+02  0.7818608E-02  0.1130116E+00
         25   -1    0    0    0    0  0.00000000000E+00  0.00000000000E+00  0.99999998245E-14  0.12500000000E+03  0.12500000000E+03 0.  0.
        -13    1    3    3    0    0  0.19139108514E+02 -0.23269453284E+02  0.39188940487E+02  0.49432349239E+02  0.10566000000E+00 0.  1.
         23    2    1    0    0    0 -0.19624029916E+02 -0.69449264887E+01  0.21538028944E+02  0.95046348388E+02  0.90203032638E+02 0.  0.
         13    1    3    3    0    0 -0.38763138430E+02  0.16324526795E+02 -0.17650911543E+02  0.45613999149E+02  0.10566000000E+00 0. -1.
         22    1    1    0    0    0  0.19624029916E+02  0.69449264887E+01 -0.21538028944E+02  0.29953651612E+02  0.00000000000E+00 0.  1.
</event>
<event>
 5    1  0.2491889E-009  0.9118800E+02  0.7818608E-02  0.1130116E+00
         25   -1    0    0    0    0  0.00000000000E+00  0.00000000000E+00  0.99999998245E-14  0.12500000000E+03  0.12500000000E+03 0.  0.
        -13    1    3    3    0    0  0.20405351060E+02 -0.48098162782E+02 -0.31995000351E+02  0.61265837352E+02  0.10566000000E+00 0.  1.
         23    2    1    0    0    0  0.18021489542E+02 -0.20303758349E+02 -0.14100676825E+02  0.94408403518E+02  0.89314617389E+02 0.  0.
         13    1    3    3    0    0 -0.23838615183E+01  0.27794404433E+02  0.17894323527E+02  0.33142566166E+02  0.10566000000E+00 0. -1.
         22    1    1    0    0    0 -0.18021489542E+02  0.20303758349E+02  0.14100676825E+02  0.30591596482E+02  0.00000000000E+00 0.  1.
</event>
<event>
 5    1  0.2491889E-009  0.9118800E+02  0.7818608E-02  0.1130116E+00
         25   -1    0    0    0    0  0.00000000000E+00  0.00000000000E+00  0.99999998245E-14  0.12500000000E+03  0.12500000000E+03 0.  0.
        -13    1    3    3    0    0 -0.28273250976E+02 -0.26654815109E+02  0.36382389750E+02  0.53231056134E+02  0.10566000000E+00 0.  1.
         23    2    1    0    0    0  0.88621308126E+01 -0.90628612654E+01  0.26693870992E+02  0.95449440523E+02  0.90759903761E+02 0.  0.
         13    1    3    3    0    0  0.37135381788E+02  0.17591953844E+02 -0.96885187574E+01  0.42218384388E+02  0.10566000000E+00 0. -1.
         22    1    1    0    0    0 -0.88621308126E+01  0.90628612654E+01 -0.26693870992E+02  0.29550559477E+02  0.00000000000E+00 0.  1.
</event>
<event>
 5    1  0.2491889E-009  0.9118800E+02  0.7818608E-02  0.1130116E+00
         25   -1    0    0    0    0  0.00000000000E+00  0.00000000000E+00  0.99999998245E-14  0.12500000000E+03  0.12500000000E+03 0.  0.
        -13    1    3    3    0    0  0.64069556779E+00  0.20515986485E+02 -0.37967036290E+02  0.43160435598E+02  0.10566000000E+00 0.  1.
         23    2    1    0    0    0 -0.12658764661E+02 -0.23320448773E+02 -0.11364887372E+02  0.96133959075E+02  0.91697817688E+02 0.  0.
         13    1    3    3    0    0 -0.13299460229E+02 -0.43836435258E+02  0.26602148918E+02  0.52973523477E+02  0.10566000000E+00 0. -1.
         22    1    1    0    0    0  0.12658764661E+02  0.23320448773E+02  0.11364887372E+02  0.28866040925E+02  0.00000000000E+00 0. -1.
</event>
<event>
 5    1  0.2491889E-009  0.9118800E+02  0.7818608E-02  0.1130116E+00
         25   -1    0    0    0    0  0.00000000000E+00  0.00000000000E+00  0.99999998245E-14  0.12500000000E+03  0.12500000000E+03 0.  0.
        -13    1    3    3    0    0  0.19941738581E+02  0.36697524221E+02  0.43455781064E+02  0.60272691109E+02  0.10566000000E+00 0.  1.
         23    2    1    0    0    0  0.14884792547E+02  0.21346703612E+02  0.10577953574E+02  0.96908508297E+02  0.92747652661E+02 0.  0.
         13    1    3    3    0    0 -0.50569460339E+01 -0.15350820608E+02 -0.32877827490E+02  0.36635817188E+02  0.10566000000E+00 0. -1.
         22    1    1    0    0    0 -0.14884792547E+02 -0.21346703612E+02 -0.10577953574E+02  0.28091491703E+02  0.00000000000E+00 0.  1.
</event>
<event>
 5    1  0.2491889E-009  0.9118800E+02  0.7818608E-02  0.1130116E+00
         25   -1    0    0    0    0  0.00000000000E+00  0.00000000000E+00  0.99999998245E-14  0.12500000000E+03  0.12500000000E+03 0.  0.
        -13    1    3    3    0    0  0.29902753958E+02 -0.20639301376E+02  0.24350680062E+01  0.36415603466E+02  0.10566000000E+00 0.  1.
         23    2    1    0    0    0 -0.18665793544E+02  0.13203038755E+02 -0.14425262878E+02  0.97966311940E+02  0.94162508383E+02 0.  0.
         13    1    3    3    0    0 -0.48568547503E+02  0.33842340131E+02 -0.16860330884E+02  0.61550708474E+02  0.10566000000E+00 0. -1.
         22    1    1    0    0    0  0.18665793544E+02 -0.13203038755E+02  0.14425262878E+02  0.27033688060E+02  0.00000000000E+00 0. -1.
</event>
<event>
 5    1  0.2491889E-009  0.9118800E+02  0.7818608E-02  0.1130116E+00
         25   -1    0    0    0    0  0.00000000000E+00  0.00000000000E+00  0.99999998245E-14  0.12500000000E+03  0.12500000000E+03 0.  0.
        -13    1    3    3    0    0  0.13961528842E+02  0.11413105191E+02 -0.34413645125E+02  0.38852199327E+02  0.10566000000E+00 0.  1.
         23    2    1    0    0    0  0.13000000153E+02 -0.24025515238E+02  0.10203711406E+02  0.95839391075E+02  0.91295387445E+02 0.  0.
         13    1    3    3    0    0 -0.96152868922E+00 -0.35438620430E+02  0.44617356531E+02  0.56987191747E+02  0.10566000000E+00 0. -1.
         22    1    1    0    0    0 -0.13000000153E+02  0.24025515238E+02 -0.10203711406E+02  0.29160608925E+02  0.00000000000E+00 0. -1.
</event>
<event>
 5    1  0.2491889E-009  0.9118800E+02  0.7818608E-02  0.1130116E+00
         25   -1    0    0    0    0  0.00000000000E+00  0.00000000000E+00  0.99999998245E-14  0.12500000000E+03  0.12500000000E+03 0.  0.
        -13    1    3    3    0    0  0.38498586546E+02 -0.18013425661E+02  0.28173133199E+02  0.50993737540E+02  0.10566000000E+00 0.  1.
         23    2    1    0    0    0  0.15494258604E+02 -0.22412437589E+02 -0.10163950094E+02  0.95919159402E+02  0.91404539551E+02 0.  0.
         13    1    3    3    0    0 -0.23004327942E+02 -0.43990119283E+01 -0.38337083293E+02  0.44925421862E+02  0.10566000000E+00 0. -1.
         22    1    1    0    0    0 -0.15494258604E+02  0.22412437589E+02  0.10163950094E+02  0.29080840598E+02  0.00000000000E+00 0. -1.
</event>
<event>
 5    1  0.2491889E-009  0.9118800E+02  0.7818608E-02  0.1130116E+00
         25   -1    0    0    0    0  0.00000000000E+00  0.00000000000E+00  0.99999998245E-14  0.12500000000E+03  0.12500000000E+03 0.  0.
        -13    1    3    3    0    0  0.54057638464E+02 -0.12695100791E+02 -0.14011761574E+02  0.57268966176E+02  0.10566000000E+00 0.  1.
         23    2    1    0    0    0  0.27947744869E+02 -0.11859802047E+02  0.10285321282E+02  0.92945059949E+02  0.87242564079E+02 0.  0.
         13    1    3    3    0    0 -0.26109893595E+02  0.83529874373E+00  0.24297082856E+02  0.35676093773E+02  0.10566000000E+00 0. -1.
         22    1    1    0    0    0 -0.27947744869E+02  0.11859802047E+02 -0.10285321282E+02  0.32054940051E+02  0.00000000000E+00 0.  1.
</event>
<event>
 5    1  0.2491889E-009  0.9118800E+02  0.7818608E-02  0.1130116E+00
         25   -1    0    0    0    0  0.00000000000E+00  0.00000000000E+00  0.99999998245E-14  0.12500000000E+03  0.12500000000E+03 0.  0.
        -13    1    3    3    0    0 -0.79223352482E+01  0.38131552450E+02  0.33271019266E+02  0.51222559240E+02  0.10566000000E+00 0.  1.
         23    2    1    0    0    0 -0.30717342859E+02  0.23896302602E+02  0.21180328578E+02  0.80692046436E+02  0.67438947271E+02 0.  0.
         13    1    3    3    0    0 -0.22795007611E+02 -0.14235249848E+02 -0.12090690688E+02  0.29469487196E+02  0.10566000000E+00 0. -1.
         22    1    1    0    0    0  0.30717342859E+02 -0.23896302602E+02 -0.21180328578E+02  0.44307953564E+02  0.00000000000E+00 0.  1.
</event>
<event>
 5    1  0.2491889E-009  0.9118800E+02  0.7818608E-02  0.1130116E+00
         25   -1    0    0    0    0  0.00000000000E+00  0.00000000000E+00  0.99999998245E-14  0.12500000000E+03  0.12500000000E+03 0.  0.
        -13    1    3    3    0    0  0.42461892913E+02 -0.31856381234E+02  0.25589993764E+01  0.53145094006E+02  0.10566000000E+00 0.  1.
         23    2    1    0    0    0  0.76130845042E+01 -0.21661277450E+02 -0.18847185102E+02  0.95295010811E+02  0.90546964073E+02 0.  0.
         13    1    3    3    0    0 -0.34848808409E+02  0.10195103784E+02 -0.21406184479E+02  0.42149916805E+02  0.10566000000E+00 0. -1.
         22    1    1    0    0    0 -0.76130845042E+01  0.21661277450E+02  0.18847185102E+02  0.29704989189E+02  0.00000000000E+00 0.  1.
</event>
<event>
 5    1  0.2491889E-009  0.9118800E+02  0.7818608E-02  0.1130116E+00
         25   -1    0    0    0    0  0.00000000000E+00  0.00000000000E+00  0.99999998245E-14  0.12500000000E+03  0.12500000000E+03 0.  0.
        -13    1    3    3    0    0  0.23223458588E+02 -0.69237187296E+01 -0.28991949249E+02  0.37786389019E+02  0.10566000000E+00 0.  1.
         23    2    1    0    0    0 -0.27075750019E+02  0.10349500201E+02 -0.83436850667E+01  0.94836686621E+02  0.89912021751E+02 0.  0.
         13    1    3    3    0    0 -0.50299208607E+02  0.17273218931E+02  0.20648264182E+02  0.57050297602E+02  0.10566000000E+00 0. -1.
         22    1    1    0    0    0  0.27075750019E+02 -0.10349500201E+02  0.83436850667E+01  0.30163313379E+02  0.00000000000E+00 0. -1.
</event>
<event>
 5    1  0.2491889E-009  0.9118800E+02  0.7818608E-02  0.1130116E+00
         25   -1    0    0    0    0  0.00000000000E+00  0.00000000000E+00  0.99999998245E-14  0.12500000000E+03  0.12500000000E+03 0.  0.
        -13    1    3    3    0    0 -0.32755455415E+02  0.17804780426E+02 -0.44201668865E+01  0.37543030043E+02  0.10566000000E+00 0.  1.
         23    2    1    0    0    0  0.17956740515E+02  0.72139083966E+01  0.22002235022E+02  0.95698407035E+02  0.91102150133E+02 0.  0.
         13    1    3    3    0    0  0.50712195930E+02 -0.10590872030E+02  0.26422401909E+02  0.58155376992E+02  0.10566000000E+00 0. -1.
         22    1    1    0    0    0 -0.17956740515E+02 -0.72139083966E+01 -0.22002235022E+02  0.29301592965E+02  0.00000000000E+00 0. -1.
</event>
<event>
 5    1  0.2491889E-009  0.9118800E+02  0.7818608E-02  0.1130116E+00
         25   -1    0    0    0    0  0.00000000000E+00  0.00000000000E+00  0.99999998245E-14  0.12500000000E+03  0.12500000000E+03 0.  0.
        -13    1    3    3    0    0  0.15825804898E+02 -0.89122097771E+01  0.26208291062E+02  0.31886819663E+02  0.10566000000E+00 0. -1.
         23    2    1    0    0    0 -0.29859716521E+00 -0.91627235927E+00 -0.32087609877E+02  0.92897921828E+02  0.87174999037E+02 0.  0.
         13    1    3    3    0    0 -0.16124402063E+02  0.79959374178E+01 -0.58295900939E+02  0.61011102166E+02  0.10566000000E+00 0.  1.
         22    1    1    0    0    0  0.29859716521E+00  0.91627235927E+00  0.32087609877E+02  0.32102078172E+02  0.00000000000E+00 0.  1.
</event>
<event>
 5    1  0.2491889E-009  0.9118800E+02  0.7818608E-02  0.1130116E+00
         25   -1    0    0    0    0  0.00000000000E+00  0.00000000000E+00  0.99999998245E-14  0.12500000000E+03  0.12500000000E+03 0.  0.
        -13    1    3    3    0    0 -0.41011061967E+02 -0.22463313455E+02 -0.37132995755E+02  0.59710787909E+02  0.10566000000E+00 0. -1.
         23    2    1    0    0    0 -0.84779644410E+01 -0.59866216275E+01 -0.24647269259E+02  0.98256712964E+02  0.94547227569E+02 0.  0.
         13    1    3    3    0    0  0.32533097526E+02  0.16476691827E+02  0.12485726495E+02  0.38545925055E+02  0.10566000000E+00 0.  1.
         22    1    1    0    0    0  0.84779644410E+01  0.59866216275E+01  0.24647269259E+02  0.26743287036E+02  0.00000000000E+00 0. -1.
</event>
<event>
 5    1  0.2491889E-009  0.9118800E+02  0.7818608E-02  0.1130116E+00
         25   -1    0    0    0    0  0.00000000000E+00  0.00000000000E+00  0.99999998245E-14  0.12500000000E+03  0.12500000000E+03 0.  0.
        -13    1    3    3    0    0  0.37196398194E+02 -0.21025207990E+02  0.30462766372E+01  0.42835993919E+02  0.10566000000E+00 0.  1.
         23    2    1    0    0    0 -0.17761340884E+02 -0.20460198946E+02 -0.37868473463E+00  0.97903351258E+02  0.94078891439E+02 0.  0.
         13    1    3    3    0    0 -0.54957739078E+02  0.56500904389E+00 -0.34249613718E+01  0.55067357339E+02  0.10566000000E+00 0. -1.
         22    1    1    0    0    0  0.17761340884E+02  0.20460198946E+02  0.37868473463E+00  0.27096648742E+02  0.00000000000E+00 0. -1.
</event>
<event>
 5    1  0.2491889E-009  0.9118800E+02  0.7818608E-02  0.1130116E+00
         25   -1    0    0    0    0  0.00000000000E+00  0.00000000000E+00  0.99999998245E-14  0.12500000000E+03  0.12500000000E+03 0.  0.
        -13    1    3    3    0    0 -0.13144654928E+02  0.34153006415E+02 -0.21327988592E+02  0.42356865580E+02  0.10566000000E+00 0.  1.
         23    2    1    0    0    0  0.76865828348E+01 -0.19557132192E+02 -0.12251273078E+02  0.10067596523E+03  0.97693353451E+02 0.  0.
         13    1    3    3    0    0  0.20831237763E+02 -0.53710138607E+02  0.90767155143E+01  0.58319099654E+02  0.10566000000E+00 0. -1.
         22    1    1    0    0    0 -0.76865828348E+01  0.19557132192E+02  0.12251273078E+02  0.24324034766E+02  0.00000000000E+00 0. -1.
</event>
<event>
 5    1  0.2491889E-009  0.9118800E+02  0.7818608E-02  0.1130116E+00
         25   -1    0    0    0    0  0.00000000000E+00  0.00000000000E+00  0.99999998245E-14  0.12500000000E+03  0.12500000000E+03 0.  0.
        -13    1    3    3    0    0  0.39859255184E+02 -0.14557062048E+02 -0.31819610846E+02  0.53039297485E+02  0.10566000000E+00 0.  1.
         23    2    1    0    0    0  0.26282510957E+01 -0.21326498579E+02 -0.25909326106E+02  0.91339631245E+02  0.84911176009E+02 0.  0.
         13    1    3    3    0    0 -0.37231004089E+02 -0.67694365306E+01  0.59102847399E+01  0.38300333760E+02  0.10566000000E+00 0. -1.
         22    1    1    0    0    0 -0.26282510957E+01  0.21326498579E+02  0.25909326106E+02  0.33660368755E+02  0.00000000000E+00 0.  1.
</event>
<event>
 5    1  0.2491889E-009  0.9118800E+02  0.7818608E-02  0.1130116E+00
         25   -1    0    0    0    0  0.00000000000E+00  0.00000000000E+00  0.99999998245E-14  0.12500000000E+03  0.12500000000E+03 0.  0.
        -13    1    3    3    0    0  0.14650648669E+02 -0.41560286578E+02 -0.15001554559E+02  0.46550582489E+02  0.10566000000E+00 0.  1.
         23    2    1    0    0    0  0.17942722976E+02 -0.10706906400E+02  0.21878291096E+02  0.94747086524E+02  0.89787368995E+02 0.  0.
         13    1    3    3    0    0  0.32920743073E+01  0.30853380177E+02  0.36879845655E+02  0.48196504035E+02  0.10566000000E+00 0. -1.
         22    1    1    0    0    0 -0.17942722976E+02  0.10706906400E+02 -0.21878291096E+02  0.30252913476E+02  0.00000000000E+00 0. -1.
</event>
<event>
 5    1  0.2491889E-009  0.9118800E+02  0.7818608E-02  0.1130116E+00
         25   -1    0    0    0    0  0.00000000000E+00  0.00000000000E+00  0.99999998245E-14  0.12500000000E+03  0.12500000000E+03 0.  0.
        -13    1    3    3    0    0  0.30161492813E+02  0.34120000225E+02 -0.16036285744E+02  0.48281090383E+02  0.10566000000E+00 0.  1.
         23    2    1    0    0    0 -0.23729790159E+01  0.23715056448E+02  0.16940095671E+02  0.95759586646E+02  0.91186055193E+02 0.  0.
         13    1    3    3    0    0 -0.32534471829E+02 -0.10404943777E+02  0.32976381415E+02  0.47478496264E+02  0.10566000000E+00 0. -1.
         22    1    1    0    0    0  0.23729790159E+01 -0.23715056448E+02 -0.16940095671E+02  0.29240413354E+02  0.00000000000E+00 0. -1.
</event>
<event>
 5    1  0.2491889E-009  0.9118800E+02  0.7818608E-02  0.1130116E+00
         25   -1    0    0    0    0  0.00000000000E+00  0.00000000000E+00  0.99999998245E-14  0.12500000000E+03  0.12500000000E+03 0.  0.
        -13    1    3    3    0    0 -0.47290562509E+02  0.10766812435E+02  0.23691224456E+01  0.48558680559E+02  0.10566000000E+00 0.  1.
         23    2    1    0    0    0  0.33514848457E+01  0.23086569976E+02  0.63293428031E+01  0.10082805874E+03  0.97887765759E+02 0.  0.
         13    1    3    3    0    0  0.50642047355E+02  0.12319757540E+02  0.39602203575E+01  0.52269378181E+02  0.10566000000E+00 0. -1.
         22    1    1    0    0    0 -0.33514848457E+01 -0.23086569976E+02 -0.63293428031E+01  0.24171941259E+02  0.00000000000E+00 0.  1.
</event>
<event>
 5    1  0.2491889E-009  0.9118800E+02  0.7818608E-02  0.1130116E+00
         25   -1    0    0    0    0  0.00000000000E+00  0.00000000000E+00  0.99999998245E-14  0.12500000000E+03  0.12500000000E+03 0.  0.
        -13    1    3    3    0    0 -0.14997794036E+02  0.43801962030E+02  0.14346876027E+02  0.48470503601E+02  0.10566000000E+00 0.  1.
         23    2    1    0    0    0 -0.27095404857E+02  0.51409033378E+00  0.16148414828E+02  0.93453263962E+02  0.87967698562E+02 0.  0.
         13    1    3    3    0    0 -0.12097610821E+02 -0.43287871696E+02  0.18015388009E+01  0.44982760360E+02  0.10566000000E+00 0. -1.
         22    1    1    0    0    0  0.27095404857E+02 -0.51409033378E+00 -0.16148414828E+02  0.31546736038E+02  0.00000000000E+00 0.  1.
</event>
<event>
 5    1  0.2491889E-009  0.9118800E+02  0.7818608E-02  0.1130116E+00
         25   -1    0    0    0    0  0.00000000000E+00  0.00000000000E+00  0.99999998245E-14  0.12500000000E+03  0.12500000000E+03 0.  0.
        -13    1    3    3    0    0  0.41543066575E+02  0.26762399034E+02  0.10682348668E+02  0.50558640405E+02  0.10566000000E+00 0.  1.
         23    2    1    0    0    0  0.62647142105E+01  0.19041840385E+02 -0.19057011780E+02  0.97341221514E+02  0.93329016809E+02 0.  0.
         13    1    3    3    0    0 -0.35278352364E+02 -0.77205586489E+01 -0.29739360447E+02  0.46782581109E+02  0.10566000000E+00 0. -1.
         22    1    1    0    0    0 -0.62647142105E+01 -0.19041840385E+02  0.19057011780E+02  0.27658778486E+02  0.00000000000E+00 0.  1.
</event>
<event>
 5    1  0.2491889E-009  0.9118800E+02  0.7818608E-02  0.1130116E+00
         25   -1    0    0    0    0  0.00000000000E+00  0.00000000000E+00  0.99999998245E-14  0.12500000000E+03  0.12500000000E+03 0.  0.
        -13    1    3    3    0    0  0.23249587211E+02 -0.34845344896E+02  0.28648419345E+02  0.50749231142E+02  0.10566000000E+00 0.  1.
         23    2    1    0    0    0  0.12188143482E+02 -0.23406192045E+02 -0.13180011854E+02  0.95502315683E+02  0.90832697421E+02 0.  0.
         13    1    3    3    0    0 -0.11061443729E+02  0.11439152851E+02 -0.41828431199E+02  0.44753084541E+02  0.10566000000E+00 0. -1.
         22    1    1    0    0    0 -0.12188143482E+02  0.23406192045E+02  0.13180011854E+02  0.29497684317E+02  0.00000000000E+00 0.  1.
</event>
<event>
 5    1  0.2491889E-009  0.9118800E+02  0.7818608E-02  0.1130116E+00
         25   -1    0    0    0    0  0.00000000000E+00  0.00000000000E+00  0.99999998245E-14  0.12500000000E+03  0.12500000000E+03 0.  0.
        -13    1    3    3    0    0  0.22884385923E+02 -0.42624101008E+02  0.24352866492E+02  0.54162555112E+02  0.10566000000E+00 0. -1.
         23    2    1    0    0    0  0.21087625639E+02 -0.10099850082E+01  0.19786891910E+02  0.96065088280E+02  0.91603886762E+02 0.  0.
         13    1    3    3    0    0 -0.17967602838E+01  0.41614116000E+02 -0.45659745824E+01  0.41902533168E+02  0.10566000000E+00 0.  1.
         22    1    1    0    0    0 -0.21087625639E+02  0.10099850082E+01 -0.19786891910E+02  0.28934911720E+02  0.00000000000E+00 0. -1.
</event>
<event>
 5    1  0.2491889E-009  0.9118800E+02  0.7818608E-02  0.1130116E+00
         25   -1    0    0    0    0  0.00000000000E+00  0.00000000000E+00  0.99999998245E-14  0.12500000000E+03  0.12500000000E+03 0.  0.
        -13    1    3    3    0    0  0.26760656076E+02  0.35521615879E+02 -0.14197798286E+02  0.46685185535E+02  0.10566000000E+00 0.  1.
         23    2    1    0    0    0  0.25233451957E+02 -0.12939486102E+02 -0.77881932762E+01  0.95592290929E+02  0.90956433155E+02 0.  0.
         13    1    3    3    0    0 -0.15272041188E+01 -0.48461101981E+02  0.64096050098E+01  0.48907105394E+02  0.10566000000E+00 0. -1.
         22    1    1    0    0    0 -0.25233451957E+02  0.12939486102E+02  0.77881932762E+01  0.29407709071E+02  0.00000000000E+00 0.  1.
</event>
<event>
 5    1  0.2491889E-009  0.9118800E+02  0.7818608E-02  0.1130116E+00
         25   -1    0    0    0    0  0.00000000000E+00  0.00000000000E+00  0.99999998245E-14  0.12500000000E+03  0.12500000000E+03 0.  0.
        -13    1    3    3    0    0  0.24527731184E+01  0.65789109403E+01 -0.38911570573E+02  0.39540101842E+02  0.10566000000E+00 0.  1.
         23    2    1    0    0    0 -0.28946259276E+02  0.21677091206E+02 -0.44171406614E+01  0.88567962713E+02  0.80727880428E+02 0.  0.
         13    1    3    3    0    0 -0.31399032395E+02  0.15098180266E+02  0.34494429912E+02  0.49027860872E+02  0.10566000000E+00 0. -1.
         22    1    1    0    0    0  0.28946259276E+02 -0.21677091206E+02  0.44171406614E+01  0.36432037287E+02  0.00000000000E+00 0. -1.
</event>
<event>
 5    1  0.2491889E-009  0.9118800E+02  0.7818608E-02  0.1130116E+00
         25   -1    0    0    0    0  0.00000000000E+00  0.00000000000E+00  0.99999998245E-14  0.12500000000E+03  0.12500000000E+03 0.  0.
        -13    1    3    3    0    0  0.52475117134E+02 -0.91135059044E+01  0.27594632153E+02  0.59984738023E+02  0.10566000000E+00 0. -1.
         23    2    1    0    0    0  0.26687844046E+02  0.78416088024E+01  0.10476011077E+02  0.95276631138E+02  0.90521587394E+02 0.  0.
         13    1    3    3    0    0 -0.25787273087E+02  0.16955114707E+02 -0.17118621076E+02  0.35291893114E+02  0.10566000000E+00 0.  1.
         22    1    1    0    0    0 -0.26687844046E+02 -0.78416088024E+01 -0.10476011077E+02  0.29723368862E+02  0.00000000000E+00 0. -1.
</event>
<event>
 5    1  0.2491889E-009  0.9118800E+02  0.7818608E-02  0.1130116E+00
         25   -1    0    0    0    0  0.00000000000E+00  0.00000000000E+00  0.99999998245E-14  0.12500000000E+03  0.12500000000E+03 0.  0.
        -13    1    3    3    0    0 -0.63098759916E+01  0.15817650602E+02  0.31131088414E+02  0.35484763427E+02  0.10566000000E+00 0.  1.
         23    2    1    0    0    0 -0.15671397551E+02 -0.28429118715E+02 -0.33625576282E+01  0.92363911295E+02  0.86405889984E+02 0.  0.
         13    1    3    3    0    0 -0.93615215593E+01 -0.44246769318E+02 -0.34493646042E+02  0.56879147869E+02  0.10566000000E+00 0. -1.
         22    1    1    0    0    0  0.15671397551E+02  0.28429118715E+02  0.33625576282E+01  0.32636088705E+02  0.00000000000E+00 0. -1.
</event>
<event>
 5    1  0.2491889E-009  0.9118800E+02  0.7818608E-02  0.1130116E+00
         25   -1    0    0    0    0  0.00000000000E+00  0.00000000000E+00  0.99999998245E-14  0.12500000000E+03  0.12500000000E+03 0.  0.
        -13    1    3    3    0    0  0.11563085058E+02  0.20808864034E+02  0.50515233200E+02  0.55843654140E+02  0.10566000000E+00 0. -1.
         23    2    1    0    0    0 -0.14347685283E+02  0.51338413389E+01  0.26241958668E+02  0.94654443577E+02  0.89658300755E+02 0.  0.
         13    1    3    3    0    0 -0.25910770341E+02 -0.15675022695E+02 -0.24273274532E+02  0.38810789437E+02  0.10566000000E+00 0.  1.
         22    1    1    0    0    0  0.14347685283E+02 -0.51338413389E+01 -0.26241958668E+02  0.30345556423E+02  0.00000000000E+00 0. -1.
</event>
<event>
 5    1  0.2491889E-009  0.9118800E+02  0.7818608E-02  0.1130116E+00
         25   -1    0    0    0    0  0.00000000000E+00  0.00000000000E+00  0.99999998245E-14  0.12500000000E+03  0.12500000000E+03 0.  0.
        -13    1    3    3    0    0 -0.25852232432E+02  0.37600050532E+01 -0.37546855000E+02  0.45741152632E+02  0.10566000000E+00 0. -1.
         23    2    1    0    0    0 -0.32268517991E+01 -0.27946110171E+02 -0.51578137969E+01  0.96399288656E+02  0.92058797320E+02 0.  0.
         13    1    3    3    0    0  0.22625380633E+02 -0.31706115224E+02  0.32389041203E+02  0.50658136024E+02  0.10566000000E+00 0.  1.
         22    1    1    0    0    0  0.32268517991E+01  0.27946110171E+02  0.51578137969E+01  0.28600711344E+02  0.00000000000E+00 0.  1.
</event>
<event>
 5    1  0.2491889E-009  0.9118800E+02  0.7818608E-02  0.1130116E+00
         25   -1    0    0    0    0  0.00000000000E+00  0.00000000000E+00  0.99999998245E-14  0.12500000000E+03  0.12500000000E+03 0.  0.
        -13    1    3    3    0    0 -0.39085014065E+02  0.26702313171E+01  0.37948178859E+02  0.54542129611E+02  0.10566000000E+00 0.  1.
         23    2    1    0    0    0  0.12733994172E+01  0.35228290444E+01  0.28831277692E+02  0.95926396097E+02  0.91414435536E+02 0.  0.
         13    1    3    3    0    0  0.40358413482E+02  0.85259772730E+00 -0.91169011675E+01  0.41384266486E+02  0.10566000000E+00 0. -1.
         22    1    1    0    0    0 -0.12733994172E+01 -0.35228290444E+01 -0.28831277692E+02  0.29073603903E+02  0.00000000000E+00 0.  1.
</event>
<event>
 5    1  0.2491889E-009  0.9118800E+02  0.7818608E-02  0.1130116E+00
         25   -1    0    0    0    0  0.00000000000E+00  0.00000000000E+00  0.99999998245E-14  0.12500000000E+03  0.12500000000E+03 0.  0.
        -13    1    3    3    0    0  0.16070614373E+02  0.27216400627E+02  0.19307544694E+02  0.37037677513E+02  0.10566000000E+00 0.  1.
         23    2    1    0    0    0 -0.22092193837E+02 -0.13517208573E+02 -0.61399846274E+01  0.98382724269E+02  0.94713679409E+02 0.  0.
         13    1    3    3    0    0 -0.38162808209E+02 -0.40733609200E+02 -0.25447529321E+02  0.61345046756E+02  0.10566000000E+00 0. -1.
         22    1    1    0    0    0  0.22092193837E+02  0.13517208573E+02  0.61399846274E+01  0.26617275731E+02  0.00000000000E+00 0. -1.
</event>
<event>
 5    1  0.2491889E-009  0.9118800E+02  0.7818608E-02  0.1130116E+00
         25   -1    0    0    0    0  0.00000000000E+00  0.00000000000E+00  0.99999998245E-14  0.12500000000E+03  0.12500000000E+03 0.  0.
        -13    1    3    3    0    0  0.12982463293E+02  0.29408650987E+02  0.46421801225E+02  0.56465988869E+02  0.10566000000E+00 0. -1.
         23    2    1    0    0    0 -0.89753353144E+01  0.32057423508E+01  0.28256715267E+02  0.95179279256E+02  0.90387055567E+02 0.  0.
         13    1    3    3    0    0 -0.21957798607E+02 -0.26202908636E+02 -0.18165085958E+02  0.38713290387E+02  0.10566000000E+00 0.  1.
         22    1    1    0    0    0  0.89753353144E+01 -0.32057423508E+01 -0.28256715267E+02  0.29820720744E+02  0.00000000000E+00 0. -1.
</event>
<event>
 5    1  0.2491889E-009  0.9118800E+02  0.7818608E-02  0.1130116E+00
         25   -1    0    0    0    0  0.00000000000E+00  0.00000000000E+00  0.99999998245E-14  0.12500000000E+03  0.12500000000E+03 0.  0.
        -13    1    3    3    0    0  0.31746688457E+01 -0.54674578904E+02 -0.27688526293E+02  0.61368181926E+02  0.10566000000E+00 0. -1.
         23    2    1    0    0    0  0.54975086423E+01 -0.27834445789E+02 -0.58908222504E+01  0.96022754437E+02  0.91546101005E+02 0.  0.
         13    1    3    3    0    0  0.23228397966E+01  0.26840133115E+02  0.21797704042E+02  0.34654572511E+02  0.10566000000E+00 0.  1.
         22    1    1    0    0    0 -0.54975086423E+01  0.27834445789E+02  0.58908222504E+01  0.28977245563E+02  0.00000000000E+00 0. -1.
</event>
<event>
 5    1  0.2491889E-009  0.9118800E+02  0.7818608E-02  0.1130116E+00
         25   -1    0    0    0    0  0.00000000000E+00  0.00000000000E+00  0.99999998245E-14  0.12500000000E+03  0.12500000000E+03 0.  0.
        -13    1    3    3    0    0  0.11211244090E+02  0.34669404401E+02  0.31931373810E+02  0.48448770810E+02  0.10566000000E+00 0.  1.
         23    2    1    0    0    0 -0.24041053700E+02  0.14375258466E+02  0.71095041848E+01  0.96100772178E+02  0.91652567037E+02 0.  0.
         13    1    3    3    0    0 -0.35252297790E+02 -0.20294145935E+02 -0.24821869625E+02  0.47652001368E+02  0.10566000000E+00 0. -1.
         22    1    1    0    0    0  0.24041053700E+02 -0.14375258466E+02 -0.71095041848E+01  0.28899227822E+02  0.00000000000E+00 0.  1.
</event>
<event>
 5    1  0.2491889E-009  0.9118800E+02  0.7818608E-02  0.1130116E+00
         25   -1    0    0    0    0  0.00000000000E+00  0.00000000000E+00  0.99999998245E-14  0.12500000000E+03  0.12500000000E+03 0.  0.
        -13    1    3    3    0    0  0.32846077499E+02 -0.65631335430E+01  0.68739882438E+01  0.34193601849E+02  0.10566000000E+00 0.  1.
         23    2    1    0    0    0 -0.28447065220E+02 -0.65777588167E+01  0.74034703600E+00  0.95792970976E+02  0.91231807742E+02 0.  0.
         13    1    3    3    0    0 -0.61293142719E+02 -0.14625273718E-01 -0.61336412078E+01  0.61599369127E+02  0.10566000000E+00 0. -1.
         22    1    1    0    0    0  0.28447065220E+02  0.65777588167E+01 -0.74034703600E+00  0.29207029024E+02  0.00000000000E+00 0. -1.
</event>
<event>
 5    1  0.2491889E-009  0.9118800E+02  0.7818608E-02  0.1130116E+00
         25   -1    0    0    0    0  0.00000000000E+00  0.00000000000E+00  0.99999998245E-14  0.12500000000E+03  0.12500000000E+03 0.  0.
        -13    1    3    3    0    0 -0.18688848181E+02 -0.19090653184E+02 -0.22484408487E+02  0.34918274218E+02  0.10566000000E+00 0. -1.
         23    2    1    0    0    0  0.30587701822E+02  0.62955118953E+01 -0.32035721829E+01  0.93607264415E+02  0.88186258021E+02 0.  0.
         13    1    3    3    0    0  0.49276550004E+02  0.25386165079E+02  0.19280836304E+02  0.58688990197E+02  0.10566000000E+00 0.  1.
         22    1    1    0    0    0 -0.30587701822E+02 -0.62955118953E+01  0.32035721829E+01  0.31392735585E+02  0.00000000000E+00 0.  1.
</event>
<event>
 5    1  0.2491889E-009  0.9118800E+02  0.7818608E-02  0.1130116E+00
         25   -1    0    0    0    0  0.00000000000E+00  0.00000000000E+00  0.99999998245E-14  0.12500000000E+03  0.12500000000E+03 0.  0.
        -13    1    3    3    0    0 -0.53893973458E+01  0.24223650977E+02  0.30292887686E+02  0.39159942273E+02  0.10566000000E+00 0. -1.
         23    2    1    0    0    0  0.24337815926E+02  0.43331331505E+01 -0.14390527841E+02  0.96395933532E+02  0.92054241527E+02 0.  0.
         13    1    3    3    0    0  0.29727213272E+02 -0.19890517826E+02 -0.44683415527E+02  0.57235991260E+02  0.10566000000E+00 0.  1.
         22    1    1    0    0    0 -0.24337815926E+02 -0.43331331505E+01  0.14390527841E+02  0.28604066468E+02  0.00000000000E+00 0.  1.
</event>
<event>
 5    1  0.2491889E-009  0.9118800E+02  0.7818608E-02  0.1130116E+00
         25   -1    0    0    0    0  0.00000000000E+00  0.00000000000E+00  0.99999998245E-14  0.12500000000E+03  0.12500000000E+03 0.  0.
        -13    1    3    3    0    0  0.78496387958E+01  0.92392472945E+01  0.39731453852E+02  0.41540102420E+02  0.10566000000E+00 0.  1.
         23    2    1    0    0    0  0.10393309310E+02  0.23981631307E+02 -0.12611788309E+02  0.95979374182E+02  0.91486849030E+02 0.  0.
         13    1    3    3    0    0  0.25436705139E+01  0.14742384012E+02 -0.52343242161E+02  0.54439271762E+02  0.10566000000E+00 0. -1.
         22    1    1    0    0    0 -0.10393309310E+02 -0.23981631307E+02  0.12611788309E+02  0.29020625818E+02  0.00000000000E+00 0.  1.
</event>
<event>
 5    1  0.2491889E-009  0.9118800E+02  0.7818608E-02  0.1130116E+00
         25   -1    0    0    0    0  0.00000000000E+00  0.00000000000E+00  0.99999998245E-14  0.12500000000E+03  0.12500000000E+03 0.  0.
        -13    1    3    3    0    0  0.35141969353E+02  0.40553456436E+02  0.89192567817E+01  0.54397657528E+02  0.10566000000E+00 0.  1.
         23    2    1    0    0    0 -0.29406555993E+01  0.28310440180E+02 -0.35933619953E+01  0.96311313572E+02  0.91939264697E+02 0.  0.
         13    1    3    3    0    0 -0.38082624952E+02 -0.12243016256E+02 -0.12512618777E+02  0.41913656044E+02  0.10566000000E+00 0. -1.
         22    1    1    0    0    0  0.29406555993E+01 -0.28310440180E+02  0.35933619953E+01  0.28688686428E+02  0.00000000000E+00 0. -1.
</event>
<event>
 5    1  0.2491889E-009  0.9118800E+02  0.7818608E-02  0.1130116E+00
         25   -1    0    0    0    0  0.00000000000E+00  0.00000000000E+00  0.99999998245E-14  0.12500000000E+03  0.12500000000E+03 0.  0.
        -13    1    3    3    0    0 -0.53541951421E+02  0.11033555949E+02  0.11856409983E+01  0.54679949044E+02  0.10566000000E+00 0. -1.
         23    2    1    0    0    0 -0.21830485185E+02 -0.14902844903E+02 -0.93197269035E+01  0.96972831410E+02  0.92834303210E+02 0.  0.
         13    1    3    3    0    0  0.31711466236E+02 -0.25936400852E+02 -0.10505367902E+02  0.42292882366E+02  0.10566000000E+00 0.  1.
         22    1    1    0    0    0  0.21830485185E+02  0.14902844903E+02  0.93197269035E+01  0.28027168590E+02  0.00000000000E+00 0. -1.
</event>
<event>
 5    1  0.2491889E-009  0.9118800E+02  0.7818608E-02  0.1130116E+00
         25   -1    0    0    0    0  0.00000000000E+00  0.00000000000E+00  0.99999998245E-14  0.12500000000E+03  0.12500000000E+03 0.  0.
        -13    1    3    3    0    0  0.26057141809E+01 -0.50487003676E+01 -0.34880819206E+02  0.35340654130E+02  0.10566000000E+00 0.  1.
         23    2    1    0    0    0  0.89834728800E+00 -0.25791313829E+02  0.18902659119E+02  0.93010792154E+02  0.87336693539E+02 0.  0.
         13    1    3    3    0    0 -0.17073668929E+01 -0.20742613461E+02  0.53783478325E+02  0.57670138024E+02  0.10566000000E+00 0. -1.
         22    1    1    0    0    0 -0.89834728800E+00  0.25791313829E+02 -0.18902659119E+02  0.31989207846E+02  0.00000000000E+00 0.  1.
</event>
<event>
 5    1  0.2491889E-009  0.9118800E+02  0.7818608E-02  0.1130116E+00
         25   -1    0    0    0    0  0.00000000000E+00  0.00000000000E+00  0.99999998245E-14  0.12500000000E+03  0.12500000000E+03 0.  0.
        -13    1    3    3    0    0 -0.17964721658E+02 -0.14362432001E+02 -0.40106337380E+02  0.46233539117E+02  0.10566000000E+00 0. -1.
         23    2    1    0    0    0 -0.28289361466E+02  0.43962337621E+01  0.47885811158E+01  0.95973368219E+02  0.91478642616E+02 0.  0.
         13    1    3    3    0    0 -0.10324639808E+02  0.18758665763E+02  0.44894918496E+02  0.49739829102E+02  0.10566000000E+00 0.  1.
         22    1    1    0    0    0  0.28289361466E+02 -0.43962337621E+01 -0.47885811158E+01  0.29026631781E+02  0.00000000000E+00 0. -1.
</event>
<event>
 5    1  0.2491889E-009  0.9118800E+02  0.7818608E-02  0.1130116E+00
         25   -1    0    0    0    0  0.00000000000E+00  0.00000000000E+00  0.99999998245E-14  0.12500000000E+03  0.12500000000E+03 0.  0.
        -13    1    3    3    0    0 -0.70877954472E+01  0.10996574870E+02 -0.51488905211E+02  0.53125135549E+02  0.10566000000E+00 0. -1.
         23    2    1    0    0    0 -0.34816797714E+01  0.24300129816E+02 -0.73369423676E+01  0.99378736830E+02  0.96019186663E+02 0.  0.
         13    1    3    3    0    0  0.36061156758E+01  0.13303554946E+02  0.44151962844E+02  0.46253601281E+02  0.10566000000E+00 0.  1.
         22    1    1    0    0    0  0.34816797714E+01 -0.24300129816E+02  0.73369423676E+01  0.25621263170E+02  0.00000000000E+00 0.  1.
</event>
<event>
 5    1  0.2491889E-009  0.9118800E+02  0.7818608E-02  0.1130116E+00
         25   -1    0    0    0    0  0.00000000000E+00  0.00000000000E+00  0.99999998245E-14  0.12500000000E+03  0.12500000000E+03 0.  0.
        -13    1    3    3    0    0  0.80450638522E+01  0.21066616558E+02 -0.49307241459E+02  0.54219374857E+02  0.10566000000E+00 0.  1.
         23    2    1    0    0    0  0.27494057948E+01 -0.12545867170E+02 -0.27537471819E+02  0.94614635605E+02  0.89602784003E+02 0.  0.
         13    1    3    3    0    0 -0.52956580574E+01 -0.33612483728E+02  0.21769769640E+02  0.40395260747E+02  0.10566000000E+00 0. -1.
         22    1    1    0    0    0 -0.27494057948E+01  0.12545867170E+02  0.27537471819E+02  0.30385364395E+02  0.00000000000E+00 0.  1.
</event>
<event>
 5    1  0.2491889E-009  0.9118800E+02  0.7818608E-02  0.1130116E+00
         25   -1    0    0    0    0  0.00000000000E+00  0.00000000000E+00  0.99999998245E-14  0.12500000000E+03  0.12500000000E+03 0.  0.
        -13    1    3    3    0    0 -0.11422619336E+01  0.14626147849E+02 -0.43515085747E+02  0.45921703092E+02  0.10566000000E+00 0. -1.
         23    2    1    0    0    0 -0.28356435077E+02  0.25079780339E+01 -0.27663092040E+01  0.96398779209E+02  0.92058105576E+02 0.  0.
         13    1    3    3    0    0 -0.27214173144E+02 -0.12118169815E+02  0.40748776543E+02  0.50477076117E+02  0.10566000000E+00 0.  1.
         22    1    1    0    0    0  0.28356435077E+02 -0.25079780339E+01  0.27663092040E+01  0.28601220791E+02  0.00000000000E+00 0.  1.
</event>
<event>
 5    1  0.2491889E-009  0.9118800E+02  0.7818608E-02  0.1130116E+00
         25   -1    0    0    0    0  0.00000000000E+00  0.00000000000E+00  0.99999998245E-14  0.12500000000E+03  0.12500000000E+03 0.  0.
        -13    1    3    3    0    0 -0.32348354464E+02  0.14136757099E+02 -0.57890475897E+01  0.35774127157E+02  0.10566000000E+00 0.  1.
         23    2    1    0    0    0  0.90924002713E+01 -0.22247795201E+02  0.17121735395E+02  0.95490849607E+02  0.90816916936E+02 0.  0.
         13    1    3    3    0    0  0.41440754735E+02 -0.36384552300E+02  0.22910782985E+02  0.59716722450E+02  0.10566000000E+00 0. -1.
         22    1    1    0    0    0 -0.90924002713E+01  0.22247795201E+02 -0.17121735395E+02  0.29509150393E+02  0.00000000000E+00 0. -1.
</event>
<event>
 5    1  0.2491889E-009  0.9118800E+02  0.7818608E-02  0.1130116E+00
         25   -1    0    0    0    0  0.00000000000E+00  0.00000000000E+00  0.99999998245E-14  0.12500000000E+03  0.12500000000E+03 0.  0.
        -13    1    3    3    0    0 -0.52226584961E+02  0.39310726559E+01  0.76826012757E+01  0.52934894308E+02  0.10566000000E+00 0.  1.
         23    2    1    0    0    0 -0.22400446995E+02 -0.18887351147E+02  0.16308631695E+02  0.91466680351E+02  0.85098002842E+02 0.  0.
         13    1    3    3    0    0  0.29826137966E+02 -0.22818423803E+02  0.86260304191E+01  0.38531786043E+02  0.10566000000E+00 0. -1.
         22    1    1    0    0    0  0.22400446995E+02  0.18887351147E+02 -0.16308631695E+02  0.33533319649E+02  0.00000000000E+00 0.  1.
</event>
<event>
 5    1  0.2491889E-009  0.9118800E+02  0.7818608E-02  0.1130116E+00
         25   -1    0    0    0    0  0.00000000000E+00  0.00000000000E+00  0.99999998245E-14  0.12500000000E+03  0.12500000000E+03 0.  0.
        -13    1    3    3    0    0 -0.52347790100E+02  0.26312991728E+02  0.65411828386E+01  0.58953056740E+02  0.10566000000E+00 0. -1.
         23    2    1    0    0    0 -0.26363070059E+02  0.29292093445E+01  0.14450308187E+02  0.94793988396E+02  0.89852641024E+02 0.  0.
         13    1    3    3    0    0  0.25984720041E+02 -0.23383782383E+02  0.79091253488E+01  0.35840931656E+02  0.10566000000E+00 0.  1.
         22    1    1    0    0    0  0.26363070059E+02 -0.29292093445E+01 -0.14450308187E+02  0.30206011604E+02  0.00000000000E+00 0. -1.
</event>
<event>
 5    1  0.2491889E-009  0.9118800E+02  0.7818608E-02  0.1130116E+00
         25   -1    0    0    0    0  0.00000000000E+00  0.00000000000E+00  0.99999998245E-14  0.12500000000E+03  0.12500000000E+03 0.  0.
        -13    1    3    3    0    0 -0.25150595329E+02  0.24087180880E+02 -0.29019456279E+02  0.45330836468E+02  0.10566000000E+00 0. -1.
         23    2    1    0    0    0 -0.14196094807E+02  0.59686546595E+01  0.20600742803E+02  0.99279491641E+02  0.95889899939E+02 0.  0.
         13    1    3    3    0    0  0.10954500522E+02 -0.18118526221E+02  0.49620199081E+02  0.53948655173E+02  0.10566000000E+00 0.  1.
         22    1    1    0    0    0  0.14196094807E+02 -0.59686546595E+01 -0.20600742803E+02  0.25720508359E+02  0.00000000000E+00 0.  1.
</event>
<event>
 5    1  0.2491889E-009  0.9118800E+02  0.7818608E-02  0.1130116E+00
         25   -1    0    0    0    0  0.00000000000E+00  0.00000000000E+00  0.99999998245E-14  0.12500000000E+03  0.12500000000E+03 0.  0.
        -13    1    3    3    0    0 -0.81562898304E+01 -0.39540139161E+02 -0.30329909094E+02  0.50496160432E+02  0.10566000000E+00 0. -1.
         23    2    1    0    0    0  0.15088457046E+02 -0.14175225635E+02 -0.34100383488E+02  0.85107209776E+02  0.75178470615E+02 0.  0.
         13    1    3    3    0    0  0.23244746877E+02  0.25364913526E+02 -0.37704743935E+01  0.34611049344E+02  0.10566000000E+00 0.  1.
         22    1    1    0    0    0 -0.15088457046E+02  0.14175225635E+02  0.34100383488E+02  0.39892790224E+02  0.00000000000E+00 0. -1.
</event>
<event>
 5    1  0.2491889E-009  0.9118800E+02  0.7818608E-02  0.1130116E+00
         25   -1    0    0    0    0  0.00000000000E+00  0.00000000000E+00  0.99999998245E-14  0.12500000000E+03  0.12500000000E+03 0.  0.
        -13    1    3    3    0    0  0.18615046870E+02 -0.29511281835E+02 -0.16460900947E+02  0.38579893073E+02  0.10566000000E+00 0.  1.
         23    2    1    0    0    0  0.10082170969E+02  0.68890672024E+01  0.26674778770E+02  0.95663107854E+02  0.91053703733E+02 0.  0.
         13    1    3    3    0    0 -0.85328759011E+01  0.36400349037E+02  0.43135679716E+02  0.57083214781E+02  0.10566000000E+00 0. -1.
         22    1    1    0    0    0 -0.10082170969E+02 -0.68890672024E+01 -0.26674778770E+02  0.29336892146E+02  0.00000000000E+00 0. -1.
</event>
<event>
 5    1  0.2491889E-009  0.9118800E+02  0.7818608E-02  0.1130116E+00
         25   -1    0    0    0    0  0.00000000000E+00  0.00000000000E+00  0.99999998245E-14  0.12500000000E+03  0.12500000000E+03 0.  0.
        -13    1    3    3    0    0 -0.12143210890E-01  0.29389573090E+02 -0.66816667671E+01  0.30139724430E+02  0.10566000000E+00 0.  1.
         23    2    1    0    0    0 -0.62957426033E+01 -0.29930277548E+02 -0.15947352513E+02  0.90506871102E+02  0.83676267696E+02 0.  0.
         13    1    3    3    0    0 -0.62835993924E+01 -0.59319850638E+02 -0.92656857454E+01  0.60367146672E+02  0.10566000000E+00 0. -1.
         22    1    1    0    0    0  0.62957426033E+01  0.29930277548E+02  0.15947352513E+02  0.34493128898E+02  0.00000000000E+00 0. -1.
</event>
<event>
 4    1  0.2491889E-009  0.9118800E+02  0.7818608E-02  0.1130116E+00
         25   -1    0    0    0    0  0.00000000000E+00  0.00000000000E+00  0.99999998245E-14  0.12500000000E+03  0.12500000000E+03 0.  0.
        -13    1    1    0    0    0  0.18209463575E+02 -0.28628421188E+02 -0.12329313965E+02  0.36099781306E+02  0.10566000000E+00 0. -1.
         13    1    1    0    0    0  0.27284010571E+02 -0.63867674816E+01 -0.59606820460E+01  0.28648715961E+02  0.10566000000E+00 0.  1.
         22    1    1    0    0    0 -0.45493474147E+02  0.35015188670E+02  0.18289996011E+02  0.60251502733E+02  0.00000000000E+00 0. -1.
</event>
<event>
 5    1  0.2491889E-009  0.9118800E+02  0.7818608E-02  0.1130116E+00
         25   -1    0    0    0    0  0.00000000000E+00  0.00000000000E+00  0.99999998245E-14  0.12500000000E+03  0.12500000000E+03 0.  0.
        -13    1    3    3    0    0 -0.32743355496E+01  0.21130921239E+02 -0.38348512155E+02  0.43907364465E+02  0.10566000000E+00 0. -1.
         23    2    1    0    0    0 -0.79392217488E+01  0.24496233646E+02  0.13397775495E+02  0.95972476973E+02  0.91477424774E+02 0.  0.
         13    1    3    3    0    0 -0.46648861993E+01  0.33653124077E+01  0.51746287651E+02  0.52065112508E+02  0.10566000000E+00 0.  1.
         22    1    1    0    0    0  0.79392217488E+01 -0.24496233646E+02 -0.13397775495E+02  0.29027523027E+02  0.00000000000E+00 0.  1.
</event>
<event>
 5    1  0.2491889E-009  0.9118800E+02  0.7818608E-02  0.1130116E+00
         25   -1    0    0    0    0  0.00000000000E+00  0.00000000000E+00  0.99999998245E-14  0.12500000000E+03  0.12500000000E+03 0.  0.
        -13    1    3    3    0    0  0.17069036540E+02  0.31406714622E+02 -0.36036547798E+02  0.50758030626E+02  0.10566000000E+00 0.  1.
         23    2    1    0    0    0 -0.11306694880E+02  0.15498203847E+02  0.68876893539E+01  0.10461677316E+03  0.10261185746E+03 0.  0.
         13    1    3    3    0    0 -0.28375731420E+02 -0.15908510775E+02  0.42924237152E+02  0.53858742538E+02  0.10566000000E+00 0. -1.
         22    1    1    0    0    0  0.11306694880E+02 -0.15498203847E+02 -0.68876893539E+01  0.20383226836E+02  0.00000000000E+00 0. -1.
</event>
<event>
 5    1  0.2491889E-009  0.9118800E+02  0.7818608E-02  0.1130116E+00
         25   -1    0    0    0    0  0.00000000000E+00  0.00000000000E+00  0.99999998245E-14  0.12500000000E+03  0.12500000000E+03 0.  0.
        -13    1    3    3    0    0  0.13756763524E+02  0.30914989970E+02  0.74520357459E+01  0.34648652907E+02  0.10566000000E+00 0.  1.
         23    2    1    0    0    0 -0.10804404594E+02 -0.22857248801E+02 -0.12176621005E+02  0.96938298689E+02  0.92787793767E+02 0.  0.
         13    1    3    3    0    0 -0.24561168118E+02 -0.53772238771E+02 -0.19628656751E+02  0.62289645782E+02  0.10566000000E+00 0. -1.
         22    1    1    0    0    0  0.10804404594E+02  0.22857248801E+02  0.12176621005E+02  0.28061701311E+02  0.00000000000E+00 0. -1.
</event>
<event>
 5    1  0.2491889E-009  0.9118800E+02  0.7818608E-02  0.1130116E+00
         25   -1    0    0    0    0  0.00000000000E+00  0.00000000000E+00  0.99999998245E-14  0.12500000000E+03  0.12500000000E+03 0.  0.
        -13    1    3    3    0    0 -0.25968376476E+02 -0.25222516340E+02 -0.46721153807E+02  0.59105069870E+02  0.10566000000E+00 0. -1.
         23    2    1    0    0    0 -0.17827361695E+02 -0.20095221804E+02 -0.11218601567E+02  0.95888322180E+02  0.91362358469E+02 0.  0.
         13    1    3    3    0    0  0.81410147806E+01  0.51272945361E+01  0.35502552240E+02  0.36783252310E+02  0.10566000000E+00 0.  1.
         22    1    1    0    0    0  0.17827361695E+02  0.20095221804E+02  0.11218601567E+02  0.29111677820E+02  0.00000000000E+00 0. -1.
</event>
<event>
 5    1  0.2491889E-009  0.9118800E+02  0.7818608E-02  0.1130116E+00
         25   -1    0    0    0    0  0.00000000000E+00  0.00000000000E+00  0.99999998245E-14  0.12500000000E+03  0.12500000000E+03 0.  0.
        -13    1    3    3    0    0 -0.34507052480E+02  0.18582662435E+02 -0.15235453789E+02  0.42049758979E+02  0.10566000000E+00 0.  1.
         23    2    1    0    0    0 -0.12803728092E+02 -0.27423662543E+02 -0.96970660174E+01  0.93219096777E+02  0.87634320869E+02 0.  0.
         13    1    3    3    0    0  0.21703324388E+02 -0.46006324978E+02  0.55383877717E+01  0.51169337797E+02  0.10566000000E+00 0. -1.
         22    1    1    0    0    0  0.12803728092E+02  0.27423662543E+02  0.96970660174E+01  0.31780903223E+02  0.00000000000E+00 0. -1.
</event>
<event>
 5    1  0.2491889E-009  0.9118800E+02  0.7818608E-02  0.1130116E+00
         25   -1    0    0    0    0  0.00000000000E+00  0.00000000000E+00  0.99999998245E-14  0.12500000000E+03  0.12500000000E+03 0.  0.
        -13    1    3    3    0    0 -0.38101397009E+02 -0.73386722357E+01  0.38244867091E+01  0.38989875953E+02  0.10566000000E+00 0. -1.
         23    2    1    0    0    0  0.15231677480E+02 -0.19379209222E+02  0.16783167383E+02  0.95179999055E+02  0.90388051001E+02 0.  0.
         13    1    3    3    0    0  0.53333074489E+02 -0.12040536986E+02  0.12958680674E+02  0.56190123102E+02  0.10566000000E+00 0.  1.
         22    1    1    0    0    0 -0.15231677480E+02  0.19379209222E+02 -0.16783167383E+02  0.29820000945E+02  0.00000000000E+00 0.  1.
</event>
<event>
 5    1  0.2491889E-009  0.9118800E+02  0.7818608E-02  0.1130116E+00
         25   -1    0    0    0    0  0.00000000000E+00  0.00000000000E+00  0.99999998245E-14  0.12500000000E+03  0.12500000000E+03 0.  0.
        -13    1    3    3    0    0 -0.91087396765E+01  0.14320318067E+02 -0.41281967564E+02  0.44634657589E+02  0.10566000000E+00 0.  1.
         23    2    1    0    0    0  0.48809452617E+01 -0.25855805157E+02 -0.13715013005E+02  0.95327658187E+02  0.90592022534E+02 0.  0.
         13    1    3    3    0    0  0.13989684938E+02 -0.40176123224E+02  0.27566954559E+02  0.50693000598E+02  0.10566000000E+00 0. -1.
         22    1    1    0    0    0 -0.48809452617E+01  0.25855805157E+02  0.13715013005E+02  0.29672341813E+02  0.00000000000E+00 0. -1.
</event>
<event>
 5    1  0.2491889E-009  0.9118800E+02  0.7818608E-02  0.1130116E+00
         25   -1    0    0    0    0  0.00000000000E+00  0.00000000000E+00  0.99999998245E-14  0.12500000000E+03  0.12500000000E+03 0.  0.
        -13    1    3    3    0    0  0.47945449255E+02  0.30083776485E+02  0.19368161856E+02  0.59824213907E+02  0.10566000000E+00 0.  1.
         23    2    1    0    0    0  0.13512881204E+02  0.21538027889E+02  0.14761896154E+02  0.95599350657E+02  0.90966134710E+02 0.  0.
         13    1    3    3    0    0 -0.34432568051E+02 -0.85457485965E+01 -0.46062657024E+01  0.35775136749E+02  0.10566000000E+00 0. -1.
         22    1    1    0    0    0 -0.13512881204E+02 -0.21538027889E+02 -0.14761896154E+02  0.29400649343E+02  0.00000000000E+00 0.  1.
</event>
<event>
 5    1  0.2491889E-009  0.9118800E+02  0.7818608E-02  0.1130116E+00
         25   -1    0    0    0    0  0.00000000000E+00  0.00000000000E+00  0.99999998245E-14  0.12500000000E+03  0.12500000000E+03 0.  0.
        -13    1    3    3    0    0 -0.27448560489E+02 -0.15948112526E+02 -0.16770756495E+02  0.35903136403E+02  0.10566000000E+00 0. -1.
         23    2    1    0    0    0  0.25311088340E+02  0.10728076123E+02  0.53415245400E+00  0.97504034312E+02  0.93546825590E+02 0.  0.
         13    1    3    3    0    0  0.52759648829E+02  0.26676188650E+02  0.17304908949E+02  0.61600897909E+02  0.10566000000E+00 0.  1.
         22    1    1    0    0    0 -0.25311088340E+02 -0.10728076123E+02 -0.53415245400E+00  0.27495965688E+02  0.00000000000E+00 0.  1.
</event>
<event>
 5    1  0.2491889E-009  0.9118800E+02  0.7818608E-02  0.1130116E+00
         25   -1    0    0    0    0  0.00000000000E+00  0.00000000000E+00  0.99999998245E-14  0.12500000000E+03  0.12500000000E+03 0.  0.
        -13    1    3    3    0    0  0.38161764620E+02  0.42302743271E+00  0.26967010053E+02  0.46730397242E+02  0.10566000000E+00 0.  1.
         23    2    1    0    0    0  0.18527014093E+02 -0.19068171002E+02 -0.13052474259E+02  0.95382226943E+02  0.90667285919E+02 0.  0.
         13    1    3    3    0    0 -0.19634750528E+02 -0.19491198435E+02 -0.40019484312E+02  0.48651829702E+02  0.10566000000E+00 0. -1.
         22    1    1    0    0    0 -0.18527014093E+02  0.19068171002E+02  0.13052474259E+02  0.29617773057E+02  0.00000000000E+00 0. -1.
</event>
<event>
 5    1  0.2491889E-009  0.9118800E+02  0.7818608E-02  0.1130116E+00
         25   -1    0    0    0    0  0.00000000000E+00  0.00000000000E+00  0.99999998245E-14  0.12500000000E+03  0.12500000000E+03 0.  0.
        -13    1    3    3    0    0  0.41471972825E+02 -0.44016955282E+02  0.73238942533E+00  0.60481108130E+02  0.10566000000E+00 0. -1.
         23    2    1    0    0    0  0.25333321085E+02 -0.11412049403E+02  0.36389425387E+01  0.96977617311E+02  0.92840747131E+02 0.  0.
         13    1    3    3    0    0 -0.16138651740E+02  0.32604905879E+02  0.29065531134E+01  0.36496509181E+02  0.10566000000E+00 0.  1.
         22    1    1    0    0    0 -0.25333321085E+02  0.11412049403E+02 -0.36389425387E+01  0.28022382689E+02  0.00000000000E+00 0. -1.
</event>
<event>
 5    1  0.2491889E-009  0.9118800E+02  0.7818608E-02  0.1130116E+00
         25   -1    0    0    0    0  0.00000000000E+00  0.00000000000E+00  0.99999998245E-14  0.12500000000E+03  0.12500000000E+03 0.  0.
        -13    1    3    3    0    0  0.27917133731E+02  0.30354575780E+02  0.13923101085E+01  0.41263983303E+02  0.10566000000E+00 0.  1.
         23    2    1    0    0    0 -0.21935431678E+02  0.21880864682E+02  0.97533705848E+01  0.92518256821E+02  0.86628887823E+02 0.  0.
         13    1    3    3    0    0 -0.49852565409E+02 -0.84737110972E+01  0.83610604763E+01  0.51254273519E+02  0.10566000000E+00 0. -1.
         22    1    1    0    0    0  0.21935431678E+02 -0.21880864682E+02 -0.97533705848E+01  0.32481743179E+02  0.00000000000E+00 0. -1.
</event>
<event>
 5    1  0.2491889E-009  0.9118800E+02  0.7818608E-02  0.1130116E+00
         25   -1    0    0    0    0  0.00000000000E+00  0.00000000000E+00  0.99999998245E-14  0.12500000000E+03  0.12500000000E+03 0.  0.
        -13    1    3    3    0    0  0.13533619028E+02 -0.46165224778E+02  0.37916339664E+02  0.61253953344E+02  0.10566000000E+00 0.  1.
         23    2    1    0    0    0  0.11254246169E+02 -0.17207488481E+02  0.23795671806E+02  0.93551793161E+02  0.88107594964E+02 0.  0.
         13    1    3    3    0    0 -0.22793728586E+01  0.28957736296E+02 -0.14120667858E+02  0.32297839817E+02  0.10566000000E+00 0. -1.
         22    1    1    0    0    0 -0.11254246169E+02  0.17207488481E+02 -0.23795671806E+02  0.31448206839E+02  0.00000000000E+00 0.  1.
</event>
<event>
 5    1  0.2491889E-009  0.9118800E+02  0.7818608E-02  0.1130116E+00
         25   -1    0    0    0    0  0.00000000000E+00  0.00000000000E+00  0.99999998245E-14  0.12500000000E+03  0.12500000000E+03 0.  0.
        -13    1    3    3    0    0 -0.99512516739E+00 -0.24374811022E+02  0.36806525189E+02  0.44157141517E+02  0.10566000000E+00 0. -1.
         23    2    1    0    0    0 -0.21236864544E+01  0.23475696183E+02  0.16902339161E+02  0.95994700061E+02  0.91507786638E+02 0.  0.
         13    1    3    3    0    0 -0.11285612870E+01  0.47850507205E+02 -0.19904186028E+02  0.51837558544E+02  0.10566000000E+00 0.  1.
         22    1    1    0    0    0  0.21236864544E+01 -0.23475696183E+02 -0.16902339161E+02  0.29005299939E+02  0.00000000000E+00 0.  1.
</event>
<event>
 5    1  0.2491889E-009  0.9118800E+02  0.7818608E-02  0.1130116E+00
         25   -1    0    0    0    0  0.00000000000E+00  0.00000000000E+00  0.99999998245E-14  0.12500000000E+03  0.12500000000E+03 0.  0.
        -13    1    3    3    0    0  0.85428584055E+01 -0.28394112109E+02  0.53218452024E+02  0.60921431632E+02  0.10566000000E+00 0. -1.
         23    2    1    0    0    0 -0.10222550979E+00 -0.21636396228E+02  0.21445174730E+02  0.94536257437E+02  0.89493376063E+02 0.  0.
         13    1    3    3    0    0 -0.86450839153E+01  0.67577158815E+01 -0.31773277294E+02  0.33614825805E+02  0.10566000000E+00 0.  1.
         22    1    1    0    0    0  0.10222550979E+00  0.21636396228E+02 -0.21445174730E+02  0.30463742563E+02  0.00000000000E+00 0. -1.
</event>
<event>
 5    1  0.2491889E-009  0.9118800E+02  0.7818608E-02  0.1130116E+00
         25   -1    0    0    0    0  0.00000000000E+00  0.00000000000E+00  0.99999998245E-14  0.12500000000E+03  0.12500000000E+03 0.  0.
        -13    1    3    3    0    0  0.50115416304E+02  0.14353695514E+01 -0.25564479726E+02  0.56277606779E+02  0.10566000000E+00 0.  1.
         23    2    1    0    0    0  0.26806397956E+02  0.13530296348E+02  0.26912183105E+01  0.94852122021E+02  0.89933478223E+02 0.  0.
         13    1    3    3    0    0 -0.23309018348E+02  0.12094926796E+02  0.28255698037E+02  0.38574515242E+02  0.10566000000E+00 0. -1.
         22    1    1    0    0    0 -0.26806397956E+02 -0.13530296348E+02 -0.26912183105E+01  0.30147877979E+02  0.00000000000E+00 0.  1.
</event>
<event>
 5    1  0.2491889E-009  0.9118800E+02  0.7818608E-02  0.1130116E+00
         25   -1    0    0    0    0  0.00000000000E+00  0.00000000000E+00  0.99999998245E-14  0.12500000000E+03  0.12500000000E+03 0.  0.
        -13    1    3    3    0    0 -0.15895737113E+02  0.11550603352E+01  0.83231844635E+01  0.17980411185E+02  0.10566000000E+00 0. -1.
         23    2    1    0    0    0 -0.11902326667E+02 -0.22284160220E+02 -0.43329661463E+02  0.74843158600E+02  0.55549884338E+02 0.  0.
         13    1    3    3    0    0  0.39934104464E+01 -0.23439220555E+02 -0.51652845926E+02  0.56862747415E+02  0.10566000000E+00 0.  1.
         22    1    1    0    0    0  0.11902326667E+02  0.22284160220E+02  0.43329661463E+02  0.50156841400E+02  0.00000000000E+00 0.  1.
</event>
<event>
 5    1  0.2491889E-009  0.9118800E+02  0.7818608E-02  0.1130116E+00
         25   -1    0    0    0    0  0.00000000000E+00  0.00000000000E+00  0.99999998245E-14  0.12500000000E+03  0.12500000000E+03 0.  0.
        -13    1    3    3    0    0  0.19608139240E+02  0.27924129242E+02  0.17627603212E+02  0.38405464160E+02  0.10566000000E+00 0.  1.
         23    2    1    0    0    0 -0.27373911284E+01 -0.25718653524E+02  0.11003430892E+02  0.96892742206E+02  0.92726401589E+02 0.  0.
         13    1    3    3    0    0 -0.22345530368E+02 -0.53642782766E+02 -0.66241723200E+01  0.58487278046E+02  0.10566000000E+00 0. -1.
         22    1    1    0    0    0  0.27373911284E+01  0.25718653524E+02 -0.11003430892E+02  0.28107257794E+02  0.00000000000E+00 0. -1.
</event>
<event>
 5    1  0.2491889E-009  0.9118800E+02  0.7818608E-02  0.1130116E+00
         25   -1    0    0    0    0  0.00000000000E+00  0.00000000000E+00  0.99999998245E-14  0.12500000000E+03  0.12500000000E+03 0.  0.
        -13    1    3    3    0    0 -0.15578819593E+02  0.18455413819E+02  0.51999362695E+02  0.57334516688E+02  0.10566000000E+00 0. -1.
         23    2    1    0    0    0  0.71789996665E+01 -0.17710408249E+01  0.27817865809E+02  0.96216180240E+02  0.91809830954E+02 0.  0.
         13    1    3    3    0    0  0.22757819259E+02 -0.20226454644E+02 -0.24181496885E+02  0.38881663552E+02  0.10566000000E+00 0.  1.
         22    1    1    0    0    0 -0.71789996665E+01  0.17710408249E+01 -0.27817865809E+02  0.28783819760E+02  0.00000000000E+00 0. -1.
</event>
<event>
 5    1  0.2491889E-009  0.9118800E+02  0.7818608E-02  0.1130116E+00
         25   -1    0    0    0    0  0.00000000000E+00  0.00000000000E+00  0.99999998245E-14  0.12500000000E+03  0.12500000000E+03 0.  0.
        -13    1    3    3    0    0  0.20363876486E+02  0.26236150372E+02 -0.51907010538E+01  0.33615139348E+02  0.10566000000E+00 0.  1.
         23    2    1    0    0    0 -0.18890570127E+02 -0.19075346896E+02  0.11422268000E+02  0.95824827247E+02  0.91275444736E+02 0.  0.
         13    1    3    3    0    0 -0.39254446614E+02 -0.45311497268E+02  0.16612969054E+02  0.62209687899E+02  0.10566000000E+00 0. -1.
         22    1    1    0    0    0  0.18890570127E+02  0.19075346896E+02 -0.11422268000E+02  0.29175172753E+02  0.00000000000E+00 0. -1.
</event>
<event>
 5    1  0.2491889E-009  0.9118800E+02  0.7818608E-02  0.1130116E+00
         25   -1    0    0    0    0  0.00000000000E+00  0.00000000000E+00  0.99999998245E-14  0.12500000000E+03  0.12500000000E+03 0.  0.
        -13    1    3    3    0    0 -0.12836367400E+02 -0.39581143789E+02  0.30618806891E+02  0.51661995424E+02  0.10566000000E+00 0. -1.
         23    2    1    0    0    0 -0.72808897042E+01 -0.26384201934E+02 -0.10868389552E+02  0.95550732470E+02  0.90899302074E+02 0.  0.
         13    1    3    3    0    0  0.55554776961E+01  0.13196941855E+02 -0.41487196443E+02  0.43888737046E+02  0.10566000000E+00 0.  1.
         22    1    1    0    0    0  0.72808897042E+01  0.26384201934E+02  0.10868389552E+02  0.29449267530E+02  0.00000000000E+00 0. -1.
</event>
<event>
 5    1  0.2491889E-009  0.9118800E+02  0.7818608E-02  0.1130116E+00
         25   -1    0    0    0    0  0.00000000000E+00  0.00000000000E+00  0.99999998245E-14  0.12500000000E+03  0.12500000000E+03 0.  0.
        -13    1    3    3    0    0  0.16024594903E+02 -0.24903214374E+02  0.25784547441E+02  0.39265911154E+02  0.10566000000E+00 0.  1.
         23    2    1    0    0    0 -0.11724993658E+02 -0.13378876167E+02 -0.22610404495E+02  0.96230220800E+02  0.91828945328E+02 0.  0.
         13    1    3    3    0    0 -0.27749588561E+02  0.11524338208E+02 -0.48394951936E+02  0.56964309646E+02  0.10566000000E+00 0. -1.
         22    1    1    0    0    0  0.11724993658E+02  0.13378876167E+02  0.22610404495E+02  0.28769779200E+02  0.00000000000E+00 0. -1.
</event>
<event>
 5    1  0.2491889E-009  0.9118800E+02  0.7818608E-02  0.1130116E+00
         25   -1    0    0    0    0  0.00000000000E+00  0.00000000000E+00  0.99999998245E-14  0.12500000000E+03  0.12500000000E+03 0.  0.
        -13    1    3    3    0    0  0.20615601546E+02  0.22690219306E+02 -0.24612794189E+02  0.39314753987E+02  0.10566000000E+00 0.  1.
         23    2    1    0    0    0  0.12853592376E+02 -0.26792518831E+02  0.35699169625E+00  0.95281632862E+02  0.90528493943E+02 0.  0.
         13    1    3    3    0    0 -0.77620091694E+01 -0.49482738137E+02  0.24969785885E+02  0.55966878875E+02  0.10566000000E+00 0. -1.
         22    1    1    0    0    0 -0.12853592376E+02  0.26792518831E+02 -0.35699169625E+00  0.29718367138E+02  0.00000000000E+00 0. -1.
</event>
<event>
 5    1  0.2491889E-009  0.9118800E+02  0.7818608E-02  0.1130116E+00
         25   -1    0    0    0    0  0.00000000000E+00  0.00000000000E+00  0.99999998245E-14  0.12500000000E+03  0.12500000000E+03 0.  0.
        -13    1    3    3    0    0 -0.21199813797E+02 -0.50842717861E+02 -0.28289826050E+02  0.61925273406E+02  0.10566000000E+00 0.  1.
         23    2    1    0    0    0 -0.12509855225E+02 -0.24412027770E+02 -0.77901492233E+01  0.96484565539E+02  0.92174515919E+02 0.  0.
         13    1    3    3    0    0  0.86899585719E+01  0.26430690091E+02  0.20499676827E+02  0.34559292133E+02  0.10566000000E+00 0. -1.
         22    1    1    0    0    0  0.12509855225E+02  0.24412027770E+02  0.77901492233E+01  0.28515434461E+02  0.00000000000E+00 0.  1.
</event>
<event>
 5    1  0.2491889E-009  0.9118800E+02  0.7818608E-02  0.1130116E+00
         25   -1    0    0    0    0  0.00000000000E+00  0.00000000000E+00  0.99999998245E-14  0.12500000000E+03  0.12500000000E+03 0.  0.
        -13    1    3    3    0    0 -0.14171712840E+02 -0.20365351590E+02 -0.31097235737E+02  0.39782335587E+02  0.10566000000E+00 0. -1.
         23    2    1    0    0    0 -0.11933244818E+02 -0.10847528274E+02  0.24189790544E+02  0.95927381128E+02  0.91415782455E+02 0.  0.
         13    1    3    3    0    0  0.22384680219E+01  0.95178233160E+01  0.55287026281E+02  0.56145045541E+02  0.10566000000E+00 0.  1.
         22    1    1    0    0    0  0.11933244818E+02  0.10847528274E+02 -0.24189790544E+02  0.29072618872E+02  0.00000000000E+00 0.  1.
</event>
<event>
 5    1  0.2491889E-009  0.9118800E+02  0.7818608E-02  0.1130116E+00
         25   -1    0    0    0    0  0.00000000000E+00  0.00000000000E+00  0.99999998245E-14  0.12500000000E+03  0.12500000000E+03 0.  0.
        -13    1    3    3    0    0 -0.36492361923E+02  0.40907165562E+02  0.22120885160E+02  0.59113732731E+02  0.10566000000E+00 0.  1.
         23    2    1    0    0    0 -0.24860973788E+02  0.14921883780E+02 -0.12943753343E+01  0.95975768042E+02  0.91481921769E+02 0.  0.
         13    1    3    3    0    0  0.11631388134E+02 -0.25985281782E+02 -0.23415260495E+02  0.36862035312E+02  0.10566000000E+00 0. -1.
         22    1    1    0    0    0  0.24860973788E+02 -0.14921883780E+02  0.12943753343E+01  0.29024231958E+02  0.00000000000E+00 0.  1.
</event>
<event>
 5    1  0.2491889E-009  0.9118800E+02  0.7818608E-02  0.1130116E+00
         25   -1    0    0    0    0  0.00000000000E+00  0.00000000000E+00  0.99999998245E-14  0.12500000000E+03  0.12500000000E+03 0.  0.
        -13    1    3    3    0    0  0.47935713481E+02  0.38420052235E+02 -0.68002790268E+01  0.61807669423E+02  0.10566000000E+00 0.  1.
         23    2    1    0    0    0  0.28121558088E+02  0.28814973158E+02 -0.83434080531E+01  0.83881425543E+02  0.73111944208E+02 0.  0.
         13    1    3    3    0    0 -0.19814155393E+02 -0.96050790770E+01 -0.15431290262E+01  0.22073756120E+02  0.10566000000E+00 0. -1.
         22    1    1    0    0    0 -0.28121558088E+02 -0.28814973158E+02  0.83434080531E+01  0.41118574457E+02  0.00000000000E+00 0.  1.
</event>
<event>
 5    1  0.2491889E-009  0.9118800E+02  0.7818608E-02  0.1130116E+00
         25   -1    0    0    0    0  0.00000000000E+00  0.00000000000E+00  0.99999998245E-14  0.12500000000E+03  0.12500000000E+03 0.  0.
        -13    1    3    3    0    0  0.35001181376E+02 -0.38908534461E+00  0.22050030537E+01  0.35072885362E+02  0.10566000000E+00 0. -1.
         23    2    1    0    0    0 -0.23500517251E+02 -0.57699692214E+01  0.16718545413E+02  0.95587815168E+02  0.90950281979E+02 0.  0.
         13    1    3    3    0    0 -0.58501698627E+02 -0.53808838767E+01  0.14513542359E+02  0.60514929806E+02  0.10566000000E+00 0.  1.
         22    1    1    0    0    0  0.23500517251E+02  0.57699692214E+01 -0.16718545413E+02  0.29412184832E+02  0.00000000000E+00 0.  1.
</event>
<event>
 5    1  0.2491889E-009  0.9118800E+02  0.7818608E-02  0.1130116E+00
         25   -1    0    0    0    0  0.00000000000E+00  0.00000000000E+00  0.99999998245E-14  0.12500000000E+03  0.12500000000E+03 0.  0.
        -13    1    3    3    0    0 -0.21858256008E+02  0.46729836892E+02 -0.35214016091E+02  0.62461981277E+02  0.10566000000E+00 0. -1.
         23    2    1    0    0    0 -0.11192027464E+02  0.20324800100E+02 -0.15979624115E+02  0.96827187490E+02  0.92637988280E+02 0.  0.
         13    1    3    3    0    0  0.10666228544E+02 -0.26405036793E+02  0.19234391976E+02  0.34365206214E+02  0.10566000000E+00 0.  1.
         22    1    1    0    0    0  0.11192027464E+02 -0.20324800100E+02  0.15979624115E+02  0.28172812510E+02  0.00000000000E+00 0. -1.
</event>
<event>
 5    1  0.2491889E-009  0.9118800E+02  0.7818608E-02  0.1130116E+00
         25   -1    0    0    0    0  0.00000000000E+00  0.00000000000E+00  0.99999998245E-14  0.12500000000E+03  0.12500000000E+03 0.  0.
        -13    1    3    3    0    0  0.30974854007E+02  0.41379987769E+01  0.13953640809E+02  0.34223966317E+02  0.10566000000E+00 0.  1.
         23    2    1    0    0    0 -0.17065373499E+02 -0.16201812196E+02 -0.17975794503E+02  0.95388264504E+02  0.90675609322E+02 0.  0.
         13    1    3    3    0    0 -0.48040227506E+02 -0.20339810973E+02 -0.31929435312E+02  0.61164298186E+02  0.10566000000E+00 0. -1.
         22    1    1    0    0    0  0.17065373499E+02  0.16201812196E+02  0.17975794503E+02  0.29611735496E+02  0.00000000000E+00 0. -1.
</event>
<event>
 5    1  0.2491889E-009  0.9118800E+02  0.7818608E-02  0.1130116E+00
         25   -1    0    0    0    0  0.00000000000E+00  0.00000000000E+00  0.99999998245E-14  0.12500000000E+03  0.12500000000E+03 0.  0.
        -13    1    3    3    0    0 -0.21560247608E+02 -0.67925091350E+01  0.36241380914E+02  0.42713362217E+02  0.10566000000E+00 0. -1.
         23    2    1    0    0    0 -0.54100066813E+01  0.27507022753E+02 -0.24205384852E+01  0.96861707948E+02  0.92684556356E+02 0.  0.
         13    1    3    3    0    0  0.16150240927E+02  0.34299531888E+02 -0.38661919399E+02  0.54148345731E+02  0.10566000000E+00 0.  1.
         22    1    1    0    0    0  0.54100066813E+01 -0.27507022753E+02  0.24205384852E+01  0.28138292052E+02  0.00000000000E+00 0.  1.
</event>
<event>
 5    1  0.2491889E-009  0.9118800E+02  0.7818608E-02  0.1130116E+00
         25   -1    0    0    0    0  0.00000000000E+00  0.00000000000E+00  0.99999998245E-14  0.12500000000E+03  0.12500000000E+03 0.  0.
        -13    1    3    3    0    0 -0.11595630624E+02  0.26730122496E+02  0.41041333381E+02  0.50332497534E+02  0.10566000000E+00 0.  1.
         23    2    1    0    0    0 -0.23251279408E+02  0.24169997916E+02  0.17279403419E+01  0.91417317391E+02  0.85025462938E+02 0.  0.
         13    1    3    3    0    0 -0.11655648784E+02 -0.25601245797E+01 -0.39313393039E+02  0.41084819858E+02  0.10566000000E+00 0. -1.
         22    1    1    0    0    0  0.23251279408E+02 -0.24169997916E+02 -0.17279403419E+01  0.33582682609E+02  0.00000000000E+00 0.  1.
</event>
<event>
 5    1  0.2491889E-009  0.9118800E+02  0.7818608E-02  0.1130116E+00
         25   -1    0    0    0    0  0.00000000000E+00  0.00000000000E+00  0.99999998245E-14  0.12500000000E+03  0.12500000000E+03 0.  0.
        -13    1    3    3    0    0  0.14570520584E+02  0.30030805873E+02  0.22925685277E+02  0.40493796820E+02  0.10566000000E+00 0.  1.
         23    2    1    0    0    0 -0.23237662153E+02  0.98488656528E+01 -0.13174671974E+02  0.96529645619E+02  0.92235629801E+02 0.  0.
         13    1    3    3    0    0 -0.37808182737E+02 -0.20181940220E+02 -0.36100357251E+02  0.56035848799E+02  0.10566000000E+00 0. -1.
         22    1    1    0    0    0  0.23237662153E+02 -0.98488656528E+01  0.13174671974E+02  0.28470354381E+02  0.00000000000E+00 0. -1.
</event>
<event>
 5    1  0.2491889E-009  0.9118800E+02  0.7818608E-02  0.1130116E+00
         25   -1    0    0    0    0  0.00000000000E+00  0.00000000000E+00  0.99999998245E-14  0.12500000000E+03  0.12500000000E+03 0.  0.
        -13    1    3    3    0    0 -0.10584916626E+02  0.47107130198E+01  0.16155756274E+02  0.19880918035E+02  0.10566000000E+00 0. -1.
         23    2    1    0    0    0 -0.37616632891E+01 -0.34769275458E+02 -0.28507245234E+02  0.79881094235E+02  0.65918688995E+02 0.  0.
         13    1    3    3    0    0  0.68232533367E+01 -0.39479988478E+02 -0.44663001507E+02  0.60000176200E+02  0.10566000000E+00 0.  1.
         22    1    1    0    0    0  0.37616632891E+01  0.34769275458E+02  0.28507245234E+02  0.45118905765E+02  0.00000000000E+00 0.  1.
</event>
<event>
 5    1  0.2491889E-009  0.9118800E+02  0.7818608E-02  0.1130116E+00
         25   -1    0    0    0    0  0.00000000000E+00  0.00000000000E+00  0.99999998245E-14  0.12500000000E+03  0.12500000000E+03 0.  0.
        -13    1    3    3    0    0 -0.23143076741E+01  0.14947377229E+02  0.50232590276E+02  0.52460503199E+02  0.10566000000E+00 0.  1.
         23    2    1    0    0    0  0.22806497938E+02  0.18896646926E+01  0.15093715874E+02  0.97585999203E+02  0.93656285431E+02 0.  0.
         13    1    3    3    0    0  0.25120805612E+02 -0.13057712537E+02 -0.35138874402E+02  0.45125496004E+02  0.10566000000E+00 0. -1.
         22    1    1    0    0    0 -0.22806497938E+02 -0.18896646926E+01 -0.15093715874E+02  0.27414000797E+02  0.00000000000E+00 0.  1.
</event>
<event>
 5    1  0.2491889E-009  0.9118800E+02  0.7818608E-02  0.1130116E+00
         25   -1    0    0    0    0  0.00000000000E+00  0.00000000000E+00  0.99999998245E-14  0.12500000000E+03  0.12500000000E+03 0.  0.
        -13    1    3    3    0    0  0.47364285060E+02  0.51329195132E+01 -0.32177436102E+02  0.57490181075E+02  0.10566000000E+00 0. -1.
         23    2    1    0    0    0  0.27861523102E+02  0.73722969072E+01  0.11355907191E+01  0.96157240119E+02  0.91729548292E+02 0.  0.
         13    1    3    3    0    0 -0.19502761958E+02  0.22393773941E+01  0.33313026821E+02  0.38667059044E+02  0.10566000000E+00 0.  1.
         22    1    1    0    0    0 -0.27861523102E+02 -0.73722969072E+01 -0.11355907191E+01  0.28842759881E+02  0.00000000000E+00 0. -1.
</event>
<event>
 5    1  0.2491889E-009  0.9118800E+02  0.7818608E-02  0.1130116E+00
         25   -1    0    0    0    0  0.00000000000E+00  0.00000000000E+00  0.99999998245E-14  0.12500000000E+03  0.12500000000E+03 0.  0.
        -13    1    3    3    0    0  0.90151934352E+01  0.39853136330E+02 -0.50552927805E+01  0.41171754118E+02  0.10566000000E+00 0.  1.
         23    2    1    0    0    0  0.20403915793E+02 -0.93905037705E+01 -0.21081541753E+02  0.94195248038E+02  0.89015796405E+02 0.  0.
         13    1    3    3    0    0  0.11388722358E+02 -0.49243640101E+02 -0.16026248972E+02  0.53023493920E+02  0.10566000000E+00 0. -1.
         22    1    1    0    0    0 -0.20403915793E+02  0.93905037705E+01  0.21081541753E+02  0.30804751962E+02  0.00000000000E+00 0. -1.
</event>
<event>
 5    1  0.2491889E-009  0.9118800E+02  0.7818608E-02  0.1130116E+00
         25   -1    0    0    0    0  0.00000000000E+00  0.00000000000E+00  0.99999998245E-14  0.12500000000E+03  0.12500000000E+03 0.  0.
        -13    1    3    3    0    0 -0.84703500361E+01 -0.27005528550E+01 -0.42261480474E+02  0.43186614956E+02  0.10566000000E+00 0. -1.
         23    2    1    0    0    0  0.23606124863E+01  0.28948153596E+02 -0.14994905463E+01  0.95917074428E+02  0.91401688207E+02 0.  0.
         13    1    3    3    0    0  0.10830962522E+02  0.31648706451E+02  0.40761989928E+02  0.52730459472E+02  0.10566000000E+00 0.  1.
         22    1    1    0    0    0 -0.23606124863E+01 -0.28948153596E+02  0.14994905463E+01  0.29082925572E+02  0.00000000000E+00 0.  1.
</event>
<event>
 5    1  0.2491889E-009  0.9118800E+02  0.7818608E-02  0.1130116E+00
         25   -1    0    0    0    0  0.00000000000E+00  0.00000000000E+00  0.99999998245E-14  0.12500000000E+03  0.12500000000E+03 0.  0.
        -13    1    3    3    0    0  0.18106605729E+02  0.19680263677E+02 -0.48467987166E+02  0.55356290459E+02  0.10566000000E+00 0.  1.
         23    2    1    0    0    0 -0.12521000242E+02  0.13645048980E+02 -0.21642206699E+02  0.96515830369E+02  0.92216905133E+02 0.  0.
         13    1    3    3    0    0 -0.30627605971E+02 -0.60352146961E+01  0.26825780467E+02  0.41159539910E+02  0.10566000000E+00 0. -1.
         22    1    1    0    0    0  0.12521000242E+02 -0.13645048980E+02  0.21642206699E+02  0.28484169631E+02  0.00000000000E+00 0.  1.
</event>
<event>
 5    1  0.2491889E-009  0.9118800E+02  0.7818608E-02  0.1130116E+00
         25   -1    0    0    0    0  0.00000000000E+00  0.00000000000E+00  0.99999998245E-14  0.12500000000E+03  0.12500000000E+03 0.  0.
        -13    1    3    3    0    0  0.37891594180E+02  0.29189224428E+02  0.10612486421E+00  0.47831016702E+02  0.10566000000E+00 0. -1.
         23    2    1    0    0    0  0.18650335476E+02 -0.68009136635E+01 -0.22910804648E+02  0.94685112409E+02  0.89701048502E+02 0.  0.
         13    1    3    3    0    0 -0.19241258704E+02 -0.35990138091E+02 -0.23016929512E+02  0.46854095707E+02  0.10566000000E+00 0.  1.
         22    1    1    0    0    0 -0.18650335476E+02  0.68009136635E+01  0.22910804648E+02  0.30314887591E+02  0.00000000000E+00 0. -1.
</event>
<event>
 5    1  0.2491889E-009  0.9118800E+02  0.7818608E-02  0.1130116E+00
         25   -1    0    0    0    0  0.00000000000E+00  0.00000000000E+00  0.99999998245E-14  0.12500000000E+03  0.12500000000E+03 0.  0.
        -13    1    3    3    0    0  0.29787714723E+01  0.58790540887E+01  0.35874229872E+02  0.36474756879E+02  0.10566000000E+00 0.  1.
         23    2    1    0    0    0 -0.16160082507E+02 -0.22751654436E+02 -0.11308481147E+02  0.94889075204E+02  0.89984825394E+02 0.  0.
         13    1    3    3    0    0 -0.19138853980E+02 -0.28630708524E+02 -0.47182711019E+02  0.58414318325E+02  0.10566000000E+00 0. -1.
         22    1    1    0    0    0  0.16160082507E+02  0.22751654436E+02  0.11308481147E+02  0.30110924796E+02  0.00000000000E+00 0. -1.
</event>
<event>
 5    1  0.2491889E-009  0.9118800E+02  0.7818608E-02  0.1130116E+00
         25   -1    0    0    0    0  0.00000000000E+00  0.00000000000E+00  0.99999998245E-14  0.12500000000E+03  0.12500000000E+03 0.  0.
        -13    1    3    3    0    0 -0.53819062658E+02  0.22230459788E+01 -0.19327724207E+02  0.57227663991E+02  0.10566000000E+00 0.  1.
         23    2    1    0    0    0 -0.17297939282E+02  0.11690399203E+02 -0.21516170462E+02  0.95019510873E+02  0.90165834540E+02 0.  0.
         13    1    3    3    0    0  0.36521123376E+02  0.94673532242E+01 -0.21884462555E+01  0.37791846882E+02  0.10566000000E+00 0. -1.
         22    1    1    0    0    0  0.17297939282E+02 -0.11690399203E+02  0.21516170462E+02  0.29980489127E+02  0.00000000000E+00 0.  1.
</event>
<event>
 5    1  0.2491889E-009  0.9118800E+02  0.7818608E-02  0.1130116E+00
         25   -1    0    0    0    0  0.00000000000E+00  0.00000000000E+00  0.99999998245E-14  0.12500000000E+03  0.12500000000E+03 0.  0.
        -13    1    3    3    0    0 -0.28047400123E+02 -0.13670703887E+01  0.23040032010E+02  0.36323267669E+02  0.10566000000E+00 0.  1.
         23    2    1    0    0    0  0.25621856532E+02 -0.15227965105E+02  0.40277138247E+01  0.94923548547E+02  0.90032700374E+02 0.  0.
         13    1    3    3    0    0  0.53669256654E+02 -0.13860894717E+02 -0.19012318185E+02  0.58600280878E+02  0.10566000000E+00 0. -1.
         22    1    1    0    0    0 -0.25621856532E+02  0.15227965105E+02 -0.40277138247E+01  0.30076451453E+02  0.00000000000E+00 0. -1.
</event>
<event>
 5    1  0.2491889E-009  0.9118800E+02  0.7818608E-02  0.1130116E+00
         25   -1    0    0    0    0  0.00000000000E+00  0.00000000000E+00  0.99999998245E-14  0.12500000000E+03  0.12500000000E+03 0.  0.
        -13    1    3    3    0    0 -0.30597713563E+02 -0.21563870923E+02  0.36495144102E+02  0.52279320114E+02  0.10566000000E+00 0.  1.
         23    2    1    0    0    0 -0.24916317086E+02  0.12015448801E+02  0.94505646385E+01  0.95768047636E+02  0.91197652980E+02 0.  0.
         13    1    3    3    0    0  0.56813964774E+01  0.33579319725E+02 -0.27044579464E+02  0.43488727522E+02  0.10566000000E+00 0. -1.
         22    1    1    0    0    0  0.24916317086E+02 -0.12015448801E+02 -0.94505646385E+01  0.29231952364E+02  0.00000000000E+00 0.  1.
</event>
<event>
 5    1  0.2491889E-009  0.9118800E+02  0.7818608E-02  0.1130116E+00
         25   -1    0    0    0    0  0.00000000000E+00  0.00000000000E+00  0.99999998245E-14  0.12500000000E+03  0.12500000000E+03 0.  0.
        -13    1    3    3    0    0  0.24974192517E+02  0.37651202217E+02 -0.42709134639E+02  0.62172378641E+02  0.10566000000E+00 0.  1.
         23    2    1    0    0    0  0.16134764112E+02  0.17505614962E+02 -0.18783202232E+02  0.94675325983E+02  0.89687409906E+02 0.  0.
         13    1    3    3    0    0 -0.88394284049E+01 -0.20145587255E+02  0.23925932406E+02  0.32502947342E+02  0.10566000000E+00 0. -1.
         22    1    1    0    0    0 -0.16134764112E+02 -0.17505614962E+02  0.18783202232E+02  0.30324674017E+02  0.00000000000E+00 0.  1.
</event>
<event>
 5    1  0.2491889E-009  0.9118800E+02  0.7818608E-02  0.1130116E+00
         25   -1    0    0    0    0  0.00000000000E+00  0.00000000000E+00  0.99999998245E-14  0.12500000000E+03  0.12500000000E+03 0.  0.
        -13    1    3    3    0    0 -0.15954187170E+02  0.32169008046E+02 -0.89542621172E+01  0.37007717317E+02  0.10566000000E+00 0.  1.
         23    2    1    0    0    0  0.13447911588E+02 -0.17532069853E+02 -0.19285851792E+02  0.95671449426E+02  0.91065154459E+02 0.  0.
         13    1    3    3    0    0  0.29402098758E+02 -0.49701077899E+02 -0.10331589675E+02  0.58663732109E+02  0.10566000000E+00 0. -1.
         22    1    1    0    0    0 -0.13447911588E+02  0.17532069853E+02  0.19285851792E+02  0.29328550574E+02  0.00000000000E+00 0. -1.
</event>
<event>
 5    1  0.2491889E-009  0.9118800E+02  0.7818608E-02  0.1130116E+00
         25   -1    0    0    0    0  0.00000000000E+00  0.00000000000E+00  0.99999998245E-14  0.12500000000E+03  0.12500000000E+03 0.  0.
        -13    1    3    3    0    0 -0.19549729936E+02 -0.22012094404E+02  0.20756254302E+02  0.36021625412E+02  0.10566000000E+00 0. -1.
         23    2    1    0    0    0 -0.11599649024E+01  0.27586837391E+02 -0.80293073733E+01  0.96245019689E+02  0.91849087759E+02 0.  0.
         13    1    3    3    0    0  0.18389765033E+02  0.49598931795E+02 -0.28785561675E+02  0.60223394277E+02  0.10566000000E+00 0.  1.
         22    1    1    0    0    0  0.11599649024E+01 -0.27586837391E+02  0.80293073733E+01  0.28754980311E+02  0.00000000000E+00 0.  1.
</event>
<event>
 5    1  0.2491889E-009  0.9118800E+02  0.7818608E-02  0.1130116E+00
         25   -1    0    0    0    0  0.00000000000E+00  0.00000000000E+00  0.99999998245E-14  0.12500000000E+03  0.12500000000E+03 0.  0.
        -13    1    3    3    0    0 -0.15567700521E+02  0.22216002740E+02  0.53940605543E+02  0.60378010630E+02  0.10566000000E+00 0.  1.
         23    2    1    0    0    0 -0.11334418244E+02  0.67267658563E-01  0.28247305830E+02  0.94563445522E+02  0.89531343006E+02 0.  0.
         13    1    3    3    0    0  0.42332822771E+01 -0.22148735081E+02 -0.25693299713E+02  0.34185434892E+02  0.10566000000E+00 0. -1.
         22    1    1    0    0    0  0.11334418244E+02 -0.67267658563E-01 -0.28247305830E+02  0.30436554478E+02  0.00000000000E+00 0.  1.
</event>
<event>
 5    1  0.2491889E-009  0.9118800E+02  0.7818608E-02  0.1130116E+00
         25   -1    0    0    0    0  0.00000000000E+00  0.00000000000E+00  0.99999998245E-14  0.12500000000E+03  0.12500000000E+03 0.  0.
        -13    1    3    3    0    0 -0.47043561196E+02  0.31300953528E+02  0.10951820658E+02  0.57556927311E+02  0.10566000000E+00 0.  1.
         23    2    1    0    0    0 -0.89492685629E+01  0.26490194731E+02  0.71336936843E+01  0.96143295229E+02  0.91710543598E+02 0.  0.
         13    1    3    3    0    0  0.38094292633E+02 -0.48107587976E+01 -0.38181269739E+01  0.38586367917E+02  0.10566000000E+00 0. -1.
         22    1    1    0    0    0  0.89492685629E+01 -0.26490194731E+02 -0.71336936843E+01  0.28856704771E+02  0.00000000000E+00 0.  1.
</event>
<event>
 5    1  0.2491889E-009  0.9118800E+02  0.7818608E-02  0.1130116E+00
         25   -1    0    0    0    0  0.00000000000E+00  0.00000000000E+00  0.99999998245E-14  0.12500000000E+03  0.12500000000E+03 0.  0.
        -13    1    3    3    0    0  0.68537540363E+01 -0.50136805622E+02  0.33690235565E+02  0.60792403792E+02  0.10566000000E+00 0. -1.
         23    2    1    0    0    0 -0.60954234305E+01 -0.25864540923E+02  0.11915205336E+02  0.95877830057E+02  0.91348002246E+02 0.  0.
         13    1    3    3    0    0 -0.12949177467E+02  0.24272264699E+02 -0.21775030229E+02  0.35085426265E+02  0.10566000000E+00 0.  1.
         22    1    1    0    0    0  0.60954234305E+01  0.25864540923E+02 -0.11915205336E+02  0.29122169943E+02  0.00000000000E+00 0. -1.
</event>
<event>
 5    1  0.2491889E-009  0.9118800E+02  0.7818608E-02  0.1130116E+00
         25   -1    0    0    0    0  0.00000000000E+00  0.00000000000E+00  0.99999998245E-14  0.12500000000E+03  0.12500000000E+03 0.  0.
        -13    1    3    3    0    0 -0.10644685554E+02  0.61068237179E+02  0.11776546856E+01  0.62000298042E+02  0.10566000000E+00 0. -1.
         23    2    1    0    0    0 -0.99454703982E+01  0.30436913490E+02  0.38143532443E+01  0.92753025337E+02  0.86966984162E+02 0.  0.
         13    1    3    3    0    0  0.69921515588E+00 -0.30631323688E+02  0.26366985586E+01  0.30752727295E+02  0.10566000000E+00 0.  1.
         22    1    1    0    0    0  0.99454703982E+01 -0.30436913490E+02 -0.38143532443E+01  0.32246974663E+02  0.00000000000E+00 0. -1.
</event>
<event>
 5    1  0.2491889E-009  0.9118800E+02  0.7818608E-02  0.1130116E+00
         25   -1    0    0    0    0  0.00000000000E+00  0.00000000000E+00  0.99999998245E-14  0.12500000000E+03  0.12500000000E+03 0.  0.
        -13    1    3    3    0    0  0.22574412796E+02 -0.24792965062E+01 -0.36151881497E+02  0.42693333485E+02  0.10566000000E+00 0.  1.
         23    2    1    0    0    0 -0.76760852639E+00 -0.25355899075E+02  0.86929159600E+01  0.98184377154E+02  0.94451544659E+02 0.  0.
         13    1    3    3    0    0 -0.23342021322E+02 -0.22876602569E+02  0.44844797457E+02  0.55491043669E+02  0.10566000000E+00 0. -1.
         22    1    1    0    0    0  0.76760852639E+00  0.25355899075E+02 -0.86929159600E+01  0.26815622846E+02  0.00000000000E+00 0. -1.
</event>
<event>
 5    1  0.2491889E-009  0.9118800E+02  0.7818608E-02  0.1130116E+00
         25   -1    0    0    0    0  0.00000000000E+00  0.00000000000E+00  0.99999998245E-14  0.12500000000E+03  0.12500000000E+03 0.  0.
        -13    1    3    3    0    0  0.15668845903E+02  0.25972211153E+02 -0.12110242342E+02  0.32660949430E+02  0.10566000000E+00 0.  1.
         23    2    1    0    0    0  0.28760190369E+00 -0.23077346154E+02  0.20992172215E+02  0.93801956557E+02  0.88461794800E+02 0.  0.
         13    1    3    3    0    0 -0.15381243999E+02 -0.49049557307E+02  0.33102414556E+02  0.61141007127E+02  0.10566000000E+00 0. -1.
         22    1    1    0    0    0 -0.28760190369E+00  0.23077346154E+02 -0.20992172215E+02  0.31198043443E+02  0.00000000000E+00 0. -1.
</event>
<event>
 5    1  0.2491889E-009  0.9118800E+02  0.7818608E-02  0.1130116E+00
         25   -1    0    0    0    0  0.00000000000E+00  0.00000000000E+00  0.99999998245E-14  0.12500000000E+03  0.12500000000E+03 0.  0.
        -13    1    3    3    0    0  0.18817312770E+02  0.15357520367E+02  0.44950450938E+02  0.51093041554E+02  0.10566000000E+00 0.  1.
         23    2    1    0    0    0  0.28829160679E+02 -0.22637425156E+01  0.53317884882E+01  0.95594677283E+02  0.90959712624E+02 0.  0.
         13    1    3    3    0    0  0.10011847909E+02 -0.17621262883E+02 -0.39618662450E+02  0.44501635728E+02  0.10566000000E+00 0. -1.
         22    1    1    0    0    0 -0.28829160679E+02  0.22637425156E+01 -0.53317884882E+01  0.29405322717E+02  0.00000000000E+00 0. -1.
</event>
<event>
 5    1  0.2491889E-009  0.9118800E+02  0.7818608E-02  0.1130116E+00
         25   -1    0    0    0    0  0.00000000000E+00  0.00000000000E+00  0.99999998245E-14  0.12500000000E+03  0.12500000000E+03 0.  0.
        -13    1    3    3    0    0 -0.22510017272E+02 -0.90318309210E+01 -0.31892612494E+02  0.40067751909E+02  0.10566000000E+00 0. -1.
         23    2    1    0    0    0 -0.16046060853E+02  0.63889053311E+01  0.22307185722E+02  0.96788216733E+02  0.92585388606E+02 0.  0.
         13    1    3    3    0    0  0.64639564188E+01  0.15420736252E+02  0.54199798216E+02  0.56720464824E+02  0.10566000000E+00 0.  1.
         22    1    1    0    0    0  0.16046060853E+02 -0.63889053311E+01 -0.22307185722E+02  0.28211783267E+02  0.00000000000E+00 0.  1.
</event>
<event>
 5    1  0.2491889E-009  0.9118800E+02  0.7818608E-02  0.1130116E+00
         25   -1    0    0    0    0  0.00000000000E+00  0.00000000000E+00  0.99999998245E-14  0.12500000000E+03  0.12500000000E+03 0.  0.
        -13    1    3    3    0    0 -0.34221321510E+02 -0.57814804934E+01  0.30965867410E+02  0.46512584008E+02  0.10566000000E+00 0. -1.
         23    2    1    0    0    0  0.12776519840E+02 -0.95119398380E+01  0.26776307132E+02  0.93844148506E+02  0.88521393609E+02 0.  0.
         13    1    3    3    0    0  0.46997841350E+02 -0.37304593446E+01 -0.41895602772E+01  0.47331564498E+02  0.10566000000E+00 0.  1.
         22    1    1    0    0    0 -0.12776519840E+02  0.95119398380E+01 -0.26776307132E+02  0.31155851494E+02  0.00000000000E+00 0.  1.
</event>
<event>
 5    1  0.2491889E-009  0.9118800E+02  0.7818608E-02  0.1130116E+00
         25   -1    0    0    0    0  0.00000000000E+00  0.00000000000E+00  0.99999998245E-14  0.12500000000E+03  0.12500000000E+03 0.  0.
        -13    1    3    3    0    0 -0.55030341734E+02  0.12094026301E+02  0.12518250677E+02  0.57717603446E+02  0.10566000000E+00 0.  1.
         23    2    1    0    0    0 -0.15829320202E+02  0.14669828755E+02  0.17362878310E+02  0.97300888156E+02  0.93274980777E+02 0.  0.
         13    1    3    3    0    0  0.39201021532E+02  0.25758024537E+01  0.48446276332E+01  0.39583284710E+02  0.10566000000E+00 0. -1.
         22    1    1    0    0    0  0.15829320202E+02 -0.14669828755E+02 -0.17362878310E+02  0.27699111844E+02  0.00000000000E+00 0.  1.
</event>
<event>
 5    1  0.2491889E-009  0.9118800E+02  0.7818608E-02  0.1130116E+00
         25   -1    0    0    0    0  0.00000000000E+00  0.00000000000E+00  0.99999998245E-14  0.12500000000E+03  0.12500000000E+03 0.  0.
        -13    1    3    3    0    0 -0.29223171840E+02 -0.93286405000E+01 -0.31499178392E+02  0.43968474040E+02  0.10566000000E+00 0.  1.
         23    2    1    0    0    0 -0.36603060051E+02  0.14270935094E+02  0.20669417106E+01  0.85658980166E+02  0.76090374171E+02 0.  0.
         13    1    3    3    0    0 -0.73798882111E+01  0.23599575594E+02  0.33566120103E+02  0.41690506126E+02  0.10566000000E+00 0. -1.
         22    1    1    0    0    0  0.36603060051E+02 -0.14270935094E+02 -0.20669417106E+01  0.39341019834E+02  0.00000000000E+00 0.  1.
</event>
<event>
 5    1  0.2491889E-009  0.9118800E+02  0.7818608E-02  0.1130116E+00
         25   -1    0    0    0    0  0.00000000000E+00  0.00000000000E+00  0.99999998245E-14  0.12500000000E+03  0.12500000000E+03 0.  0.
        -13    1    3    3    0    0 -0.31606749222E+02 -0.93719818186E+01  0.37049078831E+00  0.32969213929E+02  0.10566000000E+00 0.  1.
         23    2    1    0    0    0  0.26649929008E+02  0.96709847229E+01 -0.96066815574E+01  0.95066156408E+02  0.90230477677E+02 0.  0.
         13    1    3    3    0    0  0.58256678231E+02  0.19042966541E+02 -0.99771723457E+01  0.62096942479E+02  0.10566000000E+00 0. -1.
         22    1    1    0    0    0 -0.26649929008E+02 -0.96709847229E+01  0.96066815574E+01  0.29933843592E+02  0.00000000000E+00 0. -1.
</event>
<event>
 5    1  0.2491889E-009  0.9118800E+02  0.7818608E-02  0.1130116E+00
         25   -1    0    0    0    0  0.00000000000E+00  0.00000000000E+00  0.99999998245E-14  0.12500000000E+03  0.12500000000E+03 0.  0.
        -13    1    3    3    0    0 -0.69862955765E+01 -0.12612929059E+02 -0.59255768979E+02  0.60984847517E+02  0.10566000000E+00 0. -1.
         23    2    1    0    0    0 -0.12620178153E+02 -0.58656423634E+01 -0.24618538700E+02  0.96720199705E+02  0.92493512888E+02 0.  0.
         13    1    3    3    0    0 -0.56338825770E+01  0.67472866959E+01  0.34637230278E+02  0.35735352189E+02  0.10566000000E+00 0.  1.
         22    1    1    0    0    0  0.12620178153E+02  0.58656423634E+01  0.24618538700E+02  0.28279800295E+02  0.00000000000E+00 0. -1.
</event>
<event>
 5    1  0.2491889E-009  0.9118800E+02  0.7818608E-02  0.1130116E+00
         25   -1    0    0    0    0  0.00000000000E+00  0.00000000000E+00  0.99999998245E-14  0.12500000000E+03  0.12500000000E+03 0.  0.
        -13    1    3    3    0    0 -0.20322309762E+02 -0.40168966969E+02 -0.22638722091E+02  0.50389136561E+02  0.10566000000E+00 0.  1.
         23    2    1    0    0    0  0.17663638000E+02 -0.23487120347E+02 -0.65234322762E+01  0.94896775949E+02  0.89995522041E+02 0.  0.
         13    1    3    3    0    0  0.37985947762E+02  0.16681846622E+02  0.16115289815E+02  0.44507639388E+02  0.10566000000E+00 0. -1.
         22    1    1    0    0    0 -0.17663638000E+02  0.23487120347E+02  0.65234322762E+01  0.30103224051E+02  0.00000000000E+00 0.  1.
</event>
<event>
 5    1  0.2491889E-009  0.9118800E+02  0.7818608E-02  0.1130116E+00
         25   -1    0    0    0    0  0.00000000000E+00  0.00000000000E+00  0.99999998245E-14  0.12500000000E+03  0.12500000000E+03 0.  0.
        -13    1    3    3    0    0  0.32653042606E+02  0.14251925553E+02 -0.23278383190E+02  0.42558581524E+02  0.10566000000E+00 0. -1.
         23    2    1    0    0    0  0.13010661743E+02 -0.23368947031E+02  0.99533182953E+01  0.96461367423E+02  0.92143051044E+02 0.  0.
         13    1    3    3    0    0 -0.19642380863E+02 -0.37620872584E+02  0.33231701485E+02  0.53902785898E+02  0.10566000000E+00 0.  1.
         22    1    1    0    0    0 -0.13010661743E+02  0.23368947031E+02 -0.99533182953E+01  0.28538632577E+02  0.00000000000E+00 0. -1.
</event>
<event>
 5    1  0.2491889E-009  0.9118800E+02  0.7818608E-02  0.1130116E+00
         25   -1    0    0    0    0  0.00000000000E+00  0.00000000000E+00  0.99999998245E-14  0.12500000000E+03  0.12500000000E+03 0.  0.
        -13    1    3    3    0    0 -0.16524834196E+02 -0.16093649032E+01 -0.38010877991E+02  0.41478888730E+02  0.10566000000E+00 0.  1.
         23    2    1    0    0    0  0.25660172715E+02 -0.12215579752E+02 -0.48633438099E+01  0.96167432208E+02  0.91743436016E+02 0.  0.
         13    1    3    3    0    0  0.42185006911E+02 -0.10606214849E+02  0.33147534181E+02  0.54688543478E+02  0.10566000000E+00 0. -1.
         22    1    1    0    0    0 -0.25660172715E+02  0.12215579752E+02  0.48633438099E+01  0.28832567792E+02  0.00000000000E+00 0. -1.
</event>
<event>
 5    1  0.2491889E-009  0.9118800E+02  0.7818608E-02  0.1130116E+00
         25   -1    0    0    0    0  0.00000000000E+00  0.00000000000E+00  0.99999998245E-14  0.12500000000E+03  0.12500000000E+03 0.  0.
        -13    1    3    3    0    0  0.29617589580E+02  0.37011339755E+02  0.31973186736E+02  0.57178113969E+02  0.10566000000E+00 0. -1.
         23    2    1    0    0    0  0.15862455035E+02  0.22943434809E+02 -0.26293651149E+01  0.96983357776E+02  0.92848475723E+02 0.  0.
         13    1    3    3    0    0 -0.13755134544E+02 -0.14067904947E+02 -0.34602551851E+02  0.39805243807E+02  0.10566000000E+00 0.  1.
         22    1    1    0    0    0 -0.15862455035E+02 -0.22943434809E+02  0.26293651149E+01  0.28016642224E+02  0.00000000000E+00 0. -1.
</event>
<event>
 5    1  0.2491889E-009  0.9118800E+02  0.7818608E-02  0.1130116E+00
         25   -1    0    0    0    0  0.00000000000E+00  0.00000000000E+00  0.99999998245E-14  0.12500000000E+03  0.12500000000E+03 0.  0.
        -13    1    3    3    0    0 -0.49205677411E+02 -0.93640131683E+01 -0.17425151620E+02  0.53033296193E+02  0.10566000000E+00 0.  1.
         23    2    1    0    0    0 -0.23804845613E+02  0.12428935246E+02  0.10041776500E+02  0.96329695131E+02  0.91964252744E+02 0.  0.
         13    1    3    3    0    0  0.25400831798E+02  0.21792948414E+02  0.27466928120E+02  0.43296398938E+02  0.10566000000E+00 0. -1.
         22    1    1    0    0    0  0.23804845613E+02 -0.12428935246E+02 -0.10041776500E+02  0.28670304869E+02  0.00000000000E+00 0. -1.
</event>
<event>
 5    1  0.2491889E-009  0.9118800E+02  0.7818608E-02  0.1130116E+00
         25   -1    0    0    0    0  0.00000000000E+00  0.00000000000E+00  0.99999998245E-14  0.12500000000E+03  0.12500000000E+03 0.  0.
        -13    1    3    3    0    0  0.24264691041E+02 -0.34934977484E+02 -0.32432814621E+02  0.53489499076E+02  0.10566000000E+00 0.  1.
         23    2    1    0    0    0 -0.42694344718E+01 -0.41614942894E+01 -0.28773207856E+02  0.95615589239E+02  0.90988446024E+02 0.  0.
         13    1    3    3    0    0 -0.28534125513E+02  0.30773483195E+02  0.36596067653E+01  0.42126090163E+02  0.10566000000E+00 0. -1.
         22    1    1    0    0    0  0.42694344718E+01  0.41614942894E+01  0.28773207856E+02  0.29384410761E+02  0.00000000000E+00 0.  1.
</event>
<event>
 5    1  0.2491889E-009  0.9118800E+02  0.7818608E-02  0.1130116E+00
         25   -1    0    0    0    0  0.00000000000E+00  0.00000000000E+00  0.99999998245E-14  0.12500000000E+03  0.12500000000E+03 0.  0.
        -13    1    3    3    0    0  0.54059366503E+01 -0.30867059570E+02  0.22744730489E+02  0.38721227339E+02  0.10566000000E+00 0. -1.
         23    2    1    0    0    0 -0.70535123083E+01  0.22710700286E+02  0.20217272350E+02  0.93786764913E+02  0.88440325803E+02 0.  0.
         13    1    3    3    0    0 -0.12459448959E+02  0.53577759856E+02 -0.25274581396E+01  0.55065537573E+02  0.10566000000E+00 0.  1.
         22    1    1    0    0    0  0.70535123083E+01 -0.22710700286E+02 -0.20217272350E+02  0.31213235087E+02  0.00000000000E+00 0.  1.
</event>
<event>
 5    1  0.2491889E-009  0.9118800E+02  0.7818608E-02  0.1130116E+00
         25   -1    0    0    0    0  0.00000000000E+00  0.00000000000E+00  0.99999998245E-14  0.12500000000E+03  0.12500000000E+03 0.  0.
        -13    1    3    3    0    0 -0.43757465933E+02  0.20023839223E+02  0.15030183945E+01  0.48144991333E+02  0.10566000000E+00 0. -1.
         23    2    1    0    0    0 -0.55202584680E+01  0.58791604450E+01  0.27395687685E+02  0.96441962868E+02  0.92116723330E+02 0.  0.
         13    1    3    3    0    0  0.38237207465E+02 -0.14144678778E+02  0.25892669290E+02  0.48296971535E+02  0.10566000000E+00 0.  1.
         22    1    1    0    0    0  0.55202584680E+01 -0.58791604450E+01 -0.27395687685E+02  0.28558037132E+02  0.00000000000E+00 0. -1.
</event>
<event>
 5    1  0.2491889E-009  0.9118800E+02  0.7818608E-02  0.1130116E+00
         25   -1    0    0    0    0  0.00000000000E+00  0.00000000000E+00  0.99999998245E-14  0.12500000000E+03  0.12500000000E+03 0.  0.
        -13    1    3    3    0    0 -0.94657622181E+01  0.51816094421E+01  0.39276778965E+02  0.40732373620E+02  0.10566000000E+00 0.  1.
         23    2    1    0    0    0  0.21999233196E+02  0.19277281875E+02 -0.33511864507E+01  0.95558357581E+02  0.90909787125E+02 0.  0.
         13    1    3    3    0    0  0.31464995414E+02  0.14095672433E+02 -0.42627965416E+02  0.54825983961E+02  0.10566000000E+00 0. -1.
         22    1    1    0    0    0 -0.21999233196E+02 -0.19277281875E+02  0.33511864507E+01  0.29441642419E+02  0.00000000000E+00 0. -1.
</event>
<event>
 5    1  0.2491889E-009  0.9118800E+02  0.7818608E-02  0.1130116E+00
         25   -1    0    0    0    0  0.00000000000E+00  0.00000000000E+00  0.99999998245E-14  0.12500000000E+03  0.12500000000E+03 0.  0.
        -13    1    3    3    0    0 -0.38726066560E+02  0.27395833795E+02 -0.18167964415E+02  0.50796909705E+02  0.10566000000E+00 0. -1.
         23    2    1    0    0    0  0.10274537640E+02  0.13555581038E+02  0.57399133682E+01  0.10704821718E+03  0.10553224291E+03 0.  0.
         13    1    3    3    0    0  0.49000604200E+02 -0.13840252757E+02  0.23907877784E+02  0.56251307474E+02  0.10566000000E+00 0.  1.
         22    1    1    0    0    0 -0.10274537640E+02 -0.13555581038E+02 -0.57399133682E+01  0.17951782822E+02  0.00000000000E+00 0.  1.
</event>
<event>
 5    1  0.2491889E-009  0.9118800E+02  0.7818608E-02  0.1130116E+00
         25   -1    0    0    0    0  0.00000000000E+00  0.00000000000E+00  0.99999998245E-14  0.12500000000E+03  0.12500000000E+03 0.  0.
        -13    1    3    3    0    0 -0.44615211282E+01  0.50071542595E+02  0.31929757243E+02  0.59553212426E+02  0.10566000000E+00 0.  1.
         23    2    1    0    0    0 -0.11267672273E+02  0.17127120874E+02  0.22649419578E+02  0.94450124139E+02  0.89372988284E+02 0.  0.
         13    1    3    3    0    0 -0.68061511446E+01 -0.32944421721E+02 -0.92803376654E+01  0.34896911713E+02  0.10566000000E+00 0. -1.
         22    1    1    0    0    0  0.11267672273E+02 -0.17127120874E+02 -0.22649419578E+02  0.30549875861E+02  0.00000000000E+00 0.  1.
</event>
<event>
 5    1  0.2491889E-009  0.9118800E+02  0.7818608E-02  0.1130116E+00
         25   -1    0    0    0    0  0.00000000000E+00  0.00000000000E+00  0.99999998245E-14  0.12500000000E+03  0.12500000000E+03 0.  0.
        -13    1    3    3    0    0  0.31100581984E+02  0.66592540755E+00  0.19352358802E+02  0.36636247237E+02  0.10566000000E+00 0.  1.
         23    2    1    0    0    0 -0.19948607302E+02 -0.55821824614E+01 -0.15813010818E+02  0.98939320703E+02  0.95445430355E+02 0.  0.
         13    1    3    3    0    0 -0.51049189286E+02 -0.62481078689E+01 -0.35165369620E+02  0.62303073465E+02  0.10566000000E+00 0. -1.
         22    1    1    0    0    0  0.19948607302E+02  0.55821824614E+01  0.15813010818E+02  0.26060679297E+02  0.00000000000E+00 0. -1.
</event>
<event>
 5    1  0.2491889E-009  0.9118800E+02  0.7818608E-02  0.1130116E+00
         25   -1    0    0    0    0  0.00000000000E+00  0.00000000000E+00  0.99999998245E-14  0.12500000000E+03  0.12500000000E+03 0.  0.
        -13    1    3    3    0    0 -0.27115151741E+02 -0.26931722385E+02 -0.32762231312E+02  0.50338097790E+02  0.10566000000E+00 0.  1.
         23    2    1    0    0    0  0.14668577027E+02 -0.11748987311E+02 -0.21974203875E+02  0.96085099157E+02  0.91631188955E+02 0.  0.
         13    1    3    3    0    0  0.41783728768E+02  0.15182735074E+02  0.10788027437E+02  0.45747001367E+02  0.10566000000E+00 0. -1.
         22    1    1    0    0    0 -0.14668577027E+02  0.11748987311E+02  0.21974203875E+02  0.28914900843E+02  0.00000000000E+00 0. -1.
</event>
<event>
 5    1  0.2491889E-009  0.9118800E+02  0.7818608E-02  0.1130116E+00
         25   -1    0    0    0    0  0.00000000000E+00  0.00000000000E+00  0.99999998245E-14  0.12500000000E+03  0.12500000000E+03 0.  0.
        -13    1    3    3    0    0  0.65560955558E+01 -0.24322631308E+02 -0.28176061565E+02  0.37795163606E+02  0.10566000000E+00 0. -1.
         23    2    1    0    0    0  0.14568926137E+01  0.28528366668E+02 -0.39309213992E+01  0.96165257347E+02  0.91740472730E+02 0.  0.
         13    1    3    3    0    0 -0.50992029421E+01  0.52850997975E+02  0.24245140166E+02  0.58370093741E+02  0.10566000000E+00 0.  1.
         22    1    1    0    0    0 -0.14568926137E+01 -0.28528366668E+02  0.39309213992E+01  0.28834742653E+02  0.00000000000E+00 0.  1.
</event>
<event>
 5    1  0.2491889E-009  0.9118800E+02  0.7818608E-02  0.1130116E+00
         25   -1    0    0    0    0  0.00000000000E+00  0.00000000000E+00  0.99999998245E-14  0.12500000000E+03  0.12500000000E+03 0.  0.
        -13    1    3    3    0    0 -0.33247710895E+02  0.33015351470E+02 -0.19047804712E+01  0.46894168775E+02  0.10566000000E+00 0.  1.
         23    2    1    0    0    0  0.14726528825E+02  0.25596908811E+02 -0.20640808841E+00  0.95468406813E+02  0.90786021519E+02 0.  0.
         13    1    3    3    0    0  0.47974239719E+02 -0.74184426594E+01  0.16983723828E+01  0.48574238038E+02  0.10566000000E+00 0. -1.
         22    1    1    0    0    0 -0.14726528825E+02 -0.25596908811E+02  0.20640808841E+00  0.29531593187E+02  0.00000000000E+00 0. -1.
</event>
<event>
 5    1  0.2491889E-009  0.9118800E+02  0.7818608E-02  0.1130116E+00
         25   -1    0    0    0    0  0.00000000000E+00  0.00000000000E+00  0.99999998245E-14  0.12500000000E+03  0.12500000000E+03 0.  0.
        -13    1    3    3    0    0  0.23313159136E+02 -0.26136135282E+02 -0.20426331536E+02  0.40544384820E+02  0.10566000000E+00 0.  1.
         23    2    1    0    0    0  0.32046149301E+01 -0.86092603601E+01  0.27835688032E+02  0.95687639996E+02  0.91087375630E+02 0.  0.
         13    1    3    3    0    0 -0.20108544206E+02  0.17526874922E+02  0.48262019568E+02  0.55143255176E+02  0.10566000000E+00 0. -1.
         22    1    1    0    0    0 -0.32046149301E+01  0.86092603601E+01 -0.27835688032E+02  0.29312360004E+02  0.00000000000E+00 0. -1.
</event>
<event>
 5    1  0.2491889E-009  0.9118800E+02  0.7818608E-02  0.1130116E+00
         25   -1    0    0    0    0  0.00000000000E+00  0.00000000000E+00  0.99999998245E-14  0.12500000000E+03  0.12500000000E+03 0.  0.
        -13    1    3    3    0    0 -0.15123163281E+02  0.33629344892E+01  0.32115440964E+02  0.35657146666E+02  0.10566000000E+00 0.  1.
         23    2    1    0    0    0  0.47170843172E+01 -0.20998289174E+02 -0.19418191392E+02  0.96013016894E+02  0.91532804084E+02 0.  0.
         13    1    3    3    0    0  0.19840247598E+02 -0.24361223663E+02 -0.51533632356E+02  0.60355870228E+02  0.10566000000E+00 0. -1.
         22    1    1    0    0    0 -0.47170843172E+01  0.20998289174E+02  0.19418191392E+02  0.28986983106E+02  0.00000000000E+00 0. -1.
</event>
<event>
 5    1  0.2491889E-009  0.9118800E+02  0.7818608E-02  0.1130116E+00
         25   -1    0    0    0    0  0.00000000000E+00  0.00000000000E+00  0.99999998245E-14  0.12500000000E+03  0.12500000000E+03 0.  0.
        -13    1    3    3    0    0 -0.48070148109E+02  0.12897753058E+02 -0.20447709433E+02  0.53807166421E+02  0.10566000000E+00 0. -1.
         23    2    1    0    0    0 -0.21076519281E+02  0.16834235376E+02  0.11378024488E+02  0.95724232086E+02  0.91137577439E+02 0.  0.
         13    1    3    3    0    0  0.26993628828E+02  0.39364823183E+01  0.31825733921E+02  0.41917065665E+02  0.10566000000E+00 0.  1.
         22    1    1    0    0    0  0.21076519281E+02 -0.16834235376E+02 -0.11378024488E+02  0.29275767914E+02  0.00000000000E+00 0. -1.
</event>
<event>
 5    1  0.2491889E-009  0.9118800E+02  0.7818608E-02  0.1130116E+00
         25   -1    0    0    0    0  0.00000000000E+00  0.00000000000E+00  0.99999998245E-14  0.12500000000E+03  0.12500000000E+03 0.  0.
        -13    1    3    3    0    0  0.27522545426E+02 -0.10558133682E+02 -0.29977928567E+02  0.42043454410E+02  0.10566000000E+00 0.  1.
         23    2    1    0    0    0  0.11346805575E+02 -0.25948892911E+02  0.15505622191E+02  0.92711931622E+02  0.86907898982E+02 0.  0.
         13    1    3    3    0    0 -0.16175739851E+02 -0.15390759229E+02  0.45483550758E+02  0.50668477212E+02  0.10566000000E+00 0. -1.
         22    1    1    0    0    0 -0.11346805575E+02  0.25948892911E+02 -0.15505622191E+02  0.32288068378E+02  0.00000000000E+00 0. -1.
</event>
<event>
 5    1  0.2491889E-009  0.9118800E+02  0.7818608E-02  0.1130116E+00
         25   -1    0    0    0    0  0.00000000000E+00  0.00000000000E+00  0.99999998245E-14  0.12500000000E+03  0.12500000000E+03 0.  0.
        -13    1    3    3    0    0 -0.22693897509E+02  0.51591651379E+02  0.11442977186E+02  0.57512297529E+02  0.10566000000E+00 0. -1.
         23    2    1    0    0    0 -0.11053644485E+02  0.23707992410E+02 -0.12446816707E+02  0.96031479039E+02  0.91558013084E+02 0.  0.
         13    1    3    3    0    0  0.11640253025E+02 -0.27883658969E+02 -0.23889793893E+02  0.38519181511E+02  0.10566000000E+00 0.  1.
         22    1    1    0    0    0  0.11053644485E+02 -0.23707992410E+02  0.12446816707E+02  0.28968520961E+02  0.00000000000E+00 0. -1.
</event>
<event>
 5    1  0.2491889E-009  0.9118800E+02  0.7818608E-02  0.1130116E+00
         25   -1    0    0    0    0  0.00000000000E+00  0.00000000000E+00  0.99999998245E-14  0.12500000000E+03  0.12500000000E+03 0.  0.
        -13    1    3    3    0    0  0.35348003508E+02 -0.67387141326E+01  0.10831805121E+02  0.37579659211E+02  0.10566000000E+00 0.  1.
         23    2    1    0    0    0 -0.13973497224E+02  0.20364413116E+02 -0.11025726763E+02  0.97953103748E+02  0.94144972977E+02 0.  0.
         13    1    3    3    0    0 -0.49321500733E+02  0.27103127249E+02 -0.21857531884E+02  0.60373444537E+02  0.10566000000E+00 0. -1.
         22    1    1    0    0    0  0.13973497224E+02 -0.20364413116E+02  0.11025726763E+02  0.27046896252E+02  0.00000000000E+00 0. -1.
</event>
<event>
 5    1  0.2491889E-009  0.9118800E+02  0.7818608E-02  0.1130116E+00
         25   -1    0    0    0    0  0.00000000000E+00  0.00000000000E+00  0.99999998245E-14  0.12500000000E+03  0.12500000000E+03 0.  0.
        -13    1    3    3    0    0 -0.54598813978E+02  0.88321002546E+01  0.18222994606E+02  0.58233368262E+02  0.10566000000E+00 0. -1.
         23    2    1    0    0    0 -0.16580236450E+02  0.70438268541E+00  0.22165411146E+02  0.97310546286E+02  0.93287922967E+02 0.  0.
         13    1    3    3    0    0  0.38018577528E+02 -0.81277175692E+01  0.39424165408E+01  0.39077178024E+02  0.10566000000E+00 0.  1.
         22    1    1    0    0    0  0.16580236450E+02 -0.70438268541E+00 -0.22165411146E+02  0.27689453714E+02  0.00000000000E+00 0. -1.
</event>
<event>
 5    1  0.2491889E-009  0.9118800E+02  0.7818608E-02  0.1130116E+00
         25   -1    0    0    0    0  0.00000000000E+00  0.00000000000E+00  0.99999998245E-14  0.12500000000E+03  0.12500000000E+03 0.  0.
        -13    1    3    3    0    0  0.23792087484E+02 -0.25028301823E+02 -0.13456832775E+02  0.37061797465E+02  0.10566000000E+00 0.  1.
         23    2    1    0    0    0  0.32975582844E-01  0.28390521912E+02 -0.57666235129E+01  0.96029726122E+02  0.91555619874E+02 0.  0.
         13    1    3    3    0    0 -0.23759111901E+02  0.53418823735E+02  0.76902092622E+01  0.58967928657E+02  0.10566000000E+00 0. -1.
         22    1    1    0    0    0 -0.32975582844E-01 -0.28390521912E+02  0.57666235129E+01  0.28970273878E+02  0.00000000000E+00 0. -1.
</event>
<event>
 5    1  0.2491889E-009  0.9118800E+02  0.7818608E-02  0.1130116E+00
         25   -1    0    0    0    0  0.00000000000E+00  0.00000000000E+00  0.99999998245E-14  0.12500000000E+03  0.12500000000E+03 0.  0.
        -13    1    3    3    0    0  0.36627347816E+02 -0.33710245550E+01 -0.30853027083E+02  0.48008820636E+02  0.10566000000E+00 0. -1.
         23    2    1    0    0    0  0.78250673356E+01  0.62409466556E+01 -0.43102546278E+02  0.80750586562E+02  0.67547365904E+02 0.  0.
         13    1    3    3    0    0 -0.28802280481E+02  0.96119712106E+01 -0.12249519194E+02  0.32741765926E+02  0.10566000000E+00 0.  1.
         22    1    1    0    0    0 -0.78250673356E+01 -0.62409466556E+01  0.43102546278E+02  0.44249413438E+02  0.00000000000E+00 0. -1.
</event>
<event>
 5    1  0.2491889E-009  0.9118800E+02  0.7818608E-02  0.1130116E+00
         25   -1    0    0    0    0  0.00000000000E+00  0.00000000000E+00  0.99999998245E-14  0.12500000000E+03  0.12500000000E+03 0.  0.
        -13    1    3    3    0    0  0.29050113932E+02 -0.13978664087E+02  0.94677339085E+01  0.33600019621E+02  0.10566000000E+00 0.  1.
         23    2    1    0    0    0 -0.81988304939E+01  0.28038705813E+02 -0.11592990404E+02  0.93570916786E+02  0.88134721855E+02 0.  0.
         13    1    3    3    0    0 -0.37248944426E+02  0.42017369901E+02 -0.21060724313E+02  0.59970897165E+02  0.10566000000E+00 0. -1.
         22    1    1    0    0    0  0.81988304939E+01 -0.28038705813E+02  0.11592990404E+02  0.31429083214E+02  0.00000000000E+00 0. -1.
</event>
<event>
 5    1  0.2491889E-009  0.9118800E+02  0.7818608E-02  0.1130116E+00
         25   -1    0    0    0    0  0.00000000000E+00  0.00000000000E+00  0.99999998245E-14  0.12500000000E+03  0.12500000000E+03 0.  0.
        -13    1    3    3    0    0  0.25485795682E+02  0.11197079395E+01  0.31353229638E+02  0.40420486145E+02  0.10566000000E+00 0.  1.
         23    2    1    0    0    0 -0.24730450834E+01 -0.26401197058E+02 -0.92840178122E+01  0.96904944478E+02  0.92742849425E+02 0.  0.
         13    1    3    3    0    0 -0.27958840766E+02 -0.27520904997E+02 -0.40637247450E+02  0.56484458333E+02  0.10566000000E+00 0. -1.
         22    1    1    0    0    0  0.24730450834E+01  0.26401197058E+02  0.92840178122E+01  0.28095055522E+02  0.00000000000E+00 0. -1.
</event>
<event>
 5    1  0.2491889E-009  0.9118800E+02  0.7818608E-02  0.1130116E+00
         25   -1    0    0    0    0  0.00000000000E+00  0.00000000000E+00  0.99999998245E-14  0.12500000000E+03  0.12500000000E+03 0.  0.
        -13    1    3    3    0    0  0.52722542376E+02 -0.22033363311E+02 -0.21662554282E+02  0.61109843687E+02  0.10566000000E+00 0.  1.
         23    2    1    0    0    0  0.21803697057E+02 -0.74585832503E+01 -0.18520226174E+02  0.95435994064E+02  0.90741382599E+02 0.  0.
         13    1    3    3    0    0 -0.30918845319E+02  0.14574780061E+02  0.31423281075E+01  0.34326150377E+02  0.10566000000E+00 0. -1.
         22    1    1    0    0    0 -0.21803697057E+02  0.74585832503E+01  0.18520226174E+02  0.29564005936E+02  0.00000000000E+00 0.  1.
</event>
<event>
 5    1  0.2491889E-009  0.9118800E+02  0.7818608E-02  0.1130116E+00
         25   -1    0    0    0    0  0.00000000000E+00  0.00000000000E+00  0.99999998245E-14  0.12500000000E+03  0.12500000000E+03 0.  0.
        -13    1    3    3    0    0  0.25531795500E+02  0.42780981363E+02  0.96652585187E+01  0.50749515605E+02  0.10566000000E+00 0.  1.
         23    2    1    0    0    0 -0.33502526548E+01  0.15139767749E+02  0.26635291574E+02  0.94179949422E+02  0.88994310805E+02 0.  0.
         13    1    3    3    0    0 -0.28882048155E+02 -0.27641213614E+02  0.16970033056E+02  0.43430433818E+02  0.10566000000E+00 0. -1.
         22    1    1    0    0    0  0.33502526548E+01 -0.15139767749E+02 -0.26635291574E+02  0.30820050578E+02  0.00000000000E+00 0. -1.
</event>
<event>
 5    1  0.2491889E-009  0.9118800E+02  0.7818608E-02  0.1130116E+00
         25   -1    0    0    0    0  0.00000000000E+00  0.00000000000E+00  0.99999998245E-14  0.12500000000E+03  0.12500000000E+03 0.  0.
        -13    1    3    3    0    0  0.35499957648E+02  0.19235325573E+02  0.15659011190E+02  0.43306587702E+02  0.10566000000E+00 0.  1.
         23    2    1    0    0    0 -0.17693139777E+02  0.20354097194E+02  0.56750097188E+01  0.97440206766E+02  0.93461498445E+02 0.  0.
         13    1    3    3    0    0 -0.53193097425E+02  0.11187716213E+01 -0.99840014709E+01  0.54133619064E+02  0.10566000000E+00 0. -1.
         22    1    1    0    0    0  0.17693139777E+02 -0.20354097194E+02 -0.56750097188E+01  0.27559793234E+02  0.00000000000E+00 0. -1.
</event>
<event>
 5    1  0.2491889E-009  0.9118800E+02  0.7818608E-02  0.1130116E+00
         25   -1    0    0    0    0  0.00000000000E+00  0.00000000000E+00  0.99999998245E-14  0.12500000000E+03  0.12500000000E+03 0.  0.
        -13    1    3    3    0    0  0.42148059238E+01 -0.31153043413E+02  0.33769377630E+02  0.46137389745E+02  0.10566000000E+00 0. -1.
         23    2    1    0    0    0  0.13854832998E+02  0.14957039527E+02  0.22623675342E+02  0.94545113450E+02  0.89505744857E+02 0.  0.
         13    1    3    3    0    0  0.96400270738E+01  0.46110082940E+02 -0.11145702289E+02  0.48407723705E+02  0.10566000000E+00 0.  1.
         22    1    1    0    0    0 -0.13854832998E+02 -0.14957039527E+02 -0.22623675342E+02  0.30454886550E+02  0.00000000000E+00 0.  1.
</event>
<event>
 5    1  0.2491889E-009  0.9118800E+02  0.7818608E-02  0.1130116E+00
         25   -1    0    0    0    0  0.00000000000E+00  0.00000000000E+00  0.99999998245E-14  0.12500000000E+03  0.12500000000E+03 0.  0.
        -13    1    3    3    0    0  0.22158055689E+02 -0.27903189103E+02  0.13260595487E+02  0.38018705275E+02  0.10566000000E+00 0. -1.
         23    2    1    0    0    0  0.41169984545E+00  0.23395161996E+02  0.20098731383E+02  0.94154220633E+02  0.88958165213E+02 0.  0.
         13    1    3    3    0    0 -0.21746355844E+02  0.51298351099E+02  0.68381358958E+01  0.56135515358E+02  0.10566000000E+00 0.  1.
         22    1    1    0    0    0 -0.41169984545E+00 -0.23395161996E+02 -0.20098731383E+02  0.30845779367E+02  0.00000000000E+00 0.  1.
</event>
<event>
 5    1  0.2491889E-009  0.9118800E+02  0.7818608E-02  0.1130116E+00
         25   -1    0    0    0    0  0.00000000000E+00  0.00000000000E+00  0.99999998245E-14  0.12500000000E+03  0.12500000000E+03 0.  0.
        -13    1    3    3    0    0  0.98607161126E+00 -0.15972533653E+02 -0.30757830482E+02  0.34672027176E+02  0.10566000000E+00 0.  1.
         23    2    1    0    0    0  0.14485245424E+02  0.21420825272E+02  0.14854693874E+02  0.95178262619E+02  0.90385649606E+02 0.  0.
         13    1    3    3    0    0  0.13499173813E+02  0.37393358925E+02  0.45612524356E+02  0.60506235443E+02  0.10566000000E+00 0. -1.
         22    1    1    0    0    0 -0.14485245424E+02 -0.21420825272E+02 -0.14854693874E+02  0.29821737381E+02  0.00000000000E+00 0. -1.
</event>
<event>
 5    1  0.2491889E-009  0.9118800E+02  0.7818608E-02  0.1130116E+00
         25   -1    0    0    0    0  0.00000000000E+00  0.00000000000E+00  0.99999998245E-14  0.12500000000E+03  0.12500000000E+03 0.  0.
        -13    1    3    3    0    0 -0.38744580729E+02 -0.11541575298E+02 -0.35821960618E+02  0.54014576947E+02  0.10566000000E+00 0.  1.
         23    2    1    0    0    0 -0.82658136888E+00 -0.97224549260E+01 -0.31263668282E+02  0.92249025648E+02  0.86239529290E+02 0.  0.
         13    1    3    3    0    0  0.37917999360E+02  0.18191203722E+01  0.45582923362E+01  0.38234448701E+02  0.10566000000E+00 0. -1.
         22    1    1    0    0    0  0.82658136888E+00  0.97224549260E+01  0.31263668282E+02  0.32750974352E+02  0.00000000000E+00 0.  1.
</event>
<event>
 5    1  0.2491889E-009  0.9118800E+02  0.7818608E-02  0.1130116E+00
         25   -1    0    0    0    0  0.00000000000E+00  0.00000000000E+00  0.99999998245E-14  0.12500000000E+03  0.12500000000E+03 0.  0.
        -13    1    3    3    0    0 -0.25007013767E+02 -0.42424552343E+02  0.37548699498E+02  0.61928259923E+02  0.10566000000E+00 0. -1.
         23    2    1    0    0    0 -0.89689496779E+01 -0.17576149203E+02  0.22370055381E+02  0.95170778473E+02  0.90375298717E+02 0.  0.
         13    1    3    3    0    0  0.16038064090E+02  0.24848403139E+02 -0.15178644116E+02  0.33242518550E+02  0.10566000000E+00 0.  1.
         22    1    1    0    0    0  0.89689496779E+01  0.17576149203E+02 -0.22370055381E+02  0.29829221527E+02  0.00000000000E+00 0. -1.
</event>
<event>
 5    1  0.2491889E-009  0.9118800E+02  0.7818608E-02  0.1130116E+00
         25   -1    0    0    0    0  0.00000000000E+00  0.00000000000E+00  0.99999998245E-14  0.12500000000E+03  0.12500000000E+03 0.  0.
        -13    1    3    3    0    0  0.46348649195E+02  0.18018212662E+02 -0.13052404381E+02  0.51412349624E+02  0.10566000000E+00 0. -1.
         23    2    1    0    0    0  0.33684261368E+01  0.21926043277E+02 -0.20007680624E+02  0.95126852319E+02  0.90314523083E+02 0.  0.
         13    1    3    3    0    0 -0.42980223058E+02  0.39078306160E+01 -0.69552762427E+01  0.43714502695E+02  0.10566000000E+00 0.  1.
         22    1    1    0    0    0 -0.33684261368E+01 -0.21926043277E+02  0.20007680624E+02  0.29873147681E+02  0.00000000000E+00 0. -1.
</event>
<event>
 5    1  0.2491889E-009  0.9118800E+02  0.7818608E-02  0.1130116E+00
         25   -1    0    0    0    0  0.00000000000E+00  0.00000000000E+00  0.99999998245E-14  0.12500000000E+03  0.12500000000E+03 0.  0.
        -13    1    3    3    0    0 -0.27981624284E+02 -0.24578066417E+02  0.13034591051E+02  0.39458387882E+02  0.10566000000E+00 0.  1.
         23    2    1    0    0    0  0.18557028786E+02 -0.13963692006E+02 -0.17322244015E+02  0.96027458697E+02  0.91552524129E+02 0.  0.
         13    1    3    3    0    0  0.46538653070E+02  0.10614374411E+02 -0.30356835066E+02  0.56569070816E+02  0.10566000000E+00 0. -1.
         22    1    1    0    0    0 -0.18557028786E+02  0.13963692006E+02  0.17322244015E+02  0.28972541303E+02  0.00000000000E+00 0. -1.
</event>
<event>
 5    1  0.2491889E-009  0.9118800E+02  0.7818608E-02  0.1130116E+00
         25   -1    0    0    0    0  0.00000000000E+00  0.00000000000E+00  0.99999998245E-14  0.12500000000E+03  0.12500000000E+03 0.  0.
        -13    1    3    3    0    0  0.30668421756E+02 -0.41641297228E+02 -0.23550632855E+02  0.56825990530E+02  0.10566000000E+00 0.  1.
         23    2    1    0    0    0 -0.37181065291E+01 -0.24750980524E+02 -0.14050242727E+02  0.96297305462E+02  0.91920217392E+02 0.  0.
         13    1    3    3    0    0 -0.34386528285E+02  0.16890316704E+02  0.95003901277E+01  0.39471314932E+02  0.10566000000E+00 0. -1.
         22    1    1    0    0    0  0.37181065291E+01  0.24750980524E+02  0.14050242727E+02  0.28702694538E+02  0.00000000000E+00 0.  1.
</event>
<event>
 5    1  0.2491889E-009  0.9118800E+02  0.7818608E-02  0.1130116E+00
         25   -1    0    0    0    0  0.00000000000E+00  0.00000000000E+00  0.99999998245E-14  0.12500000000E+03  0.12500000000E+03 0.  0.
        -13    1    3    3    0    0  0.48357964159E+02  0.37213205621E+02 -0.10495432131E+02  0.61915108252E+02  0.10566000000E+00 0. -1.
         23    2    1    0    0    0  0.23620720881E+02  0.12839211675E+02 -0.28184325758E+00  0.98113883750E+02  0.94358205460E+02 0.  0.
         13    1    3    3    0    0 -0.24737243278E+02 -0.24373993947E+02  0.10213588873E+02  0.36198775499E+02  0.10566000000E+00 0.  1.
         22    1    1    0    0    0 -0.23620720881E+02 -0.12839211675E+02  0.28184325758E+00  0.26886116250E+02  0.00000000000E+00 0. -1.
</event>
<event>
 5    1  0.2491889E-009  0.9118800E+02  0.7818608E-02  0.1130116E+00
         25   -1    0    0    0    0  0.00000000000E+00  0.00000000000E+00  0.99999998245E-14  0.12500000000E+03  0.12500000000E+03 0.  0.
        -13    1    3    3    0    0  0.44352972465E+01  0.13677133630E+02 -0.32867034608E+02  0.35874628555E+02  0.10566000000E+00 0. -1.
         23    2    1    0    0    0 -0.17924551622E+02 -0.21981695747E+02  0.90018215535E+01  0.95242357451E+02  0.90474246959E+02 0.  0.
         13    1    3    3    0    0 -0.22359848869E+02 -0.35658829377E+02  0.41868856161E+02  0.59367728896E+02  0.10566000000E+00 0.  1.
         22    1    1    0    0    0  0.17924551622E+02  0.21981695747E+02 -0.90018215535E+01  0.29757642549E+02  0.00000000000E+00 0.  1.
</event>
<event>
 5    1  0.2491889E-009  0.9118800E+02  0.7818608E-02  0.1130116E+00
         25   -1    0    0    0    0  0.00000000000E+00  0.00000000000E+00  0.99999998245E-14  0.12500000000E+03  0.12500000000E+03 0.  0.
        -13    1    3    3    0    0 -0.10111094540E+02  0.44421878479E+01  0.31323515535E+02  0.33213567335E+02  0.10566000000E+00 0. -1.
         23    2    1    0    0    0  0.89335745701E+01 -0.17434747371E+02 -0.22995190228E+02  0.94791425984E+02  0.89849076211E+02 0.  0.
         13    1    3    3    0    0  0.19044669110E+02 -0.21876935219E+02 -0.54318705762E+02  0.61577858649E+02  0.10566000000E+00 0.  1.
         22    1    1    0    0    0 -0.89335745701E+01  0.17434747371E+02  0.22995190228E+02  0.30208574016E+02  0.00000000000E+00 0.  1.
</event>
<event>
 5    1  0.2491889E-009  0.9118800E+02  0.7818608E-02  0.1130116E+00
         25   -1    0    0    0    0  0.00000000000E+00  0.00000000000E+00  0.99999998245E-14  0.12500000000E+03  0.12500000000E+03 0.  0.
        -13    1    3    3    0    0 -0.15046976507E+02  0.43761255892E+02 -0.38373580004E+02  0.60116568644E+02  0.10566000000E+00 0.  1.
         23    2    1    0    0    0  0.46455377181E+01  0.23351443264E+02 -0.15084177153E+02  0.96814838593E+02  0.92621323939E+02 0.  0.
         13    1    3    3    0    0  0.19692514225E+02 -0.20409812628E+02  0.23289402851E+02  0.36698269949E+02  0.10566000000E+00 0. -1.
         22    1    1    0    0    0 -0.46455377181E+01 -0.23351443264E+02  0.15084177153E+02  0.28185161407E+02  0.00000000000E+00 0.  1.
</event>
<event>
 5    1  0.2491889E-009  0.9118800E+02  0.7818608E-02  0.1130116E+00
         25   -1    0    0    0    0  0.00000000000E+00  0.00000000000E+00  0.99999998245E-14  0.12500000000E+03  0.12500000000E+03 0.  0.
        -13    1    3    3    0    0  0.54040871078E+01  0.27923438590E+02  0.21231198258E+02  0.35492217790E+02  0.10566000000E+00 0.  1.
         23    2    1    0    0    0  0.12599031224E+02 -0.11172216294E+02 -0.23982441932E+02  0.95696219941E+02  0.91099149202E+02 0.  0.
         13    1    3    3    0    0  0.71949441159E+01 -0.39095654885E+02 -0.45213640190E+02  0.60204002151E+02  0.10566000000E+00 0. -1.
         22    1    1    0    0    0 -0.12599031224E+02  0.11172216294E+02  0.23982441932E+02  0.29303780059E+02  0.00000000000E+00 0. -1.
</event>
<event>
 5    1  0.2491889E-009  0.9118800E+02  0.7818608E-02  0.1130116E+00
         25   -1    0    0    0    0  0.00000000000E+00  0.00000000000E+00  0.99999998245E-14  0.12500000000E+03  0.12500000000E+03 0.  0.
        -13    1    3    3    0    0  0.15801074220E+02 -0.32602763299E+01  0.42976367874E+02  0.45905149035E+02  0.10566000000E+00 0.  1.
         23    2    1    0    0    0 -0.24310106288E+02  0.62991691209E+01  0.17805301211E+02  0.94215433241E+02  0.89044136866E+02 0.  0.
         13    1    3    3    0    0 -0.40111180508E+02  0.95594454507E+01 -0.25171066663E+02  0.48310284206E+02  0.10566000000E+00 0. -1.
         22    1    1    0    0    0  0.24310106288E+02 -0.62991691209E+01 -0.17805301211E+02  0.30784566759E+02  0.00000000000E+00 0. -1.
</event>
<event>
 5    1  0.2491889E-009  0.9118800E+02  0.7818608E-02  0.1130116E+00
         25   -1    0    0    0    0  0.00000000000E+00  0.00000000000E+00  0.99999998245E-14  0.12500000000E+03  0.12500000000E+03 0.  0.
        -13    1    3    3    0    0 -0.19579732260E+02 -0.11419672543E+01  0.31838989154E+02  0.37395218931E+02  0.10566000000E+00 0.  1.
         23    2    1    0    0    0  0.17865605884E+02  0.14965589097E+02 -0.13260097774E+02  0.98186217656E+02  0.94453980404E+02 0.  0.
         13    1    3    3    0    0  0.37445338143E+02  0.16107556351E+02 -0.45099086927E+02  0.60790998725E+02  0.10566000000E+00 0. -1.
         22    1    1    0    0    0 -0.17865605884E+02 -0.14965589097E+02  0.13260097774E+02  0.26813782344E+02  0.00000000000E+00 0. -1.
</event>
<event>
 5    1  0.2491889E-009  0.9118800E+02  0.7818608E-02  0.1130116E+00
         25   -1    0    0    0    0  0.00000000000E+00  0.00000000000E+00  0.99999998245E-14  0.12500000000E+03  0.12500000000E+03 0.  0.
        -13    1    3    3    0    0 -0.31213213310E+02  0.29228759817E+02 -0.36049536924E+02  0.55930004130E+02  0.10566000000E+00 0.  1.
         23    2    1    0    0    0 -0.28425641923E+02 -0.76057343491E+00 -0.13695333141E+02  0.93438033323E+02  0.87946053526E+02 0.  0.
         13    1    3    3    0    0  0.27875713872E+01 -0.29989333252E+02  0.22354203783E+02  0.37508029193E+02  0.10566000000E+00 0. -1.
         22    1    1    0    0    0  0.28425641923E+02  0.76057343491E+00  0.13695333141E+02  0.31561966677E+02  0.00000000000E+00 0.  1.
</event>
<event>
 5    1  0.2491889E-009  0.9118800E+02  0.7818608E-02  0.1130116E+00
         25   -1    0    0    0    0  0.00000000000E+00  0.00000000000E+00  0.99999998245E-14  0.12500000000E+03  0.12500000000E+03 0.  0.
        -13    1    3    3    0    0  0.24364763744E+02  0.27973765527E+02  0.10738155023E+02  0.38619844735E+02  0.10566000000E+00 0.  1.
         23    2    1    0    0    0 -0.11718915911E+02  0.14103708291E+02 -0.26814995222E+02  0.92514748785E+02  0.86623825801E+02 0.  0.
         13    1    3    3    0    0 -0.36083679655E+02 -0.13870057236E+02 -0.37553150245E+02  0.53894904050E+02  0.10566000000E+00 0. -1.
         22    1    1    0    0    0  0.11718915911E+02 -0.14103708291E+02  0.26814995222E+02  0.32485251215E+02  0.00000000000E+00 0. -1.
</event>
<event>
 5    1  0.2491889E-009  0.9118800E+02  0.7818608E-02  0.1130116E+00
         25   -1    0    0    0    0  0.00000000000E+00  0.00000000000E+00  0.99999998245E-14  0.12500000000E+03  0.12500000000E+03 0.  0.
        -13    1    3    3    0    0 -0.23459976550E+02 -0.27435175536E+02  0.34848791050E+02  0.50174782093E+02  0.10566000000E+00 0. -1.
         23    2    1    0    0    0 -0.16733347567E+02  0.13088779273E+02  0.45487584084E+00  0.10375081235E+03  0.10155147999E+03 0.  0.
         13    1    3    3    0    0  0.67266289827E+01  0.40523954809E+02 -0.34393915209E+02  0.53576030259E+02  0.10566000000E+00 0.  1.
         22    1    1    0    0    0  0.16733347567E+02 -0.13088779273E+02 -0.45487584084E+00  0.21249187648E+02  0.00000000000E+00 0. -1.
</event>
<event>
 5    1  0.2491889E-009  0.9118800E+02  0.7818608E-02  0.1130116E+00
         25   -1    0    0    0    0  0.00000000000E+00  0.00000000000E+00  0.99999998245E-14  0.12500000000E+03  0.12500000000E+03 0.  0.
        -13    1    3    3    0    0  0.40464260453E+02 -0.18185200404E+02 -0.14354833896E+02  0.46627570255E+02  0.10566000000E+00 0. -1.
         23    2    1    0    0    0  0.11277776119E+02 -0.17817768506E+02  0.22843982668E+02  0.93911277722E+02  0.88616135272E+02 0.  0.
         13    1    3    3    0    0 -0.29186484333E+02  0.36743189780E+00  0.37198816565E+02  0.47283707467E+02  0.10566000000E+00 0.  1.
         22    1    1    0    0    0 -0.11277776119E+02  0.17817768506E+02 -0.22843982668E+02  0.31088722278E+02  0.00000000000E+00 0. -1.
</event>
<event>
 5    1  0.2491889E-009  0.9118800E+02  0.7818608E-02  0.1130116E+00
         25   -1    0    0    0    0  0.00000000000E+00  0.00000000000E+00  0.99999998245E-14  0.12500000000E+03  0.12500000000E+03 0.  0.
        -13    1    3    3    0    0 -0.20702803932E+02 -0.42832393738E+01 -0.11062066618E+02  0.23860693873E+02  0.10566000000E+00 0.  1.
         23    2    1    0    0    0 -0.24720519299E+02 -0.19744436104E+01  0.41515168035E+02  0.76641839583E+02  0.59459733397E+02 0.  0.
         13    1    3    3    0    0 -0.40177153667E+01  0.23087957634E+01  0.52577234653E+02  0.52781145710E+02  0.10566000000E+00 0. -1.
         22    1    1    0    0    0  0.24720519299E+02  0.19744436104E+01 -0.41515168035E+02  0.48358160417E+02  0.00000000000E+00 0. -1.
</event>
<event>
 5    1  0.2491889E-009  0.9118800E+02  0.7818608E-02  0.1130116E+00
         25   -1    0    0    0    0  0.00000000000E+00  0.00000000000E+00  0.99999998245E-14  0.12500000000E+03  0.12500000000E+03 0.  0.
        -13    1    3    3    0    0 -0.44816106992E+02  0.17267713060E+02  0.21377811493E+02  0.52570708085E+02  0.10566000000E+00 0.  1.
         23    2    1    0    0    0 -0.38570409090E+01  0.28728208546E+01  0.28089710794E+02  0.96501548872E+02  0.92197544533E+02 0.  0.
         13    1    3    3    0    0  0.40959066083E+02 -0.14394892205E+02  0.67118993009E+01  0.43930840787E+02  0.10566000000E+00 0. -1.
         22    1    1    0    0    0  0.38570409090E+01 -0.28728208546E+01 -0.28089710794E+02  0.28498451128E+02  0.00000000000E+00 0. -1.
</event>
<event>
 5    1  0.2491889E-009  0.9118800E+02  0.7818608E-02  0.1130116E+00
         25   -1    0    0    0    0  0.00000000000E+00  0.00000000000E+00  0.99999998245E-14  0.12500000000E+03  0.12500000000E+03 0.  0.
        -13    1    3    3    0    0 -0.36847532579E+02  0.36410516148E+02  0.92123261076E+00  0.51810483272E+02  0.10566000000E+00 0. -1.
         23    2    1    0    0    0 -0.18311377129E+02  0.19713469604E+01  0.22055380076E+02  0.96266177917E+02  0.91877878073E+02 0.  0.
         13    1    3    3    0    0  0.18536155449E+02 -0.34439169188E+02  0.21134147466E+02  0.44455694645E+02  0.10566000000E+00 0.  1.
         22    1    1    0    0    0  0.18311377129E+02 -0.19713469604E+01 -0.22055380076E+02  0.28733822083E+02  0.00000000000E+00 0.  1.
</event>
<event>
 5    1  0.2491889E-009  0.9118800E+02  0.7818608E-02  0.1130116E+00
         25   -1    0    0    0    0  0.00000000000E+00  0.00000000000E+00  0.99999998245E-14  0.12500000000E+03  0.12500000000E+03 0.  0.
        -13    1    3    3    0    0  0.32423731503E+02  0.62541580075E+01  0.43528004469E+02  0.54636171115E+02  0.10566000000E+00 0.  1.
         23    2    1    0    0    0 -0.17847072127E+01 -0.97795095645E+01  0.27650665125E+02  0.95616615766E+02  0.90989856256E+02 0.  0.
         13    1    3    3    0    0 -0.34208438715E+02 -0.16033667572E+02 -0.15877339344E+02  0.40980444652E+02  0.10566000000E+00 0. -1.
         22    1    1    0    0    0  0.17847072127E+01  0.97795095645E+01 -0.27650665125E+02  0.29383384234E+02  0.00000000000E+00 0.  1.
</event>
<event>
 5    1  0.2491889E-009  0.9118800E+02  0.7818608E-02  0.1130116E+00
         25   -1    0    0    0    0  0.00000000000E+00  0.00000000000E+00  0.99999998245E-14  0.12500000000E+03  0.12500000000E+03 0.  0.
        -13    1    3    3    0    0  0.16751439242E+02 -0.32875250751E+02 -0.69701919098E+01  0.37549801170E+02  0.10566000000E+00 0.  1.
         23    2    1    0    0    0 -0.12962445528E+01  0.93315088733E+01  0.28129351127E+02  0.95334907675E+02  0.90602024915E+02 0.  0.
         13    1    3    3    0    0 -0.18047683795E+02  0.42206759624E+02  0.35099543037E+02  0.57785106505E+02  0.10566000000E+00 0. -1.
         22    1    1    0    0    0  0.12962445528E+01 -0.93315088733E+01 -0.28129351127E+02  0.29665092325E+02  0.00000000000E+00 0. -1.
</event>
<event>
 5    1  0.2491889E-009  0.9118800E+02  0.7818608E-02  0.1130116E+00
         25   -1    0    0    0    0  0.00000000000E+00  0.00000000000E+00  0.99999998245E-14  0.12500000000E+03  0.12500000000E+03 0.  0.
        -13    1    3    3    0    0  0.33214990210E+02  0.11070012012E+01 -0.22557864904E+02  0.40166272660E+02  0.10566000000E+00 0.  1.
         23    2    1    0    0    0  0.70870609847E+01  0.31706773432E+01  0.27367150081E+02  0.96552846684E+02  0.92267067098E+02 0.  0.
         13    1    3    3    0    0 -0.26127929225E+02  0.20636761420E+01  0.49925014986E+02  0.56386574024E+02  0.10566000000E+00 0. -1.
         22    1    1    0    0    0 -0.70870609847E+01 -0.31706773432E+01 -0.27367150081E+02  0.28447153316E+02  0.00000000000E+00 0. -1.
</event>
<event>
 5    1  0.2491889E-009  0.9118800E+02  0.7818608E-02  0.1130116E+00
         25   -1    0    0    0    0  0.00000000000E+00  0.00000000000E+00  0.99999998245E-14  0.12500000000E+03  0.12500000000E+03 0.  0.
        -13    1    3    3    0    0  0.29242668105E+02 -0.13971986064E+01 -0.45109333407E+02  0.53776843774E+02  0.10566000000E+00 0. -1.
         23    2    1    0    0    0  0.11670193563E+02 -0.23129777754E+02 -0.14168066932E+02  0.95471807415E+02  0.90790703565E+02 0.  0.
         13    1    3    3    0    0 -0.17572474543E+02 -0.21732579148E+02  0.30941266475E+02  0.41694963641E+02  0.10566000000E+00 0.  1.
         22    1    1    0    0    0 -0.11670193563E+02  0.23129777754E+02  0.14168066932E+02  0.29528192585E+02  0.00000000000E+00 0. -1.
</event>
<event>
 5    1  0.2491889E-009  0.9118800E+02  0.7818608E-02  0.1130116E+00
         25   -1    0    0    0    0  0.00000000000E+00  0.00000000000E+00  0.99999998245E-14  0.12500000000E+03  0.12500000000E+03 0.  0.
        -13    1    3    3    0    0 -0.31239903019E+02 -0.27829405603E+02 -0.33425931079E+02  0.53551016698E+02  0.10566000000E+00 0. -1.
         23    2    1    0    0    0 -0.22643903997E+02  0.96630785145E+01 -0.14608662899E+02  0.96372486900E+02  0.92022397953E+02 0.  0.
         13    1    3    3    0    0  0.85959990223E+01  0.37492484117E+02  0.18817268180E+02  0.42821470202E+02  0.10566000000E+00 0.  1.
         22    1    1    0    0    0  0.22643903997E+02 -0.96630785145E+01  0.14608662899E+02  0.28627513100E+02  0.00000000000E+00 0. -1.
</event>
<event>
 5    1  0.2491889E-009  0.9118800E+02  0.7818608E-02  0.1130116E+00
         25   -1    0    0    0    0  0.00000000000E+00  0.00000000000E+00  0.99999998245E-14  0.12500000000E+03  0.12500000000E+03 0.  0.
        -13    1    3    3    0    0  0.18532411329E+02  0.26555227015E+02 -0.65957065633E+01  0.33047615051E+02  0.10566000000E+00 0. -1.
         23    2    1    0    0    0 -0.90282892522E+01 -0.28199221041E+02  0.35410495055E+01  0.95179786960E+02  0.90387757689E+02 0.  0.
         13    1    3    3    0    0 -0.27560700581E+02 -0.54754448056E+02  0.10136756069E+02  0.62132171909E+02  0.10566000000E+00 0.  1.
         22    1    1    0    0    0  0.90282892522E+01  0.28199221041E+02 -0.35410495055E+01  0.29820213040E+02  0.00000000000E+00 0.  1.
</event>
<event>
 5    1  0.2491889E-009  0.9118800E+02  0.7818608E-02  0.1130116E+00
         25   -1    0    0    0    0  0.00000000000E+00  0.00000000000E+00  0.99999998245E-14  0.12500000000E+03  0.12500000000E+03 0.  0.
        -13    1    3    3    0    0 -0.12642389665E+02  0.52450616389E+02 -0.27550645944E+02  0.60580082799E+02  0.10566000000E+00 0.  1.
         23    2    1    0    0    0 -0.17267651552E+02  0.25690466228E+02 -0.12610703878E+02  0.91575432726E+02  0.85257598966E+02 0.  0.
         13    1    3    3    0    0 -0.46252618867E+01 -0.26760150160E+02  0.14939942066E+02  0.30995349927E+02  0.10566000000E+00 0. -1.
         22    1    1    0    0    0  0.17267651552E+02 -0.25690466228E+02  0.12610703878E+02  0.33424567274E+02  0.00000000000E+00 0.  1.
</event>
<event>
 5    1  0.2491889E-009  0.9118800E+02  0.7818608E-02  0.1130116E+00
         25   -1    0    0    0    0  0.00000000000E+00  0.00000000000E+00  0.99999998245E-14  0.12500000000E+03  0.12500000000E+03 0.  0.
        -13    1    3    3    0    0 -0.50423190582E+02  0.29211574765E+02  0.10920846766E+02  0.59288197028E+02  0.10566000000E+00 0. -1.
         23    2    1    0    0    0 -0.25530185804E+02  0.18141477490E+01  0.12859801996E+02  0.96356396410E+02  0.92000538599E+02 0.  0.
         13    1    3    3    0    0  0.24893004778E+02 -0.27397427016E+02  0.19389552300E+01  0.37068199382E+02  0.10566000000E+00 0.  1.
         22    1    1    0    0    0  0.25530185804E+02 -0.18141477490E+01 -0.12859801996E+02  0.28643603590E+02  0.00000000000E+00 0. -1.
</event>
<event>
 5    1  0.2491889E-009  0.9118800E+02  0.7818608E-02  0.1130116E+00
         25   -1    0    0    0    0  0.00000000000E+00  0.00000000000E+00  0.99999998245E-14  0.12500000000E+03  0.12500000000E+03 0.  0.
        -13    1    3    3    0    0  0.18425355061E+02  0.31357279407E+01  0.35988384983E+02  0.40552453891E+02  0.10566000000E+00 0. -1.
         23    2    1    0    0    0 -0.24380687507E+02 -0.15222338591E+02  0.69864184153E+01  0.95420487534E+02  0.90720019199E+02 0.  0.
         13    1    3    3    0    0 -0.42806042567E+02 -0.18358066531E+02 -0.29001966568E+02  0.54868033643E+02  0.10566000000E+00 0.  1.
         22    1    1    0    0    0  0.24380687507E+02  0.15222338591E+02 -0.69864184153E+01  0.29579512466E+02  0.00000000000E+00 0.  1.
</event>
<event>
 5    1  0.2491889E-009  0.9118800E+02  0.7818608E-02  0.1130116E+00
         25   -1    0    0    0    0  0.00000000000E+00  0.00000000000E+00  0.99999998245E-14  0.12500000000E+03  0.12500000000E+03 0.  0.
        -13    1    3    3    0    0 -0.52309529521E+01  0.50742994113E+02 -0.56550258465E+01  0.51324504885E+02  0.10566000000E+00 0.  1.
         23    2    1    0    0    0 -0.26823980577E+02  0.12644961712E+02 -0.16517114876E+01  0.95299004368E+02  0.90552477006E+02 0.  0.
         13    1    3    3    0    0 -0.21593027625E+02 -0.38098032401E+02  0.40033143588E+01  0.43974499482E+02  0.10566000000E+00 0. -1.
         22    1    1    0    0    0  0.26823980577E+02 -0.12644961712E+02  0.16517114876E+01  0.29700995632E+02  0.00000000000E+00 0.  1.
</event>
<event>
 5    1  0.2491889E-009  0.9118800E+02  0.7818608E-02  0.1130116E+00
         25   -1    0    0    0    0  0.00000000000E+00  0.00000000000E+00  0.99999998245E-14  0.12500000000E+03  0.12500000000E+03 0.  0.
        -13    1    3    3    0    0 -0.38512368331E+02  0.15252369426E+02  0.24538164479E+02  0.48145300577E+02  0.10566000000E+00 0. -1.
         23    2    1    0    0    0 -0.15167162039E+02 -0.23270849369E+02  0.99779144017E+01  0.95485020574E+02  0.90808893527E+02 0.  0.
         13    1    3    3    0    0  0.23345206292E+02 -0.38523218795E+02 -0.14560250077E+02  0.47339719998E+02  0.10566000000E+00 0.  1.
         22    1    1    0    0    0  0.15167162039E+02  0.23270849369E+02 -0.99779144017E+01  0.29514979426E+02  0.00000000000E+00 0.  1.
</event>
<event>
 5    1  0.2491889E-009  0.9118800E+02  0.7818608E-02  0.1130116E+00
         25   -1    0    0    0    0  0.00000000000E+00  0.00000000000E+00  0.99999998245E-14  0.12500000000E+03  0.12500000000E+03 0.  0.
        -13    1    3    3    0    0 -0.12464510517E+02 -0.12764024224E+02 -0.26373093898E+02  0.31840784893E+02  0.10566000000E+00 0. -1.
         23    2    1    0    0    0  0.83507813773E+01  0.36894850513E+01  0.29728969384E+02  0.93900812387E+02  0.88601371868E+02 0.  0.
         13    1    3    3    0    0  0.20815291894E+02  0.16453509275E+02  0.56102063282E+02  0.62060027494E+02  0.10566000000E+00 0.  1.
         22    1    1    0    0    0 -0.83507813773E+01 -0.36894850513E+01 -0.29728969384E+02  0.31099187613E+02  0.00000000000E+00 0.  1.
</event>
<event>
 5    1  0.2491889E-009  0.9118800E+02  0.7818608E-02  0.1130116E+00
         25   -1    0    0    0    0  0.00000000000E+00  0.00000000000E+00  0.99999998245E-14  0.12500000000E+03  0.12500000000E+03 0.  0.
        -13    1    3    3    0    0  0.26926218589E+02  0.19419772661E+02 -0.48942947084E+02  0.59140274357E+02  0.10566000000E+00 0. -1.
         23    2    1    0    0    0  0.23089458801E+02  0.13799709013E+02 -0.14123444944E+02  0.94618644309E+02  0.89608376155E+02 0.  0.
         13    1    3    3    0    0 -0.38367597879E+01 -0.56200636480E+01  0.34819502141E+02  0.35478369952E+02  0.10566000000E+00 0.  1.
         22    1    1    0    0    0 -0.23089458801E+02 -0.13799709013E+02  0.14123444944E+02  0.30381355691E+02  0.00000000000E+00 0. -1.
</event>
<event>
 5    1  0.2491889E-009  0.9118800E+02  0.7818608E-02  0.1130116E+00
         25   -1    0    0    0    0  0.00000000000E+00  0.00000000000E+00  0.99999998245E-14  0.12500000000E+03  0.12500000000E+03 0.  0.
        -13    1    3    3    0    0  0.18015727197E+02  0.36446454057E+02  0.27688283895E+02  0.49189050294E+02  0.10566000000E+00 0.  1.
         23    2    1    0    0    0  0.28248974169E+02  0.52653575327E+00 -0.16716659105E+01  0.96696709583E+02  0.92461761804E+02 0.  0.
         13    1    3    3    0    0  0.10233246972E+02 -0.35919918303E+02 -0.29359949806E+02  0.47507659289E+02  0.10566000000E+00 0. -1.
         22    1    1    0    0    0 -0.28248974169E+02 -0.52653575327E+00  0.16716659105E+01  0.28303290417E+02  0.00000000000E+00 0. -1.
</event>
<event>
 5    1  0.2491889E-009  0.9118800E+02  0.7818608E-02  0.1130116E+00
         25   -1    0    0    0    0  0.00000000000E+00  0.00000000000E+00  0.99999998245E-14  0.12500000000E+03  0.12500000000E+03 0.  0.
        -13    1    3    3    0    0 -0.96022890562E+01  0.69705225284E+01  0.38670616917E+02  0.40450215280E+02  0.10566000000E+00 0.  1.
         23    2    1    0    0    0  0.24935692748E+02  0.13067890455E+02 -0.49436055229E+01  0.96416827165E+02  0.92082608517E+02 0.  0.
         13    1    3    3    0    0  0.34537981804E+02  0.60973679262E+01 -0.43614222440E+02  0.55966611884E+02  0.10566000000E+00 0. -1.
         22    1    1    0    0    0 -0.24935692748E+02 -0.13067890455E+02  0.49436055229E+01  0.28583172835E+02  0.00000000000E+00 0. -1.
</event>
<event>
 5    1  0.2491889E-009  0.9118800E+02  0.7818608E-02  0.1130116E+00
         25   -1    0    0    0    0  0.00000000000E+00  0.00000000000E+00  0.99999998245E-14  0.12500000000E+03  0.12500000000E+03 0.  0.
        -13    1    3    3    0    0 -0.46956993214E+02  0.30911778126E+01  0.84049688115E+01  0.47803443984E+02  0.10566000000E+00 0. -1.
         23    2    1    0    0    0 -0.55517318363E+01  0.94063163753E+01  0.28660742928E+02  0.94328536074E+02  0.89202769119E+02 0.  0.
         13    1    3    3    0    0  0.41405261378E+02  0.63151385627E+01  0.20255774117E+02  0.46525092090E+02  0.10566000000E+00 0.  1.
         22    1    1    0    0    0  0.55517318363E+01 -0.94063163753E+01 -0.28660742928E+02  0.30671463926E+02  0.00000000000E+00 0. -1.
</event>
<event>
 5    1  0.2491889E-009  0.9118800E+02  0.7818608E-02  0.1130116E+00
         25   -1    0    0    0    0  0.00000000000E+00  0.00000000000E+00  0.99999998245E-14  0.12500000000E+03  0.12500000000E+03 0.  0.
        -13    1    3    3    0    0  0.31831767441E+02 -0.37236707192E+02 -0.27970776969E+02  0.56411074349E+02  0.10566000000E+00 0. -1.
         23    2    1    0    0    0  0.19048854153E+02 -0.21657021827E+02  0.56501299498E+01  0.95609365311E+02  0.90979895185E+02 0.  0.
         13    1    3    3    0    0 -0.12782913288E+02  0.15579685365E+02  0.33620906919E+02  0.39198290962E+02  0.10566000000E+00 0.  1.
         22    1    1    0    0    0 -0.19048854153E+02  0.21657021827E+02 -0.56501299498E+01  0.29390634689E+02  0.00000000000E+00 0. -1.
</event>
<event>
 5    1  0.2491889E-009  0.9118800E+02  0.7818608E-02  0.1130116E+00
         25   -1    0    0    0    0  0.00000000000E+00  0.00000000000E+00  0.99999998245E-14  0.12500000000E+03  0.12500000000E+03 0.  0.
        -13    1    3    3    0    0  0.98233277432E+01 -0.35809346215E+02 -0.12758363484E+02  0.39263138529E+02  0.10566000000E+00 0.  1.
         23    2    1    0    0    0  0.82663018878E+00  0.18154762359E+02 -0.23779304829E+02  0.95071183587E+02  0.90237441767E+02 0.  0.
         13    1    3    3    0    0 -0.89966975544E+01  0.53964108574E+02 -0.11020941344E+02  0.55808045058E+02  0.10566000000E+00 0. -1.
         22    1    1    0    0    0 -0.82663018878E+00 -0.18154762359E+02  0.23779304829E+02  0.29928816413E+02  0.00000000000E+00 0. -1.
</event>
<event>
 5    1  0.2491889E-009  0.9118800E+02  0.7818608E-02  0.1130116E+00
         25   -1    0    0    0    0  0.00000000000E+00  0.00000000000E+00  0.99999998245E-14  0.12500000000E+03  0.12500000000E+03 0.  0.
        -13    1    3    3    0    0  0.23899773929E+02 -0.21457051472E+02 -0.15224546090E+02  0.35544369729E+02  0.10566000000E+00 0.  1.
         23    2    1    0    0    0 -0.30523584706E+02 -0.31681514000E+01 -0.38882206239E+01  0.94067094119E+02  0.88835654609E+02 0.  0.
         13    1    3    3    0    0 -0.54423358635E+02  0.18288900072E+02  0.11336325466E+02  0.58522724391E+02  0.10566000000E+00 0. -1.
         22    1    1    0    0    0  0.30523584706E+02  0.31681514000E+01  0.38882206239E+01  0.30932905881E+02  0.00000000000E+00 0. -1.
</event>
<event>
 5    1  0.2491889E-009  0.9118800E+02  0.7818608E-02  0.1130116E+00
         25   -1    0    0    0    0  0.00000000000E+00  0.00000000000E+00  0.99999998245E-14  0.12500000000E+03  0.12500000000E+03 0.  0.
        -13    1    3    3    0    0 -0.11731113835E+02  0.22857954907E+02 -0.33659858070E+02  0.42345039186E+02  0.10566000000E+00 0.  1.
         23    2    1    0    0    0  0.22551964502E+02 -0.12831968956E+02 -0.13086822029E+02  0.95939452156E+02  0.91432286633E+02 0.  0.
         13    1    3    3    0    0  0.34283078338E+02 -0.35689923862E+02  0.20573036041E+02  0.53594412970E+02  0.10566000000E+00 0. -1.
         22    1    1    0    0    0 -0.22551964502E+02  0.12831968956E+02  0.13086822029E+02  0.29060547844E+02  0.00000000000E+00 0. -1.
</event>
<event>
 5    1  0.2491889E-009  0.9118800E+02  0.7818608E-02  0.1130116E+00
         25   -1    0    0    0    0  0.00000000000E+00  0.00000000000E+00  0.99999998245E-14  0.12500000000E+03  0.12500000000E+03 0.  0.
        -13    1    3    3    0    0 -0.45967153372E+02  0.37417534409E+01  0.48858567710E+01  0.46377393937E+02  0.10566000000E+00 0.  1.
         23    2    1    0    0    0 -0.80518627931E+01 -0.27748291305E+02  0.50753558604E+01  0.95664707230E+02  0.91055899356E+02 0.  0.
         13    1    3    3    0    0  0.37915290579E+02 -0.31490044746E+02  0.18949908939E+00  0.49287313294E+02  0.10566000000E+00 0. -1.
         22    1    1    0    0    0  0.80518627931E+01  0.27748291305E+02 -0.50753558604E+01  0.29335292770E+02  0.00000000000E+00 0. -1.
</event>
<event>
 5    1  0.2491889E-009  0.9118800E+02  0.7818608E-02  0.1130116E+00
         25   -1    0    0    0    0  0.00000000000E+00  0.00000000000E+00  0.99999998245E-14  0.12500000000E+03  0.12500000000E+03 0.  0.
        -13    1    3    3    0    0 -0.18368390929E+02  0.67625128222E+01 -0.36126847501E+02  0.41088801873E+02  0.10566000000E+00 0.  1.
         23    2    1    0    0    0 -0.19893977227E+02 -0.99067594123E+01  0.17146517188E+02  0.96930136023E+02  0.92776796700E+02 0.  0.
         13    1    3    3    0    0 -0.15255862982E+01 -0.16669272234E+02  0.53273364689E+02  0.55841334150E+02  0.10566000000E+00 0. -1.
         22    1    1    0    0    0  0.19893977227E+02  0.99067594123E+01 -0.17146517188E+02  0.28069863977E+02  0.00000000000E+00 0. -1.
</event>
<event>
 5    1  0.2491889E-009  0.9118800E+02  0.7818608E-02  0.1130116E+00
         25   -1    0    0    0    0  0.00000000000E+00  0.00000000000E+00  0.99999998245E-14  0.12500000000E+03  0.12500000000E+03 0.  0.
        -13    1    3    3    0    0 -0.22760979704E+02 -0.51695079869E+02  0.77052502655E+01  0.57007240991E+02  0.10566000000E+00 0. -1.
         23    2    1    0    0    0 -0.24828660225E+02 -0.12154486306E+02  0.64065202610E+01  0.96623294628E+02  0.92362458050E+02 0.  0.
         13    1    3    3    0    0 -0.20676805211E+01  0.39540593563E+02 -0.12987300045E+01  0.39616053637E+02  0.10566000000E+00 0.  1.
         22    1    1    0    0    0  0.24828660225E+02  0.12154486306E+02 -0.64065202610E+01  0.28376705372E+02  0.00000000000E+00 0. -1.
</event>
<event>
 5    1  0.2491889E-009  0.9118800E+02  0.7818608E-02  0.1130116E+00
         25   -1    0    0    0    0  0.00000000000E+00  0.00000000000E+00  0.99999998245E-14  0.12500000000E+03  0.12500000000E+03 0.  0.
        -13    1    3    3    0    0  0.76432864434E+01 -0.32869483680E+02 -0.43339022073E+01  0.34023766068E+02  0.10566000000E+00 0.  1.
         23    2    1    0    0    0 -0.18643833345E+02  0.21340967191E+02 -0.10921127917E+02  0.94630600311E+02  0.89625052735E+02 0.  0.
         13    1    3    3    0    0 -0.26287119789E+02  0.54210450871E+02 -0.65872257095E+01  0.60606834244E+02  0.10566000000E+00 0. -1.
         22    1    1    0    0    0  0.18643833345E+02 -0.21340967191E+02  0.10921127917E+02  0.30369399689E+02  0.00000000000E+00 0. -1.
</event>
<event>
 5    1  0.2491889E-009  0.9118800E+02  0.7818608E-02  0.1130116E+00
         25   -1    0    0    0    0  0.00000000000E+00  0.00000000000E+00  0.99999998245E-14  0.12500000000E+03  0.12500000000E+03 0.  0.
        -13    1    3    3    0    0 -0.29810334319E+02 -0.50247443781E+01 -0.22144705582E+02  0.37474034179E+02  0.10566000000E+00 0.  1.
         23    2    1    0    0    0  0.97683265579E+00 -0.49456946210E+01  0.28127373933E+02  0.96424428935E+02  0.92092927165E+02 0.  0.
         13    1    3    3    0    0  0.30787166975E+02  0.79049757061E-01  0.50272079515E+02  0.58950394757E+02  0.10566000000E+00 0. -1.
         22    1    1    0    0    0 -0.97683265579E+00  0.49456946210E+01 -0.28127373933E+02  0.28575571065E+02  0.00000000000E+00 0. -1.
</event>
<event>
 5    1  0.2491889E-009  0.9118800E+02  0.7818608E-02  0.1130116E+00
         25   -1    0    0    0    0  0.00000000000E+00  0.00000000000E+00  0.99999998245E-14  0.12500000000E+03  0.12500000000E+03 0.  0.
        -13    1    3    3    0    0 -0.33670431767E+02 -0.79963288800E+01 -0.43859099985E+02  0.55868336887E+02  0.10566000000E+00 0.  1.
         23    2    1    0    0    0 -0.17786820889E+02 -0.24389516623E+02 -0.20617405814E+02  0.88444604490E+02  0.80536644594E+02 0.  0.
         13    1    3    3    0    0  0.15883610879E+02 -0.16393187743E+02  0.23241694171E+02  0.32576267603E+02  0.10566000000E+00 0. -1.
         22    1    1    0    0    0  0.17786820889E+02  0.24389516623E+02  0.20617405814E+02  0.36555395510E+02  0.00000000000E+00 0.  1.
</event>
<event>
 5    1  0.2491889E-009  0.9118800E+02  0.7818608E-02  0.1130116E+00
         25   -1    0    0    0    0  0.00000000000E+00  0.00000000000E+00  0.99999998245E-14  0.12500000000E+03  0.12500000000E+03 0.  0.
        -13    1    3    3    0    0  0.29789964618E+02  0.19985007546E+02 -0.36753465743E+02  0.51358260550E+02  0.10566000000E+00 0.  1.
         23    2    1    0    0    0  0.87303215292E+01 -0.16297654400E+02 -0.22963960523E+02  0.95518216881E+02  0.90854577322E+02 0.  0.
         13    1    3    3    0    0 -0.21059643088E+02 -0.36282661947E+02  0.13789505220E+02  0.44159956331E+02  0.10566000000E+00 0. -1.
         22    1    1    0    0    0 -0.87303215292E+01  0.16297654400E+02  0.22963960523E+02  0.29481783119E+02  0.00000000000E+00 0.  1.
</event>
<event>
 5    1  0.2491889E-009  0.9118800E+02  0.7818608E-02  0.1130116E+00
         25   -1    0    0    0    0  0.00000000000E+00  0.00000000000E+00  0.99999998245E-14  0.12500000000E+03  0.12500000000E+03 0.  0.
        -13    1    3    3    0    0  0.22091417504E+02  0.34005243932E+02 -0.37922845388E+02  0.55520633179E+02  0.10566000000E+00 0.  1.
         23    2    1    0    0    0  0.17830482197E+02  0.24128997117E+02  0.60460081847E-01  0.94997695877E+02  0.90135586587E+02 0.  0.
         13    1    3    3    0    0 -0.42609353063E+01 -0.98762468154E+01  0.37983305470E+02  0.39477062698E+02  0.10566000000E+00 0. -1.
         22    1    1    0    0    0 -0.17830482197E+02 -0.24128997117E+02 -0.60460081847E-01  0.30002304123E+02  0.00000000000E+00 0.  1.
</event>
<event>
 5    1  0.2491889E-009  0.9118800E+02  0.7818608E-02  0.1130116E+00
         25   -1    0    0    0    0  0.00000000000E+00  0.00000000000E+00  0.99999998245E-14  0.12500000000E+03  0.12500000000E+03 0.  0.
        -13    1    3    3    0    0  0.44208957300E+02 -0.43874054757E+01 -0.26241451994E+00  0.44427032962E+02  0.10566000000E+00 0.  1.
         23    2    1    0    0    0  0.39527326037E+01  0.16478604994E+02  0.23819069179E+02  0.95767884542E+02  0.91197429434E+02 0.  0.
         13    1    3    3    0    0 -0.40256224696E+02  0.20866010470E+02  0.24081483699E+02  0.51340851580E+02  0.10566000000E+00 0. -1.
         22    1    1    0    0    0 -0.39527326037E+01 -0.16478604994E+02 -0.23819069179E+02  0.29232115458E+02  0.00000000000E+00 0. -1.
</event>
<event>
 5    1  0.2491889E-009  0.9118800E+02  0.7818608E-02  0.1130116E+00
         25   -1    0    0    0    0  0.00000000000E+00  0.00000000000E+00  0.99999998245E-14  0.12500000000E+03  0.12500000000E+03 0.  0.
        -13    1    3    3    0    0  0.34035352606E+02  0.16568979291E+01 -0.14773976851E+02  0.37140706695E+02  0.10566000000E+00 0. -1.
         23    2    1    0    0    0 -0.53113475458E+01  0.21365255965E+02  0.21542851738E+02  0.94197743001E+02  0.89019299875E+02 0.  0.
         13    1    3    3    0    0 -0.39346700151E+02  0.19708358036E+02  0.36316828589E+02  0.57057036307E+02  0.10566000000E+00 0.  1.
         22    1    1    0    0    0  0.53113475458E+01 -0.21365255965E+02 -0.21542851738E+02  0.30802256999E+02  0.00000000000E+00 0.  1.
</event>
<event>
 5    1  0.2491889E-009  0.9118800E+02  0.7818608E-02  0.1130116E+00
         25   -1    0    0    0    0  0.00000000000E+00  0.00000000000E+00  0.99999998245E-14  0.12500000000E+03  0.12500000000E+03 0.  0.
        -13    1    3    3    0    0  0.13201968556E+00 -0.33693999595E+02 -0.62156043523E+01  0.34262923684E+02  0.10566000000E+00 0.  1.
         23    2    1    0    0    0 -0.16730589801E+02  0.24270719250E+02  0.31531943182E+01  0.95353363051E+02  0.90627483484E+02 0.  0.
         13    1    3    3    0    0 -0.16862609486E+02  0.57964718845E+02  0.93687986704E+01  0.61090439367E+02  0.10566000000E+00 0. -1.
         22    1    1    0    0    0  0.16730589801E+02 -0.24270719250E+02 -0.31531943182E+01  0.29646636949E+02  0.00000000000E+00 0. -1.
</event>
<event>
 5    1  0.2491889E-009  0.9118800E+02  0.7818608E-02  0.1130116E+00
         25   -1    0    0    0    0  0.00000000000E+00  0.00000000000E+00  0.99999998245E-14  0.12500000000E+03  0.12500000000E+03 0.  0.
        -13    1    3    3    0    0  0.48046097589E+02 -0.33139633546E+02  0.16525391899E+02  0.60661046368E+02  0.10566000000E+00 0.  1.
         23    2    1    0    0    0  0.16528859683E+02 -0.17437675480E+02  0.16464783221E+02  0.95873297216E+02  0.91341799325E+02 0.  0.
         13    1    3    3    0    0 -0.31517237906E+02  0.15701958066E+02 -0.60608677986E-01  0.35212250848E+02  0.10566000000E+00 0. -1.
         22    1    1    0    0    0 -0.16528859683E+02  0.17437675480E+02 -0.16464783221E+02  0.29126702784E+02  0.00000000000E+00 0.  1.
</event>
<event>
 5    1  0.2491889E-009  0.9118800E+02  0.7818608E-02  0.1130116E+00
         25   -1    0    0    0    0  0.00000000000E+00  0.00000000000E+00  0.99999998245E-14  0.12500000000E+03  0.12500000000E+03 0.  0.
        -13    1    3    3    0    0  0.54518186666E+02 -0.68636614111E+01 -0.88271514427E+01  0.55653142696E+02  0.10566000000E+00 0. -1.
         23    2    1    0    0    0  0.24498181250E+02  0.16770577133E+01  0.16134060255E+02  0.95618350838E+02  0.90992239832E+02 0.  0.
         13    1    3    3    0    0 -0.30020005416E+02  0.85407191244E+01  0.24961211698E+02  0.39965208142E+02  0.10566000000E+00 0.  1.
         22    1    1    0    0    0 -0.24498181250E+02 -0.16770577133E+01 -0.16134060255E+02  0.29381649162E+02  0.00000000000E+00 0. -1.
</event>
<event>
 5    1  0.2491889E-009  0.9118800E+02  0.7818608E-02  0.1130116E+00
         25   -1    0    0    0    0  0.00000000000E+00  0.00000000000E+00  0.99999998245E-14  0.12500000000E+03  0.12500000000E+03 0.  0.
        -13    1    3    3    0    0  0.13744441325E+02 -0.17597245434E+02 -0.25898803080E+02  0.34195495014E+02  0.10566000000E+00 0.  1.
         23    2    1    0    0    0 -0.11564238508E+02  0.11227135025E+02  0.23354554624E+02  0.96623682501E+02  0.92362982981E+02 0.  0.
         13    1    3    3    0    0 -0.25308679832E+02  0.28824380460E+02  0.49253357704E+02  0.62428187487E+02  0.10566000000E+00 0. -1.
         22    1    1    0    0    0  0.11564238508E+02 -0.11227135025E+02 -0.23354554624E+02  0.28376317499E+02  0.00000000000E+00 0. -1.
</event>
<event>
 5    1  0.2491889E-009  0.9118800E+02  0.7818608E-02  0.1130116E+00
         25   -1    0    0    0    0  0.00000000000E+00  0.00000000000E+00  0.99999998245E-14  0.12500000000E+03  0.12500000000E+03 0.  0.
        -13    1    3    3    0    0  0.29370244887E+01 -0.59158201279E+02 -0.13462737994E+02  0.60741874928E+02  0.10566000000E+00 0. -1.
         23    2    1    0    0    0  0.11535321338E+02 -0.27169147931E+02 -0.38479455003E+01  0.95233694851E+02  0.90462277843E+02 0.  0.
         13    1    3    3    0    0  0.85982968496E+01  0.31989053348E+02  0.96147924939E+01  0.34491819922E+02  0.10566000000E+00 0.  1.
         22    1    1    0    0    0 -0.11535321338E+02  0.27169147931E+02  0.38479455003E+01  0.29766305149E+02  0.00000000000E+00 0. -1.
</event>
<event>
 5    1  0.2491889E-009  0.9118800E+02  0.7818608E-02  0.1130116E+00
         25   -1    0    0    0    0  0.00000000000E+00  0.00000000000E+00  0.99999998245E-14  0.12500000000E+03  0.12500000000E+03 0.  0.
        -13    1    3    3    0    0 -0.28753523074E+02 -0.42451988834E+02 -0.30051894138E+02  0.59431169857E+02  0.10566000000E+00 0.  1.
         23    2    1    0    0    0 -0.22847301894E+02 -0.96559025265E+01 -0.15150661161E+02  0.95934931773E+02  0.91426106464E+02 0.  0.
         13    1    3    3    0    0  0.59062211805E+01  0.32796086308E+02  0.14901232978E+02  0.36503761916E+02  0.10566000000E+00 0. -1.
         22    1    1    0    0    0  0.22847301894E+02  0.96559025265E+01  0.15150661161E+02  0.29065068227E+02  0.00000000000E+00 0.  1.
</event>
<event>
 5    1  0.2491889E-009  0.9118800E+02  0.7818608E-02  0.1130116E+00
         25   -1    0    0    0    0  0.00000000000E+00  0.00000000000E+00  0.99999998245E-14  0.12500000000E+03  0.12500000000E+03 0.  0.
        -13    1    3    3    0    0 -0.54877515607E+01 -0.30358131557E+02 -0.54355157356E+02  0.62499806912E+02  0.10566000000E+00 0.  1.
         23    2    1    0    0    0 -0.25927268561E+01 -0.13793949063E+02 -0.24706006997E+02  0.96585531062E+02  0.92311336062E+02 0.  0.
         13    1    3    3    0    0  0.28950247046E+01  0.16564182494E+02  0.29649150360E+02  0.34085724150E+02  0.10566000000E+00 0. -1.
         22    1    1    0    0    0  0.25927268561E+01  0.13793949063E+02  0.24706006997E+02  0.28414468938E+02  0.00000000000E+00 0.  1.
</event>
<event>
 5    1  0.2491889E-009  0.9118800E+02  0.7818608E-02  0.1130116E+00
         25   -1    0    0    0    0  0.00000000000E+00  0.00000000000E+00  0.99999998245E-14  0.12500000000E+03  0.12500000000E+03 0.  0.
        -13    1    3    3    0    0 -0.46519457487E+02  0.24780659940E+02 -0.25126933236E+02  0.58391052138E+02  0.10566000000E+00 0. -1.
         23    2    1    0    0    0 -0.11258811009E+02  0.12753202971E+02 -0.23895971963E+02  0.95667040936E+02  0.91059102972E+02 0.  0.
         13    1    3    3    0    0  0.35260646478E+02 -0.12027456969E+02  0.12309612729E+01  0.37275988798E+02  0.10566000000E+00 0.  1.
         22    1    1    0    0    0  0.11258811009E+02 -0.12753202971E+02  0.23895971963E+02  0.29332959064E+02  0.00000000000E+00 0. -1.
</event>
<event>
 5    1  0.2491889E-009  0.9118800E+02  0.7818608E-02  0.1130116E+00
         25   -1    0    0    0    0  0.00000000000E+00  0.00000000000E+00  0.99999998245E-14  0.12500000000E+03  0.12500000000E+03 0.  0.
        -13    1    3    3    0    0 -0.13205535428E+01  0.25205627660E+02  0.53676898266E+02  0.59315159099E+02  0.10566000000E+00 0.  1.
         23    2    1    0    0    0 -0.74488338384E+01 -0.34389075572E+00  0.27892598380E+02  0.96127860647E+02  0.91689504098E+02 0.  0.
         13    1    3    3    0    0 -0.61282802956E+01 -0.25549518416E+02 -0.25784299886E+02  0.36812701548E+02  0.10566000000E+00 0. -1.
         22    1    1    0    0    0  0.74488338384E+01  0.34389075572E+00 -0.27892598380E+02  0.28872139353E+02  0.00000000000E+00 0.  1.
</event>
<event>
 5    1  0.2491889E-009  0.9118800E+02  0.7818608E-02  0.1130116E+00
         25   -1    0    0    0    0  0.00000000000E+00  0.00000000000E+00  0.99999998245E-14  0.12500000000E+03  0.12500000000E+03 0.  0.
        -13    1    3    3    0    0 -0.13579527568E+02  0.34902956897E+02 -0.46554011127E+01  0.37739950883E+02  0.10566000000E+00 0.  1.
         23    2    1    0    0    0  0.17942890344E+02 -0.17586172190E+01  0.24787490592E+02  0.94349392530E+02  0.89231990522E+02 0.  0.
         13    1    3    3    0    0  0.31522417912E+02 -0.36661574116E+02  0.29442891705E+02  0.56609441647E+02  0.10566000000E+00 0. -1.
         22    1    1    0    0    0 -0.17942890344E+02  0.17586172190E+01 -0.24787490592E+02  0.30650607470E+02  0.00000000000E+00 0. -1.
</event>
<event>
 5    1  0.2491889E-009  0.9118800E+02  0.7818608E-02  0.1130116E+00
         25   -1    0    0    0    0  0.00000000000E+00  0.00000000000E+00  0.99999998245E-14  0.12500000000E+03  0.12500000000E+03 0.  0.
        -13    1    3    3    0    0  0.40930153440E+02  0.24292757848E+02  0.36141954018E+02  0.59763429861E+02  0.10566000000E+00 0.  1.
         23    2    1    0    0    0  0.14289049204E+02  0.16162173927E+01  0.24420169466E+02  0.96660385279E+02  0.92412641558E+02 0.  0.
         13    1    3    3    0    0 -0.26641104237E+02 -0.22676540455E+02 -0.11721784552E+02  0.36896955418E+02  0.10566000000E+00 0. -1.
         22    1    1    0    0    0 -0.14289049204E+02 -0.16162173927E+01 -0.24420169466E+02  0.28339614721E+02  0.00000000000E+00 0.  1.
</event>
<event>
 5    1  0.2491889E-009  0.9118800E+02  0.7818608E-02  0.1130116E+00
         25   -1    0    0    0    0  0.00000000000E+00  0.00000000000E+00  0.99999998245E-14  0.12500000000E+03  0.12500000000E+03 0.  0.
        -13    1    3    3    0    0 -0.31617187186E+02  0.29516907911E+02  0.33292310968E+02  0.54582813337E+02  0.10566000000E+00 0.  1.
         23    2    1    0    0    0 -0.15948638827E+01  0.28354976618E+01  0.29935648674E+02  0.94888097049E+02  0.89983466605E+02 0.  0.
         13    1    3    3    0    0  0.30022323303E+02 -0.26681410249E+02 -0.33566622941E+01  0.40305283713E+02  0.10566000000E+00 0. -1.
         22    1    1    0    0    0  0.15948638827E+01 -0.28354976618E+01 -0.29935648674E+02  0.30111902951E+02  0.00000000000E+00 0.  1.
</event>
<event>
 5    1  0.2491889E-009  0.9118800E+02  0.7818608E-02  0.1130116E+00
         25   -1    0    0    0    0  0.00000000000E+00  0.00000000000E+00  0.99999998245E-14  0.12500000000E+03  0.12500000000E+03 0.  0.
        -13    1    3    3    0    0 -0.26054415234E+02  0.33439496595E+02  0.79490933867E+01  0.43130403840E+02  0.10566000000E+00 0.  1.
         23    2    1    0    0    0  0.22758825659E+02  0.56175140429E+01 -0.55399572488E+01  0.10091241532E+03  0.97995427598E+02 0.  0.
         13    1    3    3    0    0  0.48813240893E+02 -0.27821982552E+02 -0.13489050635E+02  0.57782011480E+02  0.10566000000E+00 0. -1.
         22    1    1    0    0    0 -0.22758825659E+02 -0.56175140429E+01  0.55399572488E+01  0.24087584680E+02  0.00000000000E+00 0.  1.
</event>
<event>
 5    1  0.2491889E-009  0.9118800E+02  0.7818608E-02  0.1130116E+00
         25   -1    0    0    0    0  0.00000000000E+00  0.00000000000E+00  0.99999998245E-14  0.12500000000E+03  0.12500000000E+03 0.  0.
        -13    1    3    3    0    0 -0.19473987935E+02 -0.13378528054E+02 -0.55928588157E+02  0.60714408144E+02  0.10566000000E+00 0.  1.
         23    2    1    0    0    0  0.10815610455E+00 -0.11034171847E+02 -0.27994820109E+02  0.94908895018E+02  0.90012353344E+02 0.  0.
         13    1    3    3    0    0  0.19582144039E+02  0.23443562073E+01  0.27933768048E+02  0.34194486874E+02  0.10566000000E+00 0. -1.
         22    1    1    0    0    0 -0.10815610455E+00  0.11034171847E+02  0.27994820109E+02  0.30091104982E+02  0.00000000000E+00 0.  1.
</event>
<event>
 5    1  0.2491889E-009  0.9118800E+02  0.7818608E-02  0.1130116E+00
         25   -1    0    0    0    0  0.00000000000E+00  0.00000000000E+00  0.99999998245E-14  0.12500000000E+03  0.12500000000E+03 0.  0.
        -13    1    3    3    0    0  0.23501045856E+02  0.96244216799E+01  0.23326627029E+02  0.34482913763E+02  0.10566000000E+00 0. -1.
         23    2    1    0    0    0 -0.54880283768E+01 -0.12317961759E+02 -0.25970608133E+02  0.95737000766E+02  0.91155088676E+02 0.  0.
         13    1    3    3    0    0 -0.28989074233E+02 -0.21942383439E+02 -0.49297235162E+02  0.61254087003E+02  0.10566000000E+00 0.  1.
         22    1    1    0    0    0  0.54880283768E+01  0.12317961759E+02  0.25970608133E+02  0.29262999234E+02  0.00000000000E+00 0.  1.
</event>
<event>
 5    1  0.2491889E-009  0.9118800E+02  0.7818608E-02  0.1130116E+00
         25   -1    0    0    0    0  0.00000000000E+00  0.00000000000E+00  0.99999998245E-14  0.12500000000E+03  0.12500000000E+03 0.  0.
        -13    1    3    3    0    0 -0.58486351197E+01  0.59871607053E+02 -0.56496026875E+01  0.60421395536E+02  0.10566000000E+00 0. -1.
         23    2    1    0    0    0 -0.29053262223E+01  0.27943436626E+02 -0.14080336417E+02  0.93574971049E+02  0.88140471761E+02 0.  0.
         13    1    3    3    0    0  0.29433088974E+01 -0.31928170427E+02 -0.84307337297E+01  0.33153575514E+02  0.10566000000E+00 0.  1.
         22    1    1    0    0    0  0.29053262223E+01 -0.27943436626E+02  0.14080336417E+02  0.31425028951E+02  0.00000000000E+00 0. -1.
</event>
<event>
 5    1  0.2491889E-009  0.9118800E+02  0.7818608E-02  0.1130116E+00
         25   -1    0    0    0    0  0.00000000000E+00  0.00000000000E+00  0.99999998245E-14  0.12500000000E+03  0.12500000000E+03 0.  0.
        -13    1    3    3    0    0  0.16732040129E+02 -0.26402471279E+02 -0.29263112067E+02  0.42818133406E+02  0.10566000000E+00 0.  1.
         23    2    1    0    0    0 -0.16901275884E+02 -0.22178491807E+02  0.10621155186E+02  0.95161307622E+02  0.90362198432E+02 0.  0.
         13    1    3    3    0    0 -0.33633316013E+02  0.42239794719E+01  0.39884267253E+02  0.52343174216E+02  0.10566000000E+00 0. -1.
         22    1    1    0    0    0  0.16901275884E+02  0.22178491807E+02 -0.10621155186E+02  0.29838692378E+02  0.00000000000E+00 0.  1.
</event>
<event>
 5    1  0.2491889E-009  0.9118800E+02  0.7818608E-02  0.1130116E+00
         25   -1    0    0    0    0  0.00000000000E+00  0.00000000000E+00  0.99999998245E-14  0.12500000000E+03  0.12500000000E+03 0.  0.
        -13    1    3    3    0    0  0.25492391722E+02 -0.32211103320E+02 -0.25300246932E+02  0.48244490583E+02  0.10566000000E+00 0. -1.
         23    2    1    0    0    0  0.27882688550E+02  0.75499813991E+01  0.12017241162E+01  0.96088225915E+02  0.91635454267E+02 0.  0.
         13    1    3    3    0    0  0.23902968280E+01  0.39761084720E+02  0.26501971048E+02  0.47843735331E+02  0.10566000000E+00 0.  1.
         22    1    1    0    0    0 -0.27882688550E+02 -0.75499813991E+01 -0.12017241162E+01  0.28911774085E+02  0.00000000000E+00 0. -1.
</event>
<event>
 5    1  0.2491889E-009  0.9118800E+02  0.7818608E-02  0.1130116E+00
         25   -1    0    0    0    0  0.00000000000E+00  0.00000000000E+00  0.99999998245E-14  0.12500000000E+03  0.12500000000E+03 0.  0.
        -13    1    3    3    0    0  0.20010856285E+02  0.14094126332E+02  0.26158303090E+02  0.35823829372E+02  0.10566000000E+00 0. -1.
         23    2    1    0    0    0 -0.25424774624E+02 -0.57168864825E+01 -0.99046383669E+01  0.97121624564E+02  0.93034435243E+02 0.  0.
         13    1    3    3    0    0 -0.45435630909E+02 -0.19811012814E+02 -0.36062941457E+02  0.61297795192E+02  0.10566000000E+00 0.  1.
         22    1    1    0    0    0  0.25424774624E+02  0.57168864825E+01  0.99046383669E+01  0.27878375436E+02  0.00000000000E+00 0.  1.
</event>
<event>
 5    1  0.2491889E-009  0.9118800E+02  0.7818608E-02  0.1130116E+00
         25   -1    0    0    0    0  0.00000000000E+00  0.00000000000E+00  0.99999998245E-14  0.12500000000E+03  0.12500000000E+03 0.  0.
        -13    1    3    3    0    0 -0.33515871672E+01  0.56605204110E+02 -0.63206589671E+01  0.57055623410E+02  0.10566000000E+00 0. -1.
         23    2    1    0    0    0  0.11252897288E+02  0.28582880403E+02  0.10095708676E+02  0.92665311457E+02  0.86840819113E+02 0.  0.
         13    1    3    3    0    0  0.14604484455E+02 -0.28022323707E+02  0.16416367643E+02  0.35609688047E+02  0.10566000000E+00 0.  1.
         22    1    1    0    0    0 -0.11252897288E+02 -0.28582880403E+02 -0.10095708676E+02  0.32334688543E+02  0.00000000000E+00 0. -1.
</event>
<event>
 5    1  0.2491889E-009  0.9118800E+02  0.7818608E-02  0.1130116E+00
         25   -1    0    0    0    0  0.00000000000E+00  0.00000000000E+00  0.99999998245E-14  0.12500000000E+03  0.12500000000E+03 0.  0.
        -13    1    3    3    0    0 -0.10242481833E+02  0.49648034561E+02  0.33790084475E+02  0.60923039507E+02  0.10566000000E+00 0.  1.
         23    2    1    0    0    0 -0.13641564948E+02  0.19301423855E+02  0.17933190858E+02  0.95331218572E+02  0.90596935065E+02 0.  0.
         13    1    3    3    0    0 -0.33990831156E+01 -0.30346610707E+02 -0.15856893617E+02  0.34408179066E+02  0.10566000000E+00 0. -1.
         22    1    1    0    0    0  0.13641564948E+02 -0.19301423855E+02 -0.17933190858E+02  0.29668781428E+02  0.00000000000E+00 0.  1.
</event>
<event>
 5    1  0.2491889E-009  0.9118800E+02  0.7818608E-02  0.1130116E+00
         25   -1    0    0    0    0  0.00000000000E+00  0.00000000000E+00  0.99999998245E-14  0.12500000000E+03  0.12500000000E+03 0.  0.
        -13    1    3    3    0    0 -0.42217971351E+02 -0.40291194422E+01 -0.44191130067E+02  0.61249147334E+02  0.10566000000E+00 0.  1.
         23    2    1    0    0    0 -0.13945605296E+02 -0.64545765219E+01 -0.25498134812E+02  0.95229270347E+02  0.90456163896E+02 0.  0.
         13    1    3    3    0    0  0.28272366055E+02 -0.24254570797E+01  0.18692995254E+02  0.33980123014E+02  0.10566000000E+00 0. -1.
         22    1    1    0    0    0  0.13945605296E+02  0.64545765219E+01  0.25498134812E+02  0.29770729653E+02  0.00000000000E+00 0.  1.
</event>
<event>
 5    1  0.2491889E-009  0.9118800E+02  0.7818608E-02  0.1130116E+00
         25   -1    0    0    0    0  0.00000000000E+00  0.00000000000E+00  0.99999998245E-14  0.12500000000E+03  0.12500000000E+03 0.  0.
        -13    1    3    3    0    0 -0.38109867338E+02  0.27561587311E+02 -0.28225474816E+02  0.54851542150E+02  0.10566000000E+00 0.  1.
         23    2    1    0    0    0 -0.18107420937E+02 -0.63365534429E+01  0.36156607498E+01  0.10547812496E+03  0.10365583071E+03 0.  0.
         13    1    3    3    0    0  0.20002446401E+02 -0.33898140754E+02  0.31841135566E+02  0.50626582807E+02  0.10566000000E+00 0. -1.
         22    1    1    0    0    0  0.18107420937E+02  0.63365534429E+01 -0.36156607498E+01  0.19521875043E+02  0.00000000000E+00 0.  1.
</event>
<event>
 5    1  0.2491889E-009  0.9118800E+02  0.7818608E-02  0.1130116E+00
         25   -1    0    0    0    0  0.00000000000E+00  0.00000000000E+00  0.99999998245E-14  0.12500000000E+03  0.12500000000E+03 0.  0.
        -13    1    3    3    0    0  0.14054218027E+02 -0.12664831610E+02 -0.31870642409E+02  0.37063027610E+02  0.10566000000E+00 0. -1.
         23    2    1    0    0    0  0.74278147848E+01 -0.15530411925E+01  0.26801597697E+02  0.97144838745E+02  0.93065620324E+02 0.  0.
         13    1    3    3    0    0 -0.66264032421E+01  0.11111790417E+02  0.58672240106E+02  0.60081811135E+02  0.10566000000E+00 0.  1.
         22    1    1    0    0    0 -0.74278147848E+01  0.15530411925E+01 -0.26801597697E+02  0.27855161255E+02  0.00000000000E+00 0.  1.
</event>
<event>
 5    1  0.2491889E-009  0.9118800E+02  0.7818608E-02  0.1130116E+00
         25   -1    0    0    0    0  0.00000000000E+00  0.00000000000E+00  0.99999998245E-14  0.12500000000E+03  0.12500000000E+03 0.  0.
        -13    1    3    3    0    0  0.13168967452E+02  0.48371318847E+02  0.14912669274E+02  0.52303011956E+02  0.10566000000E+00 0. -1.
         23    2    1    0    0    0 -0.18938601931E+02  0.20133646136E+02  0.11037565973E+02  0.95236562490E+02  0.90466240236E+02 0.  0.
         13    1    3    3    0    0 -0.32107569383E+02 -0.28237672711E+02 -0.38751033016E+01  0.42933550534E+02  0.10566000000E+00 0.  1.
         22    1    1    0    0    0  0.18938601931E+02 -0.20133646136E+02 -0.11037565973E+02  0.29763437510E+02  0.00000000000E+00 0. -1.
</event>
<event>
 5    1  0.2491889E-009  0.9118800E+02  0.7818608E-02  0.1130116E+00
         25   -1    0    0    0    0  0.00000000000E+00  0.00000000000E+00  0.99999998245E-14  0.12500000000E+03  0.12500000000E+03 0.  0.
        -13    1    3    3    0    0 -0.34905450150E+02  0.70595939832E+01  0.34340445162E+02  0.49472271581E+02  0.10566000000E+00 0. -1.
         23    2    1    0    0    0 -0.12363415529E+02  0.26580050235E+02 -0.94458010949E+00  0.95670060593E+02  0.91063248065E+02 0.  0.
         13    1    3    3    0    0  0.22542034621E+02  0.19520456252E+02 -0.35285025271E+02  0.46197789012E+02  0.10566000000E+00 0.  1.
         22    1    1    0    0    0  0.12363415529E+02 -0.26580050235E+02  0.94458010949E+00  0.29329939407E+02  0.00000000000E+00 0. -1.
</event>
<event>
 5    1  0.2491889E-009  0.9118800E+02  0.7818608E-02  0.1130116E+00
         25   -1    0    0    0    0  0.00000000000E+00  0.00000000000E+00  0.99999998245E-14  0.12500000000E+03  0.12500000000E+03 0.  0.
        -13    1    3    3    0    0  0.56566374116E+02 -0.39684878738E+01  0.40304675628E+00  0.56706941263E+02  0.10566000000E+00 0.  1.
         23    2    1    0    0    0  0.20472040946E+02 -0.18369853945E+02  0.81068777802E+01  0.96324619238E+02  0.91957353211E+02 0.  0.
         13    1    3    3    0    0 -0.36094333170E+02 -0.14401366071E+02  0.77038310240E+01  0.39617677976E+02  0.10566000000E+00 0. -1.
         22    1    1    0    0    0 -0.20472040946E+02  0.18369853945E+02 -0.81068777802E+01  0.28675380762E+02  0.00000000000E+00 0.  1.
</event>
<event>
 5    1  0.2491889E-009  0.9118800E+02  0.7818608E-02  0.1130116E+00
         25   -1    0    0    0    0  0.00000000000E+00  0.00000000000E+00  0.99999998245E-14  0.12500000000E+03  0.12500000000E+03 0.  0.
        -13    1    3    3    0    0 -0.54368486774E+01  0.17227855104E+00  0.62109568472E+02  0.62347403020E+02  0.10566000000E+00 0. -1.
         23    2    1    0    0    0 -0.27396259035E+01  0.28828814113E+01  0.41572459035E+02  0.83237745445E+02  0.72003030222E+02 0.  0.
         13    1    3    3    0    0  0.26972227739E+01  0.27106028602E+01 -0.20537109437E+02  0.20890342425E+02  0.10566000000E+00 0.  1.
         22    1    1    0    0    0  0.27396259035E+01 -0.28828814113E+01 -0.41572459035E+02  0.41762254555E+02  0.00000000000E+00 0. -1.
</event>
<event>
 5    1  0.2491889E-009  0.9118800E+02  0.7818608E-02  0.1130116E+00
         25   -1    0    0    0    0  0.00000000000E+00  0.00000000000E+00  0.99999998245E-14  0.12500000000E+03  0.12500000000E+03 0.  0.
        -13    1    3    3    0    0 -0.44167434308E+01 -0.21604805676E+02  0.33669327841E+02  0.40248106193E+02  0.10566000000E+00 0.  1.
         23    2    1    0    0    0  0.23563748869E+02  0.10520419845E+02 -0.60508404511E+01  0.98494488033E+02  0.94861066872E+02 0.  0.
         13    1    3    3    0    0  0.27980492300E+02  0.32125225521E+02 -0.39720168293E+02  0.58246381839E+02  0.10566000000E+00 0. -1.
         22    1    1    0    0    0 -0.23563748869E+02 -0.10520419845E+02  0.60508404511E+01  0.26505511967E+02  0.00000000000E+00 0. -1.
</event>
<event>
 5    1  0.2491889E-009  0.9118800E+02  0.7818608E-02  0.1130116E+00
         25   -1    0    0    0    0  0.00000000000E+00  0.00000000000E+00  0.99999998245E-14  0.12500000000E+03  0.12500000000E+03 0.  0.
        -13    1    3    3    0    0  0.59896572912E+02 -0.60672045383E+01 -0.46947507097E+01  0.60385944273E+02  0.10566000000E+00 0. -1.
         23    2    1    0    0    0  0.29691750847E+02 -0.17403667480E+01  0.91335607515E+01  0.93886484018E+02  0.88581154906E+02 0.  0.
         13    1    3    3    0    0 -0.30204822066E+02  0.43268377903E+01  0.13828311461E+02  0.33500539745E+02  0.10566000000E+00 0.  1.
         22    1    1    0    0    0 -0.29691750847E+02  0.17403667480E+01 -0.91335607515E+01  0.31113515982E+02  0.00000000000E+00 0. -1.
</event>
<event>
 5    1  0.2491889E-009  0.9118800E+02  0.7818608E-02  0.1130116E+00
         25   -1    0    0    0    0  0.00000000000E+00  0.00000000000E+00  0.99999998245E-14  0.12500000000E+03  0.12500000000E+03 0.  0.
        -13    1    3    3    0    0 -0.25318436915E+02 -0.38078854779E+02  0.30059598543E+02  0.54723057825E+02  0.10566000000E+00 0.  1.
         23    2    1    0    0    0 -0.18089672075E+02  0.19020734229E+01  0.22529539605E+02  0.96044270448E+02  0.91575474948E+02 0.  0.
         13    1    3    3    0    0  0.72287648401E+01  0.39980928202E+02 -0.75300589385E+01  0.41321212623E+02  0.10566000000E+00 0. -1.
         22    1    1    0    0    0  0.18089672075E+02 -0.19020734229E+01 -0.22529539605E+02  0.28955729552E+02  0.00000000000E+00 0.  1.
</event>
<event>
 5    1  0.2491889E-009  0.9118800E+02  0.7818608E-02  0.1130116E+00
         25   -1    0    0    0    0  0.00000000000E+00  0.00000000000E+00  0.99999998245E-14  0.12500000000E+03  0.12500000000E+03 0.  0.
        -13    1    3    3    0    0  0.22813904022E+02 -0.32786113341E+02 -0.19279490894E+02  0.44352151897E+02  0.10566000000E+00 0.  1.
         23    2    1    0    0    0  0.17395148579E+02 -0.47670797524E+01  0.23253002864E+02  0.95571809677E+02  0.90928281735E+02 0.  0.
         13    1    3    3    0    0 -0.54187554428E+01  0.28019033589E+02  0.42532493758E+02  0.51219657780E+02  0.10566000000E+00 0. -1.
         22    1    1    0    0    0 -0.17395148579E+02  0.47670797524E+01 -0.23253002864E+02  0.29428190323E+02  0.00000000000E+00 0.  1.
</event>
<event>
 5    1  0.2491889E-009  0.9118800E+02  0.7818608E-02  0.1130116E+00
         25   -1    0    0    0    0  0.00000000000E+00  0.00000000000E+00  0.99999998245E-14  0.12500000000E+03  0.12500000000E+03 0.  0.
        -13    1    3    3    0    0  0.32981581907E+02 -0.26544890424E+02 -0.35760894997E+02  0.55419028571E+02  0.10566000000E+00 0.  1.
         23    2    1    0    0    0  0.20592526730E+01 -0.40432543325E-02 -0.28027419347E+02  0.96897032663E+02  0.92732185166E+02 0.  0.
         13    1    3    3    0    0 -0.30922329234E+02  0.26540847170E+02  0.77334756503E+01  0.41478004092E+02  0.10566000000E+00 0. -1.
         22    1    1    0    0    0 -0.20592526730E+01  0.40432543325E-02  0.28027419347E+02  0.28102967337E+02  0.00000000000E+00 0.  1.
</event>
<event>
 5    1  0.2491889E-009  0.9118800E+02  0.7818608E-02  0.1130116E+00
         25   -1    0    0    0    0  0.00000000000E+00  0.00000000000E+00  0.99999998245E-14  0.12500000000E+03  0.12500000000E+03 0.  0.
        -13    1    3    3    0    0 -0.20299258594E+02 -0.26523129746E+02 -0.18725224956E+02  0.38290749858E+02  0.10566000000E+00 0. -1.
         23    2    1    0    0    0  0.28495761039E+02 -0.92392570997E+01  0.39114035706E+01  0.94789549046E+02  0.89846464937E+02 0.  0.
         13    1    3    3    0    0  0.48795019633E+02  0.17283872646E+02  0.22636628526E+02  0.56498799188E+02  0.10566000000E+00 0.  1.
         22    1    1    0    0    0 -0.28495761039E+02  0.92392570997E+01 -0.39114035706E+01  0.30210450954E+02  0.00000000000E+00 0.  1.
</event>
<event>
 5    1  0.2491889E-009  0.9118800E+02  0.7818608E-02  0.1130116E+00
         25   -1    0    0    0    0  0.00000000000E+00  0.00000000000E+00  0.99999998245E-14  0.12500000000E+03  0.12500000000E+03 0.  0.
        -13    1    3    3    0    0 -0.26090543354E+02  0.21217265970E+02  0.15997961745E+02  0.37240230555E+02  0.10566000000E+00 0. -1.
         23    2    1    0    0    0  0.22892275306E+02 -0.12952211932E+02  0.80696279351E+01  0.97487549043E+02  0.93524794899E+02 0.  0.
         13    1    3    3    0    0  0.48982818660E+02 -0.34169477902E+02 -0.79283338100E+01  0.60247318488E+02  0.10566000000E+00 0.  1.
         22    1    1    0    0    0 -0.22892275306E+02  0.12952211932E+02 -0.80696279351E+01  0.27512450957E+02  0.00000000000E+00 0.  1.
</event>
<event>
 5    1  0.2491889E-009  0.9118800E+02  0.7818608E-02  0.1130116E+00
         25   -1    0    0    0    0  0.00000000000E+00  0.00000000000E+00  0.99999998245E-14  0.12500000000E+03  0.12500000000E+03 0.  0.
        -13    1    3    3    0    0 -0.20980528243E+02 -0.41262421237E+02 -0.49860681026E+01  0.46557942511E+02  0.10566000000E+00 0.  1.
         23    2    1    0    0    0 -0.95134949474E+01  0.94119718706E+01 -0.20266167464E+02  0.10071400930E+03  0.97742019239E+02 0.  0.
         13    1    3    3    0    0  0.11467033295E+02  0.50674393108E+02 -0.15280099362E+02  0.54156066789E+02  0.10566000000E+00 0. -1.
         22    1    1    0    0    0  0.95134949474E+01 -0.94119718706E+01  0.20266167464E+02  0.24285990700E+02  0.00000000000E+00 0. -1.
</event>
<event>
 5    1  0.2491889E-009  0.9118800E+02  0.7818608E-02  0.1130116E+00
         25   -1    0    0    0    0  0.00000000000E+00  0.00000000000E+00  0.99999998245E-14  0.12500000000E+03  0.12500000000E+03 0.  0.
        -13    1    3    3    0    0  0.11472251180E+02 -0.30157695828E+02 -0.31586424722E+02  0.45153212018E+02  0.10566000000E+00 0. -1.
         23    2    1    0    0    0  0.24750235716E+02  0.12545007488E+02 -0.62300720052E+01  0.96561202943E+02  0.92278387154E+02 0.  0.
         13    1    3    3    0    0  0.13277984535E+02  0.42702703316E+02  0.25356352717E+02  0.51407990925E+02  0.10566000000E+00 0.  1.
         22    1    1    0    0    0 -0.24750235716E+02 -0.12545007488E+02  0.62300720052E+01  0.28438797057E+02  0.00000000000E+00 0.  1.
</event>
<event>
 5    1  0.2491889E-009  0.9118800E+02  0.7818608E-02  0.1130116E+00
         25   -1    0    0    0    0  0.00000000000E+00  0.00000000000E+00  0.99999998245E-14  0.12500000000E+03  0.12500000000E+03 0.  0.
        -13    1    3    3    0    0 -0.11666374512E+02  0.40025128536E+02 -0.39479394509E+02  0.57417322851E+02  0.10566000000E+00 0.  1.
         23    2    1    0    0    0 -0.58586909794E+01  0.36470781758E+01 -0.28234696248E+02  0.95934152147E+02  0.91425040535E+02 0.  0.
         13    1    3    3    0    0  0.58076835324E+01 -0.36378050360E+02  0.11244698261E+02  0.38516829296E+02  0.10566000000E+00 0. -1.
         22    1    1    0    0    0  0.58586909794E+01 -0.36470781758E+01  0.28234696248E+02  0.29065847853E+02  0.00000000000E+00 0.  1.
</event>
<event>
 5    1  0.2491889E-009  0.9118800E+02  0.7818608E-02  0.1130116E+00
         25   -1    0    0    0    0  0.00000000000E+00  0.00000000000E+00  0.99999998245E-14  0.12500000000E+03  0.12500000000E+03 0.  0.
        -13    1    3    3    0    0 -0.76118543547E+01  0.33835361126E+02  0.49238435547E+02  0.60226295655E+02  0.10566000000E+00 0. -1.
         23    2    1    0    0    0  0.31297180105E+00  0.23856580404E+02  0.14856187270E+02  0.96894116628E+02  0.92728254361E+02 0.  0.
         13    1    3    3    0    0  0.79248261558E+01 -0.99787807218E+01 -0.34382248276E+02  0.36667820972E+02  0.10566000000E+00 0.  1.
         22    1    1    0    0    0 -0.31297180105E+00 -0.23856580404E+02 -0.14856187270E+02  0.28105883372E+02  0.00000000000E+00 0. -1.
</event>
<event>
 5    1  0.2491889E-009  0.9118800E+02  0.7818608E-02  0.1130116E+00
         25   -1    0    0    0    0  0.00000000000E+00  0.00000000000E+00  0.99999998245E-14  0.12500000000E+03  0.12500000000E+03 0.  0.
        -13    1    3    3    0    0  0.76476445339E+01  0.21206120057E+02  0.32532413011E+02  0.39579730357E+02  0.10566000000E+00 0. -1.
         23    2    1    0    0    0  0.19211127283E+02 -0.19774142223E+02 -0.57476061640E+01  0.96837629916E+02  0.92652077575E+02 0.  0.
         13    1    3    3    0    0  0.11563482749E+02 -0.40980262279E+02 -0.38280019175E+02  0.57257899559E+02  0.10566000000E+00 0.  1.
         22    1    1    0    0    0 -0.19211127283E+02  0.19774142223E+02  0.57476061640E+01  0.28162370084E+02  0.00000000000E+00 0.  1.
</event>
<event>
 5    1  0.2491889E-009  0.9118800E+02  0.7818608E-02  0.1130116E+00
         25   -1    0    0    0    0  0.00000000000E+00  0.00000000000E+00  0.99999998245E-14  0.12500000000E+03  0.12500000000E+03 0.  0.
        -13    1    3    3    0    0 -0.57918901144E+01 -0.50370417071E+02 -0.18167821156E+01  0.50734965933E+02  0.10566000000E+00 0. -1.
         23    2    1    0    0    0  0.60914951686E+01 -0.13071991533E+02 -0.24932992518E+02  0.96196573261E+02  0.91783131975E+02 0.  0.
         13    1    3    3    0    0  0.11883385283E+02  0.37298425538E+02 -0.23116210403E+02  0.45461607327E+02  0.10566000000E+00 0.  1.
         22    1    1    0    0    0 -0.60914951686E+01  0.13071991533E+02  0.24932992518E+02  0.28803426739E+02  0.00000000000E+00 0. -1.
</event>
<event>
 5    1  0.2491889E-009  0.9118800E+02  0.7818608E-02  0.1130116E+00
         25   -1    0    0    0    0  0.00000000000E+00  0.00000000000E+00  0.99999998245E-14  0.12500000000E+03  0.12500000000E+03 0.  0.
        -13    1    3    3    0    0 -0.45478049936E+02  0.13273524643E+02  0.20906153251E+02  0.51783374650E+02  0.10566000000E+00 0.  1.
         23    2    1    0    0    0 -0.14947299818E+02 -0.12631968536E+02  0.26334476329E+02  0.92190046564E+02  0.86153999564E+02 0.  0.
         13    1    3    3    0    0  0.30530750118E+02 -0.25905493179E+02  0.54283230790E+01  0.40406671913E+02  0.10566000000E+00 0. -1.
         22    1    1    0    0    0  0.14947299818E+02  0.12631968536E+02 -0.26334476329E+02  0.32809953436E+02  0.00000000000E+00 0.  1.
</event>
<event>
 5    1  0.2491889E-009  0.9118800E+02  0.7818608E-02  0.1130116E+00
         25   -1    0    0    0    0  0.00000000000E+00  0.00000000000E+00  0.99999998245E-14  0.12500000000E+03  0.12500000000E+03 0.  0.
        -13    1    3    3    0    0  0.35961426312E+02 -0.15155690131E+02 -0.13531728149E+02  0.41304212334E+02  0.10566000000E+00 0.  1.
         23    2    1    0    0    0  0.46771644584E+01  0.27852877144E+02  0.19354388712E+01  0.96690910361E+02  0.92453921444E+02 0.  0.
         13    1    3    3    0    0 -0.31284261854E+02  0.43008567274E+02  0.15467167020E+02  0.55386698028E+02  0.10566000000E+00 0. -1.
         22    1    1    0    0    0 -0.46771644584E+01 -0.27852877144E+02 -0.19354388712E+01  0.28309089639E+02  0.00000000000E+00 0. -1.
</event>
<event>
 5    1  0.2491889E-009  0.9118800E+02  0.7818608E-02  0.1130116E+00
         25   -1    0    0    0    0  0.00000000000E+00  0.00000000000E+00  0.99999998245E-14  0.12500000000E+03  0.12500000000E+03 0.  0.
        -13    1    3    3    0    0  0.15158727346E+02  0.11137881920E+02  0.39983819206E+02  0.44187740276E+02  0.10566000000E+00 0.  1.
         23    2    1    0    0    0  0.33977914764E+01 -0.21095439919E+02 -0.71323881217E+01  0.10247371463E+03  0.99967137887E+02 0.  0.
         13    1    3    3    0    0 -0.11760935869E+02 -0.32233321839E+02 -0.47116207328E+02  0.58285974353E+02  0.10566000000E+00 0. -1.
         22    1    1    0    0    0 -0.33977914764E+01  0.21095439919E+02  0.71323881217E+01  0.22526285371E+02  0.00000000000E+00 0. -1.
</event>
<event>
 5    1  0.2491889E-009  0.9118800E+02  0.7818608E-02  0.1130116E+00
         25   -1    0    0    0    0  0.00000000000E+00  0.00000000000E+00  0.99999998245E-14  0.12500000000E+03  0.12500000000E+03 0.  0.
        -13    1    3    3    0    0  0.26151307648E+02  0.43648817974E+02 -0.80632124330E-01  0.50883473426E+02  0.10566000000E+00 0. -1.
         23    2    1    0    0    0  0.14844661882E+02  0.87278407494E+01 -0.24560787113E+02  0.95003809339E+02  0.90144064335E+02 0.  0.
         13    1    3    3    0    0 -0.11306645767E+02 -0.34920977225E+02 -0.24480154989E+02  0.44120335914E+02  0.10566000000E+00 0.  1.
         22    1    1    0    0    0 -0.14844661882E+02 -0.87278407494E+01  0.24560787113E+02  0.29996190661E+02  0.00000000000E+00 0. -1.
</event>
<event>
 5    1  0.2491889E-009  0.9118800E+02  0.7818608E-02  0.1130116E+00
         25   -1    0    0    0    0  0.00000000000E+00  0.00000000000E+00  0.99999998245E-14  0.12500000000E+03  0.12500000000E+03 0.  0.
        -13    1    3    3    0    0 -0.18062004668E+02  0.48619370397E+01 -0.21634720354E+02  0.28599768062E+02  0.10566000000E+00 0.  1.
         23    2    1    0    0    0 -0.13971493340E+02 -0.17886871625E+02  0.31286173295E+02  0.86348124985E+02  0.77214190705E+02 0.  0.
         13    1    3    3    0    0  0.40905113273E+01 -0.22748808665E+02  0.52920893649E+02  0.57748356923E+02  0.10566000000E+00 0. -1.
         22    1    1    0    0    0  0.13971493340E+02  0.17886871625E+02 -0.31286173295E+02  0.38651875015E+02  0.00000000000E+00 0. -1.
</event>
<event>
 5    1  0.2491889E-009  0.9118800E+02  0.7818608E-02  0.1130116E+00
         25   -1    0    0    0    0  0.00000000000E+00  0.00000000000E+00  0.99999998245E-14  0.12500000000E+03  0.12500000000E+03 0.  0.
        -13    1    3    3    0    0  0.35112986835E+02 -0.30269754095E+02  0.30767083786E+02  0.55639953866E+02  0.10566000000E+00 0. -1.
         23    2    1    0    0    0 -0.21618201254E+01 -0.22446538501E+02  0.19025817407E+02  0.95495724294E+02  0.90823626186E+02 0.  0.
         13    1    3    3    0    0 -0.37274806961E+02  0.78232155942E+01 -0.11741266379E+02  0.39855770428E+02  0.10566000000E+00 0.  1.
         22    1    1    0    0    0  0.21618201254E+01  0.22446538501E+02 -0.19025817407E+02  0.29504275706E+02  0.00000000000E+00 0.  1.
</event>
<event>
 5    1  0.2491889E-009  0.9118800E+02  0.7818608E-02  0.1130116E+00
         25   -1    0    0    0    0  0.00000000000E+00  0.00000000000E+00  0.99999998245E-14  0.12500000000E+03  0.12500000000E+03 0.  0.
        -13    1    3    3    0    0 -0.44602119196E+02 -0.47938122974E+01 -0.44176939089E+01  0.45076122911E+02  0.10566000000E+00 0. -1.
         23    2    1    0    0    0 -0.27646546976E+00 -0.25823961540E+02  0.11603757960E+02  0.96687447632E+02  0.92449239629E+02 0.  0.
         13    1    3    3    0    0  0.44325653727E+02 -0.21030149243E+02  0.16021451869E+02  0.51611324721E+02  0.10566000000E+00 0.  1.
         22    1    1    0    0    0  0.27646546976E+00  0.25823961540E+02 -0.11603757960E+02  0.28312552368E+02  0.00000000000E+00 0.  1.
</event>
<event>
 5    1  0.2491889E-009  0.9118800E+02  0.7818608E-02  0.1130116E+00
         25   -1    0    0    0    0  0.00000000000E+00  0.00000000000E+00  0.99999998245E-14  0.12500000000E+03  0.12500000000E+03 0.  0.
        -13    1    3    3    0    0  0.16595786935E+02 -0.20924673868E+01  0.42436448329E+02  0.45614272707E+02  0.10566000000E+00 0.  1.
         23    2    1    0    0    0  0.17434122096E+01 -0.28827948134E+02  0.23663975175E+01  0.96022596442E+02  0.91545885274E+02 0.  0.
         13    1    3    3    0    0 -0.14852374726E+02 -0.26735480747E+02 -0.40070050811E+02  0.50408323736E+02  0.10566000000E+00 0. -1.
         22    1    1    0    0    0 -0.17434122096E+01  0.28827948134E+02 -0.23663975175E+01  0.28977403558E+02  0.00000000000E+00 0.  1.
</event>
<event>
 5    1  0.2491889E-009  0.9118800E+02  0.7818608E-02  0.1130116E+00
         25   -1    0    0    0    0  0.00000000000E+00  0.00000000000E+00  0.99999998245E-14  0.12500000000E+03  0.12500000000E+03 0.  0.
        -13    1    3    3    0    0 -0.25484312862E+01 -0.40818482263E+02 -0.98699570778E+01  0.42072202379E+02  0.10566000000E+00 0.  1.
         23    2    1    0    0    0  0.25944610497E+01  0.12802420319E+02 -0.23923714333E+02  0.97742390023E+02  0.93864783097E+02 0.  0.
         13    1    3    3    0    0  0.51428923359E+01  0.53620902582E+02 -0.14053757255E+02  0.55670187644E+02  0.10566000000E+00 0. -1.
         22    1    1    0    0    0 -0.25944610497E+01 -0.12802420319E+02  0.23923714333E+02  0.27257609977E+02  0.00000000000E+00 0. -1.
</event>
<event>
 5    1  0.2491889E-009  0.9118800E+02  0.7818608E-02  0.1130116E+00
         25   -1    0    0    0    0  0.00000000000E+00  0.00000000000E+00  0.99999998245E-14  0.12500000000E+03  0.12500000000E+03 0.  0.
        -13    1    3    3    0    0 -0.15195938040E+02  0.12858512716E+02 -0.22968537635E+02  0.30394452904E+02  0.10566000000E+00 0.  1.
         23    2    1    0    0    0  0.76858023924E+01 -0.14778614030E+01  0.32224513755E+02  0.91838653232E+02  0.85642648885E+02 0.  0.
         13    1    3    3    0    0  0.22881740433E+02 -0.14336374119E+02  0.55193051390E+02  0.61444200328E+02  0.10566000000E+00 0. -1.
         22    1    1    0    0    0 -0.76858023924E+01  0.14778614030E+01 -0.32224513755E+02  0.33161346768E+02  0.00000000000E+00 0. -1.
</event>
<event>
 5    1  0.2491889E-009  0.9118800E+02  0.7818608E-02  0.1130116E+00
         25   -1    0    0    0    0  0.00000000000E+00  0.00000000000E+00  0.99999998245E-14  0.12500000000E+03  0.12500000000E+03 0.  0.
        -13    1    3    3    0    0 -0.35587529186E+02 -0.44062088895E+02  0.20315106007E+02  0.60171875552E+02  0.10566000000E+00 0. -1.
         23    2    1    0    0    0 -0.24678313378E+02 -0.23459235810E+02  0.22052195148E+00  0.90949984936E+02  0.84335616639E+02 0.  0.
         13    1    3    3    0    0  0.10909215808E+02  0.20602853085E+02 -0.20094584056E+02  0.30778109383E+02  0.10566000000E+00 0.  1.
         22    1    1    0    0    0  0.24678313378E+02  0.23459235810E+02 -0.22052195148E+00  0.34050015064E+02  0.00000000000E+00 0. -1.
</event>
<event>
 5    1  0.2491889E-009  0.9118800E+02  0.7818608E-02  0.1130116E+00
         25   -1    0    0    0    0  0.00000000000E+00  0.00000000000E+00  0.99999998245E-14  0.12500000000E+03  0.12500000000E+03 0.  0.
        -13    1    3    3    0    0  0.40954962219E+02 -0.33018859232E+02  0.22107940870E+02  0.57064228803E+02  0.10566000000E+00 0.  1.
         23    2    1    0    0    0  0.59072865324E+01 -0.20590794735E+02  0.22060424258E+02  0.94250379183E+02  0.89093180411E+02 0.  0.
         13    1    3    3    0    0 -0.35047675687E+02  0.12428064498E+02 -0.47516612667E-01  0.37186150380E+02  0.10566000000E+00 0. -1.
         22    1    1    0    0    0 -0.59072865324E+01  0.20590794735E+02 -0.22060424258E+02  0.30749620817E+02  0.00000000000E+00 0. -1.
</event>
<event>
 5    1  0.2491889E-009  0.9118800E+02  0.7818608E-02  0.1130116E+00
         25   -1    0    0    0    0  0.00000000000E+00  0.00000000000E+00  0.99999998245E-14  0.12500000000E+03  0.12500000000E+03 0.  0.
        -13    1    3    3    0    0 -0.46106509609E+02  0.31773414151E+02 -0.11378840549E+02  0.57138859382E+02  0.10566000000E+00 0.  1.
         23    2    1    0    0    0 -0.28638248923E+02  0.44702958209E+01  0.80357948875E+01  0.94921654873E+02  0.90030071189E+02 0.  0.
         13    1    3    3    0    0  0.17468260686E+02 -0.27303118330E+02  0.19414635436E+02  0.37782795491E+02  0.10566000000E+00 0. -1.
         22    1    1    0    0    0  0.28638248923E+02 -0.44702958209E+01 -0.80357948875E+01  0.30078345127E+02  0.00000000000E+00 0.  1.
</event>
<event>
 5    1  0.2491889E-009  0.9118800E+02  0.7818608E-02  0.1130116E+00
         25   -1    0    0    0    0  0.00000000000E+00  0.00000000000E+00  0.99999998245E-14  0.12500000000E+03  0.12500000000E+03 0.  0.
        -13    1    3    3    0    0 -0.31595130669E+02  0.45444930598E+02  0.13248855281E+02  0.56912541054E+02  0.10566000000E+00 0. -1.
         23    2    1    0    0    0  0.36028589427E+01  0.26440971238E+02  0.71300441085E+01  0.97378575679E+02  0.93379033619E+02 0.  0.
         13    1    3    3    0    0  0.35197989611E+02 -0.19003959360E+02 -0.61188111721E+01  0.40466034624E+02  0.10566000000E+00 0.  1.
         22    1    1    0    0    0 -0.36028589427E+01 -0.26440971238E+02 -0.71300441085E+01  0.27621424321E+02  0.00000000000E+00 0. -1.
</event>
<event>
 5    1  0.2491889E-009  0.9118800E+02  0.7818608E-02  0.1130116E+00
         25   -1    0    0    0    0  0.00000000000E+00  0.00000000000E+00  0.99999998245E-14  0.12500000000E+03  0.12500000000E+03 0.  0.
        -13    1    3    3    0    0 -0.20339808013E+02 -0.17181731697E+02 -0.21789236806E+02  0.34404966193E+02  0.10566000000E+00 0.  1.
         23    2    1    0    0    0  0.12101122024E+02  0.16809559364E+02  0.19199332989E+02  0.96757959927E+02  0.92544529724E+02 0.  0.
         13    1    3    3    0    0  0.32440930037E+02  0.33991291061E+02  0.40988569796E+02  0.62352993734E+02  0.10566000000E+00 0. -1.
         22    1    1    0    0    0 -0.12101122024E+02 -0.16809559364E+02 -0.19199332989E+02  0.28242040073E+02  0.00000000000E+00 0. -1.
</event>
<event>
 5    1  0.2491889E-009  0.9118800E+02  0.7818608E-02  0.1130116E+00
         25   -1    0    0    0    0  0.00000000000E+00  0.00000000000E+00  0.99999998245E-14  0.12500000000E+03  0.12500000000E+03 0.  0.
        -13    1    3    3    0    0 -0.27568210724E+02  0.27693760914E+02 -0.47567722746E+02  0.61560133588E+02  0.10566000000E+00 0.  1.
         23    2    1    0    0    0 -0.20099442971E+02  0.12065009555E+02 -0.19668967809E+02  0.94399013774E+02  0.89301475036E+02 0.  0.
         13    1    3    3    0    0  0.74687677524E+01 -0.15628751359E+02  0.27898754938E+02  0.32838880186E+02  0.10566000000E+00 0. -1.
         22    1    1    0    0    0  0.20099442971E+02 -0.12065009555E+02  0.19668967809E+02  0.30600986226E+02  0.00000000000E+00 0.  1.
</event>
<event>
 5    1  0.2491889E-009  0.9118800E+02  0.7818608E-02  0.1130116E+00
         25   -1    0    0    0    0  0.00000000000E+00  0.00000000000E+00  0.99999998245E-14  0.12500000000E+03  0.12500000000E+03 0.  0.
        -13    1    3    3    0    0 -0.72962745663E+01  0.31449169419E+02  0.35840178674E+02  0.48237075482E+02  0.10566000000E+00 0. -1.
         23    2    1    0    0    0 -0.86991388198E+01 -0.14366524486E+02  0.24223945467E+02  0.95523372377E+02  0.90861670105E+02 0.  0.
         13    1    3    3    0    0 -0.14028642535E+01 -0.45815693905E+02 -0.11616233207E+02  0.47286296895E+02  0.10566000000E+00 0.  1.
         22    1    1    0    0    0  0.86991388198E+01  0.14366524486E+02 -0.24223945467E+02  0.29476627623E+02  0.00000000000E+00 0.  1.
</event>
<event>
 5    1  0.2491889E-009  0.9118800E+02  0.7818608E-02  0.1130116E+00
         25   -1    0    0    0    0  0.00000000000E+00  0.00000000000E+00  0.99999998245E-14  0.12500000000E+03  0.12500000000E+03 0.  0.
        -13    1    3    3    0    0 -0.18562930504E+02 -0.13115637696E+02  0.35340834523E+02  0.42018901579E+02  0.10566000000E+00 0. -1.
         23    2    1    0    0    0 -0.17363859274E+02  0.22276622772E+02 -0.56581508501E+01  0.96194337327E+02  0.91780086793E+02 0.  0.
         13    1    3    3    0    0  0.11990712298E+01  0.35392260467E+02 -0.40998985373E+02  0.54175435748E+02  0.10566000000E+00 0.  1.
         22    1    1    0    0    0  0.17363859274E+02 -0.22276622772E+02  0.56581508501E+01  0.28805662673E+02  0.00000000000E+00 0.  1.
</event>
<event>
 5    1  0.2491889E-009  0.9118800E+02  0.7818608E-02  0.1130116E+00
         25   -1    0    0    0    0  0.00000000000E+00  0.00000000000E+00  0.99999998245E-14  0.12500000000E+03  0.12500000000E+03 0.  0.
        -13    1    3    3    0    0  0.86729921969E+01 -0.22325810370E+02 -0.54450926080E+02  0.59485940501E+02  0.10566000000E+00 0.  1.
         23    2    1    0    0    0  0.90636250113E+01 -0.21297942108E+02 -0.18727777936E+02  0.95226164123E+02  0.90451871351E+02 0.  0.
         13    1    3    3    0    0  0.39063281438E+00  0.10278682614E+01  0.35723148144E+02  0.35740223622E+02  0.10566000000E+00 0. -1.
         22    1    1    0    0    0 -0.90636250113E+01  0.21297942108E+02  0.18727777936E+02  0.29773835877E+02  0.00000000000E+00 0.  1.
</event>
<event>
 5    1  0.2491889E-009  0.9118800E+02  0.7818608E-02  0.1130116E+00
         25   -1    0    0    0    0  0.00000000000E+00  0.00000000000E+00  0.99999998245E-14  0.12500000000E+03  0.12500000000E+03 0.  0.
        -13    1    3    3    0    0 -0.39606928399E+01 -0.13717101547E+02 -0.51602284595E+02  0.53541132805E+02  0.10566000000E+00 0. -1.
         23    2    1    0    0    0 -0.23950542955E+02 -0.52127395970E+01 -0.14540725740E+02  0.96500283036E+02  0.92195828317E+02 0.  0.
         13    1    3    3    0    0 -0.19989850116E+02  0.85043619495E+01  0.37061558855E+02  0.42959150231E+02  0.10566000000E+00 0.  1.
         22    1    1    0    0    0  0.23950542955E+02  0.52127395970E+01  0.14540725740E+02  0.28499716964E+02  0.00000000000E+00 0.  1.
</event>
<event>
 5    1  0.2491889E-009  0.9118800E+02  0.7818608E-02  0.1130116E+00
         25   -1    0    0    0    0  0.00000000000E+00  0.00000000000E+00  0.99999998245E-14  0.12500000000E+03  0.12500000000E+03 0.  0.
        -13    1    3    3    0    0 -0.24436200766E+02  0.13464463130E+02  0.51108633661E+02  0.58228199989E+02  0.10566000000E+00 0. -1.
         23    2    1    0    0    0 -0.14257973153E+02  0.17363032839E+02  0.10636478473E+02  0.10014241802E+03  0.97008270286E+02 0.  0.
         13    1    3    3    0    0  0.10178227613E+02  0.38985697092E+01 -0.40472155188E+02  0.41914218026E+02  0.10566000000E+00 0.  1.
         22    1    1    0    0    0  0.14257973153E+02 -0.17363032839E+02 -0.10636478473E+02  0.24857581984E+02  0.00000000000E+00 0. -1.
</event>
<event>
 5    1  0.2491889E-009  0.9118800E+02  0.7818608E-02  0.1130116E+00
         25   -1    0    0    0    0  0.00000000000E+00  0.00000000000E+00  0.99999998245E-14  0.12500000000E+03  0.12500000000E+03 0.  0.
        -13    1    3    3    0    0  0.99825842960E+01 -0.58548981036E+02  0.13733056076E+02  0.60960997062E+02  0.10566000000E+00 0.  1.
         23    2    1    0    0    0  0.78804684850E+01 -0.23605578202E+02  0.14912874370E+02  0.95987607341E+02  0.91498097441E+02 0.  0.
         13    1    3    3    0    0 -0.21021158110E+01  0.34943402833E+02  0.11798182935E+01  0.35026610280E+02  0.10566000000E+00 0. -1.
         22    1    1    0    0    0 -0.78804684850E+01  0.23605578202E+02 -0.14912874370E+02  0.29012392659E+02  0.00000000000E+00 0.  1.
</event>
<event>
 5    1  0.2491889E-009  0.9118800E+02  0.7818608E-02  0.1130116E+00
         25   -1    0    0    0    0  0.00000000000E+00  0.00000000000E+00  0.99999998245E-14  0.12500000000E+03  0.12500000000E+03 0.  0.
        -13    1    3    3    0    0 -0.15679558962E+02 -0.29641171120E+02  0.57659465476E+01  0.34025062796E+02  0.10566000000E+00 0. -1.
         23    2    1    0    0    0  0.90674655511E+01  0.24851932990E+02  0.15009980991E+02  0.94583934604E+02  0.89559944456E+02 0.  0.
         13    1    3    3    0    0  0.24747024514E+02  0.54493104110E+02  0.92440344431E+01  0.60558871808E+02  0.10566000000E+00 0.  1.
         22    1    1    0    0    0 -0.90674655511E+01 -0.24851932990E+02 -0.15009980991E+02  0.30416065396E+02  0.00000000000E+00 0.  1.
</event>
<event>
 5    1  0.2491889E-009  0.9118800E+02  0.7818608E-02  0.1130116E+00
         25   -1    0    0    0    0  0.00000000000E+00  0.00000000000E+00  0.99999998245E-14  0.12500000000E+03  0.12500000000E+03 0.  0.
        -13    1    3    3    0    0  0.14316848911E+02  0.29419775387E+02 -0.39859800696E+02  0.51568500290E+02  0.10566000000E+00 0. -1.
         23    2    1    0    0    0  0.23492009491E+02  0.18199312857E+02  0.13494584999E+01  0.95252554116E+02  0.90488333662E+02 0.  0.
         13    1    3    3    0    0  0.91751605804E+01 -0.11220462531E+02  0.41209259196E+02  0.43684053825E+02  0.10566000000E+00 0.  1.
         22    1    1    0    0    0 -0.23492009491E+02 -0.18199312857E+02 -0.13494584999E+01  0.29747445884E+02  0.00000000000E+00 0. -1.
</event>
<event>
 5    1  0.2491889E-009  0.9118800E+02  0.7818608E-02  0.1130116E+00
         25   -1    0    0    0    0  0.00000000000E+00  0.00000000000E+00  0.99999998245E-14  0.12500000000E+03  0.12500000000E+03 0.  0.
        -13    1    3    3    0    0 -0.39788879369E+02  0.10765955358E+01  0.14414418087E+02  0.42333209094E+02  0.10566000000E+00 0. -1.
         23    2    1    0    0    0  0.64468559033E+01 -0.26555283570E+02  0.20569352362E+01  0.97596058329E+02  0.93669710058E+02 0.  0.
         13    1    3    3    0    0  0.46235735272E+02 -0.27631879106E+02 -0.12357482850E+02  0.55262849235E+02  0.10566000000E+00 0.  1.
         22    1    1    0    0    0 -0.64468559033E+01  0.26555283570E+02 -0.20569352362E+01  0.27403941671E+02  0.00000000000E+00 0.  1.
</event>
<event>
 5    1  0.2491889E-009  0.9118800E+02  0.7818608E-02  0.1130116E+00
         25   -1    0    0    0    0  0.00000000000E+00  0.00000000000E+00  0.99999998245E-14  0.12500000000E+03  0.12500000000E+03 0.  0.
        -13    1    3    3    0    0 -0.21833051759E+02 -0.46507368901E+01 -0.28862653253E+02  0.36488017479E+02  0.10566000000E+00 0.  1.
         23    2    1    0    0    0  0.98824992735E+00  0.10713905312E+02  0.25448849993E+02  0.97370154345E+02  0.93367759887E+02 0.  0.
         13    1    3    3    0    0  0.22821301686E+02  0.15364642202E+02  0.54311503245E+02  0.60882136867E+02  0.10566000000E+00 0. -1.
         22    1    1    0    0    0 -0.98824992735E+00 -0.10713905312E+02 -0.25448849993E+02  0.27629845655E+02  0.00000000000E+00 0. -1.
</event>
<event>
 5    1  0.2491889E-009  0.9118800E+02  0.7818608E-02  0.1130116E+00
         25   -1    0    0    0    0  0.00000000000E+00  0.00000000000E+00  0.99999998245E-14  0.12500000000E+03  0.12500000000E+03 0.  0.
        -13    1    3    3    0    0  0.10590637768E+02 -0.11044613539E+02 -0.37352653004E+02  0.40365541580E+02  0.10566000000E+00 0.  1.
         23    2    1    0    0    0  0.10931032943E+02  0.26855377038E+02  0.31479984370E+01  0.95834804112E+02  0.91289106842E+02 0.  0.
         13    1    3    3    0    0  0.34039517502E+00  0.37899990577E+02  0.40500651441E+02  0.55469262532E+02  0.10566000000E+00 0. -1.
         22    1    1    0    0    0 -0.10931032943E+02 -0.26855377038E+02 -0.31479984370E+01  0.29165195888E+02  0.00000000000E+00 0. -1.
</event>
<event>
 5    1  0.2491889E-009  0.9118800E+02  0.7818608E-02  0.1130116E+00
         25   -1    0    0    0    0  0.00000000000E+00  0.00000000000E+00  0.99999998245E-14  0.12500000000E+03  0.12500000000E+03 0.  0.
        -13    1    3    3    0    0 -0.20822422745E+02 -0.12220946383E+02 -0.34541239244E+02  0.42143008815E+02  0.10566000000E+00 0. -1.
         23    2    1    0    0    0 -0.16087242323E+02 -0.21559047787E+02  0.15962496424E+02  0.93720722529E+02  0.88346933349E+02 0.  0.
         13    1    3    3    0    0  0.47351804224E+01 -0.93381014040E+01  0.50503735668E+02  0.51577713713E+02  0.10566000000E+00 0.  1.
         22    1    1    0    0    0  0.16087242323E+02  0.21559047787E+02 -0.15962496424E+02  0.31279277471E+02  0.00000000000E+00 0.  1.
</event>
<event>
 5    1  0.2491889E-009  0.9118800E+02  0.7818608E-02  0.1130116E+00
         25   -1    0    0    0    0  0.00000000000E+00  0.00000000000E+00  0.99999998245E-14  0.12500000000E+03  0.12500000000E+03 0.  0.
        -13    1    3    3    0    0 -0.61143945387E+01 -0.58793953421E+02 -0.21373410981E+00  0.59111518554E+02  0.10566000000E+00 0.  1.
         23    2    1    0    0    0 -0.12942697490E+02 -0.21039900678E+02 -0.94122675150E+01  0.98565522161E+02  0.94954623585E+02 0.  0.
         13    1    3    3    0    0 -0.68283029514E+01  0.37754052743E+02 -0.91985334052E+01  0.39454003606E+02  0.10566000000E+00 0. -1.
         22    1    1    0    0    0  0.12942697490E+02  0.21039900678E+02  0.94122675150E+01  0.26434477839E+02  0.00000000000E+00 0.  1.
</event>
<event>
 4    1  0.2491889E-009  0.9118800E+02  0.7818608E-02  0.1130116E+00
         25   -1    0    0    0    0  0.00000000000E+00  0.00000000000E+00  0.99999998245E-14  0.12500000000E+03  0.12500000000E+03 0.  0.
        -13    1    1    0    0    0  0.47899220322E+02  0.15233533195E+02 -0.24322120661E+02  0.55838808714E+02  0.10566000000E+00 0.  1.
         13    1    1    0    0    0 -0.76220470977E+01  0.10913776604E+02 -0.33649558803E+01  0.13730994641E+02  0.10566000000E+00 0. -1.
         22    1    1    0    0    0 -0.40277173225E+02 -0.26147309800E+02  0.27687076541E+02  0.55430196645E+02  0.00000000000E+00 0.  1.
</event>
<event>
 5    1  0.2491889E-009  0.9118800E+02  0.7818608E-02  0.1130116E+00
         25   -1    0    0    0    0  0.00000000000E+00  0.00000000000E+00  0.99999998245E-14  0.12500000000E+03  0.12500000000E+03 0.  0.
        -13    1    3    3    0    0  0.21120833251E+02  0.18001422482E+02  0.25654732556E+02  0.37793085018E+02  0.10566000000E+00 0. -1.
         23    2    1    0    0    0  0.54663556490E+01  0.85570129433E+01 -0.28391156956E+02  0.94847698133E+02  0.89927329178E+02 0.  0.
         13    1    3    3    0    0 -0.15654477602E+02 -0.94444095388E+01 -0.54045889512E+02  0.57054613115E+02  0.10566000000E+00 0.  1.
         22    1    1    0    0    0 -0.54663556490E+01 -0.85570129433E+01  0.28391156956E+02  0.30152301867E+02  0.00000000000E+00 0. -1.
</event>
<event>
 5    1  0.2491889E-009  0.9118800E+02  0.7818608E-02  0.1130116E+00
         25   -1    0    0    0    0  0.00000000000E+00  0.00000000000E+00  0.99999998245E-14  0.12500000000E+03  0.12500000000E+03 0.  0.
        -13    1    3    3    0    0 -0.26333072915E+01  0.30427177247E+02  0.22062705995E+02  0.37676538885E+02  0.10566000000E+00 0.  1.
         23    2    1    0    0    0  0.15060759280E+02 -0.18901715728E+02 -0.97009530563E+01  0.98957538178E+02  0.95469285870E+02 0.  0.
         13    1    3    3    0    0  0.17694066572E+02 -0.49328892975E+02 -0.31763659051E+02  0.61280999293E+02  0.10566000000E+00 0. -1.
         22    1    1    0    0    0 -0.15060759280E+02  0.18901715728E+02  0.97009530563E+01  0.26042461822E+02  0.00000000000E+00 0. -1.
</event>
<event>
 5    1  0.2491889E-009  0.9118800E+02  0.7818608E-02  0.1130116E+00
         25   -1    0    0    0    0  0.00000000000E+00  0.00000000000E+00  0.99999998245E-14  0.12500000000E+03  0.12500000000E+03 0.  0.
        -13    1    3    3    0    0 -0.57029118055E+01 -0.41378435648E+02 -0.14721798642E+02  0.44288154839E+02  0.10566000000E+00 0.  1.
         23    2    1    0    0    0 -0.25317145665E+02  0.54388905744E+01 -0.15049982004E+02  0.95049351366E+02  0.90207193957E+02 0.  0.
         13    1    3    3    0    0 -0.19614233859E+02  0.46817326223E+02 -0.32818336176E+00  0.50761196527E+02  0.10566000000E+00 0. -1.
         22    1    1    0    0    0  0.25317145665E+02 -0.54388905744E+01  0.15049982004E+02  0.29950648634E+02  0.00000000000E+00 0. -1.
</event>
<event>
 5    1  0.2491889E-009  0.9118800E+02  0.7818608E-02  0.1130116E+00
         25   -1    0    0    0    0  0.00000000000E+00  0.00000000000E+00  0.99999998245E-14  0.12500000000E+03  0.12500000000E+03 0.  0.
        -13    1    3    3    0    0  0.22784994017E+02 -0.15890502979E+02 -0.26429186964E+02  0.38342888844E+02  0.10566000000E+00 0.  1.
         23    2    1    0    0    0 -0.19870330455E+01 -0.91982430844E+01  0.26344973956E+02  0.97024767581E+02  0.92904208168E+02 0.  0.
         13    1    3    3    0    0 -0.24772027062E+02  0.66922598950E+01  0.52774160920E+02  0.58681878737E+02  0.10566000000E+00 0. -1.
         22    1    1    0    0    0  0.19870330455E+01  0.91982430844E+01 -0.26344973956E+02  0.27975232419E+02  0.00000000000E+00 0. -1.
</event>
<event>
 5    1  0.2491889E-009  0.9118800E+02  0.7818608E-02  0.1130116E+00
         25   -1    0    0    0    0  0.00000000000E+00  0.00000000000E+00  0.99999998245E-14  0.12500000000E+03  0.12500000000E+03 0.  0.
        -13    1    3    3    0    0 -0.20047695620E+02 -0.13625329317E+02  0.42136688895E+02  0.48611432953E+02  0.10566000000E+00 0.  1.
         23    2    1    0    0    0 -0.17149910501E+00 -0.29394936573E+02  0.27322916401E+01  0.95477853640E+02  0.90799027583E+02 0.  0.
         13    1    3    3    0    0  0.19876196515E+02 -0.15769607256E+02 -0.39404397255E+02  0.46866420687E+02  0.10566000000E+00 0. -1.
         22    1    1    0    0    0  0.17149910501E+00  0.29394936573E+02 -0.27322916401E+01  0.29522146360E+02  0.00000000000E+00 0.  1.
</event>
<event>
 5    1  0.2491889E-009  0.9118800E+02  0.7818608E-02  0.1130116E+00
         25   -1    0    0    0    0  0.00000000000E+00  0.00000000000E+00  0.99999998245E-14  0.12500000000E+03  0.12500000000E+03 0.  0.
        -13    1    3    3    0    0  0.13911853157E+02 -0.30548383344E+02 -0.48571133995E+02  0.59041592160E+02  0.10566000000E+00 0.  1.
         23    2    1    0    0    0  0.10392490375E+02 -0.24804010773E+02 -0.13212409196E+02  0.95036512830E+02  0.90189401858E+02 0.  0.
         13    1    3    3    0    0 -0.35193627822E+01  0.57443725712E+01  0.35358724799E+02  0.35994920670E+02  0.10566000000E+00 0. -1.
         22    1    1    0    0    0 -0.10392490375E+02  0.24804010773E+02  0.13212409196E+02  0.29963487170E+02  0.00000000000E+00 0.  1.
</event>
<event>
 5    1  0.2491889E-009  0.9118800E+02  0.7818608E-02  0.1130116E+00
         25   -1    0    0    0    0  0.00000000000E+00  0.00000000000E+00  0.99999998245E-14  0.12500000000E+03  0.12500000000E+03 0.  0.
        -13    1    3    3    0    0  0.13859132960E+02 -0.30619512322E+02  0.12656048104E+02  0.35914019809E+02  0.10566000000E+00 0. -1.
         23    2    1    0    0    0 -0.55240183512E+01  0.25511046245E+02  0.14136299879E+02  0.95315606229E+02  0.90575391565E+02 0.  0.
         13    1    3    3    0    0 -0.19383151311E+02  0.56130558567E+02  0.14802517752E+01  0.59401586420E+02  0.10566000000E+00 0.  1.
         22    1    1    0    0    0  0.55240183512E+01 -0.25511046245E+02 -0.14136299879E+02  0.29684393771E+02  0.00000000000E+00 0.  1.
</event>
<event>
 5    1  0.2491889E-009  0.9118800E+02  0.7818608E-02  0.1130116E+00
         25   -1    0    0    0    0  0.00000000000E+00  0.00000000000E+00  0.99999998245E-14  0.12500000000E+03  0.12500000000E+03 0.  0.
        -13    1    3    3    0    0  0.10915058817E+02  0.43538346675E+02 -0.16516824401E+02  0.47828263532E+02  0.10566000000E+00 0. -1.
         23    2    1    0    0    0  0.20834738378E+02  0.11099715475E+02  0.17304610594E+02  0.95729886322E+02  0.91145332193E+02 0.  0.
         13    1    3    3    0    0  0.99196795610E+01 -0.32438631200E+02  0.33821434995E+02  0.47901622790E+02  0.10566000000E+00 0.  1.
         22    1    1    0    0    0 -0.20834738378E+02 -0.11099715475E+02 -0.17304610594E+02  0.29270113678E+02  0.00000000000E+00 0.  1.
</event>
<event>
 5    1  0.2491889E-009  0.9118800E+02  0.7818608E-02  0.1130116E+00
         25   -1    0    0    0    0  0.00000000000E+00  0.00000000000E+00  0.99999998245E-14  0.12500000000E+03  0.12500000000E+03 0.  0.
        -13    1    3    3    0    0  0.31783223520E+02 -0.41027961685E+02 -0.24526453935E+02  0.57402308699E+02  0.10566000000E+00 0. -1.
         23    2    1    0    0    0 -0.10828648440E+01 -0.27318839148E+02 -0.94578971632E+01  0.96070026142E+02  0.91610624578E+02 0.  0.
         13    1    3    3    0    0 -0.32866088364E+02  0.13709122537E+02  0.15068556772E+02  0.38667717443E+02  0.10566000000E+00 0.  1.
         22    1    1    0    0    0  0.10828648440E+01  0.27318839148E+02  0.94578971632E+01  0.28929973858E+02  0.00000000000E+00 0. -1.
</event>
<event>
 5    1  0.2491889E-009  0.9118800E+02  0.7818608E-02  0.1130116E+00
         25   -1    0    0    0    0  0.00000000000E+00  0.00000000000E+00  0.99999998245E-14  0.12500000000E+03  0.12500000000E+03 0.  0.
        -13    1    3    3    0    0  0.35163366522E+02 -0.14982217666E+02 -0.19009219204E+02  0.42688297813E+02  0.10566000000E+00 0. -1.
         23    2    1    0    0    0 -0.52173034042E+01 -0.26678136815E+02  0.12356092099E+02  0.95140056084E+02  0.90332795932E+02 0.  0.
         13    1    3    3    0    0 -0.40380669927E+02 -0.11695919149E+02  0.31365311303E+02  0.52451758270E+02  0.10566000000E+00 0.  1.
         22    1    1    0    0    0  0.52173034042E+01  0.26678136815E+02 -0.12356092099E+02  0.29859943916E+02  0.00000000000E+00 0. -1.
</event>
<event>
 5    1  0.2491889E-009  0.9118800E+02  0.7818608E-02  0.1130116E+00
         25   -1    0    0    0    0  0.00000000000E+00  0.00000000000E+00  0.99999998245E-14  0.12500000000E+03  0.12500000000E+03 0.  0.
        -13    1    3    3    0    0 -0.91639274407E+01  0.29243442528E+01 -0.33086918338E+02  0.34456997614E+02  0.10566000000E+00 0.  1.
         23    2    1    0    0    0  0.92785056635E+01 -0.82273048136E+01  0.25370606518E+02  0.96760897909E+02  0.92548497974E+02 0.  0.
         13    1    3    3    0    0  0.18442433104E+02 -0.11151649066E+02  0.58457524855E+02  0.62303900295E+02  0.10566000000E+00 0. -1.
         22    1    1    0    0    0 -0.92785056635E+01  0.82273048136E+01 -0.25370606518E+02  0.28239102091E+02  0.00000000000E+00 0. -1.
</event>
<event>
 5    1  0.2491889E-009  0.9118800E+02  0.7818608E-02  0.1130116E+00
         25   -1    0    0    0    0  0.00000000000E+00  0.00000000000E+00  0.99999998245E-14  0.12500000000E+03  0.12500000000E+03 0.  0.
        -13    1    3    3    0    0 -0.24497753020E+02 -0.32005081730E+02  0.34257449173E+02  0.52896589185E+02  0.10566000000E+00 0. -1.
         23    2    1    0    0    0 -0.17499859438E+02  0.82135615030E+01  0.22410188559E+02  0.95403982968E+02  0.90697275273E+02 0.  0.
         13    1    3    3    0    0  0.69978935816E+01  0.40218643233E+02 -0.11847260614E+02  0.42507393783E+02  0.10566000000E+00 0.  1.
         22    1    1    0    0    0  0.17499859438E+02 -0.82135615030E+01 -0.22410188559E+02  0.29596017032E+02  0.00000000000E+00 0. -1.
</event>
<event>
 5    1  0.2491889E-009  0.9118800E+02  0.7818608E-02  0.1130116E+00
         25   -1    0    0    0    0  0.00000000000E+00  0.00000000000E+00  0.99999998245E-14  0.12500000000E+03  0.12500000000E+03 0.  0.
        -13    1    3    3    0    0 -0.24589509543E+02 -0.22434709114E+02 -0.12213873026E+02  0.35456311299E+02  0.10566000000E+00 0.  1.
         23    2    1    0    0    0  0.19033243706E+02  0.18856205333E+02 -0.12293266935E+02  0.95522122575E+02  0.90859950714E+02 0.  0.
         13    1    3    3    0    0  0.43622753249E+02  0.41290914447E+02 -0.79393909440E-01  0.60065811276E+02  0.10566000000E+00 0. -1.
         22    1    1    0    0    0 -0.19033243706E+02 -0.18856205333E+02  0.12293266935E+02  0.29477877425E+02  0.00000000000E+00 0. -1.
</event>
<event>
 5    1  0.2491889E-009  0.9118800E+02  0.7818608E-02  0.1130116E+00
         25   -1    0    0    0    0  0.00000000000E+00  0.00000000000E+00  0.99999998245E-14  0.12500000000E+03  0.12500000000E+03 0.  0.
        -13    1    3    3    0    0  0.18822103141E+01  0.31945558973E+02  0.33338380607E+01  0.32174323521E+02  0.10566000000E+00 0.  1.
         23    2    1    0    0    0  0.60075096323E+01 -0.28124123741E+02 -0.11237787441E+02  0.94123724726E+02  0.88915303416E+02 0.  0.
         13    1    3    3    0    0  0.41252993181E+01 -0.60069682715E+02 -0.14571625502E+02  0.61949401205E+02  0.10566000000E+00 0. -1.
         22    1    1    0    0    0 -0.60075096323E+01  0.28124123741E+02  0.11237787441E+02  0.30876275274E+02  0.00000000000E+00 0. -1.
</event>
<event>
 5    1  0.2491889E-009  0.9118800E+02  0.7818608E-02  0.1130116E+00
         25   -1    0    0    0    0  0.00000000000E+00  0.00000000000E+00  0.99999998245E-14  0.12500000000E+03  0.12500000000E+03 0.  0.
        -13    1    3    3    0    0  0.36187419867E+02 -0.19871397060E+02 -0.54326550961E+01  0.41640445281E+02  0.10566000000E+00 0.  1.
         23    2    1    0    0    0 -0.91842355785E+01 -0.35757866074E+00 -0.27697647057E+02  0.95817167749E+02  0.91264954595E+02 0.  0.
         13    1    3    3    0    0 -0.45371655445E+02  0.19513818400E+02 -0.22264991961E+02  0.54176722469E+02  0.10566000000E+00 0. -1.
         22    1    1    0    0    0  0.91842355785E+01  0.35757866074E+00  0.27697647057E+02  0.29182832251E+02  0.00000000000E+00 0. -1.
</event>
<event>
 5    1  0.2491889E-009  0.9118800E+02  0.7818608E-02  0.1130116E+00
         25   -1    0    0    0    0  0.00000000000E+00  0.00000000000E+00  0.99999998245E-14  0.12500000000E+03  0.12500000000E+03 0.  0.
        -13    1    3    3    0    0  0.15257711233E+02 -0.52179438455E+02  0.22788140674E+02  0.58947451760E+02  0.10566000000E+00 0. -1.
         23    2    1    0    0    0  0.20883283668E+02 -0.18767461107E+02  0.91847265351E+01  0.95458701202E+02  0.90772657230E+02 0.  0.
         13    1    3    3    0    0  0.56255724342E+01  0.33411977349E+02 -0.13603414139E+02  0.36511249442E+02  0.10566000000E+00 0.  1.
         22    1    1    0    0    0 -0.20883283668E+02  0.18767461107E+02 -0.91847265351E+01  0.29541298798E+02  0.00000000000E+00 0. -1.
</event>
<event>
 5    1  0.2491889E-009  0.9118800E+02  0.7818608E-02  0.1130116E+00
         25   -1    0    0    0    0  0.00000000000E+00  0.00000000000E+00  0.99999998245E-14  0.12500000000E+03  0.12500000000E+03 0.  0.
        -13    1    3    3    0    0 -0.23127771114E+01 -0.24418246855E+02  0.23595953059E+02  0.34034980274E+02  0.10566000000E+00 0. -1.
         23    2    1    0    0    0  0.42471025643E+01  0.28244943628E+02 -0.74007352206E+01  0.95494312370E+02  0.90821682942E+02 0.  0.
         13    1    3    3    0    0  0.65598796758E+01  0.52663190483E+02 -0.30996688280E+02  0.61459332095E+02  0.10566000000E+00 0.  1.
         22    1    1    0    0    0 -0.42471025643E+01 -0.28244943628E+02  0.74007352206E+01  0.29505687630E+02  0.00000000000E+00 0.  1.
</event>
<event>
 5    1  0.2491889E-009  0.9118800E+02  0.7818608E-02  0.1130116E+00
         25   -1    0    0    0    0  0.00000000000E+00  0.00000000000E+00  0.99999998245E-14  0.12500000000E+03  0.12500000000E+03 0.  0.
        -13    1    3    3    0    0  0.43708931051E+01  0.32984870022E+02  0.33318020204E+02  0.47087238093E+02  0.10566000000E+00 0.  1.
         23    2    1    0    0    0 -0.23222587032E+02  0.18454158352E+02 -0.32649127306E+01  0.95158683607E+02  0.90358568502E+02 0.  0.
         13    1    3    3    0    0 -0.27593480137E+02 -0.14530711670E+02 -0.36582932934E+02  0.48071445514E+02  0.10566000000E+00 0. -1.
         22    1    1    0    0    0  0.23222587032E+02 -0.18454158352E+02  0.32649127306E+01  0.29841316393E+02  0.00000000000E+00 0.  1.
</event>
<event>
 5    1  0.2491889E-009  0.9118800E+02  0.7818608E-02  0.1130116E+00
         25   -1    0    0    0    0  0.00000000000E+00  0.00000000000E+00  0.99999998245E-14  0.12500000000E+03  0.12500000000E+03 0.  0.
        -13    1    3    3    0    0  0.94813646267E+01 -0.11401601425E+02 -0.58504346936E+02  0.60354474273E+02  0.10566000000E+00 0. -1.
         23    2    1    0    0    0 -0.38279451701E+01  0.23813500058E+01 -0.29766451218E+02  0.94894093434E+02  0.89991796062E+02 0.  0.
         13    1    3    3    0    0 -0.13309309797E+02  0.13782951431E+02  0.28737895719E+02  0.34539619161E+02  0.10566000000E+00 0.  1.
         22    1    1    0    0    0  0.38279451701E+01 -0.23813500058E+01  0.29766451218E+02  0.30105906566E+02  0.00000000000E+00 0. -1.
</event>
<event>
 5    1  0.2491889E-009  0.9118800E+02  0.7818608E-02  0.1130116E+00
         25   -1    0    0    0    0  0.00000000000E+00  0.00000000000E+00  0.99999998245E-14  0.12500000000E+03  0.12500000000E+03 0.  0.
        -13    1    3    3    0    0  0.70311864462E+00 -0.29783999487E+02  0.22832563851E+02  0.37535558306E+02  0.10566000000E+00 0.  1.
         23    2    1    0    0    0  0.26036387101E+02  0.54090266824E+01 -0.14461480305E+02  0.94729792939E+02  0.89763290017E+02 0.  0.
         13    1    3    3    0    0  0.25333268456E+02  0.35193026170E+02 -0.37294044156E+02  0.57194234633E+02  0.10566000000E+00 0. -1.
         22    1    1    0    0    0 -0.26036387101E+02 -0.54090266824E+01  0.14461480305E+02  0.30270207061E+02  0.00000000000E+00 0. -1.
</event>
<event>
 5    1  0.2491889E-009  0.9118800E+02  0.7818608E-02  0.1130116E+00
         25   -1    0    0    0    0  0.00000000000E+00  0.00000000000E+00  0.99999998245E-14  0.12500000000E+03  0.12500000000E+03 0.  0.
        -13    1    3    3    0    0  0.28727494293E+02 -0.46757394315E+02 -0.58221059088E+01  0.55185423191E+02  0.10566000000E+00 0. -1.
         23    2    1    0    0    0  0.65092844104E+01 -0.17765435382E+02 -0.22721803411E+02  0.95432081100E+02  0.90735992169E+02 0.  0.
         13    1    3    3    0    0 -0.22218209882E+02  0.28991958933E+02 -0.16899697502E+02  0.40246657909E+02  0.10566000000E+00 0.  1.
         22    1    1    0    0    0 -0.65092844104E+01  0.17765435382E+02  0.22721803411E+02  0.29567918900E+02  0.00000000000E+00 0. -1.
</event>
<event>
 5    1  0.2491889E-009  0.9118800E+02  0.7818608E-02  0.1130116E+00
         25   -1    0    0    0    0  0.00000000000E+00  0.00000000000E+00  0.99999998245E-14  0.12500000000E+03  0.12500000000E+03 0.  0.
        -13    1    3    3    0    0  0.13723861342E+02  0.14793349512E+01  0.37244697433E+02  0.39720416072E+02  0.10566000000E+00 0.  1.
         23    2    1    0    0    0 -0.15641878920E+02 -0.24175224468E+02 -0.33525889377E+01  0.96011214120E+02  0.91530342127E+02 0.  0.
         13    1    3    3    0    0 -0.29365740262E+02 -0.25654559420E+02 -0.40597286371E+02  0.56290798048E+02  0.10566000000E+00 0. -1.
         22    1    1    0    0    0  0.15641878920E+02  0.24175224468E+02  0.33525889377E+01  0.28988785880E+02  0.00000000000E+00 0. -1.
</event>
<event>
 5    1  0.2491889E-009  0.9118800E+02  0.7818608E-02  0.1130116E+00
         25   -1    0    0    0    0  0.00000000000E+00  0.00000000000E+00  0.99999998245E-14  0.12500000000E+03  0.12500000000E+03 0.  0.
        -13    1    3    3    0    0 -0.31643208272E+02  0.18383053944E+02  0.16052348973E+02  0.39961461105E+02  0.10566000000E+00 0.  1.
         23    2    1    0    0    0 -0.25144458947E+02 -0.18600546903E+02 -0.16482653525E+02  0.89646046501E+02  0.82380286630E+02 0.  0.
         13    1    3    3    0    0  0.64987493258E+01 -0.36983600847E+02 -0.32535002498E+02  0.49684585396E+02  0.10566000000E+00 0. -1.
         22    1    1    0    0    0  0.25144458947E+02  0.18600546903E+02  0.16482653525E+02  0.35353953499E+02  0.00000000000E+00 0.  1.
</event>
<event>
 5    1  0.2491889E-009  0.9118800E+02  0.7818608E-02  0.1130116E+00
         25   -1    0    0    0    0  0.00000000000E+00  0.00000000000E+00  0.99999998245E-14  0.12500000000E+03  0.12500000000E+03 0.  0.
        -13    1    3    3    0    0  0.93910811201E+01 -0.35653008082E+02 -0.49517733387E+02  0.61736103486E+02  0.10566000000E+00 0.  1.
         23    2    1    0    0    0  0.10538169081E+02 -0.18381760540E+02 -0.20539925288E+02  0.95490159964E+02  0.90815967710E+02 0.  0.
         13    1    3    3    0    0  0.11470879604E+01  0.17271247542E+02  0.28977808099E+02  0.33754056478E+02  0.10566000000E+00 0. -1.
         22    1    1    0    0    0 -0.10538169081E+02  0.18381760540E+02  0.20539925288E+02  0.29509840036E+02  0.00000000000E+00 0.  1.
</event>
<event>
 5    1  0.2491889E-009  0.9118800E+02  0.7818608E-02  0.1130116E+00
         25   -1    0    0    0    0  0.00000000000E+00  0.00000000000E+00  0.99999998245E-14  0.12500000000E+03  0.12500000000E+03 0.  0.
        -13    1    3    3    0    0 -0.27487553706E+02 -0.97682825173E+00 -0.27140038806E+02  0.38640816148E+02  0.10566000000E+00 0.  1.
         23    2    1    0    0    0  0.18740086268E+02 -0.16648663831E+02  0.78884202150E+01  0.98720806440E+02  0.95158823080E+02 0.  0.
         13    1    3    3    0    0  0.46227639974E+02 -0.15671835579E+02  0.35028459021E+02  0.60079990291E+02  0.10566000000E+00 0. -1.
         22    1    1    0    0    0 -0.18740086268E+02  0.16648663831E+02 -0.78884202150E+01  0.26279193560E+02  0.00000000000E+00 0. -1.
</event>
<event>
 5    1  0.2491889E-009  0.9118800E+02  0.7818608E-02  0.1130116E+00
         25   -1    0    0    0    0  0.00000000000E+00  0.00000000000E+00  0.99999998245E-14  0.12500000000E+03  0.12500000000E+03 0.  0.
        -13    1    3    3    0    0 -0.27913738825E+02  0.48531202535E+02 -0.24281071774E+02  0.61024880542E+02  0.10566000000E+00 0.  1.
         23    2    1    0    0    0 -0.13412901605E+02  0.15040708676E+02 -0.17842697524E+02  0.98083635055E+02  0.94318125319E+02 0.  0.
         13    1    3    3    0    0  0.14500837220E+02 -0.33490493859E+02  0.64383742505E+01  0.37058754512E+02  0.10566000000E+00 0. -1.
         22    1    1    0    0    0  0.13412901605E+02 -0.15040708676E+02  0.17842697524E+02  0.26916364945E+02  0.00000000000E+00 0.  1.
</event>
<event>
 5    1  0.2491889E-009  0.9118800E+02  0.7818608E-02  0.1130116E+00
         25   -1    0    0    0    0  0.00000000000E+00  0.00000000000E+00  0.99999998245E-14  0.12500000000E+03  0.12500000000E+03 0.  0.
        -13    1    3    3    0    0 -0.30520146802E+02 -0.41383333231E+02 -0.21869528385E+00  0.51420993979E+02  0.10566000000E+00 0.  1.
         23    2    1    0    0    0  0.98928166304E+01 -0.24037776191E+02 -0.11115641346E+02  0.96729167193E+02  0.92505631170E+02 0.  0.
         13    1    3    3    0    0  0.40412963433E+02  0.17345557040E+02 -0.10896946062E+02  0.45308173214E+02  0.10566000000E+00 0. -1.
         22    1    1    0    0    0 -0.98928166304E+01  0.24037776191E+02  0.11115641346E+02  0.28270832807E+02  0.00000000000E+00 0. -1.
</event>
<event>
 5    1  0.2491889E-009  0.9118800E+02  0.7818608E-02  0.1130116E+00
         25   -1    0    0    0    0  0.00000000000E+00  0.00000000000E+00  0.99999998245E-14  0.12500000000E+03  0.12500000000E+03 0.  0.
        -13    1    3    3    0    0 -0.58227478815E+01  0.33638513555E+02 -0.49365446183E+02  0.60020100200E+02  0.10566000000E+00 0.  1.
         23    2    1    0    0    0 -0.12657193374E+02  0.20511173889E+02 -0.17314191495E+02  0.95323510559E+02  0.90586299405E+02 0.  0.
         13    1    3    3    0    0 -0.68344454923E+01 -0.13127339666E+02  0.32051254688E+02  0.35303410360E+02  0.10566000000E+00 0. -1.
         22    1    1    0    0    0  0.12657193374E+02 -0.20511173889E+02  0.17314191495E+02  0.29676489441E+02  0.00000000000E+00 0.  1.
</event>
<event>
 5    1  0.2491889E-009  0.9118800E+02  0.7818608E-02  0.1130116E+00
         25   -1    0    0    0    0  0.00000000000E+00  0.00000000000E+00  0.99999998245E-14  0.12500000000E+03  0.12500000000E+03 0.  0.
        -13    1    3    3    0    0 -0.35582574102E+02 -0.12304560090E+02  0.31548698211E+02  0.49120803145E+02  0.10566000000E+00 0. -1.
         23    2    1    0    0    0  0.48864978951E+01  0.24411892827E+01  0.32341894468E+02  0.92200070052E+02  0.86168541319E+02 0.  0.
         13    1    3    3    0    0  0.40469071998E+02  0.14745749373E+02  0.79319625700E+00  0.43079266907E+02  0.10566000000E+00 0.  1.
         22    1    1    0    0    0 -0.48864978951E+01 -0.24411892827E+01 -0.32341894468E+02  0.32799929948E+02  0.00000000000E+00 0. -1.
</event>
<event>
 5    1  0.2491889E-009  0.9118800E+02  0.7818608E-02  0.1130116E+00
         25   -1    0    0    0    0  0.00000000000E+00  0.00000000000E+00  0.99999998245E-14  0.12500000000E+03  0.12500000000E+03 0.  0.
        -13    1    3    3    0    0 -0.28485954075E+02  0.24412395595E+02 -0.28573327475E+02  0.47157829098E+02  0.10566000000E+00 0. -1.
         23    2    1    0    0    0 -0.36875687347E+02 -0.82210169439E+01 -0.21299168341E+02  0.81628857418E+02  0.69153556340E+02 0.  0.
         13    1    3    3    0    0 -0.83897332714E+01 -0.32633412538E+02  0.72741591338E+01  0.34471028320E+02  0.10566000000E+00 0.  1.
         22    1    1    0    0    0  0.36875687347E+02  0.82210169439E+01  0.21299168341E+02  0.43371142582E+02  0.00000000000E+00 0. -1.
</event>
<event>
 5    1  0.2491889E-009  0.9118800E+02  0.7818608E-02  0.1130116E+00
         25   -1    0    0    0    0  0.00000000000E+00  0.00000000000E+00  0.99999998245E-14  0.12500000000E+03  0.12500000000E+03 0.  0.
        -13    1    3    3    0    0  0.13618041862E+02  0.64319027469E+00 -0.27490869952E+02  0.30685890123E+02  0.10566000000E+00 0. -1.
         23    2    1    0    0    0 -0.85876557965E+01 -0.14195160600E+02  0.28104748830E+02  0.92363711557E+02  0.86405601030E+02 0.  0.
         13    1    3    3    0    0 -0.22205697659E+02 -0.14838350874E+02  0.55595618782E+02  0.61677821435E+02  0.10566000000E+00 0.  1.
         22    1    1    0    0    0  0.85876557965E+01  0.14195160600E+02 -0.28104748830E+02  0.32636288443E+02  0.00000000000E+00 0.  1.
</event>
<event>
 5    1  0.2491889E-009  0.9118800E+02  0.7818608E-02  0.1130116E+00
         25   -1    0    0    0    0  0.00000000000E+00  0.00000000000E+00  0.99999998245E-14  0.12500000000E+03  0.12500000000E+03 0.  0.
        -13    1    3    3    0    0  0.94096733969E+01 -0.23051172168E+02  0.29854321931E+02  0.38874029811E+02  0.10566000000E+00 0. -1.
         23    2    1    0    0    0 -0.13843025001E+02  0.23244294572E+02  0.15673207609E+01  0.97900496948E+02  0.94075098921E+02 0.  0.
         13    1    3    3    0    0 -0.23252698398E+02  0.46295466740E+02 -0.28287001170E+02  0.59026467137E+02  0.10566000000E+00 0.  1.
         22    1    1    0    0    0  0.13843025001E+02 -0.23244294572E+02 -0.15673207609E+01  0.27099503052E+02  0.00000000000E+00 0.  1.
</event>
<event>
 5    1  0.2491889E-009  0.9118800E+02  0.7818608E-02  0.1130116E+00
         25   -1    0    0    0    0  0.00000000000E+00  0.00000000000E+00  0.99999998245E-14  0.12500000000E+03  0.12500000000E+03 0.  0.
        -13    1    3    3    0    0 -0.18289846659E+02 -0.12881780809E+02  0.29780417074E+02  0.37247055894E+02  0.10566000000E+00 0. -1.
         23    2    1    0    0    0 -0.53131209496E+01 -0.84401981279E+01 -0.27291100737E+02  0.95943668881E+02  0.91438051271E+02 0.  0.
         13    1    3    3    0    0  0.12976725709E+02  0.44415826807E+01 -0.57071517811E+02  0.58696612987E+02  0.10566000000E+00 0.  1.
         22    1    1    0    0    0  0.53131209496E+01  0.84401981279E+01  0.27291100737E+02  0.29056331119E+02  0.00000000000E+00 0. -1.
</event>
<event>
 5    1  0.2491889E-009  0.9118800E+02  0.7818608E-02  0.1130116E+00
         25   -1    0    0    0    0  0.00000000000E+00  0.00000000000E+00  0.99999998245E-14  0.12500000000E+03  0.12500000000E+03 0.  0.
        -13    1    3    3    0    0 -0.23892538531E+02 -0.13013539947E+02 -0.17774670322E+02  0.32498549021E+02  0.10566000000E+00 0. -1.
         23    2    1    0    0    0  0.14724151292E+02 -0.55027469575E+01  0.28020727487E+02  0.92871476470E+02  0.87137070856E+02 0.  0.
         13    1    3    3    0    0  0.38616689823E+02  0.75107929895E+01  0.45795397809E+02  0.60372927448E+02  0.10566000000E+00 0.  1.
         22    1    1    0    0    0 -0.14724151292E+02  0.55027469575E+01 -0.28020727487E+02  0.32128523530E+02  0.00000000000E+00 0.  1.
</event>
<event>
 5    1  0.2491889E-009  0.9118800E+02  0.7818608E-02  0.1130116E+00
         25   -1    0    0    0    0  0.00000000000E+00  0.00000000000E+00  0.99999998245E-14  0.12500000000E+03  0.12500000000E+03 0.  0.
        -13    1    3    3    0    0  0.32148680412E+02  0.65513241519E+01  0.16237326676E+02  0.36607641853E+02  0.10566000000E+00 0. -1.
         23    2    1    0    0    0 -0.10757161075E+02 -0.28386901892E+02 -0.11928298664E+01  0.94619816385E+02  0.89610011138E+02 0.  0.
         13    1    3    3    0    0 -0.42905841487E+02 -0.34938226044E+02 -0.17430156543E+02  0.58012174532E+02  0.10566000000E+00 0.  1.
         22    1    1    0    0    0  0.10757161075E+02  0.28386901892E+02  0.11928298664E+01  0.30380183615E+02  0.00000000000E+00 0.  1.
</event>
<event>
 5    1  0.2491889E-009  0.9118800E+02  0.7818608E-02  0.1130116E+00
         25   -1    0    0    0    0  0.00000000000E+00  0.00000000000E+00  0.99999998245E-14  0.12500000000E+03  0.12500000000E+03 0.  0.
        -13    1    3    3    0    0 -0.27950532044E+02 -0.53034816316E+02 -0.74308360580E+01  0.60408215267E+02  0.10566000000E+00 0.  1.
         23    2    1    0    0    0 -0.16003888847E+02 -0.22224390945E+02  0.74022785161E+01  0.96630267215E+02  0.92371894013E+02 0.  0.
         13    1    3    3    0    0  0.11946643197E+02  0.30810425372E+02  0.14833114574E+02  0.36222051947E+02  0.10566000000E+00 0. -1.
         22    1    1    0    0    0  0.16003888847E+02  0.22224390945E+02 -0.74022785161E+01  0.28369732785E+02  0.00000000000E+00 0.  1.
</event>
<event>
 5    1  0.2491889E-009  0.9118800E+02  0.7818608E-02  0.1130116E+00
         25   -1    0    0    0    0  0.00000000000E+00  0.00000000000E+00  0.99999998245E-14  0.12500000000E+03  0.12500000000E+03 0.  0.
        -13    1    3    3    0    0  0.11017271285E+02  0.10793262679E+02 -0.35267754562E+02  0.38492862477E+02  0.10566000000E+00 0.  1.
         23    2    1    0    0    0  0.72276151667E+01  0.22930863600E+02  0.19078631335E+02  0.94307051298E+02  0.89172657381E+02 0.  0.
         13    1    3    3    0    0 -0.37896561179E+01  0.12137600921E+02  0.54346385897E+02  0.55814188820E+02  0.10566000000E+00 0. -1.
         22    1    1    0    0    0 -0.72276151667E+01 -0.22930863600E+02 -0.19078631335E+02  0.30692948702E+02  0.00000000000E+00 0. -1.
</event>
<event>
 5    1  0.2491889E-009  0.9118800E+02  0.7818608E-02  0.1130116E+00
         25   -1    0    0    0    0  0.00000000000E+00  0.00000000000E+00  0.99999998245E-14  0.12500000000E+03  0.12500000000E+03 0.  0.
        -13    1    3    3    0    0 -0.49119312573E+02  0.79758833187E+01 -0.25186413532E+02  0.55773543665E+02  0.10566000000E+00 0. -1.
         23    2    1    0    0    0 -0.11532964003E+02  0.16392293012E+02 -0.23198979077E+02  0.94342062054E+02  0.89221721085E+02 0.  0.
         13    1    3    3    0    0  0.37586348570E+02  0.84164096937E+01  0.19874344552E+01  0.38568518388E+02  0.10566000000E+00 0.  1.
         22    1    1    0    0    0  0.11532964003E+02 -0.16392293012E+02  0.23198979077E+02  0.30657937946E+02  0.00000000000E+00 0. -1.
</event>
<event>
 5    1  0.2491889E-009  0.9118800E+02  0.7818608E-02  0.1130116E+00
         25   -1    0    0    0    0  0.00000000000E+00  0.00000000000E+00  0.99999998245E-14  0.12500000000E+03  0.12500000000E+03 0.  0.
        -13    1    3    3    0    0 -0.33880894935E+02  0.45508917020E+02 -0.83061871311E+01  0.57340914526E+02  0.10566000000E+00 0. -1.
         23    2    1    0    0    0 -0.20502907584E+01  0.28224833510E+02  0.56229009106E+01  0.96147583576E+02  0.91716388361E+02 0.  0.
         13    1    3    3    0    0  0.31830604177E+02 -0.17284083511E+02  0.13929088042E+02  0.38806669050E+02  0.10566000000E+00 0.  1.
         22    1    1    0    0    0  0.20502907584E+01 -0.28224833510E+02 -0.56229009106E+01  0.28852416424E+02  0.00000000000E+00 0. -1.
</event>
<event>
 5    1  0.2491889E-009  0.9118800E+02  0.7818608E-02  0.1130116E+00
         25   -1    0    0    0    0  0.00000000000E+00  0.00000000000E+00  0.99999998245E-14  0.12500000000E+03  0.12500000000E+03 0.  0.
        -13    1    3    3    0    0  0.15372245360E+02 -0.32497323028E+02  0.99867262331E+01  0.37311228823E+02  0.10566000000E+00 0. -1.
         23    2    1    0    0    0 -0.21551063825E+02  0.89021064326E+01  0.20712688615E+02  0.93811679741E+02  0.88475532975E+02 0.  0.
         13    1    3    3    0    0 -0.36923309185E+02  0.41399429461E+02  0.10725962382E+02  0.56500450918E+02  0.10566000000E+00 0.  1.
         22    1    1    0    0    0  0.21551063825E+02 -0.89021064326E+01 -0.20712688615E+02  0.31188320259E+02  0.00000000000E+00 0.  1.
</event>
<event>
 5    1  0.2491889E-009  0.9118800E+02  0.7818608E-02  0.1130116E+00
         25   -1    0    0    0    0  0.00000000000E+00  0.00000000000E+00  0.99999998245E-14  0.12500000000E+03  0.12500000000E+03 0.  0.
        -13    1    3    3    0    0  0.52447914368E+02  0.25330381767E+02  0.69371030046E+00  0.58248642559E+02  0.10566000000E+00 0.  1.
         23    2    1    0    0    0  0.22222840589E+02  0.14643936178E+02 -0.15537925862E+02  0.94182364615E+02  0.88997703082E+02 0.  0.
         13    1    3    3    0    0 -0.30225073779E+02 -0.10686445589E+02 -0.16231636163E+02  0.35933722056E+02  0.10566000000E+00 0. -1.
         22    1    1    0    0    0 -0.22222840589E+02 -0.14643936178E+02  0.15537925862E+02  0.30817635385E+02  0.00000000000E+00 0.  1.
</event>
<event>
 5    1  0.2491889E-009  0.9118800E+02  0.7818608E-02  0.1130116E+00
         25   -1    0    0    0    0  0.00000000000E+00  0.00000000000E+00  0.99999998245E-14  0.12500000000E+03  0.12500000000E+03 0.  0.
        -13    1    3    3    0    0  0.22200995488E+02 -0.21239771636E+02  0.39056408867E+02  0.49693322865E+02  0.10566000000E+00 0. -1.
         23    2    1    0    0    0  0.26652521709E+02 -0.92045398628E+01 -0.56822310154E+01  0.96235990946E+02  0.91836799468E+02 0.  0.
         13    1    3    3    0    0  0.44515262212E+01  0.12035231773E+02 -0.44738639882E+02  0.46542668081E+02  0.10566000000E+00 0.  1.
         22    1    1    0    0    0 -0.26652521709E+02  0.92045398628E+01  0.56822310154E+01  0.28764009054E+02  0.00000000000E+00 0.  1.
</event>
<event>
 5    1  0.2491889E-009  0.9118800E+02  0.7818608E-02  0.1130116E+00
         25   -1    0    0    0    0  0.00000000000E+00  0.00000000000E+00  0.99999998245E-14  0.12500000000E+03  0.12500000000E+03 0.  0.
        -13    1    3    3    0    0  0.22933530676E+02  0.12193506891E+02 -0.53892272695E+02  0.59824883283E+02  0.10566000000E+00 0. -1.
         23    2    1    0    0    0  0.84175368570E+01  0.16473055296E+02 -0.16318554067E+02  0.10033197040E+03  0.97252211285E+02 0.  0.
         13    1    3    3    0    0 -0.14515993819E+02  0.42795484049E+01  0.37573718628E+02  0.40507087116E+02  0.10566000000E+00 0.  1.
         22    1    1    0    0    0 -0.84175368570E+01 -0.16473055296E+02  0.16318554067E+02  0.24668029601E+02  0.00000000000E+00 0. -1.
</event>
<event>
 5    1  0.2491889E-009  0.9118800E+02  0.7818608E-02  0.1130116E+00
         25   -1    0    0    0    0  0.00000000000E+00  0.00000000000E+00  0.99999998245E-14  0.12500000000E+03  0.12500000000E+03 0.  0.
        -13    1    3    3    0    0 -0.36148966282E+02 -0.38371470428E+02  0.10853278438E+02  0.53823064972E+02  0.10566000000E+00 0.  1.
         23    2    1    0    0    0 -0.24949531736E+02 -0.53988253347E+01 -0.13313135964E+02  0.96209966342E+02  0.91801370281E+02 0.  0.
         13    1    3    3    0    0  0.11199434546E+02  0.32972645094E+02 -0.24166414402E+02  0.42386901369E+02  0.10566000000E+00 0. -1.
         22    1    1    0    0    0  0.24949531736E+02  0.53988253347E+01  0.13313135964E+02  0.28790033658E+02  0.00000000000E+00 0. -1.
</event>
<event>
 5    1  0.2491889E-009  0.9118800E+02  0.7818608E-02  0.1130116E+00
         25   -1    0    0    0    0  0.00000000000E+00  0.00000000000E+00  0.99999998245E-14  0.12500000000E+03  0.12500000000E+03 0.  0.
        -13    1    3    3    0    0 -0.55296177697E+02  0.36553697922E+01  0.16554695400E+02  0.57836823046E+02  0.10566000000E+00 0.  1.
         23    2    1    0    0    0 -0.19579599528E+02  0.49310286418E+01  0.23259009195E+02  0.94199719646E+02  0.89022075417E+02 0.  0.
         13    1    3    3    0    0  0.35716578169E+02  0.12756588496E+01  0.67043137956E+01  0.36362896600E+02  0.10566000000E+00 0. -1.
         22    1    1    0    0    0  0.19579599528E+02 -0.49310286418E+01 -0.23259009195E+02  0.30800280354E+02  0.00000000000E+00 0.  1.
</event>
<event>
 5    1  0.2491889E-009  0.9118800E+02  0.7818608E-02  0.1130116E+00
         25   -1    0    0    0    0  0.00000000000E+00  0.00000000000E+00  0.99999998245E-14  0.12500000000E+03  0.12500000000E+03 0.  0.
        -13    1    3    3    0    0  0.49080654809E+02 -0.19386288580E+02 -0.60087383443E+01  0.53111721511E+02  0.10566000000E+00 0.  1.
         23    2    1    0    0    0  0.21797993125E+02 -0.27582336501E+00  0.20033046528E+02  0.95393386954E+02  0.90682670553E+02 0.  0.
         13    1    3    3    0    0 -0.27282661683E+02  0.19110465215E+02  0.26041784873E+02  0.42281665443E+02  0.10566000000E+00 0. -1.
         22    1    1    0    0    0 -0.21797993125E+02  0.27582336501E+00 -0.20033046528E+02  0.29606613046E+02  0.00000000000E+00 0.  1.
</event>
<event>
 5    1  0.2491889E-009  0.9118800E+02  0.7818608E-02  0.1130116E+00
         25   -1    0    0    0    0  0.00000000000E+00  0.00000000000E+00  0.99999998245E-14  0.12500000000E+03  0.12500000000E+03 0.  0.
        -13    1    3    3    0    0 -0.36688412279E+02 -0.84102564311E+00  0.44947537557E+01  0.36972434259E+02  0.10566000000E+00 0.  1.
         23    2    1    0    0    0  0.15852826030E+02 -0.22888589988E+02 -0.93852276444E+01  0.95618336625E+02  0.90992220306E+02 0.  0.
         13    1    3    3    0    0  0.52541238309E+02 -0.22047564345E+02 -0.13879981400E+02  0.58645902365E+02  0.10566000000E+00 0. -1.
         22    1    1    0    0    0 -0.15852826030E+02  0.22888589988E+02  0.93852276444E+01  0.29381663375E+02  0.00000000000E+00 0. -1.
</event>
<event>
 5    1  0.2491889E-009  0.9118800E+02  0.7818608E-02  0.1130116E+00
         25   -1    0    0    0    0  0.00000000000E+00  0.00000000000E+00  0.99999998245E-14  0.12500000000E+03  0.12500000000E+03 0.  0.
        -13    1    3    3    0    0  0.44705212273E+02 -0.31404610604E+02 -0.17938502692E+02  0.57503100911E+02  0.10566000000E+00 0. -1.
         23    2    1    0    0    0  0.12201440072E+02 -0.67322007359E+01 -0.22468243957E+02  0.98561020196E+02  0.94948696931E+02 0.  0.
         13    1    3    3    0    0 -0.32503772201E+02  0.24672409868E+02 -0.45297412646E+01  0.41057919284E+02  0.10566000000E+00 0.  1.
         22    1    1    0    0    0 -0.12201440072E+02  0.67322007359E+01  0.22468243957E+02  0.26438979804E+02  0.00000000000E+00 0. -1.
</event>
<event>
 5    1  0.2491889E-009  0.9118800E+02  0.7818608E-02  0.1130116E+00
         25   -1    0    0    0    0  0.00000000000E+00  0.00000000000E+00  0.99999998245E-14  0.12500000000E+03  0.12500000000E+03 0.  0.
        -13    1    3    3    0    0 -0.23267759950E+02  0.35151005184E+02 -0.12065833829E+01  0.42171659038E+02  0.10566000000E+00 0. -1.
         23    2    1    0    0    0  0.23536022692E+02  0.16064266156E+02 -0.12368950023E+02  0.93935616280E+02  0.88650460066E+02 0.  0.
         13    1    3    3    0    0  0.46803782641E+02 -0.19086739028E+02 -0.11162366640E+02  0.51763957242E+02  0.10566000000E+00 0.  1.
         22    1    1    0    0    0 -0.23536022692E+02 -0.16064266156E+02  0.12368950023E+02  0.31064383720E+02  0.00000000000E+00 0. -1.
</event>
<event>
 5    1  0.2491889E-009  0.9118800E+02  0.7818608E-02  0.1130116E+00
         25   -1    0    0    0    0  0.00000000000E+00  0.00000000000E+00  0.99999998245E-14  0.12500000000E+03  0.12500000000E+03 0.  0.
        -13    1    3    3    0    0  0.35504628519E+02 -0.10410588328E+02 -0.52544534757E+01  0.37370836771E+02  0.10566000000E+00 0. -1.
         23    2    1    0    0    0  0.26102951400E+02  0.41026405960E+01  0.34978618977E+02  0.81162806691E+02  0.68305941709E+02 0.  0.
         13    1    3    3    0    0 -0.94016771190E+01  0.14513228924E+02  0.40233072453E+02  0.43791969920E+02  0.10566000000E+00 0.  1.
         22    1    1    0    0    0 -0.26102951400E+02 -0.41026405960E+01 -0.34978618977E+02  0.43837193309E+02  0.00000000000E+00 0.  1.
</event>
<event>
 5    1  0.2491889E-009  0.9118800E+02  0.7818608E-02  0.1130116E+00
         25   -1    0    0    0    0  0.00000000000E+00  0.00000000000E+00  0.99999998245E-14  0.12500000000E+03  0.12500000000E+03 0.  0.
        -13    1    3    3    0    0 -0.67750733341E+00 -0.20442224017E+02 -0.42054189802E+02  0.46764405084E+02  0.10566000000E+00 0. -1.
         23    2    1    0    0    0 -0.26499889216E+02 -0.25587912970E+01 -0.11305319768E+01  0.98352867998E+02  0.94674267885E+02 0.  0.
         13    1    3    3    0    0 -0.25822381883E+02  0.17883432720E+02  0.40923657825E+02  0.51588462914E+02  0.10566000000E+00 0.  1.
         22    1    1    0    0    0  0.26499889216E+02  0.25587912970E+01  0.11305319768E+01  0.26647132002E+02  0.00000000000E+00 0. -1.
</event>
<event>
 5    1  0.2491889E-009  0.9118800E+02  0.7818608E-02  0.1130116E+00
         25   -1    0    0    0    0  0.00000000000E+00  0.00000000000E+00  0.99999998245E-14  0.12500000000E+03  0.12500000000E+03 0.  0.
        -13    1    3    3    0    0 -0.38655766979E+02  0.31240699728E+02  0.34080773964E+02  0.60264085144E+02  0.10566000000E+00 0. -1.
         23    2    1    0    0    0 -0.15510535806E+02  0.31556989632E+01  0.20480990102E+02  0.99115523716E+02  0.95675916139E+02 0.  0.
         13    1    3    3    0    0  0.23145231174E+02 -0.28085000765E+02 -0.13599783861E+02  0.38851438572E+02  0.10566000000E+00 0.  1.
         22    1    1    0    0    0  0.15510535806E+02 -0.31556989632E+01 -0.20480990102E+02  0.25884476284E+02  0.00000000000E+00 0. -1.
</event>
<event>
 5    1  0.2491889E-009  0.9118800E+02  0.7818608E-02  0.1130116E+00
         25   -1    0    0    0    0  0.00000000000E+00  0.00000000000E+00  0.99999998245E-14  0.12500000000E+03  0.12500000000E+03 0.  0.
        -13    1    3    3    0    0  0.34942440566E+02  0.38593924986E+01  0.12586387044E+02  0.37340291456E+02  0.10566000000E+00 0. -1.
         23    2    1    0    0    0 -0.19687375777E+02  0.18401580702E+02 -0.69791219545E+01  0.97162631579E+02  0.93089515494E+02 0.  0.
         13    1    3    3    0    0 -0.54629816343E+02  0.14542188203E+02 -0.19565508999E+02  0.59822340123E+02  0.10566000000E+00 0.  1.
         22    1    1    0    0    0  0.19687375777E+02 -0.18401580702E+02  0.69791219545E+01  0.27837368421E+02  0.00000000000E+00 0.  1.
</event>
<event>
 5    1  0.2491889E-009  0.9118800E+02  0.7818608E-02  0.1130116E+00
         25   -1    0    0    0    0  0.00000000000E+00  0.00000000000E+00  0.99999998245E-14  0.12500000000E+03  0.12500000000E+03 0.  0.
        -13    1    3    3    0    0  0.30306546225E+02 -0.11838260022E+02  0.33782419671E+00  0.32538537669E+02  0.10566000000E+00 0. -1.
         23    2    1    0    0    0 -0.23509125076E+02  0.18547178279E+02 -0.52753015686E+01  0.94594316476E+02  0.89574433400E+02 0.  0.
         13    1    3    3    0    0 -0.53815671301E+02  0.30385438302E+02 -0.56131257653E+01  0.62055778806E+02  0.10566000000E+00 0.  1.
         22    1    1    0    0    0  0.23509125076E+02 -0.18547178279E+02  0.52753015686E+01  0.30405683524E+02  0.00000000000E+00 0.  1.
</event>
<event>
 5    1  0.2491889E-009  0.9118800E+02  0.7818608E-02  0.1130116E+00
         25   -1    0    0    0    0  0.00000000000E+00  0.00000000000E+00  0.99999998245E-14  0.12500000000E+03  0.12500000000E+03 0.  0.
        -13    1    3    3    0    0  0.15775962683E+02  0.13913451614E+02  0.56452631078E+02  0.60244301423E+02  0.10566000000E+00 0.  1.
         23    2    1    0    0    0  0.18614138107E+02  0.60318213546E+01  0.22655092402E+02  0.95064699466E+02  0.90228459293E+02 0.  0.
         13    1    3    3    0    0  0.28381754241E+01 -0.78816302590E+01 -0.33797538675E+02  0.34820398042E+02  0.10566000000E+00 0. -1.
         22    1    1    0    0    0 -0.18614138107E+02 -0.60318213546E+01 -0.22655092402E+02  0.29935300534E+02  0.00000000000E+00 0.  1.
</event>
<event>
 5    1  0.2491889E-009  0.9118800E+02  0.7818608E-02  0.1130116E+00
         25   -1    0    0    0    0  0.00000000000E+00  0.00000000000E+00  0.99999998245E-14  0.12500000000E+03  0.12500000000E+03 0.  0.
        -13    1    3    3    0    0  0.14773670290E+02  0.18029394855E+01  0.60276498633E+02  0.62086869595E+02  0.10566000000E+00 0. -1.
         23    2    1    0    0    0  0.34549059362E+01 -0.32668139574E+01  0.26680014221E+02  0.97899601344E+02  0.94073908902E+02 0.  0.
         13    1    3    3    0    0 -0.11318764354E+02 -0.50697534429E+01 -0.33596484412E+02  0.35812731749E+02  0.10566000000E+00 0.  1.
         22    1    1    0    0    0 -0.34549059362E+01  0.32668139574E+01 -0.26680014221E+02  0.27100398656E+02  0.00000000000E+00 0. -1.
</event>
<event>
 5    1  0.2491889E-009  0.9118800E+02  0.7818608E-02  0.1130116E+00
         25   -1    0    0    0    0  0.00000000000E+00  0.00000000000E+00  0.99999998245E-14  0.12500000000E+03  0.12500000000E+03 0.  0.
        -13    1    3    3    0    0  0.12654578904E+02  0.15388189802E+02  0.29510548368E+02  0.35606437363E+02  0.10566000000E+00 0. -1.
         23    2    1    0    0    0 -0.33159559542E+02 -0.12329026638E+00  0.84939553650E+00  0.91829334310E+02  0.85629046343E+02 0.  0.
         13    1    3    3    0    0 -0.45814138446E+02 -0.15511480069E+02 -0.28661152832E+02  0.56222896948E+02  0.10566000000E+00 0.  1.
         22    1    1    0    0    0  0.33159559542E+02  0.12329026638E+00 -0.84939553650E+00  0.33170665690E+02  0.00000000000E+00 0.  1.
</event>
<event>
 5    1  0.2491889E-009  0.9118800E+02  0.7818608E-02  0.1130116E+00
         25   -1    0    0    0    0  0.00000000000E+00  0.00000000000E+00  0.99999998245E-14  0.12500000000E+03  0.12500000000E+03 0.  0.
        -13    1    3    3    0    0 -0.22985460665E+02 -0.23281772248E+02  0.28881929078E+02  0.43641142427E+02  0.10566000000E+00 0. -1.
         23    2    1    0    0    0  0.10013986550E+02  0.14884200538E+02  0.24979891284E+02  0.94245905624E+02  0.89086903673E+02 0.  0.
         13    1    3    3    0    0  0.32999447215E+02  0.38165972787E+02 -0.39020377935E+01  0.50604763197E+02  0.10566000000E+00 0.  1.
         22    1    1    0    0    0 -0.10013986550E+02 -0.14884200538E+02 -0.24979891284E+02  0.30754094376E+02  0.00000000000E+00 0.  1.
</event>
<event>
 5    1  0.2491889E-009  0.9118800E+02  0.7818608E-02  0.1130116E+00
         25   -1    0    0    0    0  0.00000000000E+00  0.00000000000E+00  0.99999998245E-14  0.12500000000E+03  0.12500000000E+03 0.  0.
        -13    1    3    3    0    0 -0.44451612585E+01  0.29048525983E+02  0.18390968182E+02  0.34667206335E+02  0.10566000000E+00 0.  1.
         23    2    1    0    0    0  0.17803873927E+02 -0.24524990122E+02  0.85982169130E+01  0.93497898461E+02  0.88031100273E+02 0.  0.
         13    1    3    3    0    0  0.22249035185E+02 -0.53573516105E+02 -0.97927512692E+01  0.58830692126E+02  0.10566000000E+00 0. -1.
         22    1    1    0    0    0 -0.17803873927E+02  0.24524990122E+02 -0.85982169130E+01  0.31502101539E+02  0.00000000000E+00 0. -1.
</event>
<event>
 5    1  0.2491889E-009  0.9118800E+02  0.7818608E-02  0.1130116E+00
         25   -1    0    0    0    0  0.00000000000E+00  0.00000000000E+00  0.99999998245E-14  0.12500000000E+03  0.12500000000E+03 0.  0.
        -13    1    3    3    0    0  0.51879292866E+02  0.55867756786E+01  0.18523680996E+02  0.55369766231E+02  0.10566000000E+00 0.  1.
         23    2    1    0    0    0  0.14135885161E+02 -0.16791880704E+02  0.12719666235E+02  0.99631113230E+02  0.96347175918E+02 0.  0.
         13    1    3    3    0    0 -0.37743407706E+02 -0.22378656383E+02 -0.58040147612E+01  0.44261346999E+02  0.10566000000E+00 0. -1.
         22    1    1    0    0    0 -0.14135885161E+02  0.16791880704E+02 -0.12719666235E+02  0.25368886770E+02  0.00000000000E+00 0.  1.
</event>
<event>
 5    1  0.2491889E-009  0.9118800E+02  0.7818608E-02  0.1130116E+00
         25   -1    0    0    0    0  0.00000000000E+00  0.00000000000E+00  0.99999998245E-14  0.12500000000E+03  0.12500000000E+03 0.  0.
        -13    1    3    3    0    0  0.38585377516E+02 -0.67370151030E+01 -0.10030863131E+02  0.40433254998E+02  0.10566000000E+00 0. -1.
         23    2    1    0    0    0  0.81260516348E+01  0.13489531283E+02  0.27802336602E+02  0.93047377417E+02  0.87389040241E+02 0.  0.
         13    1    3    3    0    0 -0.30459325881E+02  0.20226546386E+02  0.37833199733E+02  0.52614122419E+02  0.10566000000E+00 0.  1.
         22    1    1    0    0    0 -0.81260516348E+01 -0.13489531283E+02 -0.27802336602E+02  0.31952622583E+02  0.00000000000E+00 0.  1.
</event>
<event>
 5    1  0.2491889E-009  0.9118800E+02  0.7818608E-02  0.1130116E+00
         25   -1    0    0    0    0  0.00000000000E+00  0.00000000000E+00  0.99999998245E-14  0.12500000000E+03  0.12500000000E+03 0.  0.
        -13    1    3    3    0    0  0.13800245823E+02  0.47208234804E+02 -0.67857461124E+01  0.49649992270E+02  0.10566000000E+00 0. -1.
         23    2    1    0    0    0  0.31772074920E+02  0.11789300361E+02  0.41816734613E+01  0.90854154855E+02  0.84193460042E+02 0.  0.
         13    1    3    3    0    0  0.17971829097E+02 -0.35418934443E+02  0.10967419574E+02  0.41204162585E+02  0.10566000000E+00 0.  1.
         22    1    1    0    0    0 -0.31772074920E+02 -0.11789300361E+02 -0.41816734613E+01  0.34145845145E+02  0.00000000000E+00 0. -1.
</event>
<event>
 5    1  0.2491889E-009  0.9118800E+02  0.7818608E-02  0.1130116E+00
         25   -1    0    0    0    0  0.00000000000E+00  0.00000000000E+00  0.99999998245E-14  0.12500000000E+03  0.12500000000E+03 0.  0.
        -13    1    3    3    0    0  0.11962332029E+02  0.14792811738E+02  0.31020374392E+02  0.36389551497E+02  0.10566000000E+00 0.  1.
         23    2    1    0    0    0  0.13035104843E+02 -0.12307239289E+02 -0.22405462153E+02  0.96305282167E+02  0.91931064074E+02 0.  0.
         13    1    3    3    0    0  0.10727728142E+01 -0.27100051027E+02 -0.53425836545E+02  0.59915730670E+02  0.10566000000E+00 0. -1.
         22    1    1    0    0    0 -0.13035104843E+02  0.12307239289E+02  0.22405462153E+02  0.28694717833E+02  0.00000000000E+00 0. -1.
</event>
<event>
 5    1  0.2491889E-009  0.9118800E+02  0.7818608E-02  0.1130116E+00
         25   -1    0    0    0    0  0.00000000000E+00  0.00000000000E+00  0.99999998245E-14  0.12500000000E+03  0.12500000000E+03 0.  0.
        -13    1    3    3    0    0  0.41131375452E+02  0.31345005122E+02 -0.12316421772E+02  0.53160180605E+02  0.10566000000E+00 0. -1.
         23    2    1    0    0    0  0.50146956981E+01  0.11308095112E+02 -0.25617943416E+02  0.96551815297E+02  0.92265669804E+02 0.  0.
         13    1    3    3    0    0 -0.36116679754E+02 -0.20036910010E+02 -0.13301521644E+02  0.43391634692E+02  0.10566000000E+00 0.  1.
         22    1    1    0    0    0 -0.50146956981E+01 -0.11308095112E+02  0.25617943416E+02  0.28448184703E+02  0.00000000000E+00 0. -1.
</event>
<event>
 5    1  0.2491889E-009  0.9118800E+02  0.7818608E-02  0.1130116E+00
         25   -1    0    0    0    0  0.00000000000E+00  0.00000000000E+00  0.99999998245E-14  0.12500000000E+03  0.12500000000E+03 0.  0.
        -13    1    3    3    0    0 -0.35216501658E+02  0.68737466069E+01 -0.27590600581E+02  0.45262598090E+02  0.10566000000E+00 0.  1.
         23    2    1    0    0    0 -0.13349222378E+02  0.24554542963E+02  0.12622726471E+02  0.94333070877E+02  0.89209123521E+02 0.  0.
         13    1    3    3    0    0  0.21867279280E+02  0.17680796357E+02  0.40213327052E+02  0.49070472787E+02  0.10566000000E+00 0. -1.
         22    1    1    0    0    0  0.13349222378E+02 -0.24554542963E+02 -0.12622726471E+02  0.30666929123E+02  0.00000000000E+00 0.  1.
</event>
<event>
 5    1  0.2491889E-009  0.9118800E+02  0.7818608E-02  0.1130116E+00
         25   -1    0    0    0    0  0.00000000000E+00  0.00000000000E+00  0.99999998245E-14  0.12500000000E+03  0.12500000000E+03 0.  0.
        -13    1    3    3    0    0 -0.32585451932E+02  0.43442484487E+02 -0.27980858996E+02  0.61090103701E+02  0.10566000000E+00 0. -1.
         23    2    1    0    0    0 -0.10935299507E+02  0.20241977657E+02 -0.21566838003E+02  0.93465147277E+02  0.87984582850E+02 0.  0.
         13    1    3    3    0    0  0.21650152426E+02 -0.23200506830E+02  0.64140209926E+01  0.32375043576E+02  0.10566000000E+00 0.  1.
         22    1    1    0    0    0  0.10935299507E+02 -0.20241977657E+02  0.21566838003E+02  0.31534852723E+02  0.00000000000E+00 0. -1.
</event>
<event>
 5    1  0.2491889E-009  0.9118800E+02  0.7818608E-02  0.1130116E+00
         25   -1    0    0    0    0  0.00000000000E+00  0.00000000000E+00  0.99999998245E-14  0.12500000000E+03  0.12500000000E+03 0.  0.
        -13    1    3    3    0    0  0.36667335378E+02  0.15272812054E+01 -0.44858211399E+01  0.36972419814E+02  0.10566000000E+00 0. -1.
         23    2    1    0    0    0 -0.22039924452E+02 -0.12039787221E+02 -0.11008729821E+02  0.97579079548E+02  0.93647049537E+02 0.  0.
         13    1    3    3    0    0 -0.58707259830E+02 -0.13567068426E+02 -0.65229086811E+01  0.60606659734E+02  0.10566000000E+00 0.  1.
         22    1    1    0    0    0  0.22039924452E+02  0.12039787221E+02  0.11008729821E+02  0.27420920452E+02  0.00000000000E+00 0.  1.
</event>
<event>
 5    1  0.2491889E-009  0.9118800E+02  0.7818608E-02  0.1130116E+00
         25   -1    0    0    0    0  0.00000000000E+00  0.00000000000E+00  0.99999998245E-14  0.12500000000E+03  0.12500000000E+03 0.  0.
        -13    1    3    3    0    0  0.23919550844E+02 -0.20367990678E+02  0.12920135041E+02  0.33969707246E+02  0.10566000000E+00 0. -1.
         23    2    1    0    0    0 -0.16768189353E+02  0.13102584681E+02 -0.19753671107E+02  0.95964548881E+02  0.91466590733E+02 0.  0.
         13    1    3    3    0    0 -0.40687740197E+02  0.33470575359E+02 -0.32673806147E+02  0.61994841635E+02  0.10566000000E+00 0.  1.
         22    1    1    0    0    0  0.16768189353E+02 -0.13102584681E+02  0.19753671107E+02  0.29035451119E+02  0.00000000000E+00 0.  1.
</event>
<event>
 5    1  0.2491889E-009  0.9118800E+02  0.7818608E-02  0.1130116E+00
         25   -1    0    0    0    0  0.00000000000E+00  0.00000000000E+00  0.99999998245E-14  0.12500000000E+03  0.12500000000E+03 0.  0.
        -13    1    3    3    0    0 -0.64220262678E+01 -0.35714391203E+02 -0.32342015346E+02  0.48608407514E+02  0.10566000000E+00 0.  1.
         23    2    1    0    0    0  0.63662345303E+01  0.95916003972E+01 -0.26577491318E+02  0.96036388605E+02  0.91564715645E+02 0.  0.
         13    1    3    3    0    0  0.12788260798E+02  0.45305991600E+02  0.57645240276E+01  0.47427981091E+02  0.10566000000E+00 0. -1.
         22    1    1    0    0    0 -0.63662345303E+01 -0.95916003972E+01  0.26577491318E+02  0.28963611395E+02  0.00000000000E+00 0. -1.
</event>
<event>
 5    1  0.2491889E-009  0.9118800E+02  0.7818608E-02  0.1130116E+00
         25   -1    0    0    0    0  0.00000000000E+00  0.00000000000E+00  0.99999998245E-14  0.12500000000E+03  0.12500000000E+03 0.  0.
        -13    1    3    3    0    0  0.22000261575E+02  0.42184566380E+01 -0.12773194973E+02  0.25787061865E+02  0.10566000000E+00 0. -1.
         23    2    1    0    0    0 -0.36759700747E+02 -0.39925418997E+01 -0.14848007844E+02  0.85154306045E+02  0.75256737315E+02 0.  0.
         13    1    3    3    0    0 -0.58759962322E+02 -0.82109985377E+01 -0.20748128706E+01  0.59367244180E+02  0.10566000000E+00 0.  1.
         22    1    1    0    0    0  0.36759700747E+02  0.39925418997E+01  0.14848007844E+02  0.39845693955E+02  0.00000000000E+00 0.  1.
</event>
<event>
 5    1  0.2491889E-009  0.9118800E+02  0.7818608E-02  0.1130116E+00
         25   -1    0    0    0    0  0.00000000000E+00  0.00000000000E+00  0.99999998245E-14  0.12500000000E+03  0.12500000000E+03 0.  0.
        -13    1    3    3    0    0 -0.60218995901E+01 -0.40177390102E+02  0.70619424405E+01  0.41235520430E+02  0.10566000000E+00 0.  1.
         23    2    1    0    0    0  0.22262327362E+02 -0.36335524648E+01 -0.20056431102E+02  0.94815991790E+02  0.89883246201E+02 0.  0.
         13    1    3    3    0    0  0.28284226952E+02  0.36543837637E+02 -0.27118373542E+02  0.53580471360E+02  0.10566000000E+00 0. -1.
         22    1    1    0    0    0 -0.22262327362E+02  0.36335524648E+01  0.20056431102E+02  0.30184008210E+02  0.00000000000E+00 0. -1.
</event>
<event>
 5    1  0.2491889E-009  0.9118800E+02  0.7818608E-02  0.1130116E+00
         25   -1    0    0    0    0  0.00000000000E+00  0.00000000000E+00  0.99999998245E-14  0.12500000000E+03  0.12500000000E+03 0.  0.
        -13    1    3    3    0    0  0.21987388318E+02 -0.19861681036E+02 -0.24809603356E+02  0.38645299861E+02  0.10566000000E+00 0.  1.
         23    2    1    0    0    0 -0.13896930453E+02  0.16300293935E+02  0.11003765094E+02  0.10091873955E+03  0.98003494267E+02 0.  0.
         13    1    3    3    0    0 -0.35884318772E+02  0.36161974971E+02  0.35813368450E+02  0.62273439694E+02  0.10566000000E+00 0. -1.
         22    1    1    0    0    0  0.13896930453E+02 -0.16300293935E+02 -0.11003765094E+02  0.24081260445E+02  0.00000000000E+00 0. -1.
</event>
<event>
 5    1  0.2491889E-009  0.9118800E+02  0.7818608E-02  0.1130116E+00
         25   -1    0    0    0    0  0.00000000000E+00  0.00000000000E+00  0.99999998245E-14  0.12500000000E+03  0.12500000000E+03 0.  0.
        -13    1    3    3    0    0 -0.25908053538E+01  0.16630332894E+02 -0.35413828596E+02  0.39210083708E+02  0.10566000000E+00 0. -1.
         23    2    1    0    0    0 -0.19438617445E+02 -0.21865266515E+02  0.22728213793E+01  0.95655231387E+02  0.91042890149E+02 0.  0.
         13    1    3    3    0    0 -0.16847812091E+02 -0.38495599409E+02  0.37686649975E+02  0.56445147679E+02  0.10566000000E+00 0.  1.
         22    1    1    0    0    0  0.19438617445E+02  0.21865266515E+02 -0.22728213793E+01  0.29344768613E+02  0.00000000000E+00 0.  1.
</event>
<event>
 5    1  0.2491889E-009  0.9118800E+02  0.7818608E-02  0.1130116E+00
         25   -1    0    0    0    0  0.00000000000E+00  0.00000000000E+00  0.99999998245E-14  0.12500000000E+03  0.12500000000E+03 0.  0.
        -13    1    3    3    0    0 -0.87945277026E+01 -0.35696735416E+01 -0.52554817874E+02  0.53405115228E+02  0.10566000000E+00 0.  1.
         23    2    1    0    0    0  0.15176051092E+02 -0.15154065291E+02 -0.18176213447E+02  0.96887138943E+02  0.92718847791E+02 0.  0.
         13    1    3    3    0    0  0.23970578794E+02 -0.11584391749E+02  0.34378604428E+02  0.43482023715E+02  0.10566000000E+00 0. -1.
         22    1    1    0    0    0 -0.15176051092E+02  0.15154065291E+02  0.18176213447E+02  0.28112861057E+02  0.00000000000E+00 0. -1.
</event>
<event>
 5    1  0.2491889E-009  0.9118800E+02  0.7818608E-02  0.1130116E+00
         25   -1    0    0    0    0  0.00000000000E+00  0.00000000000E+00  0.99999998245E-14  0.12500000000E+03  0.12500000000E+03 0.  0.
        -13    1    3    3    0    0 -0.12556316161E+02  0.33637216645E+02 -0.45535843036E+01  0.36192122253E+02  0.10566000000E+00 0.  1.
         23    2    1    0    0    0  0.23672891421E+01 -0.16603038530E+02  0.23880717073E+02  0.95818608768E+02  0.91266928249E+02 0.  0.
         13    1    3    3    0    0  0.14923605303E+02 -0.50240255175E+02  0.28434301377E+02  0.59626486515E+02  0.10566000000E+00 0. -1.
         22    1    1    0    0    0 -0.23672891421E+01  0.16603038530E+02 -0.23880717073E+02  0.29181391232E+02  0.00000000000E+00 0. -1.
</event>
<event>
 5    1  0.2491889E-009  0.9118800E+02  0.7818608E-02  0.1130116E+00
         25   -1    0    0    0    0  0.00000000000E+00  0.00000000000E+00  0.99999998245E-14  0.12500000000E+03  0.12500000000E+03 0.  0.
        -13    1    3    3    0    0 -0.26740954749E+02 -0.20125328434E+02 -0.29134534963E+02  0.44372737092E+02  0.10566000000E+00 0.  1.
         23    2    1    0    0    0  0.15318371644E+02  0.88412720040E+01 -0.23260919596E+02  0.95778586945E+02  0.91212097533E+02 0.  0.
         13    1    3    3    0    0  0.42059326393E+02  0.28966600438E+02  0.58736153674E+01  0.51405849853E+02  0.10566000000E+00 0. -1.
         22    1    1    0    0    0 -0.15318371644E+02 -0.88412720040E+01  0.23260919596E+02  0.29221413055E+02  0.00000000000E+00 0.  1.
</event>
<event>
 5    1  0.2491889E-009  0.9118800E+02  0.7818608E-02  0.1130116E+00
         25   -1    0    0    0    0  0.00000000000E+00  0.00000000000E+00  0.99999998245E-14  0.12500000000E+03  0.12500000000E+03 0.  0.
        -13    1    3    3    0    0 -0.30281941562E+02 -0.32407562050E+02 -0.19661321559E+01  0.44397329902E+02  0.10566000000E+00 0.  1.
         23    2    1    0    0    0  0.56299665275E+01 -0.25200738621E+02  0.24356994205E+02  0.89503001298E+02  0.82162949828E+02 0.  0.
         13    1    3    3    0    0  0.35911908089E+02  0.72068234293E+01  0.26323126361E+02  0.45105671395E+02  0.10566000000E+00 0. -1.
         22    1    1    0    0    0 -0.56299665275E+01  0.25200738621E+02 -0.24356994205E+02  0.35496998702E+02  0.00000000000E+00 0. -1.
</event>
<event>
 5    1  0.2491889E-009  0.9118800E+02  0.7818608E-02  0.1130116E+00
         25   -1    0    0    0    0  0.00000000000E+00  0.00000000000E+00  0.99999998245E-14  0.12500000000E+03  0.12500000000E+03 0.  0.
        -13    1    3    3    0    0 -0.61090629323E+01 -0.40236859382E+02  0.24589279553E+02  0.47549651269E+02  0.10566000000E+00 0.  1.
         23    2    1    0    0    0 -0.16179664605E+00  0.58759608609E+01  0.30064904558E+02  0.94365842916E+02  0.89255031953E+02 0.  0.
         13    1    3    3    0    0  0.59472662862E+01  0.46112820243E+02  0.54756250051E+01  0.46816191647E+02  0.10566000000E+00 0. -1.
         22    1    1    0    0    0  0.16179664605E+00 -0.58759608609E+01 -0.30064904558E+02  0.30634157084E+02  0.00000000000E+00 0. -1.
</event>
<event>
 5    1  0.2491889E-009  0.9118800E+02  0.7818608E-02  0.1130116E+00
         25   -1    0    0    0    0  0.00000000000E+00  0.00000000000E+00  0.99999998245E-14  0.12500000000E+03  0.12500000000E+03 0.  0.
        -13    1    3    3    0    0 -0.47751228289E+02 -0.30254025154E+02 -0.18183852863E+02  0.59381390268E+02  0.10566000000E+00 0.  1.
         23    2    1    0    0    0 -0.16916183510E+02 -0.22792610376E+02  0.12546984040E+01  0.96588125363E+02  0.92314848973E+02 0.  0.
         13    1    3    3    0    0  0.30835044780E+02  0.74614147785E+01  0.19438551267E+02  0.37206735095E+02  0.10566000000E+00 0. -1.
         22    1    1    0    0    0  0.16916183510E+02  0.22792610376E+02 -0.12546984040E+01  0.28411874637E+02  0.00000000000E+00 0.  1.
</event>
<event>
 5    1  0.2491889E-009  0.9118800E+02  0.7818608E-02  0.1130116E+00
         25   -1    0    0    0    0  0.00000000000E+00  0.00000000000E+00  0.99999998245E-14  0.12500000000E+03  0.12500000000E+03 0.  0.
        -13    1    3    3    0    0 -0.15093152631E+02  0.83250523322E+01 -0.47775986551E+02  0.50790410587E+02  0.10566000000E+00 0. -1.
         23    2    1    0    0    0 -0.10374245356E+02 -0.22506321099E+02 -0.15018175998E+02  0.96022335041E+02  0.91545528347E+02 0.  0.
         13    1    3    3    0    0  0.47189072744E+01 -0.30831373432E+02  0.32757810553E+02  0.45231924454E+02  0.10566000000E+00 0.  1.
         22    1    1    0    0    0  0.10374245356E+02  0.22506321099E+02  0.15018175998E+02  0.28977664959E+02  0.00000000000E+00 0.  1.
</event>
<event>
 5    1  0.2491889E-009  0.9118800E+02  0.7818608E-02  0.1130116E+00
         25   -1    0    0    0    0  0.00000000000E+00  0.00000000000E+00  0.99999998245E-14  0.12500000000E+03  0.12500000000E+03 0.  0.
        -13    1    3    3    0    0  0.64760866198E+01 -0.25074127639E+01  0.25265436598E+02  0.26202676718E+02  0.10566000000E+00 0.  1.
         23    2    1    0    0    0 -0.11140161713E+02  0.41062608770E+02 -0.50889935211E+01  0.82149808670E+02  0.70088887617E+02 0.  0.
         13    1    3    3    0    0 -0.17616248332E+02  0.43570021534E+02 -0.30354430119E+02  0.55947131952E+02  0.10566000000E+00 0. -1.
         22    1    1    0    0    0  0.11140161713E+02 -0.41062608770E+02  0.50889935211E+01  0.42850191330E+02  0.00000000000E+00 0. -1.
</event>
<event>
 5    1  0.2491889E-009  0.9118800E+02  0.7818608E-02  0.1130116E+00
         25   -1    0    0    0    0  0.00000000000E+00  0.00000000000E+00  0.99999998245E-14  0.12500000000E+03  0.12500000000E+03 0.  0.
        -13    1    3    3    0    0  0.25790694060E+01 -0.30134009039E+02 -0.25631621002E+02  0.39644687652E+02  0.10566000000E+00 0.  1.
         23    2    1    0    0    0  0.17109913487E+02  0.16890215138E+02  0.84554737684E+01  0.99514248224E+02  0.96195436773E+02 0.  0.
         13    1    3    3    0    0  0.14530844081E+02  0.47024224177E+02  0.34087094771E+02  0.59869560572E+02  0.10566000000E+00 0. -1.
         22    1    1    0    0    0 -0.17109913487E+02 -0.16890215138E+02 -0.84554737684E+01  0.25485751776E+02  0.00000000000E+00 0. -1.
</event>
<event>
 5    1  0.2491889E-009  0.9118800E+02  0.7818608E-02  0.1130116E+00
         25   -1    0    0    0    0  0.00000000000E+00  0.00000000000E+00  0.99999998245E-14  0.12500000000E+03  0.12500000000E+03 0.  0.
        -13    1    3    3    0    0 -0.38587335947E+02  0.34661727511E+02 -0.29089114222E+02  0.59469366735E+02  0.10566000000E+00 0.  1.
         23    2    1    0    0    0 -0.28133732443E+02  0.83976252630E+01 -0.85218676190E+01  0.94427966392E+02  0.89341992355E+02 0.  0.
         13    1    3    3    0    0  0.10453603504E+02 -0.26264102248E+02  0.20567246603E+02  0.34958599657E+02  0.10566000000E+00 0. -1.
         22    1    1    0    0    0  0.28133732443E+02 -0.83976252630E+01  0.85218676190E+01  0.30572033608E+02  0.00000000000E+00 0.  1.
</event>
<event>
 5    1  0.2491889E-009  0.9118800E+02  0.7818608E-02  0.1130116E+00
         25   -1    0    0    0    0  0.00000000000E+00  0.00000000000E+00  0.99999998245E-14  0.12500000000E+03  0.12500000000E+03 0.  0.
        -13    1    3    3    0    0 -0.48221962446E+02  0.19448134637E+02  0.14619504068E+02  0.54012301064E+02  0.10566000000E+00 0. -1.
         23    2    1    0    0    0 -0.20247638848E+02 -0.11684104265E+02 -0.62794113686E+01  0.10079429450E+03  0.97844640253E+02 0.  0.
         13    1    3    3    0    0  0.27974323599E+02 -0.31132238902E+02 -0.20898915437E+02  0.46781993441E+02  0.10566000000E+00 0.  1.
         22    1    1    0    0    0  0.20247638848E+02  0.11684104265E+02  0.62794113686E+01  0.24205705495E+02  0.00000000000E+00 0.  1.
</event>
<event>
 5    1  0.2491889E-009  0.9118800E+02  0.7818608E-02  0.1130116E+00
         25   -1    0    0    0    0  0.00000000000E+00  0.00000000000E+00  0.99999998245E-14  0.12500000000E+03  0.12500000000E+03 0.  0.
        -13    1    3    3    0    0  0.28242736523E+02  0.11381497165E+02 -0.52857430058E+02  0.61000899341E+02  0.10566000000E+00 0. -1.
         23    2    1    0    0    0  0.80048266776E+01  0.12457620811E+02 -0.29967744936E+02  0.91573434174E+02  0.85254668749E+02 0.  0.
         13    1    3    3    0    0 -0.20237909846E+02  0.10761236452E+01  0.22889685123E+02  0.30572534832E+02  0.10566000000E+00 0.  1.
         22    1    1    0    0    0 -0.80048266776E+01 -0.12457620811E+02  0.29967744936E+02  0.33426565826E+02  0.00000000000E+00 0. -1.
</event>
<event>
 5    1  0.2491889E-009  0.9118800E+02  0.7818608E-02  0.1130116E+00
         25   -1    0    0    0    0  0.00000000000E+00  0.00000000000E+00  0.99999998245E-14  0.12500000000E+03  0.12500000000E+03 0.  0.
        -13    1    3    3    0    0 -0.21537762215E+02  0.22841406973E+02 -0.20761801723E+02  0.37638658964E+02  0.10566000000E+00 0. -1.
         23    2    1    0    0    0 -0.10034702397E+01  0.63424734442E+01  0.29727719454E+02  0.94586660397E+02  0.89563748800E+02 0.  0.
         13    1    3    3    0    0  0.20534291975E+02 -0.16498933529E+02  0.50489521177E+02  0.56948001433E+02  0.10566000000E+00 0.  1.
         22    1    1    0    0    0  0.10034702397E+01 -0.63424734442E+01 -0.29727719454E+02  0.30413339603E+02  0.00000000000E+00 0.  1.
</event>
<event>
 5    1  0.2491889E-009  0.9118800E+02  0.7818608E-02  0.1130116E+00
         25   -1    0    0    0    0  0.00000000000E+00  0.00000000000E+00  0.99999998245E-14  0.12500000000E+03  0.12500000000E+03 0.  0.
        -13    1    3    3    0    0 -0.17038494307E+02 -0.20847712479E+02 -0.15376159210E+02  0.31006045216E+02  0.10566000000E+00 0. -1.
         23    2    1    0    0    0 -0.12925423697E+02  0.32075909262E+02 -0.21245781524E+02  0.84412886708E+02  0.74015009809E+02 0.  0.
         13    1    3    3    0    0  0.41130706098E+01  0.52923621741E+02 -0.58696223146E+01  0.53406841492E+02  0.10566000000E+00 0.  1.
         22    1    1    0    0    0  0.12925423697E+02 -0.32075909262E+02  0.21245781524E+02  0.40587113292E+02  0.00000000000E+00 0.  1.
</event>
<event>
 5    1  0.2491889E-009  0.9118800E+02  0.7818608E-02  0.1130116E+00
         25   -1    0    0    0    0  0.00000000000E+00  0.00000000000E+00  0.99999998245E-14  0.12500000000E+03  0.12500000000E+03 0.  0.
        -13    1    3    3    0    0 -0.26195194610E+02  0.20177818593E+02  0.50168632059E+02  0.60085234381E+02  0.10566000000E+00 0.  1.
         23    2    1    0    0    0 -0.13045954875E+01  0.77273993972E+01  0.28741853251E+02  0.95208914099E+02  0.90428029531E+02 0.  0.
         13    1    3    3    0    0  0.24890599123E+02 -0.12450419196E+02 -0.21426778808E+02  0.35123679719E+02  0.10566000000E+00 0. -1.
         22    1    1    0    0    0  0.13045954875E+01 -0.77273993972E+01 -0.28741853251E+02  0.29791085901E+02  0.00000000000E+00 0.  1.
</event>
<event>
 5    1  0.2491889E-009  0.9118800E+02  0.7818608E-02  0.1130116E+00
         25   -1    0    0    0    0  0.00000000000E+00  0.00000000000E+00  0.99999998245E-14  0.12500000000E+03  0.12500000000E+03 0.  0.
        -13    1    3    3    0    0  0.14237271175E+02  0.52925902866E+02 -0.18501929374E+02  0.57846206784E+02  0.10566000000E+00 0. -1.
         23    2    1    0    0    0 -0.11123890393E+02  0.20093986958E+02 -0.48063623593E+01  0.10153491171E+03  0.98786273983E+02 0.  0.
         13    1    3    3    0    0 -0.25361161568E+02 -0.32831915907E+02  0.13695567014E+02  0.43688704926E+02  0.10566000000E+00 0.  1.
         22    1    1    0    0    0  0.11123890393E+02 -0.20093986958E+02  0.48063623593E+01  0.23465088291E+02  0.00000000000E+00 0. -1.
</event>
<event>
 5    1  0.2491889E-009  0.9118800E+02  0.7818608E-02  0.1130116E+00
         25   -1    0    0    0    0  0.00000000000E+00  0.00000000000E+00  0.99999998245E-14  0.12500000000E+03  0.12500000000E+03 0.  0.
        -13    1    3    3    0    0 -0.25642977917E+02 -0.22515739099E+02 -0.17951165509E+02  0.38558738708E+02  0.10566000000E+00 0. -1.
         23    2    1    0    0    0  0.21129755494E+01  0.27099814591E+02 -0.10340517478E+02  0.95917515267E+02  0.91402291091E+02 0.  0.
         13    1    3    3    0    0  0.27755953467E+02  0.49615553690E+02  0.76106480312E+01  0.57358776558E+02  0.10566000000E+00 0.  1.
         22    1    1    0    0    0 -0.21129755494E+01 -0.27099814591E+02  0.10340517478E+02  0.29082484733E+02  0.00000000000E+00 0.  1.
</event>
<event>
 5    1  0.2491889E-009  0.9118800E+02  0.7818608E-02  0.1130116E+00
         25   -1    0    0    0    0  0.00000000000E+00  0.00000000000E+00  0.99999998245E-14  0.12500000000E+03  0.12500000000E+03 0.  0.
        -13    1    3    3    0    0 -0.29694177614E+02  0.38406645726E+02 -0.32162314413E+02  0.58234356290E+02  0.10566000000E+00 0.  1.
         23    2    1    0    0    0 -0.22061017912E+02  0.20557821594E+02 -0.11478369712E+01  0.94823352245E+02  0.89893481751E+02 0.  0.
         13    1    3    3    0    0  0.76331597022E+01 -0.17848824132E+02  0.31014477442E+02  0.36588995955E+02  0.10566000000E+00 0. -1.
         22    1    1    0    0    0  0.22061017912E+02 -0.20557821594E+02  0.11478369712E+01  0.30176647755E+02  0.00000000000E+00 0.  1.
</event>
<event>
 5    1  0.2491889E-009  0.9118800E+02  0.7818608E-02  0.1130116E+00
         25   -1    0    0    0    0  0.00000000000E+00  0.00000000000E+00  0.99999998245E-14  0.12500000000E+03  0.12500000000E+03 0.  0.
        -13    1    3    3    0    0 -0.24343918305E+02  0.18275650725E+01 -0.48381608111E+02  0.54191858429E+02  0.10566000000E+00 0.  1.
         23    2    1    0    0    0 -0.38242296305E+01  0.22292678866E+02 -0.19013517258E+02  0.95451698834E+02  0.90763013989E+02 0.  0.
         13    1    3    3    0    0  0.20519688674E+02  0.20465113794E+02  0.29368090853E+02  0.41259840405E+02  0.10566000000E+00 0. -1.
         22    1    1    0    0    0  0.38242296305E+01 -0.22292678866E+02  0.19013517258E+02  0.29548301166E+02  0.00000000000E+00 0.  1.
</event>
<event>
 5    1  0.2491889E-009  0.9118800E+02  0.7818608E-02  0.1130116E+00
         25   -1    0    0    0    0  0.00000000000E+00  0.00000000000E+00  0.99999998245E-14  0.12500000000E+03  0.12500000000E+03 0.  0.
        -13    1    3    3    0    0  0.65424140063E+01  0.25790163178E+02  0.21664873419E+02  0.34312003761E+02  0.10566000000E+00 0.  1.
         23    2    1    0    0    0 -0.16702856177E+02 -0.22049536464E+02 -0.92507839573E+01  0.95832475823E+02  0.91285918716E+02 0.  0.
         13    1    3    3    0    0 -0.23245270183E+02 -0.47839699643E+02 -0.30915657376E+02  0.61520472063E+02  0.10566000000E+00 0. -1.
         22    1    1    0    0    0  0.16702856177E+02  0.22049536464E+02  0.92507839573E+01  0.29167524177E+02  0.00000000000E+00 0. -1.
</event>
<event>
 5    1  0.2491889E-009  0.9118800E+02  0.7818608E-02  0.1130116E+00
         25   -1    0    0    0    0  0.00000000000E+00  0.00000000000E+00  0.99999998245E-14  0.12500000000E+03  0.12500000000E+03 0.  0.
        -13    1    3    3    0    0  0.47383103342E+02  0.20088454782E+02 -0.19647718235E+02  0.55088551385E+02  0.10566000000E+00 0.  1.
         23    2    1    0    0    0  0.69938812569E+01  0.16759090473E+02 -0.22932695353E+02  0.95747820514E+02  0.91169924474E+02 0.  0.
         13    1    3    3    0    0 -0.40389222086E+02 -0.33293643082E+01 -0.32849771183E+01  0.40659269129E+02  0.10566000000E+00 0. -1.
         22    1    1    0    0    0 -0.69938812569E+01 -0.16759090473E+02  0.22932695353E+02  0.29252179486E+02  0.00000000000E+00 0.  1.
</event>
<event>
 5    1  0.2491889E-009  0.9118800E+02  0.7818608E-02  0.1130116E+00
         25   -1    0    0    0    0  0.00000000000E+00  0.00000000000E+00  0.99999998245E-14  0.12500000000E+03  0.12500000000E+03 0.  0.
        -13    1    3    3    0    0 -0.39094695129E+02 -0.25726339550E+02  0.24659573190E+02  0.52899389862E+02  0.10566000000E+00 0.  1.
         23    2    1    0    0    0 -0.23877471637E+02 -0.18551208322E+02 -0.11395676403E+02  0.92686807297E+02  0.86871755043E+02 0.  0.
         13    1    3    3    0    0  0.15217223492E+02  0.71751312280E+01 -0.36055249593E+02  0.39787417435E+02  0.10566000000E+00 0. -1.
         22    1    1    0    0    0  0.23877471637E+02  0.18551208322E+02  0.11395676403E+02  0.32313192703E+02  0.00000000000E+00 0.  1.
</event>
<event>
 5    1  0.2491889E-009  0.9118800E+02  0.7818608E-02  0.1130116E+00
         25   -1    0    0    0    0  0.00000000000E+00  0.00000000000E+00  0.99999998245E-14  0.12500000000E+03  0.12500000000E+03 0.  0.
        -13    1    3    3    0    0 -0.57903164538E+02 -0.13214401697E+01 -0.90840376374E+01  0.58626389719E+02  0.10566000000E+00 0.  1.
         23    2    1    0    0    0 -0.18349957236E+02 -0.13708588462E+02 -0.98150492604E+01  0.10008049920E+03  0.96928451962E+02 0.  0.
         13    1    3    3    0    0  0.39553207303E+02 -0.12387148293E+02 -0.73101162300E+00  0.41454109480E+02  0.10566000000E+00 0. -1.
         22    1    1    0    0    0  0.18349957236E+02  0.13708588462E+02  0.98150492604E+01  0.24919500801E+02  0.00000000000E+00 0.  1.
</event>
<event>
 5    1  0.2491889E-009  0.9118800E+02  0.7818608E-02  0.1130116E+00
         25   -1    0    0    0    0  0.00000000000E+00  0.00000000000E+00  0.99999998245E-14  0.12500000000E+03  0.12500000000E+03 0.  0.
        -13    1    3    3    0    0 -0.29187603374E+01  0.24319441295E+02  0.23333308087E+02  0.33829111977E+02  0.10566000000E+00 0. -1.
         23    2    1    0    0    0 -0.74892276063E+01 -0.15529083639E+02 -0.23731616369E+02  0.95666902920E+02  0.91058913512E+02 0.  0.
         13    1    3    3    0    0 -0.45704672689E+01 -0.39848524935E+02 -0.47064924456E+02  0.61837790943E+02  0.10566000000E+00 0.  1.
         22    1    1    0    0    0  0.74892276063E+01  0.15529083639E+02  0.23731616369E+02  0.29333097080E+02  0.00000000000E+00 0.  1.
</event>
<event>
 5    1  0.2491889E-009  0.9118800E+02  0.7818608E-02  0.1130116E+00
         25   -1    0    0    0    0  0.00000000000E+00  0.00000000000E+00  0.99999998245E-14  0.12500000000E+03  0.12500000000E+03 0.  0.
        -13    1    3    3    0    0 -0.16761179596E+02 -0.38456645633E+02 -0.34701526901E+02  0.54443161813E+02  0.10566000000E+00 0.  1.
         23    2    1    0    0    0 -0.34429333921E+00 -0.40554649985E+00 -0.28674227048E+02  0.96320838530E+02  0.91952213853E+02 0.  0.
         13    1    3    3    0    0  0.16416886257E+02  0.38051099134E+02  0.60272998539E+01  0.41877676717E+02  0.10566000000E+00 0. -1.
         22    1    1    0    0    0  0.34429333921E+00  0.40554649985E+00  0.28674227048E+02  0.28679161470E+02  0.00000000000E+00 0. -1.
</event>
<event>
 5    1  0.2491889E-009  0.9118800E+02  0.7818608E-02  0.1130116E+00
         25   -1    0    0    0    0  0.00000000000E+00  0.00000000000E+00  0.99999998245E-14  0.12500000000E+03  0.12500000000E+03 0.  0.
        -13    1    3    3    0    0  0.37520116930E+02 -0.46165384607E+02  0.17930907996E+02  0.62133167760E+02  0.10566000000E+00 0.  1.
         23    2    1    0    0    0  0.21690437342E+02 -0.19157409120E+02  0.80157159900E+01  0.94971128907E+02  0.90098735988E+02 0.  0.
         13    1    3    3    0    0 -0.15829679587E+02  0.27007975487E+02 -0.99151920057E+01  0.32837961147E+02  0.10566000000E+00 0. -1.
         22    1    1    0    0    0 -0.21690437342E+02  0.19157409120E+02 -0.80157159900E+01  0.30028871093E+02  0.00000000000E+00 0.  1.
</event>
<event>
 5    1  0.2491889E-009  0.9118800E+02  0.7818608E-02  0.1130116E+00
         25   -1    0    0    0    0  0.00000000000E+00  0.00000000000E+00  0.99999998245E-14  0.12500000000E+03  0.12500000000E+03 0.  0.
        -13    1    3    3    0    0  0.10456864299E+02  0.14429582864E+02  0.37988154883E+02  0.41960337797E+02  0.10566000000E+00 0.  1.
         23    2    1    0    0    0 -0.25594199199E+02 -0.64773438143E+01 -0.36352453829E+00  0.98596379687E+02  0.94995236311E+02 0.  0.
         13    1    3    3    0    0 -0.36051063499E+02 -0.20906926678E+02 -0.38351679421E+02  0.56636041890E+02  0.10566000000E+00 0. -1.
         22    1    1    0    0    0  0.25594199199E+02  0.64773438143E+01  0.36352453829E+00  0.26403620313E+02  0.00000000000E+00 0. -1.
</event>
<event>
 5    1  0.2491889E-009  0.9118800E+02  0.7818608E-02  0.1130116E+00
         25   -1    0    0    0    0  0.00000000000E+00  0.00000000000E+00  0.99999998245E-14  0.12500000000E+03  0.12500000000E+03 0.  0.
        -13    1    3    3    0    0  0.54835268898E+01 -0.13586839216E+02 -0.30463409841E+02  0.33803872119E+02  0.10566000000E+00 0.  1.
         23    2    1    0    0    0  0.10824794806E+02  0.79732888527E-01  0.28472552712E+02  0.94539061113E+02  0.89497292016E+02 0.  0.
         13    1    3    3    0    0  0.53412679162E+01  0.13666572105E+02  0.58935962553E+02  0.60735188994E+02  0.10566000000E+00 0. -1.
         22    1    1    0    0    0 -0.10824794806E+02 -0.79732888527E-01 -0.28472552712E+02  0.30460938887E+02  0.00000000000E+00 0. -1.
</event>
<event>
 5    1  0.2491889E-009  0.9118800E+02  0.7818608E-02  0.1130116E+00
         25   -1    0    0    0    0  0.00000000000E+00  0.00000000000E+00  0.99999998245E-14  0.12500000000E+03  0.12500000000E+03 0.  0.
        -13    1    3    3    0    0 -0.37468524844E+01  0.42598183035E+02  0.33591808749E+02  0.54378901060E+02  0.10566000000E+00 0. -1.
         23    2    1    0    0    0 -0.15126561429E+02  0.27428225877E+02 -0.81577432849E+00  0.93666536687E+02  0.88270233782E+02 0.  0.
         13    1    3    3    0    0 -0.11379708945E+02 -0.15169957159E+02 -0.34407583078E+02  0.39287635627E+02  0.10566000000E+00 0.  1.
         22    1    1    0    0    0  0.15126561429E+02 -0.27428225877E+02  0.81577432849E+00  0.31333463313E+02  0.00000000000E+00 0.  1.
</event>
<event>
 5    1  0.2491889E-009  0.9118800E+02  0.7818608E-02  0.1130116E+00
         25   -1    0    0    0    0  0.00000000000E+00  0.00000000000E+00  0.99999998245E-14  0.12500000000E+03  0.12500000000E+03 0.  0.
        -13    1    3    3    0    0  0.51595907073E+02  0.27703831103E+02  0.44121946223E+01  0.58729196401E+02  0.10566000000E+00 0.  1.
         23    2    1    0    0    0  0.27045375764E+02  0.38586664364E+01 -0.10059153809E+02  0.95887661856E+02  0.91361455023E+02 0.  0.
         13    1    3    3    0    0 -0.24550531309E+02 -0.23845164667E+02 -0.14471348431E+02  0.37158465455E+02  0.10566000000E+00 0. -1.
         22    1    1    0    0    0 -0.27045375764E+02 -0.38586664364E+01  0.10059153809E+02  0.29112338144E+02  0.00000000000E+00 0.  1.
</event>
<event>
 5    1  0.2491889E-009  0.9118800E+02  0.7818608E-02  0.1130116E+00
         25   -1    0    0    0    0  0.00000000000E+00  0.00000000000E+00  0.99999998245E-14  0.12500000000E+03  0.12500000000E+03 0.  0.
        -13    1    3    3    0    0 -0.44145487323E+02  0.15647360019E+01  0.41508527416E+02  0.60615521626E+02  0.10566000000E+00 0.  1.
         23    2    1    0    0    0 -0.12782249205E+02 -0.83922486104E+01  0.19571060508E+02  0.10016369309E+03  0.97035680411E+02 0.  0.
         13    1    3    3    0    0  0.31363238118E+02 -0.99569846123E+01 -0.21937466908E+02  0.39548171465E+02  0.10566000000E+00 0. -1.
         22    1    1    0    0    0  0.12782249205E+02  0.83922486104E+01 -0.19571060508E+02  0.24836306909E+02  0.00000000000E+00 0.  1.
</event>
<event>
 5    1  0.2491889E-009  0.9118800E+02  0.7818608E-02  0.1130116E+00
         25   -1    0    0    0    0  0.00000000000E+00  0.00000000000E+00  0.99999998245E-14  0.12500000000E+03  0.12500000000E+03 0.  0.
        -13    1    3    3    0    0 -0.18145604742E+01 -0.33003917852E+02 -0.52122947016E+02  0.61720045309E+02  0.10566000000E+00 0.  1.
         23    2    1    0    0    0 -0.32438012364E+00 -0.21088775605E+02 -0.20327738134E+02  0.95707362416E+02  0.91114436858E+02 0.  0.
         13    1    3    3    0    0  0.14901803505E+01  0.11915142247E+02  0.31795208882E+02  0.33987317106E+02  0.10566000000E+00 0. -1.
         22    1    1    0    0    0  0.32438012364E+00  0.21088775605E+02  0.20327738134E+02  0.29292637584E+02  0.00000000000E+00 0.  1.
</event>
<event>
 5    1  0.2491889E-009  0.9118800E+02  0.7818608E-02  0.1130116E+00
         25   -1    0    0    0    0  0.00000000000E+00  0.00000000000E+00  0.99999998245E-14  0.12500000000E+03  0.12500000000E+03 0.  0.
        -13    1    3    3    0    0 -0.14410537896E+02  0.30361833220E+02 -0.19674417863E+02  0.38943528361E+02  0.10566000000E+00 0. -1.
         23    2    1    0    0    0 -0.76080741334E+01  0.16349929243E+01  0.28507055586E+02  0.95449903350E+02  0.90760541192E+02 0.  0.
         13    1    3    3    0    0  0.68024637624E+01 -0.28726840296E+02  0.48181473449E+02  0.56506374988E+02  0.10566000000E+00 0.  1.
         22    1    1    0    0    0  0.76080741334E+01 -0.16349929243E+01 -0.28507055586E+02  0.29550096650E+02  0.00000000000E+00 0.  1.
</event>
<event>
 5    1  0.2491889E-009  0.9118800E+02  0.7818608E-02  0.1130116E+00
         25   -1    0    0    0    0  0.00000000000E+00  0.00000000000E+00  0.99999998245E-14  0.12500000000E+03  0.12500000000E+03 0.  0.
        -13    1    3    3    0    0  0.42692912520E+02 -0.38005771552E+01 -0.22361869748E+01  0.42920168480E+02  0.10566000000E+00 0.  1.
         23    2    1    0    0    0  0.52739990989E+01  0.30226093073E+02  0.46619272751E+01  0.93965094895E+02  0.88692016122E+02 0.  0.
         13    1    3    3    0    0 -0.37418913421E+02  0.34026670228E+02  0.68981142500E+01  0.51044926415E+02  0.10566000000E+00 0. -1.
         22    1    1    0    0    0 -0.52739990989E+01 -0.30226093073E+02 -0.46619272751E+01  0.31034905105E+02  0.00000000000E+00 0.  1.
</event>
<event>
 5    1  0.2491889E-009  0.9118800E+02  0.7818608E-02  0.1130116E+00
         25   -1    0    0    0    0  0.00000000000E+00  0.00000000000E+00  0.99999998245E-14  0.12500000000E+03  0.12500000000E+03 0.  0.
        -13    1    3    3    0    0  0.76884000673E+01  0.15655379138E+02  0.55963479366E+02  0.58618466189E+02  0.10566000000E+00 0. -1.
         23    2    1    0    0    0 -0.11697020273E+02  0.76244833554E+01  0.29255268690E+02  0.92583587863E+02  0.86723105144E+02 0.  0.
         13    1    3    3    0    0 -0.19385420340E+02 -0.80308957825E+01 -0.26708210676E+02  0.33965121675E+02  0.10566000000E+00 0.  1.
         22    1    1    0    0    0  0.11697020273E+02 -0.76244833554E+01 -0.29255268690E+02  0.32416412137E+02  0.00000000000E+00 0.  1.
</event>
<event>
 5    1  0.2491889E-009  0.9118800E+02  0.7818608E-02  0.1130116E+00
         25   -1    0    0    0    0  0.00000000000E+00  0.00000000000E+00  0.99999998245E-14  0.12500000000E+03  0.12500000000E+03 0.  0.
        -13    1    3    3    0    0  0.24779741749E+02  0.21758971358E+02  0.48064019070E+02  0.58289360340E+02  0.10566000000E+00 0.  1.
         23    2    1    0    0    0  0.24041828819E+02  0.14527896754E+02  0.13092641425E+02  0.94008282130E+02  0.88752862109E+02 0.  0.
         13    1    3    3    0    0 -0.73791293075E+00 -0.72310746035E+01 -0.34971377645E+02  0.35718921790E+02  0.10566000000E+00 0. -1.
         22    1    1    0    0    0 -0.24041828819E+02 -0.14527896754E+02 -0.13092641425E+02  0.30991717870E+02  0.00000000000E+00 0.  1.
</event>
<event>
 5    1  0.2491889E-009  0.9118800E+02  0.7818608E-02  0.1130116E+00
         25   -1    0    0    0    0  0.00000000000E+00  0.00000000000E+00  0.99999998245E-14  0.12500000000E+03  0.12500000000E+03 0.  0.
        -13    1    3    3    0    0 -0.12747549104E+02  0.30572026991E+02  0.88761600380E+01  0.34292072314E+02  0.10566000000E+00 0.  1.
         23    2    1    0    0    0  0.61483712773E+01 -0.16176747605E+02 -0.24677574096E+02  0.94859125830E+02  0.89943212404E+02 0.  0.
         13    1    3    3    0    0  0.18895920381E+02 -0.46748774596E+02 -0.33553734134E+02  0.60567053517E+02  0.10566000000E+00 0. -1.
         22    1    1    0    0    0 -0.61483712773E+01  0.16176747605E+02  0.24677574096E+02  0.30140874170E+02  0.00000000000E+00 0. -1.
</event>
<event>
 5    1  0.2491889E-009  0.9118800E+02  0.7818608E-02  0.1130116E+00
         25   -1    0    0    0    0  0.00000000000E+00  0.00000000000E+00  0.99999998245E-14  0.12500000000E+03  0.12500000000E+03 0.  0.
        -13    1    3    3    0    0  0.41410602325E+02  0.31250637277E+02  0.34493217732E+02  0.62299546938E+02  0.10566000000E+00 0.  1.
         23    2    1    0    0    0  0.18546540892E+02  0.18321104395E+02  0.18115252553E+02  0.93254143257E+02  0.87684296280E+02 0.  0.
         13    1    3    3    0    0 -0.22864061434E+02 -0.12929532882E+02 -0.16377965179E+02  0.30954596318E+02  0.10566000000E+00 0. -1.
         22    1    1    0    0    0 -0.18546540892E+02 -0.18321104395E+02 -0.18115252553E+02  0.31745856743E+02  0.00000000000E+00 0.  1.
</event>
<event>
 5    1  0.2491889E-009  0.9118800E+02  0.7818608E-02  0.1130116E+00
         25   -1    0    0    0    0  0.00000000000E+00  0.00000000000E+00  0.99999998245E-14  0.12500000000E+03  0.12500000000E+03 0.  0.
        -13    1    3    3    0    0 -0.16150055493E+02 -0.49600208583E+02 -0.30742762866E+02  0.60548605406E+02  0.10566000000E+00 0. -1.
         23    2    1    0    0    0 -0.19239561634E+02 -0.28180824368E+02 -0.13175557910E+02  0.88422480673E+02  0.80502299148E+02 0.  0.
         13    1    3    3    0    0 -0.30895061414E+01  0.21419384216E+02  0.17567204956E+02  0.27873875267E+02  0.10566000000E+00 0.  1.
         22    1    1    0    0    0  0.19239561634E+02  0.28180824368E+02  0.13175557910E+02  0.36577519327E+02  0.00000000000E+00 0. -1.
</event>
<event>
 5    1  0.2491889E-009  0.9118800E+02  0.7818608E-02  0.1130116E+00
         25   -1    0    0    0    0  0.00000000000E+00  0.00000000000E+00  0.99999998245E-14  0.12500000000E+03  0.12500000000E+03 0.  0.
        -13    1    3    3    0    0 -0.12279436730E+02 -0.21429087437E+02 -0.25857370024E+02  0.35757588053E+02  0.10566000000E+00 0. -1.
         23    2    1    0    0    0  0.16725120209E+02  0.16805734208E+02  0.13404679839E+02  0.97763117105E+02  0.93892381353E+02 0.  0.
         13    1    3    3    0    0  0.29004556939E+02  0.38234821645E+02  0.39262049863E+02  0.62005529051E+02  0.10566000000E+00 0.  1.
         22    1    1    0    0    0 -0.16725120209E+02 -0.16805734208E+02 -0.13404679839E+02  0.27236882895E+02  0.00000000000E+00 0.  1.
</event>
<event>
 5    1  0.2491889E-009  0.9118800E+02  0.7818608E-02  0.1130116E+00
         25   -1    0    0    0    0  0.00000000000E+00  0.00000000000E+00  0.99999998245E-14  0.12500000000E+03  0.12500000000E+03 0.  0.
        -13    1    3    3    0    0  0.15377628938E+02 -0.22138283631E+01  0.59112551082E+02  0.61120187886E+02  0.10566000000E+00 0.  1.
         23    2    1    0    0    0  0.96136955810E+01  0.78293415837E+01  0.26101334570E+02  0.96103609245E+02  0.91656436278E+02 0.  0.
         13    1    3    3    0    0 -0.57639333570E+01  0.10043169947E+02 -0.33011216512E+02  0.34983421359E+02  0.10566000000E+00 0. -1.
         22    1    1    0    0    0 -0.96136955810E+01 -0.78293415837E+01 -0.26101334570E+02  0.28896390755E+02  0.00000000000E+00 0.  1.
</event>
<event>
 5    1  0.2491889E-009  0.9118800E+02  0.7818608E-02  0.1130116E+00
         25   -1    0    0    0    0  0.00000000000E+00  0.00000000000E+00  0.99999998245E-14  0.12500000000E+03  0.12500000000E+03 0.  0.
        -13    1    3    3    0    0 -0.47675993470E+02  0.23324033844E+02 -0.29891922324E+02  0.60914276589E+02  0.10566000000E+00 0. -1.
         23    2    1    0    0    0 -0.16893698476E+02  0.18623980391E+02 -0.17171776724E+02  0.94551361120E+02  0.89514469668E+02 0.  0.
         13    1    3    3    0    0  0.30782294994E+02 -0.47000534533E+01  0.12720145601E+02  0.33637084531E+02  0.10566000000E+00 0.  1.
         22    1    1    0    0    0  0.16893698476E+02 -0.18623980391E+02  0.17171776724E+02  0.30448638880E+02  0.00000000000E+00 0. -1.
</event>
<event>
 5    1  0.2491889E-009  0.9118800E+02  0.7818608E-02  0.1130116E+00
         25   -1    0    0    0    0  0.00000000000E+00  0.00000000000E+00  0.99999998245E-14  0.12500000000E+03  0.12500000000E+03 0.  0.
        -13    1    3    3    0    0  0.15502809311E+02 -0.56235994600E+02  0.17195241115E+01  0.58359164768E+02  0.10566000000E+00 0. -1.
         23    2    1    0    0    0  0.72885395706E+01 -0.23858275812E+02 -0.15183440737E+02  0.95795941953E+02  0.91235878295E+02 0.  0.
         13    1    3    3    0    0 -0.82142697404E+01  0.32377718788E+02 -0.16902964849E+02  0.37436777185E+02  0.10566000000E+00 0.  1.
         22    1    1    0    0    0 -0.72885395706E+01  0.23858275812E+02  0.15183440737E+02  0.29204058047E+02  0.00000000000E+00 0. -1.
</event>
<event>
 5    1  0.2491889E-009  0.9118800E+02  0.7818608E-02  0.1130116E+00
         25   -1    0    0    0    0  0.00000000000E+00  0.00000000000E+00  0.99999998245E-14  0.12500000000E+03  0.12500000000E+03 0.  0.
        -13    1    3    3    0    0 -0.76703877886E+01  0.26433274234E+02  0.23924710579E+02  0.36468558731E+02  0.10566000000E+00 0.  1.
         23    2    1    0    0    0 -0.12992310933E+02 -0.16304552959E+02 -0.18649534420E+02  0.97027804436E+02  0.92908294081E+02 0.  0.
         13    1    3    3    0    0 -0.53219231445E+01 -0.42737827193E+02 -0.42574244999E+02  0.60559245706E+02  0.10566000000E+00 0. -1.
         22    1    1    0    0    0  0.12992310933E+02  0.16304552959E+02  0.18649534420E+02  0.27972195564E+02  0.00000000000E+00 0. -1.
</event>
<event>
 5    1  0.2491889E-009  0.9118800E+02  0.7818608E-02  0.1130116E+00
         25   -1    0    0    0    0  0.00000000000E+00  0.00000000000E+00  0.99999998245E-14  0.12500000000E+03  0.12500000000E+03 0.  0.
        -13    1    3    3    0    0 -0.22985151542E+02  0.13961776103E+02 -0.21675832017E+02  0.34541297616E+02  0.10566000000E+00 0. -1.
         23    2    1    0    0    0  0.19056930939E+02 -0.17508040549E+02  0.11524368322E+02  0.96671407273E+02  0.92427549022E+02 0.  0.
         13    1    3    3    0    0  0.42042082481E+02 -0.31469816652E+02  0.33200200338E+02  0.62130109657E+02  0.10566000000E+00 0.  1.
         22    1    1    0    0    0 -0.19056930939E+02  0.17508040549E+02 -0.11524368322E+02  0.28328592727E+02  0.00000000000E+00 0.  1.
</event>
<event>
 5    1  0.2491889E-009  0.9118800E+02  0.7818608E-02  0.1130116E+00
         25   -1    0    0    0    0  0.00000000000E+00  0.00000000000E+00  0.99999998245E-14  0.12500000000E+03  0.12500000000E+03 0.  0.
        -13    1    3    3    0    0 -0.98654060388E+01  0.21784587176E+01 -0.11716111384E+02  0.15470951770E+02  0.10566000000E+00 0.  1.
         23    2    1    0    0    0  0.48907401729E+02 -0.55624806539E+01 -0.66453959797E+00  0.75772804795E+02  0.57603829723E+02 0.  0.
         13    1    3    3    0    0  0.58772807767E+02 -0.77409393715E+01  0.11051571786E+02  0.60301853025E+02  0.10566000000E+00 0. -1.
         22    1    1    0    0    0 -0.48907401729E+02  0.55624806539E+01  0.66453959797E+00  0.49227195205E+02  0.00000000000E+00 0. -1.
</event>
<event>
 5    1  0.2491889E-009  0.9118800E+02  0.7818608E-02  0.1130116E+00
         25   -1    0    0    0    0  0.00000000000E+00  0.00000000000E+00  0.99999998245E-14  0.12500000000E+03  0.12500000000E+03 0.  0.
        -13    1    3    3    0    0  0.13196020108E+02 -0.18692667882E+02  0.25614330190E+02  0.34346118476E+02  0.10566000000E+00 0.  1.
         23    2    1    0    0    0 -0.97816252216E+01  0.25442533409E+02 -0.10458261056E+02  0.95804487972E+02  0.91247586231E+02 0.  0.
         13    1    3    3    0    0 -0.22977645330E+02  0.44135201291E+02 -0.36072591246E+02  0.61458369496E+02  0.10566000000E+00 0. -1.
         22    1    1    0    0    0  0.97816252216E+01 -0.25442533409E+02  0.10458261056E+02  0.29195512028E+02  0.00000000000E+00 0. -1.
</event>
<event>
 5    1  0.2491889E-009  0.9118800E+02  0.7818608E-02  0.1130116E+00
         25   -1    0    0    0    0  0.00000000000E+00  0.00000000000E+00  0.99999998245E-14  0.12500000000E+03  0.12500000000E+03 0.  0.
        -13    1    3    3    0    0  0.60297142225E+02 -0.32467775648E+01 -0.13906252144E+02  0.61965167133E+02  0.10566000000E+00 0. -1.
         23    2    1    0    0    0  0.27227226397E+02 -0.12283549988E+01 -0.12195648547E+02  0.95140921703E+02  0.90333993744E+02 0.  0.
         13    1    3    3    0    0 -0.33069915829E+02  0.20184225660E+01  0.17106035972E+01  0.33175754570E+02  0.10566000000E+00 0.  1.
         22    1    1    0    0    0 -0.27227226397E+02  0.12283549988E+01  0.12195648547E+02  0.29859078297E+02  0.00000000000E+00 0. -1.
</event>
<event>
 5    1  0.2491889E-009  0.9118800E+02  0.7818608E-02  0.1130116E+00
         25   -1    0    0    0    0  0.00000000000E+00  0.00000000000E+00  0.99999998245E-14  0.12500000000E+03  0.12500000000E+03 0.  0.
        -13    1    3    3    0    0 -0.38818624830E+02 -0.25545713123E+02  0.94933622498E+01  0.47429992447E+02  0.10566000000E+00 0.  1.
         23    2    1    0    0    0 -0.10130277178E+02 -0.14965857329E+02 -0.25401132137E+02  0.93826021827E+02  0.88495793440E+02 0.  0.
         13    1    3    3    0    0  0.28688347652E+02  0.10579855794E+02 -0.34894494387E+02  0.46396029380E+02  0.10566000000E+00 0. -1.
         22    1    1    0    0    0  0.10130277178E+02  0.14965857329E+02  0.25401132137E+02  0.31173978173E+02  0.00000000000E+00 0.  1.
</event>
<event>
 5    1  0.2491889E-009  0.9118800E+02  0.7818608E-02  0.1130116E+00
         25   -1    0    0    0    0  0.00000000000E+00  0.00000000000E+00  0.99999998245E-14  0.12500000000E+03  0.12500000000E+03 0.  0.
        -13    1    3    3    0    0 -0.15429422874E+02 -0.58427944972E+02  0.93557841910E+01  0.61150909280E+02  0.10566000000E+00 0.  1.
         23    2    1    0    0    0 -0.11565070414E+02 -0.12672897489E+02  0.10753628245E+01  0.10780960763E+03  0.10643026782E+03 0.  0.
         13    1    3    3    0    0  0.38643524596E+01  0.45755047483E+02 -0.82804213664E+01  0.46658698355E+02  0.10566000000E+00 0. -1.
         22    1    1    0    0    0  0.11565070414E+02  0.12672897489E+02 -0.10753628245E+01  0.17190392365E+02  0.00000000000E+00 0.  1.
</event>
<event>
 5    1  0.2491889E-009  0.9118800E+02  0.7818608E-02  0.1130116E+00
         25   -1    0    0    0    0  0.00000000000E+00  0.00000000000E+00  0.99999998245E-14  0.12500000000E+03  0.12500000000E+03 0.  0.
        -13    1    3    3    0    0 -0.13115528981E+02 -0.13121164245E+02 -0.46143280340E+02  0.49733243773E+02  0.10566000000E+00 0. -1.
         23    2    1    0    0    0 -0.31786287081E+01 -0.28644678862E+02 -0.37799071533E+01  0.95932681484E+02  0.91423029763E+02 0.  0.
         13    1    3    3    0    0  0.99369002730E+01 -0.15523514618E+02  0.42363373186E+02  0.46199437712E+02  0.10566000000E+00 0.  1.
         22    1    1    0    0    0  0.31786287081E+01  0.28644678862E+02  0.37799071533E+01  0.29067318516E+02  0.00000000000E+00 0. -1.
</event>
<event>
 5    1  0.2491889E-009  0.9118800E+02  0.7818608E-02  0.1130116E+00
         25   -1    0    0    0    0  0.00000000000E+00  0.00000000000E+00  0.99999998245E-14  0.12500000000E+03  0.12500000000E+03 0.  0.
        -13    1    3    3    0    0 -0.36088546549E+02  0.30390916091E+02  0.86083244342E+01  0.47959413950E+02  0.10566000000E+00 0.  1.
         23    2    1    0    0    0 -0.32650873902E+02  0.23253888945E+01 -0.18727244076E+02  0.87287977105E+02  0.78720990062E+02 0.  0.
         13    1    3    3    0    0  0.34376726468E+01 -0.28065527196E+02 -0.27335568511E+02  0.39328563155E+02  0.10566000000E+00 0. -1.
         22    1    1    0    0    0  0.32650873902E+02 -0.23253888945E+01  0.18727244076E+02  0.37712022895E+02  0.00000000000E+00 0.  1.
</event>
<event>
 5    1  0.2491889E-009  0.9118800E+02  0.7818608E-02  0.1130116E+00
         25   -1    0    0    0    0  0.00000000000E+00  0.00000000000E+00  0.99999998245E-14  0.12500000000E+03  0.12500000000E+03 0.  0.
        -13    1    3    3    0    0 -0.31108638897E+02 -0.41031198259E+02 -0.23802137805E+02  0.56726180664E+02  0.10566000000E+00 0. -1.
         23    2    1    0    0    0  0.35726242174E+01 -0.25910757719E+02 -0.96292626404E+01  0.97127904486E+02  0.93042872491E+02 0.  0.
         13    1    3    3    0    0  0.34681263114E+02  0.15120440540E+02  0.14172875165E+02  0.40401723822E+02  0.10566000000E+00 0.  1.
         22    1    1    0    0    0 -0.35726242174E+01  0.25910757719E+02  0.96292626404E+01  0.27872095514E+02  0.00000000000E+00 0. -1.
</event>
<event>
 5    1  0.2491889E-009  0.9118800E+02  0.7818608E-02  0.1130116E+00
         25   -1    0    0    0    0  0.00000000000E+00  0.00000000000E+00  0.99999998245E-14  0.12500000000E+03  0.12500000000E+03 0.  0.
        -13    1    3    3    0    0 -0.18442699309E+02  0.13372052753E+02  0.44954569049E+02  0.50397116931E+02  0.10566000000E+00 0.  1.
         23    2    1    0    0    0  0.18778440619E+02 -0.14074152079E+01  0.19722536945E+02  0.97731169566E+02  0.93849839593E+02 0.  0.
         13    1    3    3    0    0  0.37221139928E+02 -0.14779467961E+02 -0.25232032103E+02  0.47334052635E+02  0.10566000000E+00 0. -1.
         22    1    1    0    0    0 -0.18778440619E+02  0.14074152079E+01 -0.19722536945E+02  0.27268830434E+02  0.00000000000E+00 0. -1.
</event>
<event>
 5    1  0.2491889E-009  0.9118800E+02  0.7818608E-02  0.1130116E+00
         25   -1    0    0    0    0  0.00000000000E+00  0.00000000000E+00  0.99999998245E-14  0.12500000000E+03  0.12500000000E+03 0.  0.
        -13    1    3    3    0    0  0.20328924545E+02 -0.34669759510E+02  0.82787241057E+01  0.41034203227E+02  0.10566000000E+00 0. -1.
         23    2    1    0    0    0 -0.27459007779E+02 -0.72988635813E+01  0.44795696363E+01  0.96236532512E+02  0.91837536596E+02 0.  0.
         13    1    3    3    0    0 -0.47787932324E+02  0.27370895929E+02 -0.37991544694E+01  0.55202329285E+02  0.10566000000E+00 0.  1.
         22    1    1    0    0    0  0.27459007779E+02  0.72988635813E+01 -0.44795696363E+01  0.28763467488E+02  0.00000000000E+00 0.  1.
</event>
<event>
 5    1  0.2491889E-009  0.9118800E+02  0.7818608E-02  0.1130116E+00
         25   -1    0    0    0    0  0.00000000000E+00  0.00000000000E+00  0.99999998245E-14  0.12500000000E+03  0.12500000000E+03 0.  0.
        -13    1    3    3    0    0 -0.15406760330E+02 -0.85504460853E+00  0.36933077334E+02  0.40027025002E+02  0.10566000000E+00 0.  1.
         23    2    1    0    0    0 -0.91644655066E+01 -0.21217294190E+02 -0.15870319294E+02  0.96963808475E+02  0.92822153168E+02 0.  0.
         13    1    3    3    0    0  0.62422948232E+01 -0.20362249581E+02 -0.52803396628E+02  0.56936783472E+02  0.10566000000E+00 0. -1.
         22    1    1    0    0    0  0.91644655066E+01  0.21217294190E+02  0.15870319294E+02  0.28036191525E+02  0.00000000000E+00 0. -1.
</event>
<event>
 5    1  0.2491889E-009  0.9118800E+02  0.7818608E-02  0.1130116E+00
         25   -1    0    0    0    0  0.00000000000E+00  0.00000000000E+00  0.99999998245E-14  0.12500000000E+03  0.12500000000E+03 0.  0.
        -13    1    3    3    0    0  0.27400820454E+02  0.85886484262E+01  0.13780841375E+02  0.31851100395E+02  0.10566000000E+00 0. -1.
         23    2    1    0    0    0 -0.23112045727E+02 -0.13494783813E+01 -0.20807082569E+02  0.93872481072E+02  0.88561392650E+02 0.  0.
         13    1    3    3    0    0 -0.50512866181E+02 -0.99381268075E+01 -0.34587923944E+02  0.62021380677E+02  0.10566000000E+00 0.  1.
         22    1    1    0    0    0  0.23112045727E+02  0.13494783813E+01  0.20807082569E+02  0.31127518928E+02  0.00000000000E+00 0.  1.
</event>
<event>
 5    1  0.2491889E-009  0.9118800E+02  0.7818608E-02  0.1130116E+00
         25   -1    0    0    0    0  0.00000000000E+00  0.00000000000E+00  0.99999998245E-14  0.12500000000E+03  0.12500000000E+03 0.  0.
        -13    1    3    3    0    0 -0.46748805615E+02 -0.14993705548E+02  0.17256948716E+02  0.52039172510E+02  0.10566000000E+00 0.  1.
         23    2    1    0    0    0 -0.36193102460E+01 -0.23238270951E+02  0.17052083641E+02  0.95950211706E+02  0.91446995175E+02 0.  0.
         13    1    3    3    0    0  0.43129495369E+02 -0.82445654028E+01 -0.20486507493E+00  0.43911039196E+02  0.10566000000E+00 0. -1.
         22    1    1    0    0    0  0.36193102460E+01  0.23238270951E+02 -0.17052083641E+02  0.29049788294E+02  0.00000000000E+00 0.  1.
</event>
<event>
 5    1  0.2491889E-009  0.9118800E+02  0.7818608E-02  0.1130116E+00
         25   -1    0    0    0    0  0.00000000000E+00  0.00000000000E+00  0.99999998245E-14  0.12500000000E+03  0.12500000000E+03 0.  0.
        -13    1    3    3    0    0  0.44544135244E+02 -0.41245870238E+02  0.15679735762E+01  0.60727847826E+02  0.10566000000E+00 0. -1.
         23    2    1    0    0    0  0.13429368851E+02 -0.23716393925E+02 -0.56571548022E+01  0.97164434818E+02  0.93091936839E+02 0.  0.
         13    1    3    3    0    0 -0.31114766394E+02  0.17529476312E+02 -0.72251283784E+01  0.36436586992E+02  0.10566000000E+00 0.  1.
         22    1    1    0    0    0 -0.13429368851E+02  0.23716393925E+02  0.56571548022E+01  0.27835565182E+02  0.00000000000E+00 0. -1.
</event>
<event>
 5    1  0.2491889E-009  0.9118800E+02  0.7818608E-02  0.1130116E+00
         25   -1    0    0    0    0  0.00000000000E+00  0.00000000000E+00  0.99999998245E-14  0.12500000000E+03  0.12500000000E+03 0.  0.
        -13    1    3    3    0    0  0.44917625446E+02  0.29867366468E+02 -0.13899291403E+02  0.55703268495E+02  0.10566000000E+00 0.  1.
         23    2    1    0    0    0  0.98037108605E+01  0.23436368992E+02  0.89241815177E+01  0.98073857425E+02  0.94305166117E+02 0.  0.
         13    1    3    3    0    0 -0.35113914586E+02 -0.64309974761E+01  0.22823472921E+02  0.42370588930E+02  0.10566000000E+00 0. -1.
         22    1    1    0    0    0 -0.98037108605E+01 -0.23436368992E+02 -0.89241815177E+01  0.26926142575E+02  0.00000000000E+00 0.  1.
</event>
<event>
 5    1  0.2491889E-009  0.9118800E+02  0.7818608E-02  0.1130116E+00
         25   -1    0    0    0    0  0.00000000000E+00  0.00000000000E+00  0.99999998245E-14  0.12500000000E+03  0.12500000000E+03 0.  0.
        -13    1    3    3    0    0  0.52188545391E+01 -0.17376201294E+02  0.40683354268E+02  0.44545654026E+02  0.10566000000E+00 0.  1.
         23    2    1    0    0    0 -0.23398030286E+02 -0.17083766586E+02 -0.20274647441E+01  0.95958073147E+02  0.91457740442E+02 0.  0.
         13    1    3    3    0    0 -0.28616884825E+02  0.29243470856E+00 -0.42710819012E+02  0.51412419121E+02  0.10566000000E+00 0. -1.
         22    1    1    0    0    0  0.23398030286E+02  0.17083766586E+02  0.20274647441E+01  0.29041926853E+02  0.00000000000E+00 0. -1.
</event>
<event>
 5    1  0.2491889E-009  0.9118800E+02  0.7818608E-02  0.1130116E+00
         25   -1    0    0    0    0  0.00000000000E+00  0.00000000000E+00  0.99999998245E-14  0.12500000000E+03  0.12500000000E+03 0.  0.
        -13    1    3    3    0    0 -0.24184580497E+02 -0.15481965477E+02  0.51901671629E+02  0.59315932689E+02  0.10566000000E+00 0.  1.
         23    2    1    0    0    0  0.15597607576E-01 -0.19647969829E+01  0.30758961884E+02  0.94178345166E+02  0.88992057464E+02 0.  0.
         13    1    3    3    0    0  0.24200178104E+02  0.13517168494E+02 -0.21142709744E+02  0.34862412478E+02  0.10566000000E+00 0. -1.
         22    1    1    0    0    0 -0.15597607576E-01  0.19647969829E+01 -0.30758961884E+02  0.30821654834E+02  0.00000000000E+00 0.  1.
</event>
<event>
 5    1  0.2491889E-009  0.9118800E+02  0.7818608E-02  0.1130116E+00
         25   -1    0    0    0    0  0.00000000000E+00  0.00000000000E+00  0.99999998245E-14  0.12500000000E+03  0.12500000000E+03 0.  0.
        -13    1    3    3    0    0  0.22641047700E+02  0.99266706148E+01 -0.27563170494E+02  0.37025604143E+02  0.10566000000E+00 0.  1.
         23    2    1    0    0    0  0.32771073264E+01 -0.16832011652E+01  0.27873722088E+02  0.96883866169E+02  0.92714435458E+02 0.  0.
         13    1    3    3    0    0 -0.19363940374E+02 -0.11609871780E+02  0.55436892582E+02  0.59858262025E+02  0.10566000000E+00 0. -1.
         22    1    1    0    0    0 -0.32771073264E+01  0.16832011652E+01 -0.27873722088E+02  0.28116133831E+02  0.00000000000E+00 0.  1.
</event>
<event>
 5    1  0.2491889E-009  0.9118800E+02  0.7818608E-02  0.1130116E+00
         25   -1    0    0    0    0  0.00000000000E+00  0.00000000000E+00  0.99999998245E-14  0.12500000000E+03  0.12500000000E+03 0.  0.
        -13    1    3    3    0    0 -0.26523984505E+02  0.23321591262E+02 -0.40779653464E+02  0.53948212887E+02  0.10566000000E+00 0.  1.
         23    2    1    0    0    0  0.78282708847E+01  0.15423344785E+02 -0.29221099539E+02  0.91043644959E+02  0.84474322962E+02 0.  0.
         13    1    3    3    0    0  0.34352255390E+02 -0.78982464768E+01  0.11558553925E+02  0.37095432073E+02  0.10566000000E+00 0. -1.
         22    1    1    0    0    0 -0.78282708847E+01 -0.15423344785E+02  0.29221099539E+02  0.33956355041E+02  0.00000000000E+00 0.  1.
</event>
<event>
 5    1  0.2491889E-009  0.9118800E+02  0.7818608E-02  0.1130116E+00
         25   -1    0    0    0    0  0.00000000000E+00  0.00000000000E+00  0.99999998245E-14  0.12500000000E+03  0.12500000000E+03 0.  0.
        -13    1    3    3    0    0 -0.25167532350E+01  0.37341696885E+02 -0.15806850315E+02  0.40627626733E+02  0.10566000000E+00 0.  1.
         23    2    1    0    0    0 -0.25894536141E+02 -0.11802141606E+02 -0.55023351955E+01  0.96015637991E+02  0.91536383465E+02 0.  0.
         13    1    3    3    0    0 -0.23377782906E+02 -0.49143838490E+02  0.10304515119E+02  0.55388011258E+02  0.10566000000E+00 0. -1.
         22    1    1    0    0    0  0.25894536141E+02  0.11802141606E+02  0.55023351955E+01  0.28984362009E+02  0.00000000000E+00 0. -1.
</event>
<event>
 5    1  0.2491889E-009  0.9118800E+02  0.7818608E-02  0.1130116E+00
         25   -1    0    0    0    0  0.00000000000E+00  0.00000000000E+00  0.99999998245E-14  0.12500000000E+03  0.12500000000E+03 0.  0.
        -13    1    3    3    0    0 -0.14178945087E+02 -0.45111695357E+02 -0.26459463217E+02  0.54186916313E+02  0.10566000000E+00 0. -1.
         23    2    1    0    0    0 -0.12205191779E+02 -0.40282622560E+01 -0.26753928181E+02  0.95318923936E+02  0.90579970104E+02 0.  0.
         13    1    3    3    0    0  0.19737533079E+01  0.41083433101E+02 -0.29446496391E+00  0.41132007623E+02  0.10566000000E+00 0.  1.
         22    1    1    0    0    0  0.12205191779E+02  0.40282622560E+01  0.26753928181E+02  0.29681076064E+02  0.00000000000E+00 0. -1.
</event>
<event>
 5    1  0.2491889E-009  0.9118800E+02  0.7818608E-02  0.1130116E+00
         25   -1    0    0    0    0  0.00000000000E+00  0.00000000000E+00  0.99999998245E-14  0.12500000000E+03  0.12500000000E+03 0.  0.
        -13    1    3    3    0    0 -0.42011239762E+02  0.13826571571E+02 -0.20535366455E+02  0.48763006339E+02  0.10566000000E+00 0. -1.
         23    2    1    0    0    0 -0.39110164035E+01 -0.18907134794E+02 -0.17263257644E+02  0.99100272976E+02  0.95655989065E+02 0.  0.
         13    1    3    3    0    0  0.38100223359E+02 -0.32733706365E+02  0.32721088110E+01  0.50337266637E+02  0.10566000000E+00 0.  1.
         22    1    1    0    0    0  0.39110164035E+01  0.18907134794E+02  0.17263257644E+02  0.25899727024E+02  0.00000000000E+00 0. -1.
</event>
<event>
 5    1  0.2491889E-009  0.9118800E+02  0.7818608E-02  0.1130116E+00
         25   -1    0    0    0    0  0.00000000000E+00  0.00000000000E+00  0.99999998245E-14  0.12500000000E+03  0.12500000000E+03 0.  0.
        -13    1    3    3    0    0  0.21587760720E+02  0.11316701928E+02 -0.28203317037E+02  0.37276499451E+02  0.10566000000E+00 0.  1.
         23    2    1    0    0    0 -0.29490227179E+02  0.81978682655E+01 -0.18108853577E+02  0.89435844997E+02  0.82060716846E+02 0.  0.
         13    1    3    3    0    0 -0.51077987899E+02 -0.31188336622E+01  0.10094463460E+02  0.52159345546E+02  0.10566000000E+00 0. -1.
         22    1    1    0    0    0  0.29490227179E+02 -0.81978682655E+01  0.18108853577E+02  0.35564155003E+02  0.00000000000E+00 0. -1.
</event>
<event>
 5    1  0.2491889E-009  0.9118800E+02  0.7818608E-02  0.1130116E+00
         25   -1    0    0    0    0  0.00000000000E+00  0.00000000000E+00  0.99999998245E-14  0.12500000000E+03  0.12500000000E+03 0.  0.
        -13    1    3    3    0    0  0.32625049223E+02  0.39419340024E+01  0.40868353407E+02  0.52442026607E+02  0.10566000000E+00 0. -1.
         23    2    1    0    0    0 -0.57258513025E+01  0.14195314122E+02  0.25991889647E+02  0.94835937880E+02  0.89910980809E+02 0.  0.
         13    1    3    3    0    0 -0.38350900525E+02  0.10253380119E+02 -0.14876463760E+02  0.42393911273E+02  0.10566000000E+00 0.  1.
         22    1    1    0    0    0  0.57258513025E+01 -0.14195314122E+02 -0.25991889647E+02  0.30164062120E+02  0.00000000000E+00 0. -1.
</event>
<event>
 5    1  0.2491889E-009  0.9118800E+02  0.7818608E-02  0.1130116E+00
         25   -1    0    0    0    0  0.00000000000E+00  0.00000000000E+00  0.99999998245E-14  0.12500000000E+03  0.12500000000E+03 0.  0.
        -13    1    3    3    0    0  0.33291774698E+02  0.84360969904E+01 -0.16855366418E+02  0.38257346172E+02  0.10566000000E+00 0.  1.
         23    2    1    0    0    0 -0.36444239413E+01 -0.28811174488E+02  0.57812562465E+01  0.95389384926E+02  0.90677153857E+02 0.  0.
         13    1    3    3    0    0 -0.36936198639E+02 -0.37247271479E+02  0.22636622665E+02  0.57132038754E+02  0.10566000000E+00 0. -1.
         22    1    1    0    0    0  0.36444239413E+01  0.28811174488E+02 -0.57812562465E+01  0.29610615074E+02  0.00000000000E+00 0. -1.
</event>
<event>
 5    1  0.2491889E-009  0.9118800E+02  0.7818608E-02  0.1130116E+00
         25   -1    0    0    0    0  0.00000000000E+00  0.00000000000E+00  0.99999998245E-14  0.12500000000E+03  0.12500000000E+03 0.  0.
        -13    1    3    3    0    0 -0.58788885312E+01 -0.33691808937E+02  0.19728412821E+02  0.39483170545E+02  0.10566000000E+00 0.  1.
         23    2    1    0    0    0 -0.10118121930E+02 -0.16644682256E+01 -0.26901017805E+02  0.96210911706E+02  0.91802657514E+02 0.  0.
         13    1    3    3    0    0 -0.42392333990E+01  0.32027340711E+02 -0.46629430625E+02  0.56727741162E+02  0.10566000000E+00 0. -1.
         22    1    1    0    0    0  0.10118121930E+02  0.16644682256E+01  0.26901017805E+02  0.28789088294E+02  0.00000000000E+00 0. -1.
</event>
<event>
 5    1  0.2491889E-009  0.9118800E+02  0.7818608E-02  0.1130116E+00
         25   -1    0    0    0    0  0.00000000000E+00  0.00000000000E+00  0.99999998245E-14  0.12500000000E+03  0.12500000000E+03 0.  0.
        -13    1    3    3    0    0  0.31679887524E+02 -0.11025052195E+01 -0.25773537111E+02  0.40854830443E+02  0.10566000000E+00 0.  1.
         23    2    1    0    0    0 -0.60438170285E+01  0.24807557065E+02  0.85636357650E+01  0.98069005416E+02  0.94298734636E+02 0.  0.
         13    1    3    3    0    0 -0.37723704552E+02  0.25910062284E+02  0.34337172876E+02  0.57214174973E+02  0.10566000000E+00 0. -1.
         22    1    1    0    0    0  0.60438170285E+01 -0.24807557065E+02 -0.85636357650E+01  0.26930994584E+02  0.00000000000E+00 0. -1.
</event>
<event>
 5    1  0.2491889E-009  0.9118800E+02  0.7818608E-02  0.1130116E+00
         25   -1    0    0    0    0  0.00000000000E+00  0.00000000000E+00  0.99999998245E-14  0.12500000000E+03  0.12500000000E+03 0.  0.
        -13    1    3    3    0    0 -0.20395522435E+02  0.53722147480E+02 -0.10665094677E+01  0.57473429267E+02  0.10566000000E+00 0. -1.
         23    2    1    0    0    0  0.36386490771E+01  0.25447941825E+02  0.11752383986E+02  0.96734189564E+02  0.92512417497E+02 0.  0.
         13    1    3    3    0    0  0.24034171512E+02 -0.28274205655E+02  0.12818893454E+02  0.39260760297E+02  0.10566000000E+00 0.  1.
         22    1    1    0    0    0 -0.36386490771E+01 -0.25447941825E+02 -0.11752383986E+02  0.28265810436E+02  0.00000000000E+00 0. -1.
</event>
<event>
 5    1  0.2491889E-009  0.9118800E+02  0.7818608E-02  0.1130116E+00
         25   -1    0    0    0    0  0.00000000000E+00  0.00000000000E+00  0.99999998245E-14  0.12500000000E+03  0.12500000000E+03 0.  0.
        -13    1    3    3    0    0 -0.28927510371E+02 -0.28914528115E+02  0.83106125037E+01  0.41736413797E+02  0.10566000000E+00 0. -1.
         23    2    1    0    0    0 -0.21223247252E+02  0.21161286341E+02 -0.61085030523E+01  0.94413400433E+02  0.89321610534E+02 0.  0.
         13    1    3    3    0    0  0.77042631187E+01  0.50075814456E+02 -0.14419115556E+02  0.52676986636E+02  0.10566000000E+00 0.  1.
         22    1    1    0    0    0  0.21223247252E+02 -0.21161286341E+02  0.61085030523E+01  0.30586599567E+02  0.00000000000E+00 0.  1.
</event>
<event>
 5    1  0.2491889E-009  0.9118800E+02  0.7818608E-02  0.1130116E+00
         25   -1    0    0    0    0  0.00000000000E+00  0.00000000000E+00  0.99999998245E-14  0.12500000000E+03  0.12500000000E+03 0.  0.
        -13    1    3    3    0    0  0.48948318366E+02 -0.35355851003E+02  0.82611636051E+01  0.60944499827E+02  0.10566000000E+00 0.  1.
         23    2    1    0    0    0  0.25115576440E+02 -0.11216608367E+02 -0.43829763635E+01  0.97146544829E+02  0.93067911803E+02 0.  0.
         13    1    3    3    0    0 -0.23832741927E+02  0.24139242636E+02 -0.12644139969E+02  0.36202045002E+02  0.10566000000E+00 0. -1.
         22    1    1    0    0    0 -0.25115576440E+02  0.11216608367E+02  0.43829763635E+01  0.27853455171E+02  0.00000000000E+00 0.  1.
</event>
<event>
 5    1  0.2491889E-009  0.9118800E+02  0.7818608E-02  0.1130116E+00
         25   -1    0    0    0    0  0.00000000000E+00  0.00000000000E+00  0.99999998245E-14  0.12500000000E+03  0.12500000000E+03 0.  0.
        -13    1    3    3    0    0  0.15650511781E+01  0.19765210359E+02 -0.54155574824E+02  0.57671053175E+02  0.10566000000E+00 0. -1.
         23    2    1    0    0    0  0.69043048336E+01  0.22889466859E+02 -0.16217128275E+02  0.96110687655E+02  0.91666089224E+02 0.  0.
         13    1    3    3    0    0  0.53392536555E+01  0.31242564991E+01  0.37938446550E+02  0.38439634479E+02  0.10566000000E+00 0.  1.
         22    1    1    0    0    0 -0.69043048336E+01 -0.22889466859E+02  0.16217128275E+02  0.28889312345E+02  0.00000000000E+00 0. -1.
</event>
<event>
 5    1  0.2491889E-009  0.9118800E+02  0.7818608E-02  0.1130116E+00
         25   -1    0    0    0    0  0.00000000000E+00  0.00000000000E+00  0.99999998245E-14  0.12500000000E+03  0.12500000000E+03 0.  0.
        -13    1    3    3    0    0  0.15126582701E+01  0.24810333168E+02 -0.29667315227E+02  0.38704024646E+02  0.10566000000E+00 0.  1.
         23    2    1    0    0    0 -0.55054243799E+01  0.11957486393E+02  0.25780459060E+02  0.96053096058E+02  0.91587521063E+02 0.  0.
         13    1    3    3    0    0 -0.70180826499E+01 -0.12852846775E+02  0.55447774288E+02  0.57349071412E+02  0.10566000000E+00 0. -1.
         22    1    1    0    0    0  0.55054243799E+01 -0.11957486393E+02 -0.25780459060E+02  0.28946903942E+02  0.00000000000E+00 0. -1.
</event>
<event>
 5    1  0.2491889E-009  0.9118800E+02  0.7818608E-02  0.1130116E+00
         25   -1    0    0    0    0  0.00000000000E+00  0.00000000000E+00  0.99999998245E-14  0.12500000000E+03  0.12500000000E+03 0.  0.
        -13    1    3    3    0    0 -0.76310456776E+01  0.27150192156E+01 -0.29963526635E+02  0.31039141095E+02  0.10566000000E+00 0. -1.
         23    2    1    0    0    0 -0.24870472718E+02 -0.53597329059E+01  0.25075924853E+02  0.89277889799E+02  0.81819755864E+02 0.  0.
         13    1    3    3    0    0 -0.17239427040E+02 -0.80747521215E+01  0.55039451487E+02  0.58238748704E+02  0.10566000000E+00 0.  1.
         22    1    1    0    0    0  0.24870472718E+02  0.53597329059E+01 -0.25075924853E+02  0.35722110201E+02  0.00000000000E+00 0.  1.
</event>
<event>
 5    1  0.2491889E-009  0.9118800E+02  0.7818608E-02  0.1130116E+00
         25   -1    0    0    0    0  0.00000000000E+00  0.00000000000E+00  0.99999998245E-14  0.12500000000E+03  0.12500000000E+03 0.  0.
        -13    1    3    3    0    0  0.11454451357E+02  0.32438246647E+02 -0.97644364978E+00  0.34415242374E+02  0.10566000000E+00 0.  1.
         23    2    1    0    0    0 -0.87353593205E-01 -0.27769127420E+02  0.73310436857E+01  0.96279340714E+02  0.91895784335E+02 0.  0.
         13    1    3    3    0    0 -0.11541804950E+02 -0.60207374067E+02  0.83074873355E+01  0.61864098340E+02  0.10566000000E+00 0. -1.
         22    1    1    0    0    0  0.87353593205E-01  0.27769127420E+02 -0.73310436857E+01  0.28720659286E+02  0.00000000000E+00 0. -1.
</event>
<event>
 5    1  0.2491889E-009  0.9118800E+02  0.7818608E-02  0.1130116E+00
         25   -1    0    0    0    0  0.00000000000E+00  0.00000000000E+00  0.99999998245E-14  0.12500000000E+03  0.12500000000E+03 0.  0.
        -13    1    3    3    0    0  0.11524061468E+02  0.16554585238E+02 -0.50875928625E+02  0.54728690488E+02  0.10566000000E+00 0.  1.
         23    2    1    0    0    0  0.71443187406E+01 -0.14303955157E+02 -0.25413559889E+02  0.94975119490E+02  0.90104272221E+02 0.  0.
         13    1    3    3    0    0 -0.43797427273E+01 -0.30858540396E+02  0.25462368735E+02  0.40246429001E+02  0.10566000000E+00 0. -1.
         22    1    1    0    0    0 -0.71443187406E+01  0.14303955157E+02  0.25413559889E+02  0.30024880510E+02  0.00000000000E+00 0.  1.
</event>
<event>
 5    1  0.2491889E-009  0.9118800E+02  0.7818608E-02  0.1130116E+00
         25   -1    0    0    0    0  0.00000000000E+00  0.00000000000E+00  0.99999998245E-14  0.12500000000E+03  0.12500000000E+03 0.  0.
        -13    1    3    3    0    0  0.21579742773E+02  0.45354648803E+02  0.46107070429E+01  0.50438073414E+02  0.10566000000E+00 0.  1.
         23    2    1    0    0    0  0.19099281024E+02  0.43195172148E+01  0.22413541704E+02  0.95237479671E+02  0.90467507525E+02 0.  0.
         13    1    3    3    0    0 -0.24804617491E+01 -0.41035131589E+02  0.17802834661E+02  0.44799406257E+02  0.10566000000E+00 0. -1.
         22    1    1    0    0    0 -0.19099281024E+02 -0.43195172148E+01 -0.22413541704E+02  0.29762520329E+02  0.00000000000E+00 0. -1.
</event>
<event>
 5    1  0.2491889E-009  0.9118800E+02  0.7818608E-02  0.1130116E+00
         25   -1    0    0    0    0  0.00000000000E+00  0.00000000000E+00  0.99999998245E-14  0.12500000000E+03  0.12500000000E+03 0.  0.
        -13    1    3    3    0    0 -0.50042180928E+02  0.20673068615E+02 -0.13434389287E+02  0.55786105955E+02  0.10566000000E+00 0. -1.
         23    2    1    0    0    0 -0.27456399405E+02 -0.17443526166E+01  0.10445521028E+02  0.95572027867E+02  0.90928581682E+02 0.  0.
         13    1    3    3    0    0  0.22585781524E+02 -0.22417421232E+02  0.23879910315E+02  0.39785921912E+02  0.10566000000E+00 0.  1.
         22    1    1    0    0    0  0.27456399405E+02  0.17443526166E+01 -0.10445521028E+02  0.29427972133E+02  0.00000000000E+00 0. -1.
</event>
<event>
 5    1  0.2491889E-009  0.9118800E+02  0.7818608E-02  0.1130116E+00
         25   -1    0    0    0    0  0.00000000000E+00  0.00000000000E+00  0.99999998245E-14  0.12500000000E+03  0.12500000000E+03 0.  0.
        -13    1    3    3    0    0  0.40282351581E+02  0.28573216546E+02  0.27287481964E+02  0.56424413055E+02  0.10566000000E+00 0.  1.
         23    2    1    0    0    0  0.39070077249E+01  0.14047224313E+02  0.25490358086E+02  0.95634244849E+02  0.91014071507E+02 0.  0.
         13    1    3    3    0    0 -0.36375343856E+02 -0.14525992233E+02 -0.17971238779E+01  0.39209831794E+02  0.10566000000E+00 0. -1.
         22    1    1    0    0    0 -0.39070077249E+01 -0.14047224313E+02 -0.25490358086E+02  0.29365755151E+02  0.00000000000E+00 0.  1.
</event>
<event>
 5    1  0.2491889E-009  0.9118800E+02  0.7818608E-02  0.1130116E+00
         25   -1    0    0    0    0  0.00000000000E+00  0.00000000000E+00  0.99999998245E-14  0.12500000000E+03  0.12500000000E+03 0.  0.
        -13    1    3    3    0    0  0.57252617808E+01 -0.51448199125E+02  0.21442600603E+02  0.56031170792E+02  0.10566000000E+00 0. -1.
         23    2    1    0    0    0 -0.14264642500E+02 -0.12305529497E+02  0.15932814969E+02  0.10032692409E+03  0.97245724961E+02 0.  0.
         13    1    3    3    0    0 -0.19989904281E+02  0.39142669627E+02 -0.55097856345E+01  0.44295753301E+02  0.10566000000E+00 0.  1.
         22    1    1    0    0    0  0.14264642500E+02  0.12305529497E+02 -0.15932814969E+02  0.24673075907E+02  0.00000000000E+00 0. -1.
</event>
<event>
 5    1  0.2491889E-009  0.9118800E+02  0.7818608E-02  0.1130116E+00
         25   -1    0    0    0    0  0.00000000000E+00  0.00000000000E+00  0.99999998245E-14  0.12500000000E+03  0.12500000000E+03 0.  0.
        -13    1    3    3    0    0  0.29054001415E+02  0.53691398949E+02  0.10229444193E+02  0.61899547751E+02  0.10566000000E+00 0. -1.
         23    2    1    0    0    0  0.83958340792E+01  0.24893456590E+02  0.85186985860E+01  0.97382207972E+02  0.93383895791E+02 0.  0.
         13    1    3    3    0    0 -0.20658167336E+02 -0.28797942359E+02 -0.17107456066E+01  0.35482660221E+02  0.10566000000E+00 0.  1.
         22    1    1    0    0    0 -0.83958340792E+01 -0.24893456590E+02 -0.85186985860E+01  0.27617792028E+02  0.00000000000E+00 0. -1.
</event>
<event>
 5    1  0.2491889E-009  0.9118800E+02  0.7818608E-02  0.1130116E+00
         25   -1    0    0    0    0  0.00000000000E+00  0.00000000000E+00  0.99999998245E-14  0.12500000000E+03  0.12500000000E+03 0.  0.
        -13    1    3    3    0    0  0.70199128922E+01 -0.27886292628E+02 -0.45798919361E+02  0.54078430748E+02  0.10566000000E+00 0. -1.
         23    2    1    0    0    0  0.14756724036E+02 -0.36193251704E+02 -0.22740094873E+02  0.79780266609E+02  0.65727213939E+02 0.  0.
         13    1    3    3    0    0  0.77368111435E+01 -0.83069590761E+01  0.23058824488E+02  0.25701835860E+02  0.10566000000E+00 0.  1.
         22    1    1    0    0    0 -0.14756724036E+02  0.36193251704E+02  0.22740094873E+02  0.45219733391E+02  0.00000000000E+00 0. -1.
</event>
<event>
 5    1  0.2491889E-009  0.9118800E+02  0.7818608E-02  0.1130116E+00
         25   -1    0    0    0    0  0.00000000000E+00  0.00000000000E+00  0.99999998245E-14  0.12500000000E+03  0.12500000000E+03 0.  0.
        -13    1    3    3    0    0  0.65337874902E+00 -0.32301504075E+02  0.11821476317E+02  0.34403089042E+02  0.10566000000E+00 0.  1.
         23    2    1    0    0    0 -0.82905422230E+01  0.27814628470E+02  0.29156544255E+01  0.95830020775E+02  0.91282556898E+02 0.  0.
         13    1    3    3    0    0 -0.89439209720E+01  0.60116132545E+02 -0.89058218918E+01  0.61426931733E+02  0.10566000000E+00 0. -1.
         22    1    1    0    0    0  0.82905422230E+01 -0.27814628470E+02 -0.29156544255E+01  0.29169979225E+02  0.00000000000E+00 0. -1.
</event>
<event>
 5    1  0.2491889E-009  0.9118800E+02  0.7818608E-02  0.1130116E+00
         25   -1    0    0    0    0  0.00000000000E+00  0.00000000000E+00  0.99999998245E-14  0.12500000000E+03  0.12500000000E+03 0.  0.
        -13    1    3    3    0    0  0.63319483997E+01  0.11566998121E+01 -0.28540510196E+02  0.29257535974E+02  0.10566000000E+00 0.  1.
         23    2    1    0    0    0 -0.15937824123E+02  0.15821012982E+02  0.26408262314E+02  0.90334238679E+02  0.83417981693E+02 0.  0.
         13    1    3    3    0    0 -0.22269772522E+02  0.14664313170E+02  0.54948772510E+02  0.61076702705E+02  0.10566000000E+00 0. -1.
         22    1    1    0    0    0  0.15937824123E+02 -0.15821012982E+02 -0.26408262314E+02  0.34665761321E+02  0.00000000000E+00 0. -1.
</event>
<event>
 5    1  0.2491889E-009  0.9118800E+02  0.7818608E-02  0.1130116E+00
         25   -1    0    0    0    0  0.00000000000E+00  0.00000000000E+00  0.99999998245E-14  0.12500000000E+03  0.12500000000E+03 0.  0.
        -13    1    3    3    0    0 -0.63748937986E+01 -0.56488448799E+02  0.22200155279E+01  0.56890453959E+02  0.10566000000E+00 0. -1.
         23    2    1    0    0    0  0.15292342627E+02 -0.26158291905E+02 -0.30944136733E+01  0.94542039228E+02  0.89501451424E+02 0.  0.
         13    1    3    3    0    0  0.21667236426E+02  0.30330156894E+02 -0.53144292012E+01  0.37651585269E+02  0.10566000000E+00 0.  1.
         22    1    1    0    0    0 -0.15292342627E+02  0.26158291905E+02  0.30944136733E+01  0.30457960772E+02  0.00000000000E+00 0. -1.
</event>
<event>
 5    1  0.2491889E-009  0.9118800E+02  0.7818608E-02  0.1130116E+00
         25   -1    0    0    0    0  0.00000000000E+00  0.00000000000E+00  0.99999998245E-14  0.12500000000E+03  0.12500000000E+03 0.  0.
        -13    1    3    3    0    0 -0.25921462553E+02  0.37950660299E+02  0.14485912112E+02  0.48187422132E+02  0.10566000000E+00 0. -1.
         23    2    1    0    0    0 -0.14830074021E+02  0.12041765830E+02 -0.23009600514E+02  0.95093864583E+02  0.90268854793E+02 0.  0.
         13    1    3    3    0    0  0.11091388532E+02 -0.25908894469E+02 -0.37495512626E+02  0.46906442450E+02  0.10566000000E+00 0.  1.
         22    1    1    0    0    0  0.14830074021E+02 -0.12041765830E+02  0.23009600514E+02  0.29906135417E+02  0.00000000000E+00 0.  1.
</event>
<event>
 5    1  0.2491889E-009  0.9118800E+02  0.7818608E-02  0.1130116E+00
         25   -1    0    0    0    0  0.00000000000E+00  0.00000000000E+00  0.99999998245E-14  0.12500000000E+03  0.12500000000E+03 0.  0.
        -13    1    3    3    0    0  0.25951503304E+02 -0.27637001473E+02  0.90580390095E+01  0.38978758431E+02  0.10566000000E+00 0. -1.
         23    2    1    0    0    0  0.12317234568E+02  0.22662459137E+02 -0.13640225583E+02  0.95821976155E+02  0.91271540135E+02 0.  0.
         13    1    3    3    0    0 -0.13634268736E+02  0.50299460610E+02 -0.22698264593E+02  0.56843217723E+02  0.10566000000E+00 0.  1.
         22    1    1    0    0    0 -0.12317234568E+02 -0.22662459137E+02  0.13640225583E+02  0.29178023845E+02  0.00000000000E+00 0.  1.
</event>
<event>
 5    1  0.2491889E-009  0.9118800E+02  0.7818608E-02  0.1130116E+00
         25   -1    0    0    0    0  0.00000000000E+00  0.00000000000E+00  0.99999998245E-14  0.12500000000E+03  0.12500000000E+03 0.  0.
        -13    1    3    3    0    0  0.16469106286E+02 -0.36844764736E+02 -0.44455971441E+02  0.60042590810E+02  0.10566000000E+00 0.  1.
         23    2    1    0    0    0 -0.20445974437E+01 -0.23365466722E+02 -0.15824635529E+02  0.96706104838E+02  0.92474462472E+02 0.  0.
         13    1    3    3    0    0 -0.18513703730E+02  0.13479298015E+02  0.28631335912E+02  0.36663514028E+02  0.10566000000E+00 0. -1.
         22    1    1    0    0    0  0.20445974437E+01  0.23365466722E+02  0.15824635529E+02  0.28293895162E+02  0.00000000000E+00 0.  1.
</event>
<event>
 5    1  0.2491889E-009  0.9118800E+02  0.7818608E-02  0.1130116E+00
         25   -1    0    0    0    0  0.00000000000E+00  0.00000000000E+00  0.99999998245E-14  0.12500000000E+03  0.12500000000E+03 0.  0.
        -13    1    3    3    0    0  0.84863606321E+01 -0.18988314684E+02 -0.37249046081E+02  0.42662360569E+02  0.10566000000E+00 0.  1.
         23    2    1    0    0    0 -0.13967740928E+02  0.22265028144E+02 -0.10641151572E+02  0.96643988792E+02  0.92390460535E+02 0.  0.
         13    1    3    3    0    0 -0.22454101560E+02  0.41253342828E+02  0.26607894509E+02  0.53981628223E+02  0.10566000000E+00 0. -1.
         22    1    1    0    0    0  0.13967740928E+02 -0.22265028144E+02  0.10641151572E+02  0.28356011208E+02  0.00000000000E+00 0. -1.
</event>
<event>
 5    1  0.2491889E-009  0.9118800E+02  0.7818608E-02  0.1130116E+00
         25   -1    0    0    0    0  0.00000000000E+00  0.00000000000E+00  0.99999998245E-14  0.12500000000E+03  0.12500000000E+03 0.  0.
        -13    1    3    3    0    0  0.18203020029E+02 -0.85516927872E+01 -0.48550313532E+02  0.52551170261E+02  0.10566000000E+00 0. -1.
         23    2    1    0    0    0  0.23245144770E+02 -0.15358561720E+02 -0.52795562661E+01  0.96643415441E+02  0.92389684815E+02 0.  0.
         13    1    3    3    0    0  0.50421247406E+01 -0.68068689328E+01  0.43270757266E+02  0.44092245180E+02  0.10566000000E+00 0.  1.
         22    1    1    0    0    0 -0.23245144770E+02  0.15358561720E+02  0.52795562661E+01  0.28356584559E+02  0.00000000000E+00 0.  1.
</event>
<event>
 5    1  0.2491889E-009  0.9118800E+02  0.7818608E-02  0.1130116E+00
         25   -1    0    0    0    0  0.00000000000E+00  0.00000000000E+00  0.99999998245E-14  0.12500000000E+03  0.12500000000E+03 0.  0.
        -13    1    3    3    0    0  0.38030553907E+02  0.15241110507E+02  0.24043408329E+02  0.47504853732E+02  0.10566000000E+00 0.  1.
         23    2    1    0    0    0 -0.97407733703E+01 -0.52948131074E+01  0.22947258996E+02  0.99514819853E+02  0.96196179567E+02 0.  0.
         13    1    3    3    0    0 -0.47771327277E+02 -0.20535923615E+02 -0.10961493337E+01  0.52009966121E+02  0.10566000000E+00 0. -1.
         22    1    1    0    0    0  0.97407733703E+01  0.52948131074E+01 -0.22947258996E+02  0.25485180147E+02  0.00000000000E+00 0.  1.
</event>
<event>
 5    1  0.2491889E-009  0.9118800E+02  0.7818608E-02  0.1130116E+00
         25   -1    0    0    0    0  0.00000000000E+00  0.00000000000E+00  0.99999998245E-14  0.12500000000E+03  0.12500000000E+03 0.  0.
        -13    1    3    3    0    0  0.40793931509E+02  0.10710123058E+01 -0.33364429325E+02  0.52711367119E+02  0.10566000000E+00 0.  1.
         23    2    1    0    0    0  0.94165347196E+01  0.23308669700E+02 -0.17786132461E+02  0.94205329727E+02  0.89029952441E+02 0.  0.
         13    1    3    3    0    0 -0.31377396790E+02  0.22237657394E+02  0.15578296864E+02  0.41493962608E+02  0.10566000000E+00 0. -1.
         22    1    1    0    0    0 -0.94165347196E+01 -0.23308669700E+02  0.17786132461E+02  0.30794670273E+02  0.00000000000E+00 0.  1.
</event>
<event>
 5    1  0.2491889E-009  0.9118800E+02  0.7818608E-02  0.1130116E+00
         25   -1    0    0    0    0  0.00000000000E+00  0.00000000000E+00  0.99999998245E-14  0.12500000000E+03  0.12500000000E+03 0.  0.
        -13    1    3    3    0    0 -0.59943723519E+01 -0.29454525960E+02  0.13603415394E+02  0.32993418645E+02  0.10566000000E+00 0.  1.
         23    2    1    0    0    0 -0.25594642101E+01  0.29406389756E+02 -0.55046693970E+01  0.94973544986E+02  0.90102087915E+02 0.  0.
         13    1    3    3    0    0  0.34349081418E+01  0.58860915716E+02 -0.19108084791E+02  0.61980126342E+02  0.10566000000E+00 0. -1.
         22    1    1    0    0    0  0.25594642101E+01 -0.29406389756E+02  0.55046693970E+01  0.30026455014E+02  0.00000000000E+00 0. -1.
</event>
<event>
 5    1  0.2491889E-009  0.9118800E+02  0.7818608E-02  0.1130116E+00
         25   -1    0    0    0    0  0.00000000000E+00  0.00000000000E+00  0.99999998245E-14  0.12500000000E+03  0.12500000000E+03 0.  0.
        -13    1    3    3    0    0  0.28696783370E+02 -0.25005882194E+01 -0.28361323048E+02  0.40424424873E+02  0.10566000000E+00 0.  1.
         23    2    1    0    0    0 -0.12058917597E+02  0.25922841058E+02 -0.28817116202E+01  0.96264735185E+02  0.91875915213E+02 0.  0.
         13    1    3    3    0    0 -0.40755700967E+02  0.28423429278E+02  0.25479611428E+02  0.55840310312E+02  0.10566000000E+00 0. -1.
         22    1    1    0    0    0  0.12058917597E+02 -0.25922841058E+02  0.28817116202E+01  0.28735264815E+02  0.00000000000E+00 0. -1.
</event>
<event>
 5    1  0.2491889E-009  0.9118800E+02  0.7818608E-02  0.1130116E+00
         25   -1    0    0    0    0  0.00000000000E+00  0.00000000000E+00  0.99999998245E-14  0.12500000000E+03  0.12500000000E+03 0.  0.
        -13    1    3    3    0    0 -0.29503443328E+01  0.34114367688E+02 -0.14685667015E+02  0.37258215123E+02  0.10566000000E+00 0.  1.
         23    2    1    0    0    0  0.14232549986E+02 -0.20114814195E+02 -0.18372045327E+02  0.94263974253E+02  0.89112252600E+02 0.  0.
         13    1    3    3    0    0  0.17182894319E+02 -0.54229181883E+02 -0.36863783114E+01  0.57005759130E+02  0.10566000000E+00 0. -1.
         22    1    1    0    0    0 -0.14232549986E+02  0.20114814195E+02  0.18372045327E+02  0.30736025747E+02  0.00000000000E+00 0. -1.
</event>
<event>
 5    1  0.2491889E-009  0.9118800E+02  0.7818608E-02  0.1130116E+00
         25   -1    0    0    0    0  0.00000000000E+00  0.00000000000E+00  0.99999998245E-14  0.12500000000E+03  0.12500000000E+03 0.  0.
        -13    1    3    3    0    0  0.36742347439E+01 -0.87607016450E+01 -0.33291818010E+02  0.34620892604E+02  0.10566000000E+00 0.  1.
         23    2    1    0    0    0 -0.16316953179E+02  0.19103153201E+02  0.16400230663E+02  0.94997650274E+02  0.90135523344E+02 0.  0.
         13    1    3    3    0    0 -0.19991187923E+02  0.27863854845E+02  0.49692048673E+02  0.60376757670E+02  0.10566000000E+00 0. -1.
         22    1    1    0    0    0  0.16316953179E+02 -0.19103153201E+02 -0.16400230663E+02  0.30002349726E+02  0.00000000000E+00 0. -1.
</event>
<event>
 5    1  0.2491889E-009  0.9118800E+02  0.7818608E-02  0.1130116E+00
         25   -1    0    0    0    0  0.00000000000E+00  0.00000000000E+00  0.99999998245E-14  0.12500000000E+03  0.12500000000E+03 0.  0.
        -13    1    3    3    0    0 -0.24611829130E+01  0.19338141296E+02 -0.27417114617E+02  0.33641201942E+02  0.10566000000E+00 0.  1.
         23    2    1    0    0    0  0.19290536779E+02 -0.16624357543E+02  0.16679023883E+02  0.94558516616E+02  0.89524461204E+02 0.  0.
         13    1    3    3    0    0  0.21751719692E+02 -0.35962498840E+02  0.44096138500E+02  0.60917314674E+02  0.10566000000E+00 0. -1.
         22    1    1    0    0    0 -0.19290536779E+02  0.16624357543E+02 -0.16679023883E+02  0.30441483384E+02  0.00000000000E+00 0. -1.
</event>
<event>
 5    1  0.2491889E-009  0.9118800E+02  0.7818608E-02  0.1130116E+00
         25   -1    0    0    0    0  0.00000000000E+00  0.00000000000E+00  0.99999998245E-14  0.12500000000E+03  0.12500000000E+03 0.  0.
        -13    1    3    3    0    0 -0.23711039286E+02 -0.94667322399E+01 -0.29328971916E+02  0.38884857734E+02  0.10566000000E+00 0.  1.
         23    2    1    0    0    0 -0.77837085183E+00  0.30205740581E+02  0.25041292460E+01  0.94680644985E+02  0.89694822851E+02 0.  0.
         13    1    3    3    0    0  0.22932668434E+02  0.39672472821E+02  0.31833101162E+02  0.55795787251E+02  0.10566000000E+00 0. -1.
         22    1    1    0    0    0  0.77837085183E+00 -0.30205740581E+02 -0.25041292460E+01  0.30319355015E+02  0.00000000000E+00 0.  1.
</event>
<event>
 5    1  0.2491889E-009  0.9118800E+02  0.7818608E-02  0.1130116E+00
         25   -1    0    0    0    0  0.00000000000E+00  0.00000000000E+00  0.99999998245E-14  0.12500000000E+03  0.12500000000E+03 0.  0.
        -13    1    3    3    0    0  0.24970904868E+02  0.12175015680E+02  0.28129243420E+02  0.39535333515E+02  0.10566000000E+00 0. -1.
         23    2    1    0    0    0  0.12177189837E+02 -0.23333743559E+02 -0.13241910253E+02  0.95536535710E+02  0.90879777330E+02 0.  0.
         13    1    3    3    0    0 -0.12793715030E+02 -0.35508759239E+02 -0.41371153673E+02  0.56001202195E+02  0.10566000000E+00 0.  1.
         22    1    1    0    0    0 -0.12177189837E+02  0.23333743559E+02  0.13241910253E+02  0.29463464290E+02  0.00000000000E+00 0.  1.
</event>
<event>
 5    1  0.2491889E-009  0.9118800E+02  0.7818608E-02  0.1130116E+00
         25   -1    0    0    0    0  0.00000000000E+00  0.00000000000E+00  0.99999998245E-14  0.12500000000E+03  0.12500000000E+03 0.  0.
        -13    1    3    3    0    0 -0.52352438767E+02 -0.81948922861E+01 -0.20079848844E+02  0.56666970962E+02  0.10566000000E+00 0. -1.
         23    2    1    0    0    0 -0.19193813265E+02 -0.20702168903E+02 -0.16535442646E+02  0.92282984115E+02  0.86288736395E+02 0.  0.
         13    1    3    3    0    0  0.33158625502E+02 -0.12507276617E+02  0.35444061982E+01  0.35616013152E+02  0.10566000000E+00 0.  1.
         22    1    1    0    0    0  0.19193813265E+02  0.20702168903E+02  0.16535442646E+02  0.32717015885E+02  0.00000000000E+00 0. -1.
</event>
<event>
 5    1  0.2491889E-009  0.9118800E+02  0.7818608E-02  0.1130116E+00
         25   -1    0    0    0    0  0.00000000000E+00  0.00000000000E+00  0.99999998245E-14  0.12500000000E+03  0.12500000000E+03 0.  0.
        -13    1    3    3    0    0  0.89331745844E+01  0.38943853539E+02  0.38032799529E+02  0.55162762265E+02  0.10566000000E+00 0.  1.
         23    2    1    0    0    0 -0.77040780055E+01  0.69242518721E+01  0.31509176259E+02  0.91831848553E+02  0.85632716518E+02 0.  0.
         13    1    3    3    0    0 -0.16637252590E+02 -0.32019601667E+02 -0.65236232704E+01  0.36669086288E+02  0.10566000000E+00 0. -1.
         22    1    1    0    0    0  0.77040780055E+01 -0.69242518721E+01 -0.31509176259E+02  0.33168151447E+02  0.00000000000E+00 0.  1.
</event>
<event>
 5    1  0.2491889E-009  0.9118800E+02  0.7818608E-02  0.1130116E+00
         25   -1    0    0    0    0  0.00000000000E+00  0.00000000000E+00  0.99999998245E-14  0.12500000000E+03  0.12500000000E+03 0.  0.
        -13    1    3    3    0    0 -0.88138563926E+01 -0.22924278215E+02 -0.25046459775E+02  0.35079095021E+02  0.10566000000E+00 0.  1.
         23    2    1    0    0    0  0.17464562348E+02  0.49267507000E+01  0.22478717354E+02  0.96110961519E+02  0.91666462677E+02 0.  0.
         13    1    3    3    0    0  0.26278418740E+02  0.27851028915E+02  0.47525177129E+02  0.61031866499E+02  0.10566000000E+00 0. -1.
         22    1    1    0    0    0 -0.17464562348E+02 -0.49267507000E+01 -0.22478717354E+02  0.28889038481E+02  0.00000000000E+00 0. -1.
</event>
<event>
 5    1  0.2491889E-009  0.9118800E+02  0.7818608E-02  0.1130116E+00
         25   -1    0    0    0    0  0.00000000000E+00  0.00000000000E+00  0.99999998245E-14  0.12500000000E+03  0.12500000000E+03 0.  0.
        -13    1    3    3    0    0 -0.32306928574E+02  0.29685060186E+02 -0.11691092066E+02  0.45405211483E+02  0.10566000000E+00 0.  1.
         23    2    1    0    0    0  0.14488023835E+01 -0.28955081627E+01 -0.29304672120E+02  0.95517008226E+02  0.90852914408E+02 0.  0.
         13    1    3    3    0    0  0.33755730957E+02 -0.32580568349E+02 -0.17613580055E+02  0.50111796743E+02  0.10566000000E+00 0. -1.
         22    1    1    0    0    0 -0.14488023835E+01  0.28955081627E+01  0.29304672120E+02  0.29482991774E+02  0.00000000000E+00 0.  1.
</event>
<event>
 5    1  0.2491889E-009  0.9118800E+02  0.7818608E-02  0.1130116E+00
         25   -1    0    0    0    0  0.00000000000E+00  0.00000000000E+00  0.99999998245E-14  0.12500000000E+03  0.12500000000E+03 0.  0.
        -13    1    3    3    0    0 -0.37914649097E+02  0.88552611492E+01 -0.17439255117E+02  0.42662337597E+02  0.10566000000E+00 0. -1.
         23    2    1    0    0    0  0.14089754724E+02  0.11967406221E+02 -0.23487901684E+02  0.95109842333E+02  0.90290977308E+02 0.  0.
         13    1    3    3    0    0  0.52004403821E+02  0.31121450716E+01 -0.60486465667E+01  0.52447504736E+02  0.10566000000E+00 0.  1.
         22    1    1    0    0    0 -0.14089754724E+02 -0.11967406221E+02  0.23487901684E+02  0.29890157667E+02  0.00000000000E+00 0. -1.
</event>
<event>
 5    1  0.2491889E-009  0.9118800E+02  0.7818608E-02  0.1130116E+00
         25   -1    0    0    0    0  0.00000000000E+00  0.00000000000E+00  0.99999998245E-14  0.12500000000E+03  0.12500000000E+03 0.  0.
        -13    1    3    3    0    0 -0.14593800167E+02 -0.26683766018E+01  0.32211843647E+02  0.35464253442E+02  0.10566000000E+00 0. -1.
         23    2    1    0    0    0  0.25079010641E+02 -0.10546600228E+02 -0.11892961498E+02  0.95307743698E+02  0.90564540105E+02 0.  0.
         13    1    3    3    0    0  0.39672810809E+02 -0.78782236265E+01 -0.44104805146E+02  0.59843490255E+02  0.10566000000E+00 0.  1.
         22    1    1    0    0    0 -0.25079010641E+02  0.10546600228E+02  0.11892961498E+02  0.29692256302E+02  0.00000000000E+00 0.  1.
</event>
<event>
 5    1  0.2491889E-009  0.9118800E+02  0.7818608E-02  0.1130116E+00
         25   -1    0    0    0    0  0.00000000000E+00  0.00000000000E+00  0.99999998245E-14  0.12500000000E+03  0.12500000000E+03 0.  0.
        -13    1    3    3    0    0 -0.22808768769E+02 -0.20158489559E+02  0.26991793361E+02  0.40683813820E+02  0.10566000000E+00 0. -1.
         23    2    1    0    0    0  0.19525127972E+02  0.82655641165E+01 -0.77940466834E+01  0.10241023824E+03  0.99887734788E+02 0.  0.
         13    1    3    3    0    0  0.42333896740E+02  0.28424053676E+02 -0.34785840044E+02  0.61726424424E+02  0.10566000000E+00 0.  1.
         22    1    1    0    0    0 -0.19525127972E+02 -0.82655641165E+01  0.77940466834E+01  0.22589761756E+02  0.00000000000E+00 0.  1.
</event>
<event>
 5    1  0.2491889E-009  0.9118800E+02  0.7818608E-02  0.1130116E+00
         25   -1    0    0    0    0  0.00000000000E+00  0.00000000000E+00  0.99999998245E-14  0.12500000000E+03  0.12500000000E+03 0.  0.
        -13    1    3    3    0    0  0.15625115636E+02 -0.34654228073E+02  0.10081267424E+02  0.39328143598E+02  0.10566000000E+00 0. -1.
         23    2    1    0    0    0 -0.28255758696E+02 -0.44189634806E+01 -0.74846000301E+01  0.95437618916E+02  0.90743620872E+02 0.  0.
         13    1    3    3    0    0 -0.43880874332E+02  0.30235264592E+02 -0.17565867454E+02  0.56109475318E+02  0.10566000000E+00 0.  1.
         22    1    1    0    0    0  0.28255758696E+02  0.44189634806E+01  0.74846000301E+01  0.29562381084E+02  0.00000000000E+00 0.  1.
</event>
<event>
 5    1  0.2491889E-009  0.9118800E+02  0.7818608E-02  0.1130116E+00
         25   -1    0    0    0    0  0.00000000000E+00  0.00000000000E+00  0.99999998245E-14  0.12500000000E+03  0.12500000000E+03 0.  0.
        -13    1    3    3    0    0 -0.43777468509E+02  0.11427147980E+02 -0.54061639191E+01  0.45566261997E+02  0.10566000000E+00 0.  1.
         23    2    1    0    0    0 -0.15108252960E+01  0.20340268125E+02  0.20619517063E+02  0.95997007320E+02  0.91510938308E+02 0.  0.
         13    1    3    3    0    0  0.42266643213E+02  0.89131201457E+01  0.26025680982E+02  0.50430745323E+02  0.10566000000E+00 0. -1.
         22    1    1    0    0    0  0.15108252960E+01 -0.20340268125E+02 -0.20619517063E+02  0.29002992680E+02  0.00000000000E+00 0.  1.
</event>
<event>
 5    1  0.2491889E-009  0.9118800E+02  0.7818608E-02  0.1130116E+00
         25   -1    0    0    0    0  0.00000000000E+00  0.00000000000E+00  0.99999998245E-14  0.12500000000E+03  0.12500000000E+03 0.  0.
        -13    1    3    3    0    0  0.63829553724E+01  0.31738224606E+01 -0.35325068386E+02  0.36037298578E+02  0.10566000000E+00 0.  1.
         23    2    1    0    0    0 -0.22047181007E+01 -0.23352574097E+02  0.17476788844E+02  0.95748647089E+02  0.91171057755E+02 0.  0.
         13    1    3    3    0    0 -0.85876734731E+01 -0.26526396558E+02  0.52801857230E+02  0.59711348511E+02  0.10566000000E+00 0. -1.
         22    1    1    0    0    0  0.22047181007E+01  0.23352574097E+02 -0.17476788844E+02  0.29251352911E+02  0.00000000000E+00 0. -1.
</event>
<event>
 5    1  0.2491889E-009  0.9118800E+02  0.7818608E-02  0.1130116E+00
         25   -1    0    0    0    0  0.00000000000E+00  0.00000000000E+00  0.99999998245E-14  0.12500000000E+03  0.12500000000E+03 0.  0.
        -13    1    3    3    0    0 -0.53845359314E+02 -0.17358189898E+02  0.28604110677E+01  0.56646470249E+02  0.10566000000E+00 0.  1.
         23    2    1    0    0    0 -0.15595500457E+02 -0.19064545181E+02  0.14188086274E+02  0.96575040729E+02  0.92297129869E+02 0.  0.
         13    1    3    3    0    0  0.38249858857E+02 -0.17063552838E+01  0.11327675206E+02  0.39928570480E+02  0.10566000000E+00 0. -1.
         22    1    1    0    0    0  0.15595500457E+02  0.19064545181E+02 -0.14188086274E+02  0.28424959271E+02  0.00000000000E+00 0.  1.
</event>
<event>
 5    1  0.2491889E-009  0.9118800E+02  0.7818608E-02  0.1130116E+00
         25   -1    0    0    0    0  0.00000000000E+00  0.00000000000E+00  0.99999998245E-14  0.12500000000E+03  0.12500000000E+03 0.  0.
        -13    1    3    3    0    0  0.39470151046E+02  0.93773897416E+00 -0.24178842900E+02  0.46296865833E+02  0.10566000000E+00 0.  1.
         23    2    1    0    0    0  0.32068013306E+02 -0.29482935655E+02 -0.15110948678E+02  0.78892064217E+02  0.64015748486E+02 0.  0.
         13    1    3    3    0    0 -0.74021377400E+01 -0.30420674629E+02  0.90678942222E+01  0.32595198384E+02  0.10566000000E+00 0. -1.
         22    1    1    0    0    0 -0.32068013306E+02  0.29482935655E+02  0.15110948678E+02  0.46107935783E+02  0.00000000000E+00 0.  1.
</event>
<event>
 5    1  0.2491889E-009  0.9118800E+02  0.7818608E-02  0.1130116E+00
         25   -1    0    0    0    0  0.00000000000E+00  0.00000000000E+00  0.99999998245E-14  0.12500000000E+03  0.12500000000E+03 0.  0.
        -13    1    3    3    0    0 -0.22330421373E+02 -0.17322005959E+02 -0.28677141719E+02  0.40262752395E+02  0.10566000000E+00 0. -1.
         23    2    1    0    0    0  0.27453058391E+02 -0.54145691104E+01 -0.53679885318E+01  0.96507838367E+02  0.92206071339E+02 0.  0.
         13    1    3    3    0    0  0.49783479764E+02  0.11907436849E+02  0.23309153188E+02  0.56245085972E+02  0.10566000000E+00 0.  1.
         22    1    1    0    0    0 -0.27453058391E+02  0.54145691104E+01  0.53679885318E+01  0.28492161633E+02  0.00000000000E+00 0.  1.
</event>
<event>
 5    1  0.2491889E-009  0.9118800E+02  0.7818608E-02  0.1130116E+00
         25   -1    0    0    0    0  0.00000000000E+00  0.00000000000E+00  0.99999998245E-14  0.12500000000E+03  0.12500000000E+03 0.  0.
        -13    1    3    3    0    0  0.16054291743E+02 -0.21427094173E+02 -0.49717613972E+02  0.56468690008E+02  0.10566000000E+00 0.  1.
         23    2    1    0    0    0 -0.65781212853E+01 -0.22228335099E+02 -0.17027446256E+02  0.96237098774E+02  0.91838307332E+02 0.  0.
         13    1    3    3    0    0 -0.22632413029E+02 -0.80124092559E+00  0.32690167715E+02  0.39768408766E+02  0.10566000000E+00 0. -1.
         22    1    1    0    0    0  0.65781212853E+01  0.22228335099E+02  0.17027446256E+02  0.28762901226E+02  0.00000000000E+00 0.  1.
</event>
<event>
 5    1  0.2491889E-009  0.9118800E+02  0.7818608E-02  0.1130116E+00
         25   -1    0    0    0    0  0.00000000000E+00  0.00000000000E+00  0.99999998245E-14  0.12500000000E+03  0.12500000000E+03 0.  0.
        -13    1    3    3    0    0  0.32145836921E+02 -0.26338220647E+02 -0.16792418821E+02  0.44822463030E+02  0.10566000000E+00 0.  1.
         23    2    1    0    0    0 -0.17614105386E+02 -0.22381292046E+02 -0.59083145947E+01  0.95912423210E+02  0.91395327028E+02 0.  0.
         13    1    3    3    0    0 -0.49759942307E+02  0.39569286012E+01  0.10884104227E+02  0.51089960180E+02  0.10566000000E+00 0. -1.
         22    1    1    0    0    0  0.17614105386E+02  0.22381292046E+02  0.59083145947E+01  0.29087576790E+02  0.00000000000E+00 0.  1.
</event>
<event>
 5    1  0.2491889E-009  0.9118800E+02  0.7818608E-02  0.1130116E+00
         25   -1    0    0    0    0  0.00000000000E+00  0.00000000000E+00  0.99999998245E-14  0.12500000000E+03  0.12500000000E+03 0.  0.
        -13    1    3    3    0    0  0.16936942849E+02 -0.22762305442E+02 -0.54945436768E+01  0.28899545955E+02  0.10566000000E+00 0.  1.
         23    2    1    0    0    0  0.17711637259E+02  0.32467273283E+02 -0.15260106284E+02  0.84991291290E+02  0.74985484078E+02 0.  0.
         13    1    3    3    0    0  0.77469440960E+00  0.55229578726E+02 -0.97655626074E+01  0.56091745335E+02  0.10566000000E+00 0. -1.
         22    1    1    0    0    0 -0.17711637259E+02 -0.32467273283E+02  0.15260106284E+02  0.40008708710E+02  0.00000000000E+00 0. -1.
</event>
<event>
 5    1  0.2491889E-009  0.9118800E+02  0.7818608E-02  0.1130116E+00
         25   -1    0    0    0    0  0.00000000000E+00  0.00000000000E+00  0.99999998245E-14  0.12500000000E+03  0.12500000000E+03 0.  0.
        -13    1    3    3    0    0 -0.14134970862E+02 -0.39460923152E+02  0.11392573075E+02  0.43436893795E+02  0.10566000000E+00 0.  1.
         23    2    1    0    0    0  0.26724665005E+02 -0.80904925193E+01  0.11102941167E+02  0.94951055070E+02  0.90070881907E+02 0.  0.
         13    1    3    3    0    0  0.40859635867E+02  0.31370430632E+02 -0.28963190786E+00  0.51514161275E+02  0.10566000000E+00 0. -1.
         22    1    1    0    0    0 -0.26724665005E+02  0.80904925193E+01 -0.11102941167E+02  0.30048944930E+02  0.00000000000E+00 0. -1.
</event>
<event>
 5    1  0.2491889E-009  0.9118800E+02  0.7818608E-02  0.1130116E+00
         25   -1    0    0    0    0  0.00000000000E+00  0.00000000000E+00  0.99999998245E-14  0.12500000000E+03  0.12500000000E+03 0.  0.
        -13    1    3    3    0    0 -0.19315518958E+02  0.34872657993E+02 -0.66115366482E+00  0.39870287637E+02  0.10566000000E+00 0.  1.
         23    2    1    0    0    0 -0.22285482881E+02 -0.19067203233E+02  0.80413453359E+01  0.94588419620E+02  0.89566204034E+02 0.  0.
         13    1    3    3    0    0 -0.29699639239E+01 -0.53939861226E+02  0.87024990007E+01  0.54718131983E+02  0.10566000000E+00 0. -1.
         22    1    1    0    0    0  0.22285482881E+02  0.19067203233E+02 -0.80413453359E+01  0.30411580380E+02  0.00000000000E+00 0. -1.
</event>
<event>
 5    1  0.2491889E-009  0.9118800E+02  0.7818608E-02  0.1130116E+00
         25   -1    0    0    0    0  0.00000000000E+00  0.00000000000E+00  0.99999998245E-14  0.12500000000E+03  0.12500000000E+03 0.  0.
        -13    1    3    3    0    0 -0.38273414521E+02 -0.27014613299E+02 -0.71355304621E+01  0.47387451396E+02  0.10566000000E+00 0. -1.
         23    2    1    0    0    0 -0.21406517670E+02  0.16935023799E+02 -0.12891978565E+02  0.94813295292E+02  0.89879496121E+02 0.  0.
         13    1    3    3    0    0  0.16866896851E+02  0.43949637098E+02 -0.57564481025E+01  0.47425843896E+02  0.10566000000E+00 0.  1.
         22    1    1    0    0    0  0.21406517670E+02 -0.16935023799E+02  0.12891978565E+02  0.30186704708E+02  0.00000000000E+00 0.  1.
</event>
<event>
 5    1  0.2491889E-009  0.9118800E+02  0.7818608E-02  0.1130116E+00
         25   -1    0    0    0    0  0.00000000000E+00  0.00000000000E+00  0.99999998245E-14  0.12500000000E+03  0.12500000000E+03 0.  0.
        -13    1    3    3    0    0  0.13434830142E+02  0.11721063050E+02 -0.45322871789E+02  0.48703714963E+02  0.10566000000E+00 0.  1.
         23    2    1    0    0    0  0.69017197344E+00  0.28377388314E+02 -0.23553507515E+01  0.96516668347E+02  0.92218041005E+02 0.  0.
         13    1    3    3    0    0 -0.12744658169E+02  0.16656325265E+02  0.42967521037E+02  0.47812953384E+02  0.10566000000E+00 0. -1.
         22    1    1    0    0    0 -0.69017197344E+00 -0.28377388314E+02  0.23553507515E+01  0.28483331653E+02  0.00000000000E+00 0. -1.
</event>
<event>
 5    1  0.2491889E-009  0.9118800E+02  0.7818608E-02  0.1130116E+00
         25   -1    0    0    0    0  0.00000000000E+00  0.00000000000E+00  0.99999998245E-14  0.12500000000E+03  0.12500000000E+03 0.  0.
        -13    1    3    3    0    0 -0.10166064163E+02 -0.42364683396E+02  0.43532180792E+02  0.61588774857E+02  0.10566000000E+00 0. -1.
         23    2    1    0    0    0  0.63848923713E+00 -0.15607601263E+02  0.23744892111E+02  0.96577741345E+02  0.92300787300E+02 0.  0.
         13    1    3    3    0    0  0.10804553400E+02  0.26757082134E+02 -0.19787288681E+02  0.34988966488E+02  0.10566000000E+00 0.  1.
         22    1    1    0    0    0 -0.63848923713E+00  0.15607601263E+02 -0.23744892111E+02  0.28422258655E+02  0.00000000000E+00 0. -1.
</event>
<event>
 5    1  0.2491889E-009  0.9118800E+02  0.7818608E-02  0.1130116E+00
         25   -1    0    0    0    0  0.00000000000E+00  0.00000000000E+00  0.99999998245E-14  0.12500000000E+03  0.12500000000E+03 0.  0.
        -13    1    3    3    0    0 -0.29748208792E+02  0.16632648781E+02  0.51965493256E+02  0.62145189558E+02  0.10566000000E+00 0.  1.
         23    2    1    0    0    0 -0.97550960577E+01  0.10563129582E+02  0.19042261932E+02  0.10113895758E+03  0.98283973241E+02 0.  0.
         13    1    3    3    0    0  0.19993112734E+02 -0.60695191987E+01 -0.32923231323E+02  0.38993768027E+02  0.10566000000E+00 0. -1.
         22    1    1    0    0    0  0.97550960577E+01 -0.10563129582E+02 -0.19042261932E+02  0.23861042416E+02  0.00000000000E+00 0.  1.
</event>
<event>
 5    1  0.2491889E-009  0.9118800E+02  0.7818608E-02  0.1130116E+00
         25   -1    0    0    0    0  0.00000000000E+00  0.00000000000E+00  0.99999998245E-14  0.12500000000E+03  0.12500000000E+03 0.  0.
        -13    1    3    3    0    0 -0.22266232435E+02  0.24631471043E+02 -0.10783507376E+02  0.34911168241E+02  0.10566000000E+00 0. -1.
         23    2    1    0    0    0  0.26347573260E+02 -0.11621696072E+02 -0.32722611782E+01  0.96017830835E+02  0.91539377914E+02 0.  0.
         13    1    3    3    0    0  0.48613805694E+02 -0.36253167115E+02  0.75112461981E+01  0.61106662595E+02  0.10566000000E+00 0.  1.
         22    1    1    0    0    0 -0.26347573260E+02  0.11621696072E+02  0.32722611782E+01  0.28982169165E+02  0.00000000000E+00 0.  1.
</event>
<event>
 5    1  0.2491889E-009  0.9118800E+02  0.7818608E-02  0.1130116E+00
         25   -1    0    0    0    0  0.00000000000E+00  0.00000000000E+00  0.99999998245E-14  0.12500000000E+03  0.12500000000E+03 0.  0.
        -13    1    3    3    0    0 -0.84914585217E+01  0.30485048759E+02 -0.19364633402E+02  0.37100448198E+02  0.10566000000E+00 0. -1.
         23    2    1    0    0    0 -0.87314635840E+01 -0.26914733101E+02 -0.77212628443E+01  0.95669824172E+02  0.91062923536E+02 0.  0.
         13    1    3    3    0    0 -0.24000506228E+00 -0.57399781860E+02  0.11643370558E+02  0.58569375974E+02  0.10566000000E+00 0.  1.
         22    1    1    0    0    0  0.87314635840E+01  0.26914733101E+02  0.77212628443E+01  0.29330175828E+02  0.00000000000E+00 0.  1.
</event>
<event>
 5    1  0.2491889E-009  0.9118800E+02  0.7818608E-02  0.1130116E+00
         25   -1    0    0    0    0  0.00000000000E+00  0.00000000000E+00  0.99999998245E-14  0.12500000000E+03  0.12500000000E+03 0.  0.
        -13    1    3    3    0    0 -0.19491257198E+02  0.20232571594E+02  0.32287058368E+02  0.42798730852E+02  0.10566000000E+00 0. -1.
         23    2    1    0    0    0 -0.26779887630E+02 -0.74073347829E+01 -0.11367315724E+02  0.94979226245E+02  0.90109969267E+02 0.  0.
         13    1    3    3    0    0 -0.72886304325E+01 -0.27639906377E+02 -0.43654374092E+02  0.52180495393E+02  0.10566000000E+00 0.  1.
         22    1    1    0    0    0  0.26779887630E+02  0.74073347829E+01  0.11367315724E+02  0.30020773755E+02  0.00000000000E+00 0.  1.
</event>
<event>
 5    1  0.2491889E-009  0.9118800E+02  0.7818608E-02  0.1130116E+00
         25   -1    0    0    0    0  0.00000000000E+00  0.00000000000E+00  0.99999998245E-14  0.12500000000E+03  0.12500000000E+03 0.  0.
        -13    1    3    3    0    0  0.11336504857E+02  0.39652768385E+02 -0.31882498324E+02  0.52128334391E+02  0.10566000000E+00 0.  1.
         23    2    1    0    0    0  0.27561747725E+02  0.95413558243E+01 -0.55145417355E+01  0.95316712123E+02  0.90576917760E+02 0.  0.
         13    1    3    3    0    0  0.16225242868E+02 -0.30111412560E+02  0.26367956588E+02  0.43188377733E+02  0.10566000000E+00 0. -1.
         22    1    1    0    0    0 -0.27561747725E+02 -0.95413558243E+01  0.55145417355E+01  0.29683287877E+02  0.00000000000E+00 0.  1.
</event>
<event>
 5    1  0.2491889E-009  0.9118800E+02  0.7818608E-02  0.1130116E+00
         25   -1    0    0    0    0  0.00000000000E+00  0.00000000000E+00  0.99999998245E-14  0.12500000000E+03  0.12500000000E+03 0.  0.
        -13    1    3    3    0    0  0.25811051585E+02 -0.19050478788E+02 -0.17686374709E+02  0.36632637638E+02  0.10566000000E+00 0.  1.
         23    2    1    0    0    0 -0.21448455609E+02 -0.83035237521E+01  0.17141941699E+02  0.96314970456E+02  0.91944236437E+02 0.  0.
         13    1    3    3    0    0 -0.47259507194E+02  0.10746955036E+02  0.34828316407E+02  0.59682332818E+02  0.10566000000E+00 0. -1.
         22    1    1    0    0    0  0.21448455609E+02  0.83035237521E+01 -0.17141941699E+02  0.28685029544E+02  0.00000000000E+00 0. -1.
</event>
<event>
 5    1  0.2491889E-009  0.9118800E+02  0.7818608E-02  0.1130116E+00
         25   -1    0    0    0    0  0.00000000000E+00  0.00000000000E+00  0.99999998245E-14  0.12500000000E+03  0.12500000000E+03 0.  0.
        -13    1    3    3    0    0  0.28818495080E+02 -0.63616581511E+01 -0.42648964946E+02  0.51864455344E+02  0.10566000000E+00 0.  1.
         23    2    1    0    0    0  0.17225485392E+02  0.20859721435E+02 -0.31487914285E+02  0.83486940954E+02  0.72434351232E+02 0.  0.
         13    1    3    3    0    0 -0.11593009688E+02  0.27221379587E+02  0.11161050661E+02  0.31622485609E+02  0.10566000000E+00 0. -1.
         22    1    1    0    0    0 -0.17225485392E+02 -0.20859721435E+02  0.31487914285E+02  0.41513059046E+02  0.00000000000E+00 0.  1.
</event>
<event>
 5    1  0.2491889E-009  0.9118800E+02  0.7818608E-02  0.1130116E+00
         25   -1    0    0    0    0  0.00000000000E+00  0.00000000000E+00  0.99999998245E-14  0.12500000000E+03  0.12500000000E+03 0.  0.
        -13    1    3    3    0    0 -0.28958803457E+02  0.30478357254E+02  0.12120313239E+02  0.43754493662E+02  0.10566000000E+00 0.  1.
         23    2    1    0    0    0  0.16266073130E+01  0.14868716847E+02 -0.25965315060E+02  0.95034650375E+02  0.90186820510E+02 0.  0.
         13    1    3    3    0    0  0.30585410770E+02 -0.15609640408E+02 -0.38085628298E+02  0.51280156713E+02  0.10566000000E+00 0. -1.
         22    1    1    0    0    0 -0.16266073130E+01 -0.14868716847E+02  0.25965315060E+02  0.29965349625E+02  0.00000000000E+00 0. -1.
</event>
<event>
 5    1  0.2491889E-009  0.9118800E+02  0.7818608E-02  0.1130116E+00
         25   -1    0    0    0    0  0.00000000000E+00  0.00000000000E+00  0.99999998245E-14  0.12500000000E+03  0.12500000000E+03 0.  0.
        -13    1    3    3    0    0  0.29308047291E+02  0.18115795571E+01  0.16390967857E+02  0.33629130940E+02  0.10566000000E+00 0.  1.
         23    2    1    0    0    0 -0.19091941772E+02 -0.19019315220E+02 -0.14180499508E+02  0.94548018811E+02  0.89509802271E+02 0.  0.
         13    1    3    3    0    0 -0.48399989063E+02 -0.20830894777E+02 -0.30571467364E+02  0.60918887870E+02  0.10566000000E+00 0. -1.
         22    1    1    0    0    0  0.19091941772E+02  0.19019315220E+02  0.14180499508E+02  0.30451981189E+02  0.00000000000E+00 0. -1.
</event>
<event>
 5    1  0.2491889E-009  0.9118800E+02  0.7818608E-02  0.1130116E+00
         25   -1    0    0    0    0  0.00000000000E+00  0.00000000000E+00  0.99999998245E-14  0.12500000000E+03  0.12500000000E+03 0.  0.
        -13    1    3    3    0    0  0.11719365323E+02  0.31081350480E+02 -0.30601496083E+01  0.33358200655E+02  0.10566000000E+00 0.  1.
         23    2    1    0    0    0 -0.11125213688E+02 -0.25845472529E+02  0.81314258407E+01  0.95710429910E+02  0.91118645060E+02 0.  0.
         13    1    3    3    0    0 -0.22844579011E+02 -0.56926823009E+02  0.11191575449E+02  0.62352229256E+02  0.10566000000E+00 0. -1.
         22    1    1    0    0    0  0.11125213688E+02  0.25845472529E+02 -0.81314258407E+01  0.29289570090E+02  0.00000000000E+00 0. -1.
</event>
<event>
 5    1  0.2491889E-009  0.9118800E+02  0.7818608E-02  0.1130116E+00
         25   -1    0    0    0    0  0.00000000000E+00  0.00000000000E+00  0.99999998245E-14  0.12500000000E+03  0.12500000000E+03 0.  0.
        -13    1    3    3    0    0 -0.33212572557E+02  0.20455607070E+02  0.38665519452E+02  0.54923040656E+02  0.10566000000E+00 0. -1.
         23    2    1    0    0    0  0.34383464502E+00  0.18831223840E+01  0.30882608340E+02  0.94058121097E+02  0.88823027838E+02 0.  0.
         13    1    3    3    0    0  0.33556407202E+02 -0.18572484686E+02 -0.77829111122E+01  0.39135080441E+02  0.10566000000E+00 0.  1.
         22    1    1    0    0    0 -0.34383464502E+00 -0.18831223840E+01 -0.30882608340E+02  0.30941878903E+02  0.00000000000E+00 0. -1.
</event>
<event>
 5    1  0.2491889E-009  0.9118800E+02  0.7818608E-02  0.1130116E+00
         25   -1    0    0    0    0  0.00000000000E+00  0.00000000000E+00  0.99999998245E-14  0.12500000000E+03  0.12500000000E+03 0.  0.
        -13    1    3    3    0    0 -0.26274156212E+01 -0.50467811960E+02  0.16941300772E+02  0.53300301995E+02  0.10566000000E+00 0.  1.
         23    2    1    0    0    0  0.19708657867E+02 -0.22277074283E+02 -0.41075377719E+01  0.94973826416E+02  0.90102478346E+02 0.  0.
         13    1    3    3    0    0  0.22336073488E+02  0.28190737676E+02 -0.21048838544E+02  0.41673524421E+02  0.10566000000E+00 0. -1.
         22    1    1    0    0    0 -0.19708657867E+02  0.22277074283E+02  0.41075377719E+01  0.30026173584E+02  0.00000000000E+00 0.  1.
</event>
<event>
 5    1  0.2491889E-009  0.9118800E+02  0.7818608E-02  0.1130116E+00
         25   -1    0    0    0    0  0.00000000000E+00  0.00000000000E+00  0.99999998245E-14  0.12500000000E+03  0.12500000000E+03 0.  0.
        -13    1    3    3    0    0 -0.20795803724E+02 -0.90493190932E+01 -0.28705688067E+02  0.36583921605E+02  0.10566000000E+00 0. -1.
         23    2    1    0    0    0  0.11079779972E+02  0.22934408282E+02  0.11508199726E+02  0.97050272481E+02  0.92938517958E+02 0.  0.
         13    1    3    3    0    0  0.31875583696E+02  0.31983727375E+02  0.40213887793E+02  0.60466350876E+02  0.10566000000E+00 0.  1.
         22    1    1    0    0    0 -0.11079779972E+02 -0.22934408282E+02 -0.11508199726E+02  0.27949727519E+02  0.00000000000E+00 0.  1.
</event>
<event>
 5    1  0.2491889E-009  0.9118800E+02  0.7818608E-02  0.1130116E+00
         25   -1    0    0    0    0  0.00000000000E+00  0.00000000000E+00  0.99999998245E-14  0.12500000000E+03  0.12500000000E+03 0.  0.
        -13    1    3    3    0    0  0.11192219035E+02  0.23437243739E+02 -0.10680223622E+02  0.28082886278E+02  0.10566000000E+00 0.  1.
         23    2    1    0    0    0  0.12355703615E+02  0.40428081806E+00  0.39661824549E+02  0.83456201650E+02  0.72381284960E+02 0.  0.
         13    1    3    3    0    0  0.11634845798E+01 -0.23032962921E+02  0.50342048171E+02  0.55373315373E+02  0.10566000000E+00 0. -1.
         22    1    1    0    0    0 -0.12355703615E+02 -0.40428081806E+00 -0.39661824549E+02  0.41543798350E+02  0.00000000000E+00 0. -1.
</event>
<event>
 5    1  0.2491889E-009  0.9118800E+02  0.7818608E-02  0.1130116E+00
         25   -1    0    0    0    0  0.00000000000E+00  0.00000000000E+00  0.99999998245E-14  0.12500000000E+03  0.12500000000E+03 0.  0.
        -13    1    3    3    0    0  0.87154865543E-01 -0.19301188307E+02 -0.38263211839E+02  0.42855898198E+02  0.10566000000E+00 0. -1.
         23    2    1    0    0    0  0.10444517690E+02  0.24972843581E+02 -0.11749496162E+02  0.95490992454E+02  0.90817113549E+02 0.  0.
         13    1    3    3    0    0  0.10357362825E+02  0.44274031888E+02  0.26513715677E+02  0.52635094256E+02  0.10566000000E+00 0.  1.
         22    1    1    0    0    0 -0.10444517690E+02 -0.24972843581E+02  0.11749496162E+02  0.29509007546E+02  0.00000000000E+00 0.  1.
</event>
<event>
 5    1  0.2491889E-009  0.9118800E+02  0.7818608E-02  0.1130116E+00
         25   -1    0    0    0    0  0.00000000000E+00  0.00000000000E+00  0.99999998245E-14  0.12500000000E+03  0.12500000000E+03 0.  0.
        -13    1    3    3    0    0  0.28302253115E+02  0.46075236806E+02  0.30630594261E+02  0.62146515968E+02  0.10566000000E+00 0.  1.
         23    2    1    0    0    0  0.16480908352E+02  0.17931527793E+02  0.13970786043E+02  0.96922555462E+02  0.92766582698E+02 0.  0.
         13    1    3    3    0    0 -0.11821344763E+02 -0.28143709013E+02 -0.16659808218E+02  0.34776039494E+02  0.10566000000E+00 0. -1.
         22    1    1    0    0    0 -0.16480908352E+02 -0.17931527793E+02 -0.13970786043E+02  0.28077444538E+02  0.00000000000E+00 0.  1.
</event>
<event>
 5    1  0.2491889E-009  0.9118800E+02  0.7818608E-02  0.1130116E+00
         25   -1    0    0    0    0  0.00000000000E+00  0.00000000000E+00  0.99999998245E-14  0.12500000000E+03  0.12500000000E+03 0.  0.
        -13    1    3    3    0    0  0.24690087431E+02 -0.18636185101E+02  0.15506985212E+02  0.34603259483E+02  0.10566000000E+00 0.  1.
         23    2    1    0    0    0 -0.77349625501E+01  0.17026861417E+02 -0.22324787366E+02  0.95877160401E+02  0.91347085888E+02 0.  0.
         13    1    3    3    0    0 -0.32425049981E+02  0.35663046519E+02 -0.37831772578E+02  0.61273900918E+02  0.10566000000E+00 0. -1.
         22    1    1    0    0    0  0.77349625501E+01 -0.17026861417E+02  0.22324787366E+02  0.29122839599E+02  0.00000000000E+00 0. -1.
</event>
<event>
 5    1  0.2491889E-009  0.9118800E+02  0.7818608E-02  0.1130116E+00
         25   -1    0    0    0    0  0.00000000000E+00  0.00000000000E+00  0.99999998245E-14  0.12500000000E+03  0.12500000000E+03 0.  0.
        -13    1    3    3    0    0  0.13118370393E+02  0.84917882747E+01 -0.32740478647E+02  0.36278812218E+02  0.10566000000E+00 0. -1.
         23    2    1    0    0    0  0.98820794319E+01 -0.16320142731E+02  0.21646390000E+02  0.96145732505E+02  0.91713865507E+02 0.  0.
         13    1    3    3    0    0 -0.32362909614E+01 -0.24811931006E+02  0.54386868647E+02  0.59866920287E+02  0.10566000000E+00 0.  1.
         22    1    1    0    0    0 -0.98820794319E+01  0.16320142731E+02 -0.21646390000E+02  0.28854267495E+02  0.00000000000E+00 0.  1.
</event>
<event>
 5    1  0.2491889E-009  0.9118800E+02  0.7818608E-02  0.1130116E+00
         25   -1    0    0    0    0  0.00000000000E+00  0.00000000000E+00  0.99999998245E-14  0.12500000000E+03  0.12500000000E+03 0.  0.
        -13    1    3    3    0    0  0.15697693037E+02 -0.41687686067E+02  0.27145231350E+02  0.52164695776E+02  0.10566000000E+00 0. -1.
         23    2    1    0    0    0  0.16530346974E+02  0.14979534136E+01  0.24457675236E+02  0.95442021154E+02  0.90749684785E+02 0.  0.
         13    1    3    3    0    0  0.83265393672E+00  0.43185639481E+02 -0.26875561139E+01  0.43277325378E+02  0.10566000000E+00 0.  1.
         22    1    1    0    0    0 -0.16530346974E+02 -0.14979534136E+01 -0.24457675236E+02  0.29557978846E+02  0.00000000000E+00 0. -1.
</event>
<event>
 5    1  0.2491889E-009  0.9118800E+02  0.7818608E-02  0.1130116E+00
         25   -1    0    0    0    0  0.00000000000E+00  0.00000000000E+00  0.99999998245E-14  0.12500000000E+03  0.12500000000E+03 0.  0.
        -13    1    3    3    0    0  0.20849722548E+02 -0.30995520614E+02 -0.14599898383E+01  0.37384167275E+02  0.10566000000E+00 0.  1.
         23    2    1    0    0    0 -0.26121092421E+02  0.62627718940E+01 -0.58868816199E+01  0.97501106272E+02  0.93542912975E+02 0.  0.
         13    1    3    3    0    0 -0.46970814969E+02  0.37258292508E+02 -0.44268917816E+01  0.60116938997E+02  0.10566000000E+00 0. -1.
         22    1    1    0    0    0  0.26121092421E+02 -0.62627718940E+01  0.58868816199E+01  0.27498893728E+02  0.00000000000E+00 0. -1.
</event>
<event>
 5    1  0.2491889E-009  0.9118800E+02  0.7818608E-02  0.1130116E+00
         25   -1    0    0    0    0  0.00000000000E+00  0.00000000000E+00  0.99999998245E-14  0.12500000000E+03  0.12500000000E+03 0.  0.
        -13    1    3    3    0    0 -0.18353814393E+02 -0.86799910575E+01 -0.28972381862E+02  0.35378168724E+02  0.10566000000E+00 0. -1.
         23    2    1    0    0    0  0.26397813477E+02 -0.21414998722E+02  0.14627092500E+01  0.90976680865E+02  0.84375175355E+02 0.  0.
         13    1    3    3    0    0  0.44751627870E+02 -0.12735007664E+02  0.30435091112E+02  0.55598512140E+02  0.10566000000E+00 0.  1.
         22    1    1    0    0    0 -0.26397813477E+02  0.21414998722E+02 -0.14627092500E+01  0.34023319135E+02  0.00000000000E+00 0.  1.
</event>
<event>
 5    1  0.2491889E-009  0.9118800E+02  0.7818608E-02  0.1130116E+00
         25   -1    0    0    0    0  0.00000000000E+00  0.00000000000E+00  0.99999998245E-14  0.12500000000E+03  0.12500000000E+03 0.  0.
        -13    1    3    3    0    0  0.35900435980E+02 -0.30664017634E+02  0.26619017112E+02  0.54200613623E+02  0.10566000000E+00 0.  1.
         23    2    1    0    0    0 -0.20731349714E+01 -0.27311425499E+02  0.92735108881E+01  0.96082706634E+02  0.91627925102E+02 0.  0.
         13    1    3    3    0    0 -0.37973570952E+02  0.33525921346E+01 -0.17345506224E+02  0.41882093012E+02  0.10566000000E+00 0. -1.
         22    1    1    0    0    0  0.20731349714E+01  0.27311425499E+02 -0.92735108881E+01  0.28917293366E+02  0.00000000000E+00 0. -1.
</event>
<event>
 5    1  0.2491889E-009  0.9118800E+02  0.7818608E-02  0.1130116E+00
         25   -1    0    0    0    0  0.00000000000E+00  0.00000000000E+00  0.99999998245E-14  0.12500000000E+03  0.12500000000E+03 0.  0.
        -13    1    3    3    0    0 -0.23554066441E+02  0.53545425519E+02 -0.19941406338E+02  0.61802730447E+02  0.10566000000E+00 0.  1.
         23    2    1    0    0    0 -0.18355170491E+02  0.26124314205E+02 -0.12719274450E+02  0.90631816764E+02  0.83862710372E+02 0.  0.
         13    1    3    3    0    0  0.51988959502E+01 -0.27421111314E+02  0.72221318880E+01  0.28829086317E+02  0.10566000000E+00 0. -1.
         22    1    1    0    0    0  0.18355170491E+02 -0.26124314205E+02  0.12719274450E+02  0.34368183236E+02  0.00000000000E+00 0.  1.
</event>
<event>
 5    1  0.2491889E-009  0.9118800E+02  0.7818608E-02  0.1130116E+00
         25   -1    0    0    0    0  0.00000000000E+00  0.00000000000E+00  0.99999998245E-14  0.12500000000E+03  0.12500000000E+03 0.  0.
        -13    1    3    3    0    0 -0.38270475205E+02 -0.50746889525E+00 -0.27786560521E+02  0.47296838231E+02  0.10566000000E+00 0. -1.
         23    2    1    0    0    0  0.10249907040E+02  0.15350011167E+02 -0.17893647399E+02  0.99292684808E+02  0.95907096723E+02 0.  0.
         13    1    3    3    0    0  0.48520382245E+02  0.15857480062E+02  0.98929131212E+01  0.51995846576E+02  0.10566000000E+00 0.  1.
         22    1    1    0    0    0 -0.10249907040E+02 -0.15350011167E+02  0.17893647399E+02  0.25707315192E+02  0.00000000000E+00 0.  1.
</event>
<event>
 5    1  0.2491889E-009  0.9118800E+02  0.7818608E-02  0.1130116E+00
         25   -1    0    0    0    0  0.00000000000E+00  0.00000000000E+00  0.99999998245E-14  0.12500000000E+03  0.12500000000E+03 0.  0.
        -13    1    3    3    0    0 -0.64421023964E+01 -0.49956030990E+02  0.20941020147E+02  0.54549456500E+02  0.10566000000E+00 0.  1.
         23    2    1    0    0    0  0.84329361801E+01 -0.13299914322E+02  0.26174133980E+02  0.94453520282E+02  0.89377738114E+02 0.  0.
         13    1    3    3    0    0  0.14875038577E+02  0.36656116669E+02  0.52331138327E+01  0.39904063782E+02  0.10566000000E+00 0. -1.
         22    1    1    0    0    0 -0.84329361801E+01  0.13299914322E+02 -0.26174133980E+02  0.30546479718E+02  0.00000000000E+00 0. -1.
</event>
<event>
 5    1  0.2491889E-009  0.9118800E+02  0.7818608E-02  0.1130116E+00
         25   -1    0    0    0    0  0.00000000000E+00  0.00000000000E+00  0.99999998245E-14  0.12500000000E+03  0.12500000000E+03 0.  0.
        -13    1    3    3    0    0  0.14585387589E+02 -0.12159310651E+02 -0.49006617103E+02  0.52557036166E+02  0.10566000000E+00 0.  1.
         23    2    1    0    0    0 -0.39688644242E+01 -0.25300377568E+02 -0.10404775623E+02  0.97357273187E+02  0.93350513104E+02 0.  0.
         13    1    3    3    0    0 -0.18554252013E+02 -0.13141066916E+02  0.38601841480E+02  0.44800237021E+02  0.10566000000E+00 0. -1.
         22    1    1    0    0    0  0.39688644242E+01  0.25300377568E+02  0.10404775623E+02  0.27642726813E+02  0.00000000000E+00 0. -1.
</event>
<event>
 5    1  0.2491889E-009  0.9118800E+02  0.7818608E-02  0.1130116E+00
         25   -1    0    0    0    0  0.00000000000E+00  0.00000000000E+00  0.99999998245E-14  0.12500000000E+03  0.12500000000E+03 0.  0.
        -13    1    3    3    0    0  0.93089459606E+01  0.25716981710E+02 -0.50945436585E+02  0.57822731655E+02  0.10566000000E+00 0.  1.
         23    2    1    0    0    0  0.12304985157E+02 -0.27671149413E+01 -0.27166192278E+02  0.95048846639E+02  0.90206494554E+02 0.  0.
         13    1    3    3    0    0  0.29960391964E+01 -0.28484096651E+02  0.23779244308E+02  0.37226114984E+02  0.10566000000E+00 0. -1.
         22    1    1    0    0    0 -0.12304985157E+02  0.27671149413E+01  0.27166192278E+02  0.29951153361E+02  0.00000000000E+00 0.  1.
</event>
<event>
 5    1  0.2491889E-009  0.9118800E+02  0.7818608E-02  0.1130116E+00
         25   -1    0    0    0    0  0.00000000000E+00  0.00000000000E+00  0.99999998245E-14  0.12500000000E+03  0.12500000000E+03 0.  0.
        -13    1    3    3    0    0 -0.54264106984E+02  0.13900755279E+02  0.25130872331E+02  0.61395408723E+02  0.10566000000E+00 0.  1.
         23    2    1    0    0    0 -0.27377070157E+02  0.86705146210E+01  0.39675308623E+01  0.96009948339E+02  0.91528613476E+02 0.  0.
         13    1    3    3    0    0  0.26887036827E+02 -0.52302406577E+01 -0.21163341469E+02  0.34614539616E+02  0.10566000000E+00 0. -1.
         22    1    1    0    0    0  0.27377070157E+02 -0.86705146210E+01 -0.39675308623E+01  0.28990051661E+02  0.00000000000E+00 0.  1.
</event>
<event>
 5    1  0.2491889E-009  0.9118800E+02  0.7818608E-02  0.1130116E+00
         25   -1    0    0    0    0  0.00000000000E+00  0.00000000000E+00  0.99999998245E-14  0.12500000000E+03  0.12500000000E+03 0.  0.
        -13    1    3    3    0    0  0.24104783062E+02  0.45554124026E+02 -0.33118827688E+02  0.61262441134E+02  0.10566000000E+00 0.  1.
         23    2    1    0    0    0  0.18261195425E+02  0.15839664492E+02 -0.14659556298E+02  0.96728657258E+02  0.92504942109E+02 0.  0.
         13    1    3    3    0    0 -0.58435876370E+01 -0.29714459534E+02  0.18459271390E+02  0.35466216124E+02  0.10566000000E+00 0. -1.
         22    1    1    0    0    0 -0.18261195425E+02 -0.15839664492E+02  0.14659556298E+02  0.28271342742E+02  0.00000000000E+00 0.  1.
</event>
<event>
 5    1  0.2491889E-009  0.9118800E+02  0.7818608E-02  0.1130116E+00
         25   -1    0    0    0    0  0.00000000000E+00  0.00000000000E+00  0.99999998245E-14  0.12500000000E+03  0.12500000000E+03 0.  0.
        -13    1    3    3    0    0 -0.24148316709E+01  0.28879744733E+02  0.49576993203E+02  0.57426130698E+02  0.10566000000E+00 0.  1.
         23    2    1    0    0    0 -0.57985097577E+01 -0.24202596707E+01  0.29664362259E+02  0.94677487563E+02  0.89690422513E+02 0.  0.
         13    1    3    3    0    0 -0.33836780867E+01 -0.31300004404E+02 -0.19912630944E+02  0.37251356864E+02  0.10566000000E+00 0. -1.
         22    1    1    0    0    0  0.57985097577E+01  0.24202596707E+01 -0.29664362259E+02  0.30322512437E+02  0.00000000000E+00 0.  1.
</event>
<event>
 5    1  0.2491889E-009  0.9118800E+02  0.7818608E-02  0.1130116E+00
         25   -1    0    0    0    0  0.00000000000E+00  0.00000000000E+00  0.99999998245E-14  0.12500000000E+03  0.12500000000E+03 0.  0.
        -13    1    3    3    0    0 -0.41914777440E+01 -0.50217017878E+02  0.18134336474E+02  0.53555417034E+02  0.10566000000E+00 0.  1.
         23    2    1    0    0    0 -0.22302910112E+02 -0.15785830795E+02 -0.24436776081E+01  0.97566738918E+02  0.93630575825E+02 0.  0.
         13    1    3    3    0    0 -0.18111432368E+02  0.34431187083E+02 -0.20578014082E+02  0.44011321884E+02  0.10566000000E+00 0. -1.
         22    1    1    0    0    0  0.22302910112E+02  0.15785830795E+02  0.24436776081E+01  0.27433261082E+02  0.00000000000E+00 0.  1.
</event>
<event>
 5    1  0.2491889E-009  0.9118800E+02  0.7818608E-02  0.1130116E+00
         25   -1    0    0    0    0  0.00000000000E+00  0.00000000000E+00  0.99999998245E-14  0.12500000000E+03  0.12500000000E+03 0.  0.
        -13    1    3    3    0    0 -0.16498603632E+02  0.49034352481E+02 -0.31690435151E+02  0.60670144957E+02  0.10566000000E+00 0. -1.
         23    2    1    0    0    0 -0.16700022193E+02  0.21207273496E+02 -0.90973117770E+01  0.96514911411E+02  0.92215659476E+02 0.  0.
         13    1    3    3    0    0 -0.20141856095E+00 -0.27827078985E+02  0.22593123374E+02  0.35844766453E+02  0.10566000000E+00 0.  1.
         22    1    1    0    0    0  0.16700022193E+02 -0.21207273496E+02  0.90973117770E+01  0.28485088589E+02  0.00000000000E+00 0. -1.
</event>
<event>
 5    1  0.2491889E-009  0.9118800E+02  0.7818608E-02  0.1130116E+00
         25   -1    0    0    0    0  0.00000000000E+00  0.00000000000E+00  0.99999998245E-14  0.12500000000E+03  0.12500000000E+03 0.  0.
        -13    1    3    3    0    0  0.12984926700E+01  0.55121421597E+02 -0.20898404084E+02  0.58964494905E+02  0.10566000000E+00 0. -1.
         23    2    1    0    0    0  0.30269923012E+01  0.28143062873E+02  0.48311646131E+01  0.96285285622E+02  0.91903870460E+02 0.  0.
         13    1    3    3    0    0  0.17284996312E+01 -0.26978358724E+02  0.25729568697E+02  0.37320790717E+02  0.10566000000E+00 0.  1.
         22    1    1    0    0    0 -0.30269923012E+01 -0.28143062873E+02 -0.48311646131E+01  0.28714714378E+02  0.00000000000E+00 0. -1.
</event>
<event>
 5    1  0.2491889E-009  0.9118800E+02  0.7818608E-02  0.1130116E+00
         25   -1    0    0    0    0  0.00000000000E+00  0.00000000000E+00  0.99999998245E-14  0.12500000000E+03  0.12500000000E+03 0.  0.
        -13    1    3    3    0    0  0.47284260524E+02  0.26445305994E+02 -0.31142334201E+02  0.62490092382E+02  0.10566000000E+00 0.  1.
         23    2    1    0    0    0  0.21988344118E+02  0.13174859196E+02 -0.14924636317E+02  0.95338426187E+02  0.90606879136E+02 0.  0.
         13    1    3    3    0    0 -0.25295916406E+02 -0.13270446798E+02  0.16217697885E+02  0.32848333805E+02  0.10566000000E+00 0. -1.
         22    1    1    0    0    0 -0.21988344118E+02 -0.13174859196E+02  0.14924636317E+02  0.29661573813E+02  0.00000000000E+00 0.  1.
</event>
<event>
 5    1  0.2491889E-009  0.9118800E+02  0.7818608E-02  0.1130116E+00
         25   -1    0    0    0    0  0.00000000000E+00  0.00000000000E+00  0.99999998245E-14  0.12500000000E+03  0.12500000000E+03 0.  0.
        -13    1    3    3    0    0  0.15291247502E+02  0.38658638740E+02  0.32939967192E+02  0.53041165165E+02  0.10566000000E+00 0.  1.
         23    2    1    0    0    0 -0.90702523518E+01  0.28132468543E+02 -0.12769699690E+00  0.95441218385E+02  0.90748579031E+02 0.  0.
         13    1    3    3    0    0 -0.24361499854E+02 -0.10526170197E+02 -0.33067664189E+02  0.42400053220E+02  0.10566000000E+00 0. -1.
         22    1    1    0    0    0  0.90702523518E+01 -0.28132468543E+02  0.12769699690E+00  0.29558781615E+02  0.00000000000E+00 0.  1.
</event>
<event>
 5    1  0.2491889E-009  0.9118800E+02  0.7818608E-02  0.1130116E+00
         25   -1    0    0    0    0  0.00000000000E+00  0.00000000000E+00  0.99999998245E-14  0.12500000000E+03  0.12500000000E+03 0.  0.
        -13    1    3    3    0    0 -0.18909287379E+02  0.25196788487E+02 -0.34332582399E+02  0.46595886916E+02  0.10566000000E+00 0.  1.
         23    2    1    0    0    0 -0.27976943189E+02  0.67094134967E+01  0.92344580155E+01  0.94784096993E+02  0.89838879380E+02 0.  0.
         13    1    3    3    0    0 -0.90676558101E+01 -0.18487374990E+02  0.43567040415E+02  0.48188210077E+02  0.10566000000E+00 0. -1.
         22    1    1    0    0    0  0.27976943189E+02 -0.67094134967E+01 -0.92344580155E+01  0.30215903007E+02  0.00000000000E+00 0. -1.
</event>
<event>
 5    1  0.2491889E-009  0.9118800E+02  0.7818608E-02  0.1130116E+00
         25   -1    0    0    0    0  0.00000000000E+00  0.00000000000E+00  0.99999998245E-14  0.12500000000E+03  0.12500000000E+03 0.  0.
        -13    1    3    3    0    0  0.53422296840E+01 -0.98914599477E+01  0.52340422735E+02  0.53534207886E+02  0.10566000000E+00 0.  1.
         23    2    1    0    0    0 -0.10523750428E+02 -0.23647425835E+02  0.19178766209E+02  0.92785482388E+02  0.87013623053E+02 0.  0.
         13    1    3    3    0    0 -0.15865980112E+02 -0.13755965887E+02 -0.33161656526E+02  0.39251274501E+02  0.10566000000E+00 0. -1.
         22    1    1    0    0    0  0.10523750428E+02  0.23647425835E+02 -0.19178766209E+02  0.32214517612E+02  0.00000000000E+00 0.  1.
</event>
<event>
 5    1  0.2491889E-009  0.9118800E+02  0.7818608E-02  0.1130116E+00
         25   -1    0    0    0    0  0.00000000000E+00  0.00000000000E+00  0.99999998245E-14  0.12500000000E+03  0.12500000000E+03 0.  0.
        -13    1    3    3    0    0  0.40606248295E+02  0.17928753300E+01 -0.32587602612E+02  0.52096495185E+02  0.10566000000E+00 0. -1.
         23    2    1    0    0    0  0.27088484164E+00  0.20359960191E+02 -0.14299072009E+02  0.10011898680E+03  0.96978073294E+02 0.  0.
         13    1    3    3    0    0 -0.40335363454E+02  0.18567084861E+02  0.18288530602E+02  0.48022491614E+02  0.10566000000E+00 0.  1.
         22    1    1    0    0    0 -0.27088484164E+00 -0.20359960191E+02  0.14299072009E+02  0.24881013201E+02  0.00000000000E+00 0. -1.
</event>
<event>
 5    1  0.2491889E-009  0.9118800E+02  0.7818608E-02  0.1130116E+00
         25   -1    0    0    0    0  0.00000000000E+00  0.00000000000E+00  0.99999998245E-14  0.12500000000E+03  0.12500000000E+03 0.  0.
        -13    1    3    3    0    0 -0.31986138238E+02 -0.21600365817E+02  0.34426935537E+01  0.38749866397E+02  0.10566000000E+00 0.  1.
         23    2    1    0    0    0 -0.24700921336E+01  0.23601168030E+02  0.18630063389E+02  0.94830549402E+02  0.89903489089E+02 0.  0.
         13    1    3    3    0    0  0.29516046104E+02  0.45201533847E+02  0.15187369835E+02  0.56080683005E+02  0.10566000000E+00 0. -1.
         22    1    1    0    0    0  0.24700921336E+01 -0.23601168030E+02 -0.18630063389E+02  0.30169450598E+02  0.00000000000E+00 0. -1.
</event>
<event>
 5    1  0.2491889E-009  0.9118800E+02  0.7818608E-02  0.1130116E+00
         25   -1    0    0    0    0  0.00000000000E+00  0.00000000000E+00  0.99999998245E-14  0.12500000000E+03  0.12500000000E+03 0.  0.
        -13    1    3    3    0    0  0.78252225185E+01  0.31894338093E+02 -0.36153841684E+01  0.33038841938E+02  0.10566000000E+00 0. -1.
         23    2    1    0    0    0  0.55169369909E+01 -0.76165800416E+01  0.35254611009E+02  0.88512516082E+02  0.80641980509E+02 0.  0.
         13    1    3    3    0    0 -0.23082855276E+01 -0.39510918135E+02  0.38869995177E+02  0.55473674144E+02  0.10566000000E+00 0.  1.
         22    1    1    0    0    0 -0.55169369909E+01  0.76165800416E+01 -0.35254611009E+02  0.36487483918E+02  0.00000000000E+00 0.  1.
</event>
<event>
 5    1  0.2491889E-009  0.9118800E+02  0.7818608E-02  0.1130116E+00
         25   -1    0    0    0    0  0.00000000000E+00  0.00000000000E+00  0.99999998245E-14  0.12500000000E+03  0.12500000000E+03 0.  0.
        -13    1    3    3    0    0 -0.27030918766E+01 -0.24794001939E+02  0.96501552652E+01  0.26742959793E+02  0.10566000000E+00 0.  1.
         23    2    1    0    0    0  0.37464498991E+02  0.15524432255E+02  0.79111194488E+01  0.83681935035E+02  0.72770074610E+02 0.  0.
         13    1    3    3    0    0  0.40167590868E+02  0.40318434194E+02 -0.17390358164E+01  0.56938975242E+02  0.10566000000E+00 0. -1.
         22    1    1    0    0    0 -0.37464498991E+02 -0.15524432255E+02 -0.79111194488E+01  0.41318064965E+02  0.00000000000E+00 0. -1.
</event>
<event>
 5    1  0.2491889E-009  0.9118800E+02  0.7818608E-02  0.1130116E+00
         25   -1    0    0    0    0  0.00000000000E+00  0.00000000000E+00  0.99999998245E-14  0.12500000000E+03  0.12500000000E+03 0.  0.
        -13    1    3    3    0    0 -0.23302499758E+02 -0.51260774315E+02 -0.14851814044E+02  0.58234534623E+02  0.10566000000E+00 0.  1.
         23    2    1    0    0    0 -0.60274240679E+01 -0.32064703785E+02 -0.22732513409E+02  0.85235163327E+02  0.75390920088E+02 0.  0.
         13    1    3    3    0    0  0.17275075690E+02  0.19196070529E+02 -0.78806993653E+01  0.27000628704E+02  0.10566000000E+00 0. -1.
         22    1    1    0    0    0  0.60274240679E+01  0.32064703785E+02  0.22732513409E+02  0.39764836673E+02  0.00000000000E+00 0.  1.
</event>
<event>
 5    1  0.2491889E-009  0.9118800E+02  0.7818608E-02  0.1130116E+00
         25   -1    0    0    0    0  0.00000000000E+00  0.00000000000E+00  0.99999998245E-14  0.12500000000E+03  0.12500000000E+03 0.  0.
        -13    1    3    3    0    0  0.39600912876E+02  0.23829406761E+02 -0.12143692999E+02  0.47786539641E+02  0.10566000000E+00 0. -1.
         23    2    1    0    0    0  0.21580701466E+02 -0.19627983052E+02 -0.35066061342E+01  0.95618361498E+02  0.90992254476E+02 0.  0.
         13    1    3    3    0    0 -0.18020211410E+02 -0.43457389813E+02  0.86370868648E+01  0.47831821857E+02  0.10566000000E+00 0.  1.
         22    1    1    0    0    0 -0.21580701466E+02  0.19627983052E+02  0.35066061342E+01  0.29381638502E+02  0.00000000000E+00 0. -1.
</event>
<event>
 5    1  0.2491889E-009  0.9118800E+02  0.7818608E-02  0.1130116E+00
         25   -1    0    0    0    0  0.00000000000E+00  0.00000000000E+00  0.99999998245E-14  0.12500000000E+03  0.12500000000E+03 0.  0.
        -13    1    3    3    0    0 -0.18406086864E+02 -0.32629870086E+02  0.41595089276E+02  0.55979059221E+02  0.10566000000E+00 0.  1.
         23    2    1    0    0    0  0.16278585010E+01 -0.13206183318E+01  0.30015508186E+02  0.94911386078E+02  0.90015812609E+02 0.  0.
         13    1    3    3    0    0  0.20033945365E+02  0.31309251754E+02 -0.11579581090E+02  0.38932326857E+02  0.10566000000E+00 0. -1.
         22    1    1    0    0    0 -0.16278585010E+01  0.13206183318E+01 -0.30015508186E+02  0.30088613922E+02  0.00000000000E+00 0.  1.
</event>
<event>
 5    1  0.2491889E-009  0.9118800E+02  0.7818608E-02  0.1130116E+00
         25   -1    0    0    0    0  0.00000000000E+00  0.00000000000E+00  0.99999998245E-14  0.12500000000E+03  0.12500000000E+03 0.  0.
        -13    1    3    3    0    0  0.25414676300E+02 -0.18792000221E+02  0.11454470735E+02  0.33619356145E+02  0.10566000000E+00 0. -1.
         23    2    1    0    0    0 -0.59689601459E+01  0.30164195487E+02 -0.45076035849E+01  0.93922264164E+02  0.88631631153E+02 0.  0.
         13    1    3    3    0    0 -0.31383636446E+02  0.48956195709E+02 -0.15962074320E+02  0.60302908019E+02  0.10566000000E+00 0.  1.
         22    1    1    0    0    0  0.59689601459E+01 -0.30164195487E+02  0.45076035849E+01  0.31077735836E+02  0.00000000000E+00 0.  1.
</event>
<event>
 5    1  0.2491889E-009  0.9118800E+02  0.7818608E-02  0.1130116E+00
         25   -1    0    0    0    0  0.00000000000E+00  0.00000000000E+00  0.99999998245E-14  0.12500000000E+03  0.12500000000E+03 0.  0.
        -13    1    3    3    0    0 -0.10915248361E+02 -0.28513346393E+00 -0.34175650283E+02  0.35877711524E+02  0.10566000000E+00 0. -1.
         23    2    1    0    0    0 -0.15868675459E+01 -0.24849710199E+02  0.17985501073E+02  0.94283481733E+02  0.89139612032E+02 0.  0.
         13    1    3    3    0    0  0.93283808155E+01 -0.24564576735E+02  0.52161151357E+02  0.58405770209E+02  0.10566000000E+00 0.  1.
         22    1    1    0    0    0  0.15868675459E+01  0.24849710199E+02 -0.17985501073E+02  0.30716518267E+02  0.00000000000E+00 0.  1.
</event>
<event>
 5    1  0.2491889E-009  0.9118800E+02  0.7818608E-02  0.1130116E+00
         25   -1    0    0    0    0  0.00000000000E+00  0.00000000000E+00  0.99999998245E-14  0.12500000000E+03  0.12500000000E+03 0.  0.
        -13    1    3    3    0    0  0.33555379062E+02  0.85958977573E+01  0.12682769490E+02  0.36887894061E+02  0.10566000000E+00 0.  1.
         23    2    1    0    0    0 -0.25584550188E+02  0.11269229603E+02  0.52788490415E+01  0.96549499277E+02  0.92262532044E+02 0.  0.
         13    1    3    3    0    0 -0.59139929250E+02  0.26733318462E+01 -0.74039204490E+01  0.59661605216E+02  0.10566000000E+00 0. -1.
         22    1    1    0    0    0  0.25584550188E+02 -0.11269229603E+02 -0.52788490415E+01  0.28450500723E+02  0.00000000000E+00 0. -1.
</event>
<event>
 5    1  0.2491889E-009  0.9118800E+02  0.7818608E-02  0.1130116E+00
         25   -1    0    0    0    0  0.00000000000E+00  0.00000000000E+00  0.99999998245E-14  0.12500000000E+03  0.12500000000E+03 0.  0.
        -13    1    3    3    0    0  0.36772102062E+02  0.28402174447E+01 -0.36021518031E+02  0.51554003244E+02  0.10566000000E+00 0.  1.
         23    2    1    0    0    0  0.14082323767E+02  0.26004264558E+02 -0.81159826144E+01  0.94334012462E+02  0.89210442861E+02 0.  0.
         13    1    3    3    0    0 -0.22689778295E+02  0.23164047113E+02  0.27905535417E+02  0.42780009218E+02  0.10566000000E+00 0. -1.
         22    1    1    0    0    0 -0.14082323767E+02 -0.26004264558E+02  0.81159826144E+01  0.30665987538E+02  0.00000000000E+00 0.  1.
</event>
<event>
 5    1  0.2491889E-009  0.9118800E+02  0.7818608E-02  0.1130116E+00
         25   -1    0    0    0    0  0.00000000000E+00  0.00000000000E+00  0.99999998245E-14  0.12500000000E+03  0.12500000000E+03 0.  0.
        -13    1    3    3    0    0  0.59413051843E+02  0.76374356340E+01 -0.16965369277E+02  0.62258140601E+02  0.10566000000E+00 0. -1.
         23    2    1    0    0    0  0.20726586620E+02  0.64040502395E+01 -0.57082150555E+01  0.10256817057E+03  0.10008517694E+03 0.  0.
         13    1    3    3    0    0 -0.38686465223E+02 -0.12333853946E+01  0.11257154221E+02  0.40310029970E+02  0.10566000000E+00 0.  1.
         22    1    1    0    0    0 -0.20726586620E+02 -0.64040502395E+01  0.57082150555E+01  0.22431829429E+02  0.00000000000E+00 0. -1.
</event>
<event>
 5    1  0.2491889E-009  0.9118800E+02  0.7818608E-02  0.1130116E+00
         25   -1    0    0    0    0  0.00000000000E+00  0.00000000000E+00  0.99999998245E-14  0.12500000000E+03  0.12500000000E+03 0.  0.
        -13    1    3    3    0    0  0.40678391539E+02  0.22002263417E+02  0.41560425628E+01  0.46433985264E+02  0.10566000000E+00 0.  1.
         23    2    1    0    0    0  0.19340934136E+02 -0.22155844513E+02  0.18743528511E+01  0.95530246388E+02  0.90871126311E+02 0.  0.
         13    1    3    3    0    0 -0.21337457404E+02 -0.44158107930E+02 -0.22816897117E+01  0.49096261124E+02  0.10566000000E+00 0. -1.
         22    1    1    0    0    0 -0.19340934136E+02  0.22155844513E+02 -0.18743528511E+01  0.29469753612E+02  0.00000000000E+00 0.  1.
</event>
<event>
 5    1  0.2491889E-009  0.9118800E+02  0.7818608E-02  0.1130116E+00
         25   -1    0    0    0    0  0.00000000000E+00  0.00000000000E+00  0.99999998245E-14  0.12500000000E+03  0.12500000000E+03 0.  0.
        -13    1    3    3    0    0 -0.33701977641E+01  0.79979606969E+01  0.30025283342E+02  0.31254670244E+02  0.10566000000E+00 0.  1.
         23    2    1    0    0    0  0.38442759725E+01  0.13238955582E+02 -0.30023883869E+02  0.91962415264E+02  0.85823096052E+02 0.  0.
         13    1    3    3    0    0  0.72144737366E+01  0.52409948848E+01 -0.60049167210E+02  0.60707745020E+02  0.10566000000E+00 0. -1.
         22    1    1    0    0    0 -0.38442759725E+01 -0.13238955582E+02  0.30023883869E+02  0.33037584736E+02  0.00000000000E+00 0. -1.
</event>
<event>
 5    1  0.2491889E-009  0.9118800E+02  0.7818608E-02  0.1130116E+00
         25   -1    0    0    0    0  0.00000000000E+00  0.00000000000E+00  0.99999998245E-14  0.12500000000E+03  0.12500000000E+03 0.  0.
        -13    1    3    3    0    0  0.30234308568E+02 -0.22207531701E+02  0.40332904802E+02  0.55082140959E+02  0.10566000000E+00 0.  1.
         23    2    1    0    0    0 -0.31654184433E+01 -0.23451226252E+02  0.15704579440E+02  0.96599054557E+02  0.92329646589E+02 0.  0.
         13    1    3    3    0    0 -0.33399727011E+02 -0.12436945510E+01 -0.24628325362E+02  0.41516913598E+02  0.10566000000E+00 0. -1.
         22    1    1    0    0    0  0.31654184433E+01  0.23451226252E+02 -0.15704579440E+02  0.28400945443E+02  0.00000000000E+00 0.  1.
</event>
<event>
 5    1  0.2491889E-009  0.9118800E+02  0.7818608E-02  0.1130116E+00
         25   -1    0    0    0    0  0.00000000000E+00  0.00000000000E+00  0.99999998245E-14  0.12500000000E+03  0.12500000000E+03 0.  0.
        -13    1    3    3    0    0  0.30435395262E+02  0.12664713660E+02  0.35975211680E+02  0.48794828377E+02  0.10566000000E+00 0.  1.
         23    2    1    0    0    0  0.27329063107E+02  0.51511871071E+01 -0.99719741710E+01  0.95455919581E+02  0.90768826672E+02 0.  0.
         13    1    3    3    0    0 -0.31063321549E+01 -0.75135265531E+01 -0.45947185851E+02  0.46661091205E+02  0.10566000000E+00 0. -1.
         22    1    1    0    0    0 -0.27329063107E+02 -0.51511871071E+01  0.99719741710E+01  0.29544080419E+02  0.00000000000E+00 0.  1.
</event>
<event>
 5    1  0.2491889E-009  0.9118800E+02  0.7818608E-02  0.1130116E+00
         25   -1    0    0    0    0  0.00000000000E+00  0.00000000000E+00  0.99999998245E-14  0.12500000000E+03  0.12500000000E+03 0.  0.
        -13    1    3    3    0    0  0.30488114025E+02 -0.15807597405E+02  0.12947432812E+02  0.36702212644E+02  0.10566000000E+00 0. -1.
         23    2    1    0    0    0 -0.17067672888E+02  0.18707161366E+02  0.15125711121E+02  0.95503381870E+02  0.90834164649E+02 0.  0.
         13    1    3    3    0    0 -0.47555786913E+02  0.34514758771E+02  0.21782783096E+01  0.58801169226E+02  0.10566000000E+00 0.  1.
         22    1    1    0    0    0  0.17067672888E+02 -0.18707161366E+02 -0.15125711121E+02  0.29496618130E+02  0.00000000000E+00 0.  1.
</event>
<event>
 5    1  0.2491889E-009  0.9118800E+02  0.7818608E-02  0.1130116E+00
         25   -1    0    0    0    0  0.00000000000E+00  0.00000000000E+00  0.99999998245E-14  0.12500000000E+03  0.12500000000E+03 0.  0.
        -13    1    3    3    0    0  0.37536376983E+02 -0.85188807159E+01 -0.39501931817E+02  0.55154008984E+02  0.10566000000E+00 0. -1.
         23    2    1    0    0    0  0.31468553554E+02 -0.96652373703E+00 -0.24840488435E+01  0.93418763014E+02  0.87918659871E+02 0.  0.
         13    1    3    3    0    0 -0.60678234296E+01  0.75523569789E+01  0.37017882974E+02  0.38264754030E+02  0.10566000000E+00 0.  1.
         22    1    1    0    0    0 -0.31468553554E+02  0.96652373703E+00  0.24840488435E+01  0.31581236986E+02  0.00000000000E+00 0. -1.
</event>
<event>
 5    1  0.2491889E-009  0.9118800E+02  0.7818608E-02  0.1130116E+00
         25   -1    0    0    0    0  0.00000000000E+00  0.00000000000E+00  0.99999998245E-14  0.12500000000E+03  0.12500000000E+03 0.  0.
        -13    1    3    3    0    0 -0.31981900776E+02 -0.43452972648E+02  0.22847348565E+02  0.58591938948E+02  0.10566000000E+00 0. -1.
         23    2    1    0    0    0 -0.22706094916E+02 -0.69403997889E+01  0.14503996211E+02  0.97177314981E+02  0.93109230183E+02 0.  0.
         13    1    3    3    0    0  0.92758058604E+01  0.36512572859E+02 -0.83433523532E+01  0.38585376034E+02  0.10566000000E+00 0.  1.
         22    1    1    0    0    0  0.22706094916E+02  0.69403997889E+01 -0.14503996211E+02  0.27822685019E+02  0.00000000000E+00 0. -1.
</event>
<event>
 5    1  0.2491889E-009  0.9118800E+02  0.7818608E-02  0.1130116E+00
         25   -1    0    0    0    0  0.00000000000E+00  0.00000000000E+00  0.99999998245E-14  0.12500000000E+03  0.12500000000E+03 0.  0.
        -13    1    3    3    0    0 -0.51632413015E+02  0.18843228163E+02 -0.20184353731E+02  0.58552477496E+02  0.10566000000E+00 0. -1.
         23    2    1    0    0    0 -0.22575586513E+02  0.90358854496E+01  0.71713379033E+01  0.99647832054E+02  0.96368864336E+02 0.  0.
         13    1    3    3    0    0  0.29056826502E+02 -0.98073427130E+01  0.27355691634E+02  0.41095354558E+02  0.10566000000E+00 0.  1.
         22    1    1    0    0    0  0.22575586513E+02 -0.90358854496E+01 -0.71713379033E+01  0.25352167946E+02  0.00000000000E+00 0. -1.
</event>
<event>
 5    1  0.2491889E-009  0.9118800E+02  0.7818608E-02  0.1130116E+00
         25   -1    0    0    0    0  0.00000000000E+00  0.00000000000E+00  0.99999998245E-14  0.12500000000E+03  0.12500000000E+03 0.  0.
        -13    1    3    3    0    0 -0.10347988827E+02 -0.27722728792E+02 -0.45662392007E+02  0.54412275934E+02  0.10566000000E+00 0. -1.
         23    2    1    0    0    0  0.14650074868E+02 -0.30930688361E+01 -0.26918239992E+02  0.94197671959E+02  0.89019200119E+02 0.  0.
         13    1    3    3    0    0  0.24998063695E+02  0.24629659956E+02  0.18744152016E+02  0.39785396025E+02  0.10566000000E+00 0.  1.
         22    1    1    0    0    0 -0.14650074868E+02  0.30930688361E+01  0.26918239992E+02  0.30802328041E+02  0.00000000000E+00 0. -1.
</event>
<event>
 5    1  0.2491889E-009  0.9118800E+02  0.7818608E-02  0.1130116E+00
         25   -1    0    0    0    0  0.00000000000E+00  0.00000000000E+00  0.99999998245E-14  0.12500000000E+03  0.12500000000E+03 0.  0.
        -13    1    3    3    0    0  0.30869414355E+02 -0.15383952956E+02  0.44827844427E+02  0.56560883578E+02  0.10566000000E+00 0.  1.
         23    2    1    0    0    0  0.26741700533E+02 -0.42323825542E+01  0.58656590736E+01  0.97297336485E+02  0.93270220977E+02 0.  0.
         13    1    3    3    0    0 -0.41277138221E+01  0.11151570402E+02 -0.38962185353E+02  0.40736452906E+02  0.10566000000E+00 0. -1.
         22    1    1    0    0    0 -0.26741700533E+02  0.42323825542E+01 -0.58656590736E+01  0.27702663515E+02  0.00000000000E+00 0.  1.
</event>
<event>
 5    1  0.2491889E-009  0.9118800E+02  0.7818608E-02  0.1130116E+00
         25   -1    0    0    0    0  0.00000000000E+00  0.00000000000E+00  0.99999998245E-14  0.12500000000E+03  0.12500000000E+03 0.  0.
        -13    1    3    3    0    0 -0.39445796603E+02 -0.35143433441E+02 -0.28771897403E+02  0.60157003149E+02  0.10566000000E+00 0. -1.
         23    2    1    0    0    0 -0.23881174715E+02 -0.14253815743E+02 -0.26275478970E+01  0.97064614251E+02  0.92957805281E+02 0.  0.
         13    1    3    3    0    0  0.15564621888E+02  0.20889617698E+02  0.26144349506E+02  0.36907611102E+02  0.10566000000E+00 0.  1.
         22    1    1    0    0    0  0.23881174715E+02  0.14253815743E+02  0.26275478970E+01  0.27935385749E+02  0.00000000000E+00 0. -1.
</event>
<event>
 5    1  0.2491889E-009  0.9118800E+02  0.7818608E-02  0.1130116E+00
         25   -1    0    0    0    0  0.00000000000E+00  0.00000000000E+00  0.99999998245E-14  0.12500000000E+03  0.12500000000E+03 0.  0.
        -13    1    3    3    0    0 -0.40492511342E+02  0.33687488511E+02 -0.26568954768E+02  0.58995007233E+02  0.10566000000E+00 0.  1.
         23    2    1    0    0    0 -0.97290594917E+01  0.13451574229E+02 -0.23881228321E+02  0.95915424811E+02  0.91399432179E+02 0.  0.
         13    1    3    3    0    0  0.30763451850E+02 -0.20235914283E+02  0.26877264471E+01  0.36920417577E+02  0.10566000000E+00 0. -1.
         22    1    1    0    0    0  0.97290594917E+01 -0.13451574229E+02  0.23881228321E+02  0.29084575189E+02  0.00000000000E+00 0.  1.
</event>
<event>
 5    1  0.2491889E-009  0.9118800E+02  0.7818608E-02  0.1130116E+00
         25   -1    0    0    0    0  0.00000000000E+00  0.00000000000E+00  0.99999998245E-14  0.12500000000E+03  0.12500000000E+03 0.  0.
        -13    1    3    3    0    0  0.26565157639E+02 -0.16766199760E+02  0.14293382132E+02  0.34512678708E+02  0.10566000000E+00 0. -1.
         23    2    1    0    0    0 -0.10223584924E+02  0.25482519637E+02 -0.10273795129E+02  0.95683940202E+02  0.91082298228E+02 0.  0.
         13    1    3    3    0    0 -0.36788742564E+02  0.42248719397E+02 -0.24567177261E+02  0.61171261494E+02  0.10566000000E+00 0.  1.
         22    1    1    0    0    0  0.10223584924E+02 -0.25482519637E+02  0.10273795129E+02  0.29316059798E+02  0.00000000000E+00 0.  1.
</event>
<event>
 5    1  0.2491889E-009  0.9118800E+02  0.7818608E-02  0.1130116E+00
         25   -1    0    0    0    0  0.00000000000E+00  0.00000000000E+00  0.99999998245E-14  0.12500000000E+03  0.12500000000E+03 0.  0.
        -13    1    3    3    0    0 -0.13214573853E+02 -0.37137287007E+02 -0.11976411875E+02  0.41197677772E+02  0.10566000000E+00 0. -1.
         23    2    1    0    0    0 -0.83158880556E+01 -0.13662127697E+01  0.28407904650E+02  0.95368436118E+02  0.90648270969E+02 0.  0.
         13    1    3    3    0    0  0.48986857970E+01  0.35771074237E+02  0.40384316525E+02  0.54170758347E+02  0.10566000000E+00 0.  1.
         22    1    1    0    0    0  0.83158880556E+01  0.13662127697E+01 -0.28407904650E+02  0.29631563882E+02  0.00000000000E+00 0.  1.
</event>
<event>
 5    1  0.2491889E-009  0.9118800E+02  0.7818608E-02  0.1130116E+00
         25   -1    0    0    0    0  0.00000000000E+00  0.00000000000E+00  0.99999998245E-14  0.12500000000E+03  0.12500000000E+03 0.  0.
        -13    1    3    3    0    0 -0.52081305376E+01 -0.38096739681E+02 -0.45077892610E+02  0.59249588726E+02  0.10566000000E+00 0. -1.
         23    2    1    0    0    0 -0.16107049026E+02 -0.13702611400E+02 -0.19906516315E+02  0.95957479805E+02  0.91456929487E+02 0.  0.
         13    1    3    3    0    0 -0.10898918488E+02  0.24394128281E+02  0.25171376295E+02  0.36707891079E+02  0.10566000000E+00 0.  1.
         22    1    1    0    0    0  0.16107049026E+02  0.13702611400E+02  0.19906516315E+02  0.29042520195E+02  0.00000000000E+00 0. -1.
</event>
<event>
 5    1  0.2491889E-009  0.9118800E+02  0.7818608E-02  0.1130116E+00
         25   -1    0    0    0    0  0.00000000000E+00  0.00000000000E+00  0.99999998245E-14  0.12500000000E+03  0.12500000000E+03 0.  0.
        -13    1    3    3    0    0  0.28915355682E+02  0.51699468723E+02  0.15415648731E+02  0.61209364074E+02  0.10566000000E+00 0.  1.
         23    2    1    0    0    0  0.86619547117E+01  0.27385717767E+02  0.30742703612E+00  0.96275419787E+02  0.91890450792E+02 0.  0.
         13    1    3    3    0    0 -0.20253400971E+02 -0.24313750956E+02 -0.15108221695E+02  0.35066055713E+02  0.10566000000E+00 0. -1.
         22    1    1    0    0    0 -0.86619547117E+01 -0.27385717767E+02 -0.30742703612E+00  0.28724580213E+02  0.00000000000E+00 0.  1.
</event>
<event>
 5    1  0.2491889E-009  0.9118800E+02  0.7818608E-02  0.1130116E+00
         25   -1    0    0    0    0  0.00000000000E+00  0.00000000000E+00  0.99999998245E-14  0.12500000000E+03  0.12500000000E+03 0.  0.
        -13    1    3    3    0    0 -0.21950726324E+02 -0.36092003464E+01 -0.28666076624E+02  0.36285201203E+02  0.10566000000E+00 0.  1.
         23    2    1    0    0    0  0.95698021999E+01 -0.32289115362E+02  0.54625908420E+01  0.90882438778E+02  0.84235442033E+02 0.  0.
         13    1    3    3    0    0  0.31520528524E+02 -0.28679915016E+02  0.34128667466E+02  0.54597237575E+02  0.10566000000E+00 0. -1.
         22    1    1    0    0    0 -0.95698021999E+01  0.32289115362E+02 -0.54625908420E+01  0.34117561222E+02  0.00000000000E+00 0.  1.
</event>
<event>
 5    1  0.2491889E-009  0.9118800E+02  0.7818608E-02  0.1130116E+00
         25   -1    0    0    0    0  0.00000000000E+00  0.00000000000E+00  0.99999998245E-14  0.12500000000E+03  0.12500000000E+03 0.  0.
        -13    1    3    3    0    0  0.45077183851E+02  0.27927372214E+02  0.15134336461E+02  0.55144808703E+02  0.10566000000E+00 0. -1.
         23    2    1    0    0    0  0.54936530629E+01  0.23047359946E+02  0.18167541267E+02  0.95143332735E+02  0.90337329957E+02 0.  0.
         13    1    3    3    0    0 -0.39583530788E+02 -0.48800122682E+01  0.30332048062E+01  0.39998524033E+02  0.10566000000E+00 0.  1.
         22    1    1    0    0    0 -0.54936530629E+01 -0.23047359946E+02 -0.18167541267E+02  0.29856667265E+02  0.00000000000E+00 0. -1.
</event>
<event>
 5    1  0.2491889E-009  0.9118800E+02  0.7818608E-02  0.1130116E+00
         25   -1    0    0    0    0  0.00000000000E+00  0.00000000000E+00  0.99999998245E-14  0.12500000000E+03  0.12500000000E+03 0.  0.
        -13    1    3    3    0    0 -0.24369232124E+02  0.16764420547E+02  0.43667079779E+02  0.52742111174E+02  0.10566000000E+00 0.  1.
         23    2    1    0    0    0 -0.21071942491E+01  0.25910569659E+02  0.46410774443E+01  0.98592851584E+02  0.94990593723E+02 0.  0.
         13    1    3    3    0    0  0.22262037875E+02  0.91461491116E+01 -0.39026002334E+02  0.45850740410E+02  0.10566000000E+00 0. -1.
         22    1    1    0    0    0  0.21071942491E+01 -0.25910569659E+02 -0.46410774443E+01  0.26407148416E+02  0.00000000000E+00 0.  1.
</event>
<event>
 5    1  0.2491889E-009  0.9118800E+02  0.7818608E-02  0.1130116E+00
         25   -1    0    0    0    0  0.00000000000E+00  0.00000000000E+00  0.99999998245E-14  0.12500000000E+03  0.12500000000E+03 0.  0.
        -13    1    3    3    0    0  0.37735447766E+02  0.19571238755E+02  0.39931159829E+02  0.58322432167E+02  0.10566000000E+00 0.  1.
         23    2    1    0    0    0  0.28446993532E+02  0.11051284625E+02  0.68515338864E+01  0.93722118846E+02  0.88348908944E+02 0.  0.
         13    1    3    3    0    0 -0.92884542347E+01 -0.85199541303E+01 -0.33079625943E+02  0.35399686679E+02  0.10566000000E+00 0. -1.
         22    1    1    0    0    0 -0.28446993532E+02 -0.11051284625E+02 -0.68515338864E+01  0.31277881154E+02  0.00000000000E+00 0.  1.
</event>
<event>
 5    1  0.2491889E-009  0.9118800E+02  0.7818608E-02  0.1130116E+00
         25   -1    0    0    0    0  0.00000000000E+00  0.00000000000E+00  0.99999998245E-14  0.12500000000E+03  0.12500000000E+03 0.  0.
        -13    1    3    3    0    0  0.49534895655E+02  0.12597247922E+02  0.15475808917E+02  0.53403261778E+02  0.10566000000E+00 0. -1.
         23    2    1    0    0    0  0.26084504511E+02 -0.16033203085E+02 -0.19719217486E+01  0.94318516135E+02  0.89188727056E+02 0.  0.
         13    1    3    3    0    0 -0.23450391145E+02 -0.28630451008E+02 -0.17447730666E+02  0.40915254358E+02  0.10566000000E+00 0.  1.
         22    1    1    0    0    0 -0.26084504511E+02  0.16033203085E+02  0.19719217486E+01  0.30681483865E+02  0.00000000000E+00 0.  1.
</event>
<event>
 5    1  0.2491889E-009  0.9118800E+02  0.7818608E-02  0.1130116E+00
         25   -1    0    0    0    0  0.00000000000E+00  0.00000000000E+00  0.99999998245E-14  0.12500000000E+03  0.12500000000E+03 0.  0.
        -13    1    3    3    0    0  0.27607589180E+02  0.27134010039E+02  0.42003754978E+02  0.57120574904E+02  0.10566000000E+00 0.  1.
         23    2    1    0    0    0  0.21003941133E+02 -0.27228182821E+01  0.25441464402E+02  0.91896414191E+02  0.85726912622E+02 0.  0.
         13    1    3    3    0    0 -0.66036480474E+01 -0.29856828321E+02 -0.16562290576E+02  0.34775839286E+02  0.10566000000E+00 0. -1.
         22    1    1    0    0    0 -0.21003941133E+02  0.27228182821E+01 -0.25441464402E+02  0.33103585809E+02  0.00000000000E+00 0.  1.
</event>
<event>
 5    1  0.2491889E-009  0.9118800E+02  0.7818608E-02  0.1130116E+00
         25   -1    0    0    0    0  0.00000000000E+00  0.00000000000E+00  0.99999998245E-14  0.12500000000E+03  0.12500000000E+03 0.  0.
        -13    1    3    3    0    0  0.39781925897E+02 -0.26343221613E+01  0.94866224840E+01  0.40982294366E+02  0.10566000000E+00 0.  1.
         23    2    1    0    0    0 -0.11933862407E+02 -0.11375360783E+02  0.24437580068E+02  0.95521003673E+02  0.90858411378E+02 0.  0.
         13    1    3    3    0    0 -0.51715788304E+02 -0.87410386217E+01  0.14950957584E+02  0.54538709307E+02  0.10566000000E+00 0. -1.
         22    1    1    0    0    0  0.11933862407E+02  0.11375360783E+02 -0.24437580068E+02  0.29478996327E+02  0.00000000000E+00 0. -1.
</event>
<event>
 5    1  0.2491889E-009  0.9118800E+02  0.7818608E-02  0.1130116E+00
         25   -1    0    0    0    0  0.00000000000E+00  0.00000000000E+00  0.99999998245E-14  0.12500000000E+03  0.12500000000E+03 0.  0.
        -13    1    3    3    0    0 -0.18350330963E+02 -0.30293899568E+02  0.11412828885E+01  0.35436826723E+02  0.10566000000E+00 0.  1.
         23    2    1    0    0    0  0.28011040765E+01  0.26768963830E+02  0.85887209839E+01  0.96747748112E+02  0.92530735586E+02 0.  0.
         13    1    3    3    0    0  0.21151435040E+02  0.57062863398E+02  0.74474380954E+01  0.61310921390E+02  0.10566000000E+00 0. -1.
         22    1    1    0    0    0 -0.28011040765E+01 -0.26768963830E+02 -0.85887209839E+01  0.28252251888E+02  0.00000000000E+00 0. -1.
</event>
<event>
 5    1  0.2491889E-009  0.9118800E+02  0.7818608E-02  0.1130116E+00
         25   -1    0    0    0    0  0.00000000000E+00  0.00000000000E+00  0.99999998245E-14  0.12500000000E+03  0.12500000000E+03 0.  0.
        -13    1    3    3    0    0 -0.16540228756E+02 -0.16703722370E+01  0.33435650257E+02  0.37340637151E+02  0.10566000000E+00 0.  1.
         23    2    1    0    0    0  0.75087218116E+01 -0.24920201549E+02 -0.14048363881E+02  0.95423761628E+02  0.90724530349E+02 0.  0.
         13    1    3    3    0    0  0.24048950568E+02 -0.23249829312E+02 -0.47484014137E+02  0.58083124478E+02  0.10566000000E+00 0. -1.
         22    1    1    0    0    0 -0.75087218116E+01  0.24920201549E+02  0.14048363881E+02  0.29576238372E+02  0.00000000000E+00 0. -1.
</event>
<event>
 5    1  0.2491889E-009  0.9118800E+02  0.7818608E-02  0.1130116E+00
         25   -1    0    0    0    0  0.00000000000E+00  0.00000000000E+00  0.99999998245E-14  0.12500000000E+03  0.12500000000E+03 0.  0.
        -13    1    3    3    0    0  0.52042061803E+02 -0.41401085675E+00  0.16764895417E+02  0.54677422069E+02  0.10566000000E+00 0.  1.
         23    2    1    0    0    0  0.21876348092E+02  0.76675681275E+01 -0.13506943137E+02  0.98170841986E+02  0.94433630114E+02 0.  0.
         13    1    3    3    0    0 -0.30165713711E+02  0.80815789843E+01 -0.30271838554E+02  0.43493419917E+02  0.10566000000E+00 0. -1.
         22    1    1    0    0    0 -0.21876348092E+02 -0.76675681275E+01  0.13506943137E+02  0.26829158014E+02  0.00000000000E+00 0.  1.
</event>
<event>
 5    1  0.2491889E-009  0.9118800E+02  0.7818608E-02  0.1130116E+00
         25   -1    0    0    0    0  0.00000000000E+00  0.00000000000E+00  0.99999998245E-14  0.12500000000E+03  0.12500000000E+03 0.  0.
        -13    1    3    3    0    0  0.40054981502E+01  0.35707911964E+02  0.27447485912E+02  0.45215867117E+02  0.10566000000E+00 0.  1.
         23    2    1    0    0    0 -0.18475793936E+02 -0.87685104238E+01  0.21370751085E+02  0.95420433766E+02  0.90719945115E+02 0.  0.
         13    1    3    3    0    0 -0.22481292086E+02 -0.44476422387E+02 -0.60767348269E+01  0.50204566649E+02  0.10566000000E+00 0. -1.
         22    1    1    0    0    0  0.18475793936E+02  0.87685104238E+01 -0.21370751085E+02  0.29579566234E+02  0.00000000000E+00 0. -1.
</event>
<event>
 5    1  0.2491889E-009  0.9118800E+02  0.7818608E-02  0.1130116E+00
         25   -1    0    0    0    0  0.00000000000E+00  0.00000000000E+00  0.99999998245E-14  0.12500000000E+03  0.12500000000E+03 0.  0.
        -13    1    3    3    0    0  0.18656366831E+02  0.89011899219E+01  0.20025260296E+02  0.28780434662E+02  0.10566000000E+00 0. -1.
         23    2    1    0    0    0  0.23749871783E+02 -0.10767352191E+02 -0.31464746047E+02  0.84134090899E+02  0.73542659216E+02 0.  0.
         13    1    3    3    0    0  0.50935049522E+01 -0.19668542113E+02 -0.51490006343E+02  0.55353656237E+02  0.10566000000E+00 0.  1.
         22    1    1    0    0    0 -0.23749871783E+02  0.10767352191E+02  0.31464746047E+02  0.40865909101E+02  0.00000000000E+00 0.  1.
</event>
<event>
 5    1  0.2491889E-009  0.9118800E+02  0.7818608E-02  0.1130116E+00
         25   -1    0    0    0    0  0.00000000000E+00  0.00000000000E+00  0.99999998245E-14  0.12500000000E+03  0.12500000000E+03 0.  0.
        -13    1    3    3    0    0 -0.48225181093E+02 -0.35150808320E+02 -0.97697660150E+01  0.60470711167E+02  0.10566000000E+00 0.  1.
         23    2    1    0    0    0 -0.19422632717E+02 -0.19425303587E+01 -0.10195023407E+00  0.10548020288E+03  0.10365833647E+03 0.  0.
         13    1    3    3    0    0  0.28802548376E+02  0.33208277961E+02  0.96678157809E+01  0.45009491711E+02  0.10566000000E+00 0. -1.
         22    1    1    0    0    0  0.19422632717E+02  0.19425303587E+01  0.10195023407E+00  0.19519797122E+02  0.00000000000E+00 0.  1.
</event>
<event>
 5    1  0.2491889E-009  0.9118800E+02  0.7818608E-02  0.1130116E+00
         25   -1    0    0    0    0  0.00000000000E+00  0.00000000000E+00  0.99999998245E-14  0.12500000000E+03  0.12500000000E+03 0.  0.
        -13    1    3    3    0    0 -0.69109843663E+01 -0.27468747728E+02  0.40478664249E+02  0.49404728824E+02  0.10566000000E+00 0.  1.
         23    2    1    0    0    0  0.20430636760E+02 -0.20927873812E+02  0.39678412750E+01  0.95485078602E+02  0.90808973403E+02 0.  0.
         13    1    3    3    0    0  0.27341621127E+02  0.65408739162E+01 -0.36510822975E+02  0.46080349779E+02  0.10566000000E+00 0. -1.
         22    1    1    0    0    0 -0.20430636760E+02  0.20927873812E+02 -0.39678412750E+01  0.29514921398E+02  0.00000000000E+00 0. -1.
</event>
<event>
 5    1  0.2491889E-009  0.9118800E+02  0.7818608E-02  0.1130116E+00
         25   -1    0    0    0    0  0.00000000000E+00  0.00000000000E+00  0.99999998245E-14  0.12500000000E+03  0.12500000000E+03 0.  0.
        -13    1    3    3    0    0 -0.22493338155E+02 -0.10074503234E+02 -0.15904957419E+02  0.29332996971E+02  0.10566000000E+00 0. -1.
         23    2    1    0    0    0  0.33564084726E+02 -0.17066776545E+02 -0.93385428155E+01  0.86205270628E+02  0.76982580217E+02 0.  0.
         13    1    3    3    0    0  0.56057422881E+02 -0.69922733113E+01  0.65664146031E+01  0.56872273657E+02  0.10566000000E+00 0.  1.
         22    1    1    0    0    0 -0.33564084726E+02  0.17066776545E+02  0.93385428155E+01  0.38794729372E+02  0.00000000000E+00 0.  1.
</event>
<event>
 5    1  0.2491889E-009  0.9118800E+02  0.7818608E-02  0.1130116E+00
         25   -1    0    0    0    0  0.00000000000E+00  0.00000000000E+00  0.99999998245E-14  0.12500000000E+03  0.12500000000E+03 0.  0.
        -13    1    3    3    0    0 -0.41344737374E+02 -0.34691115673E+02  0.21192472237E+02  0.57982694476E+02  0.10566000000E+00 0.  1.
         23    2    1    0    0    0 -0.18039918267E+02 -0.11834059035E+02  0.26256635109E+02  0.91016261365E+02  0.84433792650E+02 0.  0.
         13    1    3    3    0    0  0.23304819107E+02  0.22857056638E+02  0.50641628725E+01  0.33033566889E+02  0.10566000000E+00 0. -1.
         22    1    1    0    0    0  0.18039918267E+02  0.11834059035E+02 -0.26256635109E+02  0.33983738635E+02  0.00000000000E+00 0.  1.
</event>
<event>
 5    1  0.2491889E-009  0.9118800E+02  0.7818608E-02  0.1130116E+00
         25   -1    0    0    0    0  0.00000000000E+00  0.00000000000E+00  0.99999998245E-14  0.12500000000E+03  0.12500000000E+03 0.  0.
        -13    1    3    3    0    0 -0.10533323521E+01  0.40451071633E+02  0.45400632266E+02  0.60816340563E+02  0.10566000000E+00 0.  1.
         23    2    1    0    0    0  0.67629008996E+01  0.23244452226E+02  0.15287501821E+02  0.96368739116E+02  0.92017306954E+02 0.  0.
         13    1    3    3    0    0  0.78162332516E+01 -0.17206619407E+02 -0.30113130445E+02  0.35552398553E+02  0.10566000000E+00 0. -1.
         22    1    1    0    0    0 -0.67629008996E+01 -0.23244452226E+02 -0.15287501821E+02  0.28631260884E+02  0.00000000000E+00 0.  1.
</event>
<event>
 5    1  0.2491889E-009  0.9118800E+02  0.7818608E-02  0.1130116E+00
         25   -1    0    0    0    0  0.00000000000E+00  0.00000000000E+00  0.99999998245E-14  0.12500000000E+03  0.12500000000E+03 0.  0.
        -13    1    3    3    0    0 -0.19212344827E+02  0.40425799880E+02  0.46877679530E+01  0.45003842304E+02  0.10566000000E+00 0.  1.
         23    2    1    0    0    0 -0.25034442225E+02 -0.10699739725E+02 -0.48774363454E+01  0.97341418818E+02  0.93329281067E+02 0.  0.
         13    1    3    3    0    0 -0.58220973983E+01 -0.51125539605E+02 -0.95652042985E+01  0.52337576514E+02  0.10566000000E+00 0. -1.
         22    1    1    0    0    0  0.25034442225E+02  0.10699739725E+02  0.48774363454E+01  0.27658581182E+02  0.00000000000E+00 0. -1.
</event>
<event>
 5    1  0.2491889E-009  0.9118800E+02  0.7818608E-02  0.1130116E+00
         25   -1    0    0    0    0  0.00000000000E+00  0.00000000000E+00  0.99999998245E-14  0.12500000000E+03  0.12500000000E+03 0.  0.
        -13    1    3    3    0    0  0.42585477653E+02  0.30516397412E+02 -0.18890454445E+02  0.55692314112E+02  0.10566000000E+00 0. -1.
         23    2    1    0    0    0  0.31838551073E+02 -0.13523747955E+01 -0.27003115805E+01  0.93018537641E+02  0.87347778508E+02 0.  0.
         13    1    3    3    0    0 -0.10746926580E+02 -0.31868772208E+02  0.16190142865E+02  0.37326223529E+02  0.10566000000E+00 0.  1.
         22    1    1    0    0    0 -0.31838551073E+02  0.13523747955E+01  0.27003115805E+01  0.31981462359E+02  0.00000000000E+00 0. -1.
</event>
<event>
 5    1  0.2491889E-009  0.9118800E+02  0.7818608E-02  0.1130116E+00
         25   -1    0    0    0    0  0.00000000000E+00  0.00000000000E+00  0.99999998245E-14  0.12500000000E+03  0.12500000000E+03 0.  0.
        -13    1    3    3    0    0 -0.16792681240E+00  0.45821357359E+02 -0.67192307570E+01  0.46311815076E+02  0.10566000000E+00 0.  1.
         23    2    1    0    0    0  0.28330396013E+02  0.52627003592E+01 -0.32338665886E+01  0.96004047757E+02  0.91520554737E+02 0.  0.
         13    1    3    3    0    0  0.28498322826E+02 -0.40558656999E+02  0.34853641684E+01  0.49692232682E+02  0.10566000000E+00 0. -1.
         22    1    1    0    0    0 -0.28330396013E+02 -0.52627003592E+01  0.32338665886E+01  0.28995952243E+02  0.00000000000E+00 0. -1.
</event>
<event>
 5    1  0.2491889E-009  0.9118800E+02  0.7818608E-02  0.1130116E+00
         25   -1    0    0    0    0  0.00000000000E+00  0.00000000000E+00  0.99999998245E-14  0.12500000000E+03  0.12500000000E+03 0.  0.
        -13    1    3    3    0    0  0.80221328511E+01  0.32894287578E+02  0.81134839064E+01  0.34817072765E+02  0.10566000000E+00 0.  1.
         23    2    1    0    0    0 -0.16050323295E+02 -0.22995974329E+02  0.85819249698E+01  0.95672928046E+02  0.91067184054E+02 0.  0.
         13    1    3    3    0    0 -0.24072456146E+02 -0.55890261907E+02  0.46844106336E+00  0.60855855281E+02  0.10566000000E+00 0. -1.
         22    1    1    0    0    0  0.16050323295E+02  0.22995974329E+02 -0.85819249698E+01  0.29327071954E+02  0.00000000000E+00 0. -1.
</event>
<event>
 5    1  0.2491889E-009  0.9118800E+02  0.7818608E-02  0.1130116E+00
         25   -1    0    0    0    0  0.00000000000E+00  0.00000000000E+00  0.99999998245E-14  0.12500000000E+03  0.12500000000E+03 0.  0.
        -13    1    3    3    0    0  0.76146108049E+01  0.34348199050E+02 -0.23788809068E+00  0.35183075910E+02  0.10566000000E+00 0.  1.
         23    2    1    0    0    0 -0.19097711975E+02 -0.12981810694E+02  0.21243892673E+02  0.93622412657E+02  0.88207727350E+02 0.  0.
         13    1    3    3    0    0 -0.26712322780E+02 -0.47330009744E+02  0.21481780763E+02  0.58439336747E+02  0.10566000000E+00 0. -1.
         22    1    1    0    0    0  0.19097711975E+02  0.12981810694E+02 -0.21243892673E+02  0.31377587343E+02  0.00000000000E+00 0. -1.
</event>
<event>
 5    1  0.2491889E-009  0.9118800E+02  0.7818608E-02  0.1130116E+00
         25   -1    0    0    0    0  0.00000000000E+00  0.00000000000E+00  0.99999998245E-14  0.12500000000E+03  0.12500000000E+03 0.  0.
        -13    1    3    3    0    0  0.29780360270E+02  0.31517224679E+02  0.12350986453E+02  0.45086176813E+02  0.10566000000E+00 0.  1.
         23    2    1    0    0    0 -0.16837282885E+01  0.16229089956E+02 -0.24286132301E+02  0.95741932328E+02  0.91161851023E+02 0.  0.
         13    1    3    3    0    0 -0.31464088558E+02 -0.15288134722E+02 -0.36637118755E+02  0.50655755515E+02  0.10566000000E+00 0. -1.
         22    1    1    0    0    0  0.16837282885E+01 -0.16229089956E+02  0.24286132301E+02  0.29258067672E+02  0.00000000000E+00 0. -1.
</event>
<event>
 4    1  0.2491889E-009  0.9118800E+02  0.7818608E-02  0.1130116E+00
         25   -1    0    0    0    0  0.00000000000E+00  0.00000000000E+00  0.99999998245E-14  0.12500000000E+03  0.12500000000E+03 0.  0.
        -13    1    1    0    0    0  0.47941411527E+01  0.17118855450E+01 -0.99645541879E+01  0.11190078003E+02  0.10566000000E+00 0.  1.
         13    1    1    0    0    0  0.18200469392E+02 -0.20029722498E+01  0.57855458291E+02  0.60683887500E+02  0.10566000000E+00 0. -1.
         22    1    1    0    0    0 -0.22994610545E+02  0.29108670479E+00 -0.47890904104E+02  0.53126034497E+02  0.00000000000E+00 0. -1.
</event>
<event>
 5    1  0.2491889E-009  0.9118800E+02  0.7818608E-02  0.1130116E+00
         25   -1    0    0    0    0  0.00000000000E+00  0.00000000000E+00  0.99999998245E-14  0.12500000000E+03  0.12500000000E+03 0.  0.
        -13    1    3    3    0    0 -0.13449422977E+02  0.47676219624E+02 -0.35921063316E+02  0.61190218579E+02  0.10566000000E+00 0. -1.
         23    2    1    0    0    0 -0.12042327174E+02  0.26740567660E+02 -0.11221727840E+02  0.93599318825E+02  0.88174994791E+02 0.  0.
         13    1    3    3    0    0  0.14070958033E+01 -0.20935651964E+02  0.24699335476E+02  0.32409100246E+02  0.10566000000E+00 0.  1.
         22    1    1    0    0    0  0.12042327174E+02 -0.26740567660E+02  0.11221727840E+02  0.31400681175E+02  0.00000000000E+00 0. -1.
</event>
<event>
 5    1  0.2491889E-009  0.9118800E+02  0.7818608E-02  0.1130116E+00
         25   -1    0    0    0    0  0.00000000000E+00  0.00000000000E+00  0.99999998245E-14  0.12500000000E+03  0.12500000000E+03 0.  0.
        -13    1    3    3    0    0  0.25555658279E+02  0.33152805702E+02 -0.33132924353E+02  0.53385410331E+02  0.10566000000E+00 0.  1.
         23    2    1    0    0    0 -0.83952090852E+00  0.49891653272E+01 -0.32621899158E+02  0.91988110162E+02  0.85860512114E+02 0.  0.
         13    1    3    3    0    0 -0.26395179187E+02 -0.28163640375E+02  0.51102519476E+00  0.38602699831E+02  0.10566000000E+00 0. -1.
         22    1    1    0    0    0  0.83952090852E+00 -0.49891653272E+01  0.32621899158E+02  0.33011889838E+02  0.00000000000E+00 0.  1.
</event>
<event>
 5    1  0.2491889E-009  0.9118800E+02  0.7818608E-02  0.1130116E+00
         25   -1    0    0    0    0  0.00000000000E+00  0.00000000000E+00  0.99999998245E-14  0.12500000000E+03  0.12500000000E+03 0.  0.
        -13    1    3    3    0    0  0.13974045241E+02 -0.59098269134E+02  0.65820077319E+01  0.61083658575E+02  0.10566000000E+00 0. -1.
         23    2    1    0    0    0  0.14815554799E+02 -0.25319092248E+02 -0.73037186381E+00  0.95655655753E+02  0.91043472793E+02 0.  0.
         13    1    3    3    0    0  0.84150955786E+00  0.33779176887E+02 -0.73123795957E+01  0.34571997178E+02  0.10566000000E+00 0.  1.
         22    1    1    0    0    0 -0.14815554799E+02  0.25319092248E+02  0.73037186381E+00  0.29344344247E+02  0.00000000000E+00 0. -1.
</event>
<event>
 5    1  0.2491889E-009  0.9118800E+02  0.7818608E-02  0.1130116E+00
         25   -1    0    0    0    0  0.00000000000E+00  0.00000000000E+00  0.99999998245E-14  0.12500000000E+03  0.12500000000E+03 0.  0.
        -13    1    3    3    0    0 -0.17382984123E+02  0.29756866946E+02 -0.79747622591E+01  0.35372973646E+02  0.10566000000E+00 0. -1.
         23    2    1    0    0    0  0.35552379228E+01 -0.26926114634E+02 -0.10571322377E+02  0.95855391189E+02  0.91317291885E+02 0.  0.
         13    1    3    3    0    0  0.20938222046E+02 -0.56682981580E+02 -0.25965601177E+01  0.60482417542E+02  0.10566000000E+00 0.  1.
         22    1    1    0    0    0 -0.35552379228E+01  0.26926114634E+02  0.10571322377E+02  0.29144608811E+02  0.00000000000E+00 0.  1.
</event>
<event>
 5    1  0.2491889E-009  0.9118800E+02  0.7818608E-02  0.1130116E+00
         25   -1    0    0    0    0  0.00000000000E+00  0.00000000000E+00  0.99999998245E-14  0.12500000000E+03  0.12500000000E+03 0.  0.
        -13    1    3    3    0    0 -0.52978740879E+02 -0.58986851912E+01 -0.12759852044E+02  0.54812101404E+02  0.10566000000E+00 0. -1.
         23    2    1    0    0    0 -0.13513782958E+02 -0.14238590055E+02 -0.21290132540E+02  0.96040899183E+02  0.91570873075E+02 0.  0.
         13    1    3    3    0    0  0.39464957921E+02 -0.83399048640E+01 -0.85302804955E+01  0.41228797778E+02  0.10566000000E+00 0.  1.
         22    1    1    0    0    0  0.13513782958E+02  0.14238590055E+02  0.21290132540E+02  0.28959100817E+02  0.00000000000E+00 0. -1.
</event>
<event>
 5    1  0.2491889E-009  0.9118800E+02  0.7818608E-02  0.1130116E+00
         25   -1    0    0    0    0  0.00000000000E+00  0.00000000000E+00  0.99999998245E-14  0.12500000000E+03  0.12500000000E+03 0.  0.
        -13    1    3    3    0    0 -0.18360121723E+02  0.30435465902E+01 -0.29483781290E+02  0.34866341488E+02  0.10566000000E+00 0.  1.
         23    2    1    0    0    0  0.21302317229E+02 -0.18093916229E+02  0.10619696079E+02  0.95100895186E+02  0.90278589912E+02 0.  0.
         13    1    3    3    0    0  0.39662438953E+02 -0.21137462820E+02  0.40103477369E+02  0.60234553698E+02  0.10566000000E+00 0. -1.
         22    1    1    0    0    0 -0.21302317229E+02  0.18093916229E+02 -0.10619696079E+02  0.29899104814E+02  0.00000000000E+00 0. -1.
</event>
<event>
 5    1  0.2491889E-009  0.9118800E+02  0.7818608E-02  0.1130116E+00
         25   -1    0    0    0    0  0.00000000000E+00  0.00000000000E+00  0.99999998245E-14  0.12500000000E+03  0.12500000000E+03 0.  0.
        -13    1    3    3    0    0  0.27950351005E+01  0.52623077912E+02  0.26298261681E+02  0.58894908792E+02  0.10566000000E+00 0.  1.
         23    2    1    0    0    0  0.32410893917E+01  0.15672563759E+02  0.24301206517E+02  0.95902189886E+02  0.91381329995E+02 0.  0.
         13    1    3    3    0    0  0.44605429125E+00 -0.36950514153E+02 -0.19970551635E+01  0.37007281094E+02  0.10566000000E+00 0. -1.
         22    1    1    0    0    0 -0.32410893917E+01 -0.15672563759E+02 -0.24301206517E+02  0.29097810114E+02  0.00000000000E+00 0.  1.
</event>
<event>
 5    1  0.2491889E-009  0.9118800E+02  0.7818608E-02  0.1130116E+00
         25   -1    0    0    0    0  0.00000000000E+00  0.00000000000E+00  0.99999998245E-14  0.12500000000E+03  0.12500000000E+03 0.  0.
        -13    1    3    3    0    0  0.59542698948E+01  0.57864057263E+02  0.80823504189E+01  0.58728511008E+02  0.10566000000E+00 0.  1.
         23    2    1    0    0    0  0.16859780630E+02  0.23933112853E+02 -0.16630957822E+01  0.95677449270E+02  0.91073389733E+02 0.  0.
         13    1    3    3    0    0  0.10905510735E+02 -0.33930944410E+02 -0.97454462011E+01  0.36948938262E+02  0.10566000000E+00 0. -1.
         22    1    1    0    0    0 -0.16859780630E+02 -0.23933112853E+02  0.16630957822E+01  0.29322550730E+02  0.00000000000E+00 0.  1.
</event>
<event>
 5    1  0.2491889E-009  0.9118800E+02  0.7818608E-02  0.1130116E+00
         25   -1    0    0    0    0  0.00000000000E+00  0.00000000000E+00  0.99999998245E-14  0.12500000000E+03  0.12500000000E+03 0.  0.
        -13    1    3    3    0    0  0.33236871638E+02 -0.22044038914E+02  0.27349805017E+02  0.48359614209E+02  0.10566000000E+00 0. -1.
         23    2    1    0    0    0 -0.44469227633E+01  0.61695223102E+01  0.28554247312E+02  0.95450327123E+02  0.90761124831E+02 0.  0.
         13    1    3    3    0    0 -0.37683794402E+02  0.28213561224E+02  0.12044422957E+01  0.47090712914E+02  0.10566000000E+00 0.  1.
         22    1    1    0    0    0  0.44469227633E+01 -0.61695223102E+01 -0.28554247312E+02  0.29549672877E+02  0.00000000000E+00 0.  1.
</event>
<event>
 5    1  0.2491889E-009  0.9118800E+02  0.7818608E-02  0.1130116E+00
         25   -1    0    0    0    0  0.00000000000E+00  0.00000000000E+00  0.99999998245E-14  0.12500000000E+03  0.12500000000E+03 0.  0.
        -13    1    3    3    0    0  0.32876095246E+02  0.23816124808E+02  0.58356708506E+01  0.41013554562E+02  0.10566000000E+00 0.  1.
         23    2    1    0    0    0 -0.11718697827E+02  0.15648836635E+02 -0.23054009707E+02  0.94772507045E+02  0.89822751913E+02 0.  0.
         13    1    3    3    0    0 -0.44594793073E+02 -0.81672881732E+01 -0.28889680558E+02  0.53758952483E+02  0.10566000000E+00 0. -1.
         22    1    1    0    0    0  0.11718697827E+02 -0.15648836635E+02  0.23054009707E+02  0.30227492955E+02  0.00000000000E+00 0. -1.
</event>
<event>
 5    1  0.2491889E-009  0.9118800E+02  0.7818608E-02  0.1130116E+00
         25   -1    0    0    0    0  0.00000000000E+00  0.00000000000E+00  0.99999998245E-14  0.12500000000E+03  0.12500000000E+03 0.  0.
        -13    1    3    3    0    0  0.20736596670E+02  0.14689979451E+02  0.15324323133E+02  0.29675713660E+02  0.10566000000E+00 0.  1.
         23    2    1    0    0    0  0.25587925697E+02 -0.23684891798E+02 -0.22279784391E+02  0.83622411459E+02  0.72667756706E+02 0.  0.
         13    1    3    3    0    0  0.48513290273E+01 -0.38374871249E+02 -0.37604107524E+02  0.53946697799E+02  0.10566000000E+00 0. -1.
         22    1    1    0    0    0 -0.25587925697E+02  0.23684891798E+02  0.22279784391E+02  0.41377588541E+02  0.00000000000E+00 0. -1.
</event>
<event>
 5    1  0.2491889E-009  0.9118800E+02  0.7818608E-02  0.1130116E+00
         25   -1    0    0    0    0  0.00000000000E+00  0.00000000000E+00  0.99999998245E-14  0.12500000000E+03  0.12500000000E+03 0.  0.
        -13    1    3    3    0    0  0.27704100129E+02  0.32780613403E+02 -0.21885870271E+02  0.48177673881E+02  0.10566000000E+00 0.  1.
         23    2    1    0    0    0 -0.12417945664E+02  0.44128355807E+01 -0.24280266209E+02  0.97373747638E+02  0.93372570434E+02 0.  0.
         13    1    3    3    0    0 -0.40122045793E+02 -0.28367777822E+02 -0.23943959386E+01  0.49196073757E+02  0.10566000000E+00 0. -1.
         22    1    1    0    0    0  0.12417945664E+02 -0.44128355807E+01  0.24280266209E+02  0.27626252362E+02  0.00000000000E+00 0.  1.
</event>
<event>
 5    1  0.2491889E-009  0.9118800E+02  0.7818608E-02  0.1130116E+00
         25   -1    0    0    0    0  0.00000000000E+00  0.00000000000E+00  0.99999998245E-14  0.12500000000E+03  0.12500000000E+03 0.  0.
        -13    1    3    3    0    0 -0.99389120156E+01 -0.31734988239E+02  0.47469415816E+02  0.57959020459E+02  0.10566000000E+00 0.  1.
         23    2    1    0    0    0 -0.20341869028E+02 -0.11835547934E+02  0.16310503218E+02  0.96366028119E+02  0.92013624153E+02 0.  0.
         13    1    3    3    0    0 -0.10402957012E+02  0.19899440306E+02 -0.31158912598E+02  0.38407007660E+02  0.10566000000E+00 0. -1.
         22    1    1    0    0    0  0.20341869028E+02  0.11835547934E+02 -0.16310503218E+02  0.28633971881E+02  0.00000000000E+00 0.  1.
</event>
<event>
 5    1  0.2491889E-009  0.9118800E+02  0.7818608E-02  0.1130116E+00
         25   -1    0    0    0    0  0.00000000000E+00  0.00000000000E+00  0.99999998245E-14  0.12500000000E+03  0.12500000000E+03 0.  0.
        -13    1    3    3    0    0  0.15109245221E+02 -0.10704773337E+02 -0.57130312711E+02  0.60056350687E+02  0.10566000000E+00 0. -1.
         23    2    1    0    0    0  0.82360551939E+01  0.74891244083E+01 -0.25315034334E+02  0.97345514778E+02  0.93334766805E+02 0.  0.
         13    1    3    3    0    0 -0.68731900270E+01  0.18193897745E+02  0.31815278378E+02  0.37289164091E+02  0.10566000000E+00 0.  1.
         22    1    1    0    0    0 -0.82360551939E+01 -0.74891244083E+01  0.25315034334E+02  0.27654485222E+02  0.00000000000E+00 0. -1.
</event>
<event>
 5    1  0.2491889E-009  0.9118800E+02  0.7818608E-02  0.1130116E+00
         25   -1    0    0    0    0  0.00000000000E+00  0.00000000000E+00  0.99999998245E-14  0.12500000000E+03  0.12500000000E+03 0.  0.
        -13    1    3    3    0    0  0.19772488243E+02 -0.17903558117E+02  0.37085359392E+02  0.45681765835E+02  0.10566000000E+00 0. -1.
         23    2    1    0    0    0  0.23217414452E+02  0.17844973021E+02  0.23868885699E+01  0.95619927961E+02  0.90994406368E+02 0.  0.
         13    1    3    3    0    0  0.34449262095E+01  0.35748531138E+02 -0.34698470822E+02  0.49938162126E+02  0.10566000000E+00 0.  1.
         22    1    1    0    0    0 -0.23217414452E+02 -0.17844973021E+02 -0.23868885699E+01  0.29380072039E+02  0.00000000000E+00 0.  1.
</event>
<event>
 5    1  0.2491889E-009  0.9118800E+02  0.7818608E-02  0.1130116E+00
         25   -1    0    0    0    0  0.00000000000E+00  0.00000000000E+00  0.99999998245E-14  0.12500000000E+03  0.12500000000E+03 0.  0.
        -13    1    3    3    0    0  0.11225433547E+02 -0.66745461710E+01 -0.32832699854E+02  0.35334929866E+02  0.10566000000E+00 0. -1.
         23    2    1    0    0    0 -0.10290808046E+02 -0.16426570398E+02  0.22382093829E+02  0.95391030592E+02  0.90679422406E+02 0.  0.
         13    1    3    3    0    0 -0.21516241593E+02 -0.97520242269E+01  0.55214793683E+02  0.60056100725E+02  0.10566000000E+00 0.  1.
         22    1    1    0    0    0  0.10290808046E+02  0.16426570398E+02 -0.22382093829E+02  0.29608969408E+02  0.00000000000E+00 0.  1.
</event>
<event>
 5    1  0.2491889E-009  0.9118800E+02  0.7818608E-02  0.1130116E+00
         25   -1    0    0    0    0  0.00000000000E+00  0.00000000000E+00  0.99999998245E-14  0.12500000000E+03  0.12500000000E+03 0.  0.
        -13    1    3    3    0    0 -0.46588407295E+02 -0.34158012834E+02  0.87765909046E+01  0.58431919761E+02  0.10566000000E+00 0. -1.
         23    2    1    0    0    0 -0.14244470344E+02 -0.23619101518E+02 -0.78880033275E+01  0.96312241489E+02  0.91940526278E+02 0.  0.
         13    1    3    3    0    0  0.32343936951E+02  0.10538911316E+02 -0.16664594232E+02  0.37880321727E+02  0.10566000000E+00 0.  1.
         22    1    1    0    0    0  0.14244470344E+02  0.23619101518E+02  0.78880033275E+01  0.28687758511E+02  0.00000000000E+00 0. -1.
</event>
<event>
 5    1  0.2491889E-009  0.9118800E+02  0.7818608E-02  0.1130116E+00
         25   -1    0    0    0    0  0.00000000000E+00  0.00000000000E+00  0.99999998245E-14  0.12500000000E+03  0.12500000000E+03 0.  0.
        -13    1    3    3    0    0 -0.10691775825E+02 -0.28836882129E+02  0.36685062240E+02  0.47871544750E+02  0.10566000000E+00 0. -1.
         23    2    1    0    0    0  0.14973928566E+02 -0.25899975712E+02 -0.26874627234E+01  0.94962527828E+02  0.90086802346E+02 0.  0.
         13    1    3    3    0    0  0.25665704391E+02  0.29369064166E+01 -0.39372524963E+02  0.47090983078E+02  0.10566000000E+00 0.  1.
         22    1    1    0    0    0 -0.14973928566E+02  0.25899975712E+02  0.26874627234E+01  0.30037472172E+02  0.00000000000E+00 0. -1.
</event>
<event>
 5    1  0.2491889E-009  0.9118800E+02  0.7818608E-02  0.1130116E+00
         25   -1    0    0    0    0  0.00000000000E+00  0.00000000000E+00  0.99999998245E-14  0.12500000000E+03  0.12500000000E+03 0.  0.
        -13    1    3    3    0    0  0.15317171321E+02  0.28452907013E+02  0.18466308805E+02  0.37218266748E+02  0.10566000000E+00 0.  1.
         23    2    1    0    0    0 -0.27452674857E+02 -0.74992401178E-01 -0.97544981816E+01  0.95865738118E+02  0.91331454217E+02 0.  0.
         13    1    3    3    0    0 -0.42769846178E+02 -0.28527899415E+02 -0.28220806987E+02  0.58647471370E+02  0.10566000000E+00 0. -1.
         22    1    1    0    0    0  0.27452674857E+02  0.74992401178E-01  0.97544981816E+01  0.29134261882E+02  0.00000000000E+00 0. -1.
</event>
<event>
 5    1  0.2491889E-009  0.9118800E+02  0.7818608E-02  0.1130116E+00
         25   -1    0    0    0    0  0.00000000000E+00  0.00000000000E+00  0.99999998245E-14  0.12500000000E+03  0.12500000000E+03 0.  0.
        -13    1    3    3    0    0 -0.44817895663E+02  0.19386534974E+02 -0.16314943678E+02  0.51484658503E+02  0.10566000000E+00 0.  1.
         23    2    1    0    0    0 -0.25894694524E+02  0.11997433337E+02  0.17925764404E+02  0.91298269472E+02  0.84850264395E+02 0.  0.
         13    1    3    3    0    0  0.18923201140E+02 -0.73891016367E+01  0.34240708082E+02  0.39813610968E+02  0.10566000000E+00 0. -1.
         22    1    1    0    0    0  0.25894694524E+02 -0.11997433337E+02 -0.17925764404E+02  0.33701730528E+02  0.00000000000E+00 0.  1.
</event>
<event>
 5    1  0.2491889E-009  0.9118800E+02  0.7818608E-02  0.1130116E+00
         25   -1    0    0    0    0  0.00000000000E+00  0.00000000000E+00  0.99999998245E-14  0.12500000000E+03  0.12500000000E+03 0.  0.
        -13    1    3    3    0    0  0.28396488816E+02  0.12045945731E+02  0.52452840940E+02  0.60850448415E+02  0.10566000000E+00 0.  1.
         23    2    1    0    0    0  0.19772759821E+02 -0.24390326553E+01  0.25517401692E+02  0.92626419717E+02  0.86784819694E+02 0.  0.
         13    1    3    3    0    0 -0.86237289948E+01 -0.14484978386E+02 -0.26935439248E+02  0.31775971302E+02  0.10566000000E+00 0. -1.
         22    1    1    0    0    0 -0.19772759821E+02  0.24390326553E+01 -0.25517401692E+02  0.32373580283E+02  0.00000000000E+00 0.  1.
</event>
<event>
 5    1  0.2491889E-009  0.9118800E+02  0.7818608E-02  0.1130116E+00
         25   -1    0    0    0    0  0.00000000000E+00  0.00000000000E+00  0.99999998245E-14  0.12500000000E+03  0.12500000000E+03 0.  0.
        -13    1    3    3    0    0 -0.13921296388E+02  0.89386786664E+01 -0.33800857922E+02  0.37632587338E+02  0.10566000000E+00 0.  1.
         23    2    1    0    0    0 -0.19365201118E+02 -0.10513407638E+02  0.20087877159E+02  0.95182797528E+02  0.90391921000E+02 0.  0.
         13    1    3    3    0    0 -0.54439047296E+01 -0.19452086304E+02  0.53888735081E+02  0.57550210190E+02  0.10566000000E+00 0. -1.
         22    1    1    0    0    0  0.19365201118E+02  0.10513407638E+02 -0.20087877159E+02  0.29817202472E+02  0.00000000000E+00 0. -1.
</event>
<event>
 5    1  0.2491889E-009  0.9118800E+02  0.7818608E-02  0.1130116E+00
         25   -1    0    0    0    0  0.00000000000E+00  0.00000000000E+00  0.99999998245E-14  0.12500000000E+03  0.12500000000E+03 0.  0.
        -13    1    3    3    0    0  0.46752916867E+02 -0.18331776784E+02 -0.19805074780E+02  0.53982788245E+02  0.10566000000E+00 0. -1.
         23    2    1    0    0    0  0.63500437525E+01 -0.23703545897E+02 -0.17601316013E+02  0.94800869729E+02  0.89862213595E+02 0.  0.
         13    1    3    3    0    0 -0.40402873115E+02 -0.53717691121E+01  0.22037587667E+01  0.40818081484E+02  0.10566000000E+00 0.  1.
         22    1    1    0    0    0 -0.63500437525E+01  0.23703545897E+02  0.17601316013E+02  0.30199130271E+02  0.00000000000E+00 0. -1.
</event>
<event>
 5    1  0.2491889E-009  0.9118800E+02  0.7818608E-02  0.1130116E+00
         25   -1    0    0    0    0  0.00000000000E+00  0.00000000000E+00  0.99999998245E-14  0.12500000000E+03  0.12500000000E+03 0.  0.
        -13    1    3    3    0    0  0.38059997571E+02 -0.13574383902E+02  0.24991332261E+02  0.47512158083E+02  0.10566000000E+00 0.  1.
         23    2    1    0    0    0  0.23407894233E+02  0.14670618234E+02 -0.10742388364E+02  0.95359563776E+02  0.90636035571E+02 0.  0.
         13    1    3    3    0    0 -0.14652103338E+02  0.28245002136E+02 -0.35733720624E+02  0.47847405693E+02  0.10566000000E+00 0. -1.
         22    1    1    0    0    0 -0.23407894233E+02 -0.14670618234E+02  0.10742388364E+02  0.29640436224E+02  0.00000000000E+00 0.  1.
</event>
<event>
 5    1  0.2491889E-009  0.9118800E+02  0.7818608E-02  0.1130116E+00
         25   -1    0    0    0    0  0.00000000000E+00  0.00000000000E+00  0.99999998245E-14  0.12500000000E+03  0.12500000000E+03 0.  0.
        -13    1    3    3    0    0 -0.94333908437E+01 -0.52464031149E+02  0.29283293034E+02  0.60819288406E+02  0.10566000000E+00 0. -1.
         23    2    1    0    0    0  0.47310595899E+01 -0.25036031575E+02  0.18479587343E+02  0.93524915406E+02  0.88069454701E+02 0.  0.
         13    1    3    3    0    0  0.14164450434E+02  0.27427999574E+02 -0.10803705692E+02  0.32705627000E+02  0.10566000000E+00 0.  1.
         22    1    1    0    0    0 -0.47310595899E+01  0.25036031575E+02 -0.18479587343E+02  0.31475084594E+02  0.00000000000E+00 0. -1.
</event>
<event>
 5    1  0.2491889E-009  0.9118800E+02  0.7818608E-02  0.1130116E+00
         25   -1    0    0    0    0  0.00000000000E+00  0.00000000000E+00  0.99999998245E-14  0.12500000000E+03  0.12500000000E+03 0.  0.
        -13    1    3    3    0    0  0.89107198617E+01  0.15970317693E+02 -0.34362825658E+02  0.38926429671E+02  0.10566000000E+00 0. -1.
         23    2    1    0    0    0  0.14283409225E+02 -0.26289495594E+02  0.21093452565E+01  0.95006622479E+02  0.90147965145E+02 0.  0.
         13    1    3    3    0    0  0.53726893631E+01 -0.42259813288E+02  0.36472170915E+02  0.56080192808E+02  0.10566000000E+00 0.  1.
         22    1    1    0    0    0 -0.14283409225E+02  0.26289495594E+02 -0.21093452565E+01  0.29993377521E+02  0.00000000000E+00 0.  1.
</event>
<event>
 5    1  0.2491889E-009  0.9118800E+02  0.7818608E-02  0.1130116E+00
         25   -1    0    0    0    0  0.00000000000E+00  0.00000000000E+00  0.99999998245E-14  0.12500000000E+03  0.12500000000E+03 0.  0.
        -13    1    3    3    0    0 -0.92191028403E+00  0.31219686363E+02 -0.36166476970E+02  0.47786441127E+02  0.10566000000E+00 0. -1.
         23    2    1    0    0    0 -0.24014412551E+02 -0.55678710295E+01 -0.15432169187E+02  0.95916584729E+02  0.91401018497E+02 0.  0.
         13    1    3    3    0    0 -0.23092502267E+02 -0.36787557392E+02  0.20734307783E+02  0.48130143602E+02  0.10566000000E+00 0.  1.
         22    1    1    0    0    0  0.24014412551E+02  0.55678710295E+01  0.15432169187E+02  0.29083415271E+02  0.00000000000E+00 0.  1.
</event>
<event>
 5    1  0.2491889E-009  0.9118800E+02  0.7818608E-02  0.1130116E+00
         25   -1    0    0    0    0  0.00000000000E+00  0.00000000000E+00  0.99999998245E-14  0.12500000000E+03  0.12500000000E+03 0.  0.
        -13    1    3    3    0    0 -0.14471178594E+02 -0.48833345065E+02 -0.28255326073E+02  0.58245044558E+02  0.10566000000E+00 0.  1.
         23    2    1    0    0    0 -0.14249967017E+02 -0.10734765111E+02 -0.21705442772E+02  0.96903327814E+02  0.92740670440E+02 0.  0.
         13    1    3    3    0    0  0.22121157680E+00  0.38098579953E+02  0.65498833008E+01  0.38658283256E+02  0.10566000000E+00 0. -1.
         22    1    1    0    0    0  0.14249967017E+02  0.10734765111E+02  0.21705442772E+02  0.28096672186E+02  0.00000000000E+00 0.  1.
</event>
<event>
 5    1  0.2491889E-009  0.9118800E+02  0.7818608E-02  0.1130116E+00
         25   -1    0    0    0    0  0.00000000000E+00  0.00000000000E+00  0.99999998245E-14  0.12500000000E+03  0.12500000000E+03 0.  0.
        -13    1    3    3    0    0 -0.15549531808E+02 -0.45272584053E+02  0.34089291074E+00  0.47869846232E+02  0.10566000000E+00 0.  1.
         23    2    1    0    0    0  0.22721206703E+02 -0.15188481238E+02 -0.61668674665E+01  0.96982622344E+02  0.92847485620E+02 0.  0.
         13    1    3    3    0    0  0.38270738511E+02  0.30084102814E+02 -0.65077603773E+01  0.49112776112E+02  0.10566000000E+00 0. -1.
         22    1    1    0    0    0 -0.22721206703E+02  0.15188481238E+02  0.61668674665E+01  0.28017377656E+02  0.00000000000E+00 0.  1.
</event>
<event>
 5    1  0.2491889E-009  0.9118800E+02  0.7818608E-02  0.1130116E+00
         25   -1    0    0    0    0  0.00000000000E+00  0.00000000000E+00  0.99999998245E-14  0.12500000000E+03  0.12500000000E+03 0.  0.
        -13    1    3    3    0    0  0.19719454312E+02  0.82295221493E+00  0.48644366111E+02  0.52495901241E+02  0.10566000000E+00 0.  1.
         23    2    1    0    0    0 -0.13845927588E+01  0.23010412822E+02  0.22985250969E+02  0.92446690530E+02  0.86525560574E+02 0.  0.
         13    1    3    3    0    0 -0.21104047071E+02  0.22187460607E+02 -0.25659115142E+02  0.39950789289E+02  0.10566000000E+00 0. -1.
         22    1    1    0    0    0  0.13845927588E+01 -0.23010412822E+02 -0.22985250969E+02  0.32553309470E+02  0.00000000000E+00 0. -1.
</event>
<event>
 5    1  0.2491889E-009  0.9118800E+02  0.7818608E-02  0.1130116E+00
         25   -1    0    0    0    0  0.00000000000E+00  0.00000000000E+00  0.99999998245E-14  0.12500000000E+03  0.12500000000E+03 0.  0.
        -13    1    3    3    0    0 -0.12183264364E+02  0.40016080091E+02  0.31568884710E+02  0.52405383715E+02  0.10566000000E+00 0. -1.
         23    2    1    0    0    0 -0.24390964686E+02  0.16172351807E+02 -0.23662122034E+01  0.95639089225E+02  0.91020724598E+02 0.  0.
         13    1    3    3    0    0 -0.12207700322E+02 -0.23843728283E+02 -0.33935096914E+02  0.43233705511E+02  0.10566000000E+00 0.  1.
         22    1    1    0    0    0  0.24390964686E+02 -0.16172351807E+02  0.23662122034E+01  0.29360910775E+02  0.00000000000E+00 0. -1.
</event>
<event>
 5    1  0.2491889E-009  0.9118800E+02  0.7818608E-02  0.1130116E+00
         25   -1    0    0    0    0  0.00000000000E+00  0.00000000000E+00  0.99999998245E-14  0.12500000000E+03  0.12500000000E+03 0.  0.
        -13    1    3    3    0    0  0.35726480112E+02  0.91891550430E+01  0.46000646907E+01  0.37175176002E+02  0.10566000000E+00 0. -1.
         23    2    1    0    0    0 -0.19886580528E+02  0.22076407217E+01  0.21414371778E+02  0.95692576345E+02  0.91094149572E+02 0.  0.
         13    1    3    3    0    0 -0.55613060640E+02 -0.69815143213E+01  0.16814307087E+02  0.58517400343E+02  0.10566000000E+00 0.  1.
         22    1    1    0    0    0  0.19886580528E+02 -0.22076407217E+01 -0.21414371778E+02  0.29307423655E+02  0.00000000000E+00 0.  1.
</event>
<event>
 5    1  0.2491889E-009  0.9118800E+02  0.7818608E-02  0.1130116E+00
         25   -1    0    0    0    0  0.00000000000E+00  0.00000000000E+00  0.99999998245E-14  0.12500000000E+03  0.12500000000E+03 0.  0.
        -13    1    3    3    0    0 -0.43411776386E+02 -0.37741931759E+01  0.70184999989E+01  0.44137256025E+02  0.10566000000E+00 0.  1.
         23    2    1    0    0    0 -0.74820537433E+01  0.36574641660E+01 -0.28563249107E+02  0.95247397225E+02  0.90481209686E+02 0.  0.
         13    1    3    3    0    0  0.35929722643E+02  0.74316573419E+01 -0.35581749106E+02  0.51110141200E+02  0.10566000000E+00 0. -1.
         22    1    1    0    0    0  0.74820537433E+01 -0.36574641660E+01  0.28563249107E+02  0.29752602775E+02  0.00000000000E+00 0. -1.
</event>
<event>
 5    1  0.2491889E-009  0.9118800E+02  0.7818608E-02  0.1130116E+00
         25   -1    0    0    0    0  0.00000000000E+00  0.00000000000E+00  0.99999998245E-14  0.12500000000E+03  0.12500000000E+03 0.  0.
        -13    1    3    3    0    0  0.17451353564E+02  0.31501801797E+01 -0.36630493678E+02  0.40697390672E+02  0.10566000000E+00 0.  1.
         23    2    1    0    0    0 -0.21264314143E+02 -0.11432814056E+02  0.60213171024E+01  0.10011754528E+03  0.96976215230E+02 0.  0.
         13    1    3    3    0    0 -0.38715667706E+02 -0.14582994235E+02  0.42651810781E+02  0.59420154609E+02  0.10566000000E+00 0. -1.
         22    1    1    0    0    0  0.21264314143E+02  0.11432814056E+02 -0.60213171024E+01  0.24882454719E+02  0.00000000000E+00 0. -1.
</event>
<event>
 5    1  0.2491889E-009  0.9118800E+02  0.7818608E-02  0.1130116E+00
         25   -1    0    0    0    0  0.00000000000E+00  0.00000000000E+00  0.99999998245E-14  0.12500000000E+03  0.12500000000E+03 0.  0.
        -13    1    3    3    0    0 -0.23897233513E+02  0.53171884970E+02 -0.21694960965E+02  0.62201363459E+02  0.10566000000E+00 0. -1.
         23    2    1    0    0    0 -0.12931443923E+02  0.21938170500E+02 -0.12902797845E+02  0.96452009544E+02  0.92130355400E+02 0.  0.
         13    1    3    3    0    0  0.10965789590E+02 -0.31233714470E+02  0.87921631195E+01  0.34250646085E+02  0.10566000000E+00 0.  1.
         22    1    1    0    0    0  0.12931443923E+02 -0.21938170500E+02  0.12902797845E+02  0.28547990456E+02  0.00000000000E+00 0. -1.
</event>
<event>
 5    1  0.2491889E-009  0.9118800E+02  0.7818608E-02  0.1130116E+00
         25   -1    0    0    0    0  0.00000000000E+00  0.00000000000E+00  0.99999998245E-14  0.12500000000E+03  0.12500000000E+03 0.  0.
        -13    1    3    3    0    0 -0.23524998732E+02 -0.30871387138E+02  0.56027287514E+00  0.38817433956E+02  0.10566000000E+00 0. -1.
         23    2    1    0    0    0  0.24975819446E+02 -0.77017702092E+01 -0.15115337192E+02  0.94807579763E+02  0.89871546892E+02 0.  0.
         13    1    3    3    0    0  0.48500818177E+02  0.23169616929E+02 -0.15675610067E+02  0.55990145807E+02  0.10566000000E+00 0.  1.
         22    1    1    0    0    0 -0.24975819446E+02  0.77017702092E+01  0.15115337192E+02  0.30192420237E+02  0.00000000000E+00 0.  1.
</event>
<event>
 5    1  0.2491889E-009  0.9118800E+02  0.7818608E-02  0.1130116E+00
         25   -1    0    0    0    0  0.00000000000E+00  0.00000000000E+00  0.99999998245E-14  0.12500000000E+03  0.12500000000E+03 0.  0.
        -13    1    3    3    0    0  0.47893574590E+02  0.18693730984E+02 -0.68813262348E+01  0.51871127613E+02  0.10566000000E+00 0.  1.
         23    2    1    0    0    0  0.20003316032E+02  0.17771056245E+01  0.21837996881E+02  0.95332022913E+02  0.90598044836E+02 0.  0.
         13    1    3    3    0    0 -0.27890258558E+02 -0.16916625359E+02  0.28719323116E+02  0.43460895299E+02  0.10566000000E+00 0. -1.
         22    1    1    0    0    0 -0.20003316032E+02 -0.17771056245E+01 -0.21837996881E+02  0.29667977087E+02  0.00000000000E+00 0.  1.
</event>
<event>
 5    1  0.2491889E-009  0.9118800E+02  0.7818608E-02  0.1130116E+00
         25   -1    0    0    0    0  0.00000000000E+00  0.00000000000E+00  0.99999998245E-14  0.12500000000E+03  0.12500000000E+03 0.  0.
        -13    1    3    3    0    0 -0.36188792038E+02 -0.14180736165E+02  0.82622688887E+01  0.39736610305E+02  0.10566000000E+00 0. -1.
         23    2    1    0    0    0  0.81850279354E+01 -0.33445776415E+02 -0.57270182647E+01  0.90094221388E+02  0.83057542384E+02 0.  0.
         13    1    3    3    0    0  0.44373819973E+02 -0.19265040250E+02 -0.13989287153E+02  0.50357611082E+02  0.10566000000E+00 0.  1.
         22    1    1    0    0    0 -0.81850279354E+01  0.33445776415E+02  0.57270182647E+01  0.34905778612E+02  0.00000000000E+00 0. -1.
</event>
<event>
 5    1  0.2491889E-009  0.9118800E+02  0.7818608E-02  0.1130116E+00
         25   -1    0    0    0    0  0.00000000000E+00  0.00000000000E+00  0.99999998245E-14  0.12500000000E+03  0.12500000000E+03 0.  0.
        -13    1    3    3    0    0 -0.13824067104E+02  0.46345343364E+02  0.11519904421E+02  0.49716345850E+02  0.10566000000E+00 0.  1.
         23    2    1    0    0    0 -0.16182044677E+01  0.81395952914E+01  0.29997125008E+02  0.93876068598E+02  0.88566456119E+02 0.  0.
         13    1    3    3    0    0  0.12205862637E+02 -0.38205748072E+02  0.18477220587E+02  0.44159722747E+02  0.10566000000E+00 0. -1.
         22    1    1    0    0    0  0.16182044677E+01 -0.81395952914E+01 -0.29997125008E+02  0.31123931402E+02  0.00000000000E+00 0.  1.
</event>
<event>
 5    1  0.2491889E-009  0.9118800E+02  0.7818608E-02  0.1130116E+00
         25   -1    0    0    0    0  0.00000000000E+00  0.00000000000E+00  0.99999998245E-14  0.12500000000E+03  0.12500000000E+03 0.  0.
        -13    1    3    3    0    0  0.43294887326E+02  0.77404816254E+01  0.28678940749E+02  0.52505762835E+02  0.10566000000E+00 0. -1.
         23    2    1    0    0    0  0.22231349905E+02  0.14748013478E+02 -0.95094129832E+01  0.96677469121E+02  0.92435746766E+02 0.  0.
         13    1    3    3    0    0 -0.21063537422E+02  0.70075318529E+01 -0.38188353732E+02  0.44171706285E+02  0.10566000000E+00 0.  1.
         22    1    1    0    0    0 -0.22231349905E+02 -0.14748013478E+02  0.95094129832E+01  0.28322530879E+02  0.00000000000E+00 0.  1.
</event>
<event>
 5    1  0.2491889E-009  0.9118800E+02  0.7818608E-02  0.1130116E+00
         25   -1    0    0    0    0  0.00000000000E+00  0.00000000000E+00  0.99999998245E-14  0.12500000000E+03  0.12500000000E+03 0.  0.
        -13    1    3    3    0    0  0.41125430935E+02 -0.36522402925E+02  0.28330521045E+02  0.61869350826E+02  0.10566000000E+00 0.  1.
         23    2    1    0    0    0  0.14410111376E+02 -0.21060848246E+02  0.11783335883E+02  0.96892035946E+02  0.92725449508E+02 0.  0.
         13    1    3    3    0    0 -0.26715319558E+02  0.15461554679E+02 -0.16547185162E+02  0.35022685120E+02  0.10566000000E+00 0. -1.
         22    1    1    0    0    0 -0.14410111376E+02  0.21060848246E+02 -0.11783335883E+02  0.28107964054E+02  0.00000000000E+00 0.  1.
</event>
<event>
 5    1  0.2491889E-009  0.9118800E+02  0.7818608E-02  0.1130116E+00
         25   -1    0    0    0    0  0.00000000000E+00  0.00000000000E+00  0.99999998245E-14  0.12500000000E+03  0.12500000000E+03 0.  0.
        -13    1    3    3    0    0 -0.22334396026E+02 -0.32969691061E+02 -0.69593401449E+01  0.40426097434E+02  0.10566000000E+00 0.  1.
         23    2    1    0    0    0  0.42861070988E+01  0.18237354960E+02 -0.17810584372E+02  0.99150652896E+02  0.95721801195E+02 0.  0.
         13    1    3    3    0    0  0.26620503125E+02  0.51207046021E+02 -0.10851244227E+02  0.58724555462E+02  0.10566000000E+00 0. -1.
         22    1    1    0    0    0 -0.42861070988E+01 -0.18237354960E+02  0.17810584372E+02  0.25849347104E+02  0.00000000000E+00 0. -1.
</event>
<event>
 5    1  0.2491889E-009  0.9118800E+02  0.7818608E-02  0.1130116E+00
         25   -1    0    0    0    0  0.00000000000E+00  0.00000000000E+00  0.99999998245E-14  0.12500000000E+03  0.12500000000E+03 0.  0.
        -13    1    3    3    0    0 -0.89132739190E+01 -0.46083397075E+02 -0.85379540338E+01  0.47707795601E+02  0.10566000000E+00 0.  1.
         23    2    1    0    0    0  0.12279021104E+02 -0.63831538775E+01 -0.25650672489E+02  0.95854228234E+02  0.91315699956E+02 0.  0.
         13    1    3    3    0    0  0.21192295023E+02  0.39700243198E+02 -0.17112718455E+02  0.48146432633E+02  0.10566000000E+00 0. -1.
         22    1    1    0    0    0 -0.12279021104E+02  0.63831538775E+01  0.25650672489E+02  0.29145771766E+02  0.00000000000E+00 0.  1.
</event>
<event>
 5    1  0.2491889E-009  0.9118800E+02  0.7818608E-02  0.1130116E+00
         25   -1    0    0    0    0  0.00000000000E+00  0.00000000000E+00  0.99999998245E-14  0.12500000000E+03  0.12500000000E+03 0.  0.
        -13    1    3    3    0    0  0.29695805860E+02 -0.11128600679E+02  0.35755296688E+02  0.47792667262E+02  0.10566000000E+00 0.  1.
         23    2    1    0    0    0 -0.49931323661E+01 -0.28845362000E+02  0.18299974567E+02  0.90476452256E+02  0.83630814081E+02 0.  0.
         13    1    3    3    0    0 -0.34688938226E+02 -0.17716761321E+02 -0.17455322121E+02  0.42683784993E+02  0.10566000000E+00 0. -1.
         22    1    1    0    0    0  0.49931323661E+01  0.28845362000E+02 -0.18299974567E+02  0.34523547744E+02  0.00000000000E+00 0.  1.
</event>
<event>
 5    1  0.2491889E-009  0.9118800E+02  0.7818608E-02  0.1130116E+00
         25   -1    0    0    0    0  0.00000000000E+00  0.00000000000E+00  0.99999998245E-14  0.12500000000E+03  0.12500000000E+03 0.  0.
        -13    1    3    3    0    0  0.33150900700E+02 -0.11067386008E+02 -0.21787193508E+02  0.41184489984E+02  0.10566000000E+00 0.  1.
         23    2    1    0    0    0  0.91984368280E+01 -0.34737608956E+01  0.27110974499E+02  0.96161081970E+02  0.91734783439E+02 0.  0.
         13    1    3    3    0    0 -0.23952463872E+02  0.75936251125E+01  0.48898168007E+02  0.54976591986E+02  0.10566000000E+00 0. -1.
         22    1    1    0    0    0 -0.91984368280E+01  0.34737608956E+01 -0.27110974499E+02  0.28838918030E+02  0.00000000000E+00 0. -1.
</event>
<event>
 5    1  0.2491889E-009  0.9118800E+02  0.7818608E-02  0.1130116E+00
         25   -1    0    0    0    0  0.00000000000E+00  0.00000000000E+00  0.99999998245E-14  0.12500000000E+03  0.12500000000E+03 0.  0.
        -13    1    3    3    0    0  0.30091847271E+01  0.45515902140E+02 -0.32916456937E+02  0.56251727455E+02  0.10566000000E+00 0. -1.
         23    2    1    0    0    0  0.28674415409E+01  0.23278268742E+02  0.57447056822E+01  0.10085250199E+03  0.97918974149E+02 0.  0.
         13    1    3    3    0    0 -0.14174318627E+00 -0.22237633398E+02  0.38661162619E+02  0.44600774538E+02  0.10566000000E+00 0.  1.
         22    1    1    0    0    0 -0.28674415409E+01 -0.23278268742E+02 -0.57447056822E+01  0.24147498007E+02  0.00000000000E+00 0. -1.
</event>
<event>
 5    1  0.2491889E-009  0.9118800E+02  0.7818608E-02  0.1130116E+00
         25   -1    0    0    0    0  0.00000000000E+00  0.00000000000E+00  0.99999998245E-14  0.12500000000E+03  0.12500000000E+03 0.  0.
        -13    1    3    3    0    0  0.55401951151E+02 -0.23552454333E+01  0.28345943490E+02  0.62277018624E+02  0.10566000000E+00 0.  1.
         23    2    1    0    0    0  0.24303939988E+02  0.12035776477E+01  0.15728871128E+02  0.96025399312E+02  0.91549712332E+02 0.  0.
         13    1    3    3    0    0 -0.31098011163E+02  0.35588230809E+01 -0.12617072362E+02  0.33748380688E+02  0.10566000000E+00 0. -1.
         22    1    1    0    0    0 -0.24303939988E+02 -0.12035776477E+01 -0.15728871128E+02  0.28974600688E+02  0.00000000000E+00 0.  1.
</event>
<event>
 5    1  0.2491889E-009  0.9118800E+02  0.7818608E-02  0.1130116E+00
         25   -1    0    0    0    0  0.00000000000E+00  0.00000000000E+00  0.99999998245E-14  0.12500000000E+03  0.12500000000E+03 0.  0.
        -13    1    3    3    0    0  0.14255950388E+01 -0.33542759395E+02 -0.19456971848E+02  0.38803787786E+02  0.10566000000E+00 0.  1.
         23    2    1    0    0    0 -0.32927114721E+02 -0.38027365484E+01  0.66296787274E+01  0.91197510015E+02  0.84701697172E+02 0.  0.
         13    1    3    3    0    0 -0.34352709760E+02  0.29740022847E+02  0.26086650575E+02  0.52393722229E+02  0.10566000000E+00 0. -1.
         22    1    1    0    0    0  0.32927114721E+02  0.38027365484E+01 -0.66296787274E+01  0.33802489985E+02  0.00000000000E+00 0. -1.
</event>
<event>
 5    1  0.2491889E-009  0.9118800E+02  0.7818608E-02  0.1130116E+00
         25   -1    0    0    0    0  0.00000000000E+00  0.00000000000E+00  0.99999998245E-14  0.12500000000E+03  0.12500000000E+03 0.  0.
        -13    1    3    3    0    0  0.29984388050E+02 -0.31788130352E+02  0.12026356480E+02  0.45323207877E+02  0.10566000000E+00 0. -1.
         23    2    1    0    0    0  0.16668883841E+02  0.17915956991E+02  0.13979967219E+02  0.96817156161E+02  0.92624451633E+02 0.  0.
         13    1    3    3    0    0 -0.13315504210E+02  0.49704087343E+02  0.19536107390E+01  0.51493948285E+02  0.10566000000E+00 0.  1.
         22    1    1    0    0    0 -0.16668883841E+02 -0.17915956991E+02 -0.13979967219E+02  0.28182843839E+02  0.00000000000E+00 0.  1.
</event>
<event>
 5    1  0.2491889E-009  0.9118800E+02  0.7818608E-02  0.1130116E+00
         25   -1    0    0    0    0  0.00000000000E+00  0.00000000000E+00  0.99999998245E-14  0.12500000000E+03  0.12500000000E+03 0.  0.
        -13    1    3    3    0    0  0.30021746172E+02 -0.29949095879E+02 -0.33377602669E+02  0.53965999584E+02  0.10566000000E+00 0.  1.
         23    2    1    0    0    0 -0.71314174026E+01 -0.21957450922E+02 -0.20598015417E+02  0.94060300514E+02  0.88826094862E+02 0.  0.
         13    1    3    3    0    0 -0.37153163574E+02  0.79916449565E+01  0.12779587252E+02  0.40094300930E+02  0.10566000000E+00 0. -1.
         22    1    1    0    0    0  0.71314174026E+01  0.21957450922E+02  0.20598015417E+02  0.30939699486E+02  0.00000000000E+00 0. -1.
</event>
<event>
 5    1  0.2491889E-009  0.9118800E+02  0.7818608E-02  0.1130116E+00
         25   -1    0    0    0    0  0.00000000000E+00  0.00000000000E+00  0.99999998245E-14  0.12500000000E+03  0.12500000000E+03 0.  0.
        -13    1    3    3    0    0  0.39582739927E+01  0.30482651732E+02  0.34598724722E+02  0.46281129049E+02  0.10566000000E+00 0.  1.
         23    2    1    0    0    0 -0.25705715204E+01 -0.18057509097E+02  0.21150083585E+02  0.97071385491E+02  0.92966910096E+02 0.  0.
         13    1    3    3    0    0 -0.65288455130E+01 -0.48540160829E+02 -0.13448641137E+02  0.50790256443E+02  0.10566000000E+00 0. -1.
         22    1    1    0    0    0  0.25705715204E+01  0.18057509097E+02 -0.21150083585E+02  0.27928614509E+02  0.00000000000E+00 0.  1.
</event>
<event>
 5    1  0.2491889E-009  0.9118800E+02  0.7818608E-02  0.1130116E+00
         25   -1    0    0    0    0  0.00000000000E+00  0.00000000000E+00  0.99999998245E-14  0.12500000000E+03  0.12500000000E+03 0.  0.
        -13    1    3    3    0    0  0.33149489415E+02  0.35882051248E+02  0.13024254243E+02  0.50557418970E+02  0.10566000000E+00 0.  1.
         23    2    1    0    0    0  0.52635542337E+01  0.98998368821E-01  0.26578713685E+02  0.97904929876E+02  0.94080988883E+02 0.  0.
         13    1    3    3    0    0 -0.27885935181E+02 -0.35783052879E+02  0.13554459442E+02  0.47347510907E+02  0.10566000000E+00 0. -1.
         22    1    1    0    0    0 -0.52635542337E+01 -0.98998368821E-01 -0.26578713685E+02  0.27095070124E+02  0.00000000000E+00 0.  1.
</event>
<event>
 5    1  0.2491889E-009  0.9118800E+02  0.7818608E-02  0.1130116E+00
         25   -1    0    0    0    0  0.00000000000E+00  0.00000000000E+00  0.99999998245E-14  0.12500000000E+03  0.12500000000E+03 0.  0.
        -13    1    3    3    0    0  0.39760051898E+02 -0.61694364544E+01  0.38921516760E+02  0.55980526115E+02  0.10566000000E+00 0.  1.
         23    2    1    0    0    0  0.14996281492E+01 -0.42344182153E+01  0.29135619014E+02  0.95520117409E+02  0.90857192078E+02 0.  0.
         13    1    3    3    0    0 -0.38260423749E+02  0.19350182390E+01 -0.97858977461E+01  0.39539591295E+02  0.10566000000E+00 0. -1.
         22    1    1    0    0    0 -0.14996281492E+01  0.42344182153E+01 -0.29135619014E+02  0.29479882591E+02  0.00000000000E+00 0.  1.
</event>
<event>
 5    1  0.2491889E-009  0.9118800E+02  0.7818608E-02  0.1130116E+00
         25   -1    0    0    0    0  0.00000000000E+00  0.00000000000E+00  0.99999998245E-14  0.12500000000E+03  0.12500000000E+03 0.  0.
        -13    1    3    3    0    0  0.18164766802E+02  0.25154199687E+02  0.32096924346E+02  0.44642090356E+02  0.10566000000E+00 0. -1.
         23    2    1    0    0    0  0.23404712096E+02 -0.17380920001E+02  0.47971626368E+01  0.95455293236E+02  0.90767964112E+02 0.  0.
         13    1    3    3    0    0  0.52399452937E+01 -0.42535119688E+02 -0.27299761709E+02  0.50813202880E+02  0.10566000000E+00 0.  1.
         22    1    1    0    0    0 -0.23404712096E+02  0.17380920001E+02 -0.47971626368E+01  0.29544706764E+02  0.00000000000E+00 0. -1.
</event>
<event>
 5    1  0.2491889E-009  0.9118800E+02  0.7818608E-02  0.1130116E+00
         25   -1    0    0    0    0  0.00000000000E+00  0.00000000000E+00  0.99999998245E-14  0.12500000000E+03  0.12500000000E+03 0.  0.
        -13    1    3    3    0    0 -0.76164851504E+01  0.97455307133E+01 -0.42638419411E+02  0.44396308279E+02  0.10566000000E+00 0. -1.
         23    2    1    0    0    0 -0.14540489925E+02  0.27620025248E+02  0.27488831682E+01  0.93665546109E+02  0.88268831007E+02 0.  0.
         13    1    3    3    0    0 -0.69240047749E+01  0.17874494534E+02  0.45387302579E+02  0.49269237830E+02  0.10566000000E+00 0.  1.
         22    1    1    0    0    0  0.14540489925E+02 -0.27620025248E+02 -0.27488831682E+01  0.31334453891E+02  0.00000000000E+00 0.  1.
</event>
<event>
 5    1  0.2491889E-009  0.9118800E+02  0.7818608E-02  0.1130116E+00
         25   -1    0    0    0    0  0.00000000000E+00  0.00000000000E+00  0.99999998245E-14  0.12500000000E+03  0.12500000000E+03 0.  0.
        -13    1    3    3    0    0 -0.46194330226E+02 -0.35463345448E+02  0.13264511579E+02  0.59728748914E+02  0.10566000000E+00 0. -1.
         23    2    1    0    0    0 -0.76615102799E+01 -0.16307524267E+02  0.13035818288E+02  0.10276114558E+03  0.10032590092E+03 0.  0.
         13    1    3    3    0    0  0.38532819946E+02  0.19155821182E+02 -0.22869329113E+00  0.43032396666E+02  0.10566000000E+00 0.  1.
         22    1    1    0    0    0  0.76615102799E+01  0.16307524267E+02 -0.13035818288E+02  0.22238854420E+02  0.00000000000E+00 0. -1.
</event>
<event>
 5    1  0.2491889E-009  0.9118800E+02  0.7818608E-02  0.1130116E+00
         25   -1    0    0    0    0  0.00000000000E+00  0.00000000000E+00  0.99999998245E-14  0.12500000000E+03  0.12500000000E+03 0.  0.
        -13    1    3    3    0    0 -0.21680314145E+02 -0.23976191666E+01  0.49055882805E+02  0.53686827071E+02  0.10566000000E+00 0.  1.
         23    2    1    0    0    0  0.13613790297E+02 -0.43186952887E+01  0.24206579226E+02  0.96894041680E+02  0.92728153330E+02 0.  0.
         13    1    3    3    0    0  0.35294104442E+02 -0.19210761221E+01 -0.24849303579E+02  0.43207214609E+02  0.10566000000E+00 0. -1.
         22    1    1    0    0    0 -0.13613790297E+02  0.43186952887E+01 -0.24206579226E+02  0.28105958320E+02  0.00000000000E+00 0.  1.
</event>
<event>
 5    1  0.2491889E-009  0.9118800E+02  0.7818608E-02  0.1130116E+00
         25   -1    0    0    0    0  0.00000000000E+00  0.00000000000E+00  0.99999998245E-14  0.12500000000E+03  0.12500000000E+03 0.  0.
        -13    1    3    3    0    0 -0.31480937831E+02  0.39818673142E+01 -0.14773159450E+02  0.35002315898E+02  0.10566000000E+00 0.  1.
         23    2    1    0    0    0  0.25936198022E+02  0.43707439671E+01  0.90750963833E+01  0.97176500130E+02  0.93108136231E+02 0.  0.
         13    1    3    3    0    0  0.57417135853E+02  0.38887665289E+00  0.23848255834E+02  0.62174184232E+02  0.10566000000E+00 0. -1.
         22    1    1    0    0    0 -0.25936198022E+02 -0.43707439671E+01 -0.90750963833E+01  0.27823499870E+02  0.00000000000E+00 0. -1.
</event>
<event>
 5    1  0.2491889E-009  0.9118800E+02  0.7818608E-02  0.1130116E+00
         25   -1    0    0    0    0  0.00000000000E+00  0.00000000000E+00  0.99999998245E-14  0.12500000000E+03  0.12500000000E+03 0.  0.
        -13    1    3    3    0    0  0.13956833236E+02 -0.31573429243E+02  0.87158842845E+00  0.34531803581E+02  0.10566000000E+00 0. -1.
         23    2    1    0    0    0 -0.28687320902E+00  0.27621920007E+02 -0.84202394650E+01  0.96121752239E+02  0.91681176148E+02 0.  0.
         13    1    3    3    0    0 -0.14243706445E+02  0.59195349250E+02 -0.92918278934E+01  0.61589948658E+02  0.10566000000E+00 0.  1.
         22    1    1    0    0    0  0.28687320902E+00 -0.27621920007E+02  0.84202394650E+01  0.28878247761E+02  0.00000000000E+00 0.  1.
</event>
<event>
 5    1  0.2491889E-009  0.9118800E+02  0.7818608E-02  0.1130116E+00
         25   -1    0    0    0    0  0.00000000000E+00  0.00000000000E+00  0.99999998245E-14  0.12500000000E+03  0.12500000000E+03 0.  0.
        -13    1    3    3    0    0 -0.36672065208E+02  0.14696179073E+02  0.47686616049E+01  0.39794086791E+02  0.10566000000E+00 0. -1.
         23    2    1    0    0    0  0.17240143126E+02  0.19493923589E+02  0.15123268911E+02  0.94901015724E+02  0.90001410716E+02 0.  0.
         13    1    3    3    0    0  0.53912208335E+02  0.47977445158E+01  0.10354607306E+02  0.55106928933E+02  0.10566000000E+00 0.  1.
         22    1    1    0    0    0 -0.17240143126E+02 -0.19493923589E+02 -0.15123268911E+02  0.30098984276E+02  0.00000000000E+00 0.  1.
</event>
<event>
 5    1  0.2491889E-009  0.9118800E+02  0.7818608E-02  0.1130116E+00
         25   -1    0    0    0    0  0.00000000000E+00  0.00000000000E+00  0.99999998245E-14  0.12500000000E+03  0.12500000000E+03 0.  0.
        -13    1    3    3    0    0 -0.39744577753E+02 -0.41729431044E+02 -0.14559145678E+02  0.59438680696E+02  0.10566000000E+00 0.  1.
         23    2    1    0    0    0 -0.18297756616E+02 -0.36883995451E+02 -0.14256526825E+02  0.81428385677E+02  0.68790234912E+02 0.  0.
         13    1    3    3    0    0  0.21446821136E+02  0.48454355932E+01  0.30261885287E+00  0.21989704981E+02  0.10566000000E+00 0. -1.
         22    1    1    0    0    0  0.18297756616E+02  0.36883995451E+02  0.14256526825E+02  0.43571614323E+02  0.00000000000E+00 0.  1.
</event>
<event>
 5    1  0.2491889E-009  0.9118800E+02  0.7818608E-02  0.1130116E+00
         25   -1    0    0    0    0  0.00000000000E+00  0.00000000000E+00  0.99999998245E-14  0.12500000000E+03  0.12500000000E+03 0.  0.
        -13    1    3    3    0    0  0.57272931163E+02 -0.49856941539E+00 -0.22589924736E+02  0.61569091914E+02  0.10566000000E+00 0. -1.
         23    2    1    0    0    0  0.24191610898E+02  0.67761061223E+01 -0.12667030923E+02  0.96864553950E+02  0.92688394567E+02 0.  0.
         13    1    3    3    0    0 -0.33081320265E+02  0.72746755377E+01  0.99228938129E+01  0.35295462036E+02  0.10566000000E+00 0.  1.
         22    1    1    0    0    0 -0.24191610898E+02 -0.67761061223E+01  0.12667030923E+02  0.28135446050E+02  0.00000000000E+00 0. -1.
</event>
<event>
 5    1  0.2491889E-009  0.9118800E+02  0.7818608E-02  0.1130116E+00
         25   -1    0    0    0    0  0.00000000000E+00  0.00000000000E+00  0.99999998245E-14  0.12500000000E+03  0.12500000000E+03 0.  0.
        -13    1    3    3    0    0  0.22466007987E+02 -0.38990868314E+01  0.25701896998E+02  0.34358740756E+02  0.10566000000E+00 0. -1.
         23    2    1    0    0    0 -0.28273732935E+02  0.95084537764E+01 -0.43803127622E+01  0.94850343166E+02  0.89931005730E+02 0.  0.
         13    1    3    3    0    0 -0.50739740922E+02  0.13407540608E+02 -0.30082209761E+02  0.60491602410E+02  0.10566000000E+00 0.  1.
         22    1    1    0    0    0  0.28273732935E+02 -0.95084537764E+01  0.43803127622E+01  0.30149656834E+02  0.00000000000E+00 0.  1.
</event>
<event>
 5    1  0.2491889E-009  0.9118800E+02  0.7818608E-02  0.1130116E+00
         25   -1    0    0    0    0  0.00000000000E+00  0.00000000000E+00  0.99999998245E-14  0.12500000000E+03  0.12500000000E+03 0.  0.
        -13    1    3    3    0    0 -0.34906112230E+02  0.32642083690E+02  0.28170013728E+02  0.55475247958E+02  0.10566000000E+00 0. -1.
         23    2    1    0    0    0 -0.21673256152E+02  0.17714096317E+02 -0.72127284210E+01  0.96094244659E+02  0.91643664073E+02 0.  0.
         13    1    3    3    0    0  0.13232856078E+02 -0.14927987373E+02 -0.35382742149E+02  0.40618996701E+02  0.10566000000E+00 0.  1.
         22    1    1    0    0    0  0.21673256152E+02 -0.17714096317E+02  0.72127284210E+01  0.28905755341E+02  0.00000000000E+00 0. -1.
</event>
<event>
 5    1  0.2491889E-009  0.9118800E+02  0.7818608E-02  0.1130116E+00
         25   -1    0    0    0    0  0.00000000000E+00  0.00000000000E+00  0.99999998245E-14  0.12500000000E+03  0.12500000000E+03 0.  0.
        -13    1    3    3    0    0 -0.96452551270E+01  0.50502763029E+02  0.18286838223E+02  0.54570868018E+02  0.10566000000E+00 0. -1.
         23    2    1    0    0    0  0.13018190380E+02  0.26200365870E+02 -0.52289046308E+01  0.95280075772E+02  0.90526343917E+02 0.  0.
         13    1    3    3    0    0  0.22663445507E+02 -0.24302397159E+02 -0.23515742854E+02  0.40709207754E+02  0.10566000000E+00 0.  1.
         22    1    1    0    0    0 -0.13018190380E+02 -0.26200365870E+02  0.52289046308E+01  0.29719924228E+02  0.00000000000E+00 0. -1.
</event>
<event>
 5    1  0.2491889E-009  0.9118800E+02  0.7818608E-02  0.1130116E+00
         25   -1    0    0    0    0  0.00000000000E+00  0.00000000000E+00  0.99999998245E-14  0.12500000000E+03  0.12500000000E+03 0.  0.
        -13    1    3    3    0    0  0.37284546429E+02 -0.35572709049E+01 -0.18904219179E+02  0.41954406748E+02  0.10566000000E+00 0. -1.
         23    2    1    0    0    0 -0.15709829768E+02 -0.19658974291E+02 -0.93226858280E+01  0.98163709411E+02  0.94424188388E+02 0.  0.
         13    1    3    3    0    0 -0.52994376198E+02 -0.16101703386E+02  0.95815333515E+01  0.56209302663E+02  0.10566000000E+00 0.  1.
         22    1    1    0    0    0  0.15709829768E+02  0.19658974291E+02  0.93226858280E+01  0.26836290589E+02  0.00000000000E+00 0.  1.
</event>
<event>
 5    1  0.2491889E-009  0.9118800E+02  0.7818608E-02  0.1130116E+00
         25   -1    0    0    0    0  0.00000000000E+00  0.00000000000E+00  0.99999998245E-14  0.12500000000E+03  0.12500000000E+03 0.  0.
        -13    1    3    3    0    0 -0.13528407186E+02 -0.47786096717E+02  0.19347813125E+02  0.53299886278E+02  0.10566000000E+00 0. -1.
         23    2    1    0    0    0 -0.27185078392E+02 -0.13039145506E+02  0.11641925483E+01  0.94827112386E+02  0.89898710204E+02 0.  0.
         13    1    3    3    0    0 -0.13656671206E+02  0.34746951211E+02 -0.18183620577E+02  0.41527226108E+02  0.10566000000E+00 0.  1.
         22    1    1    0    0    0  0.27185078392E+02  0.13039145506E+02 -0.11641925483E+01  0.30172887614E+02  0.00000000000E+00 0.  1.
</event>
<event>
 5    1  0.2491889E-009  0.9118800E+02  0.7818608E-02  0.1130116E+00
         25   -1    0    0    0    0  0.00000000000E+00  0.00000000000E+00  0.99999998245E-14  0.12500000000E+03  0.12500000000E+03 0.  0.
        -13    1    3    3    0    0  0.63586498029E+01 -0.33069219820E+02  0.27130452742E+02  0.43244402607E+02  0.10566000000E+00 0.  1.
         23    2    1    0    0    0  0.28753604756E+02  0.74336935592E+01  0.38479103877E+01  0.95052779749E+02  0.90211944538E+02 0.  0.
         13    1    3    3    0    0  0.22394954953E+02  0.40502913379E+02 -0.23282542355E+02  0.51808377142E+02  0.10566000000E+00 0. -1.
         22    1    1    0    0    0 -0.28753604756E+02 -0.74336935592E+01 -0.38479103877E+01  0.29947220251E+02  0.00000000000E+00 0. -1.
</event>
<event>
 5    1  0.2491889E-009  0.9118800E+02  0.7818608E-02  0.1130116E+00
         25   -1    0    0    0    0  0.00000000000E+00  0.00000000000E+00  0.99999998245E-14  0.12500000000E+03  0.12500000000E+03 0.  0.
        -13    1    3    3    0    0  0.43820531638E+02 -0.40688849337E+02 -0.13356705909E+02  0.61271805997E+02  0.10566000000E+00 0. -1.
         23    2    1    0    0    0  0.25386738585E+02 -0.11874799680E+02 -0.44125208323E+01  0.96628047238E+02  0.92368889836E+02 0.  0.
         13    1    3    3    0    0 -0.18433793053E+02  0.28814049657E+02  0.89441850762E+01  0.35356241241E+02  0.10566000000E+00 0.  1.
         22    1    1    0    0    0 -0.25386738585E+02  0.11874799680E+02  0.44125208323E+01  0.28371952762E+02  0.00000000000E+00 0. -1.
</event>
<event>
 5    1  0.2491889E-009  0.9118800E+02  0.7818608E-02  0.1130116E+00
         25   -1    0    0    0    0  0.00000000000E+00  0.00000000000E+00  0.99999998245E-14  0.12500000000E+03  0.12500000000E+03 0.  0.
        -13    1    3    3    0    0 -0.33614668452E+02 -0.13639887510E+02  0.36864792914E+02  0.51720562517E+02  0.10566000000E+00 0.  1.
         23    2    1    0    0    0 -0.26458629871E+02  0.14506555728E+02  0.57510780396E+01  0.94282347870E+02  0.89138022008E+02 0.  0.
         13    1    3    3    0    0  0.71560385805E+01  0.28146443239E+02 -0.31113714874E+02  0.42561785353E+02  0.10566000000E+00 0. -1.
         22    1    1    0    0    0  0.26458629871E+02 -0.14506555728E+02 -0.57510780396E+01  0.30717652130E+02  0.00000000000E+00 0. -1.
</event>
<event>
 5    1  0.2491889E-009  0.9118800E+02  0.7818608E-02  0.1130116E+00
         25   -1    0    0    0    0  0.00000000000E+00  0.00000000000E+00  0.99999998245E-14  0.12500000000E+03  0.12500000000E+03 0.  0.
        -13    1    3    3    0    0 -0.43798674610E+02 -0.21466265054E+02 -0.23812701953E+02  0.54278728535E+02  0.10566000000E+00 0.  1.
         23    2    1    0    0    0 -0.30559745660E+02 -0.39475585952E+01  0.82139777997E+01  0.93110335452E+02  0.87479048138E+02 0.  0.
         13    1    3    3    0    0  0.13238928950E+02  0.17518706459E+02  0.32026679753E+02  0.38831606917E+02  0.10566000000E+00 0. -1.
         22    1    1    0    0    0  0.30559745660E+02  0.39475585952E+01 -0.82139777997E+01  0.31889664548E+02  0.00000000000E+00 0.  1.
</event>
<event>
 5    1  0.2491889E-009  0.9118800E+02  0.7818608E-02  0.1130116E+00
         25   -1    0    0    0    0  0.00000000000E+00  0.00000000000E+00  0.99999998245E-14  0.12500000000E+03  0.12500000000E+03 0.  0.
        -13    1    3    3    0    0  0.11480754078E+02  0.46720629656E+02  0.37560971718E+01  0.48257065593E+02  0.10566000000E+00 0. -1.
         23    2    1    0    0    0  0.17334795690E+02  0.61926925750E+01 -0.21754857707E+02  0.96502308571E+02  0.92198574516E+02 0.  0.
         13    1    3    3    0    0  0.58540416112E+01 -0.40527937081E+02 -0.25510954879E+02  0.48245242979E+02  0.10566000000E+00 0.  1.
         22    1    1    0    0    0 -0.17334795690E+02 -0.61926925750E+01  0.21754857707E+02  0.28497691429E+02  0.00000000000E+00 0.  1.
</event>
<event>
 5    1  0.2491889E-009  0.9118800E+02  0.7818608E-02  0.1130116E+00
         25   -1    0    0    0    0  0.00000000000E+00  0.00000000000E+00  0.99999998245E-14  0.12500000000E+03  0.12500000000E+03 0.  0.
        -13    1    3    3    0    0 -0.13913650453E+01  0.39164782202E+02  0.41215219613E+01  0.39405763144E+02  0.10566000000E+00 0.  1.
         23    2    1    0    0    0 -0.15097152196E+02 -0.13002493769E+02 -0.18421022178E+02  0.97864729470E+02  0.94027561744E+02 0.  0.
         13    1    3    3    0    0 -0.13705787151E+02 -0.52167275971E+02 -0.22542544140E+02  0.58458966326E+02  0.10566000000E+00 0. -1.
         22    1    1    0    0    0  0.15097152196E+02  0.13002493769E+02  0.18421022178E+02  0.27135270530E+02  0.00000000000E+00 0. -1.
</event>
<event>
 5    1  0.2491889E-009  0.9118800E+02  0.7818608E-02  0.1130116E+00
         25   -1    0    0    0    0  0.00000000000E+00  0.00000000000E+00  0.99999998245E-14  0.12500000000E+03  0.12500000000E+03 0.  0.
        -13    1    3    3    0    0 -0.58354599622E+02  0.95598944685E+00  0.21033151615E+02  0.62036907110E+02  0.10566000000E+00 0.  1.
         23    2    1    0    0    0 -0.26728790595E+02  0.57680155496E+01  0.10325510238E+02  0.95771342629E+02  0.91202169148E+02 0.  0.
         13    1    3    3    0    0  0.31625809028E+02  0.48120261028E+01 -0.10707641376E+02  0.33734435519E+02  0.10566000000E+00 0. -1.
         22    1    1    0    0    0  0.26728790595E+02 -0.57680155496E+01 -0.10325510238E+02  0.29228657371E+02  0.00000000000E+00 0.  1.
</event>
<event>
 5    1  0.2491889E-009  0.9118800E+02  0.7818608E-02  0.1130116E+00
         25   -1    0    0    0    0  0.00000000000E+00  0.00000000000E+00  0.99999998245E-14  0.12500000000E+03  0.12500000000E+03 0.  0.
        -13    1    3    3    0    0  0.48256120807E+02  0.24527819441E+02 -0.17532437603E+02  0.56900480264E+02  0.10566000000E+00 0.  1.
         23    2    1    0    0    0  0.19370276247E+02  0.22962087355E+02  0.62091526787E+01  0.94323972966E+02  0.89196374599E+02 0.  0.
         13    1    3    3    0    0 -0.28885844561E+02 -0.15657320856E+01  0.23741590281E+02  0.37423492703E+02  0.10566000000E+00 0. -1.
         22    1    1    0    0    0 -0.19370276247E+02 -0.22962087355E+02 -0.62091526787E+01  0.30676027034E+02  0.00000000000E+00 0.  1.
</event>
<event>
 5    1  0.2491889E-009  0.9118800E+02  0.7818608E-02  0.1130116E+00
         25   -1    0    0    0    0  0.00000000000E+00  0.00000000000E+00  0.99999998245E-14  0.12500000000E+03  0.12500000000E+03 0.  0.
        -13    1    3    3    0    0  0.71855741190E+01 -0.36903535990E+02 -0.36881107481E+02  0.52666219696E+02  0.10566000000E+00 0.  1.
         23    2    1    0    0    0  0.32225694546E+01 -0.30724209450E+02  0.36822026371E+01  0.93888577395E+02  0.88584108895E+02 0.  0.
         13    1    3    3    0    0 -0.39630046644E+01  0.61793265397E+01  0.40563310118E+02  0.41222357699E+02  0.10566000000E+00 0. -1.
         22    1    1    0    0    0 -0.32225694546E+01  0.30724209450E+02 -0.36822026371E+01  0.31111422605E+02  0.00000000000E+00 0.  1.
</event>
<event>
 5    1  0.2491889E-009  0.9118800E+02  0.7818608E-02  0.1130116E+00
         25   -1    0    0    0    0  0.00000000000E+00  0.00000000000E+00  0.99999998245E-14  0.12500000000E+03  0.12500000000E+03 0.  0.
        -13    1    3    3    0    0  0.92737479491E+01 -0.51293742547E+02 -0.13102315647E+02  0.53746927957E+02  0.10566000000E+00 0. -1.
         23    2    1    0    0    0  0.24588992995E+02 -0.13349897318E+02 -0.11653686795E+02  0.94690814085E+02  0.89708993536E+02 0.  0.
         13    1    3    3    0    0  0.15315245046E+02  0.37943845230E+02  0.14486288526E+01  0.40943886127E+02  0.10566000000E+00 0.  1.
         22    1    1    0    0    0 -0.24588992995E+02  0.13349897318E+02  0.11653686795E+02  0.30309185915E+02  0.00000000000E+00 0. -1.
</event>
<event>
 5    1  0.2491889E-009  0.9118800E+02  0.7818608E-02  0.1130116E+00
         25   -1    0    0    0    0  0.00000000000E+00  0.00000000000E+00  0.99999998245E-14  0.12500000000E+03  0.12500000000E+03 0.  0.
        -13    1    3    3    0    0 -0.25707526288E+02 -0.31991458857E+02  0.19142409602E+02  0.45285465185E+02  0.10566000000E+00 0.  1.
         23    2    1    0    0    0 -0.79561187743E+01 -0.10965435018E+02 -0.24572547288E+02  0.96940230377E+02  0.92790396024E+02 0.  0.
         13    1    3    3    0    0  0.17751407513E+02  0.21026023839E+02 -0.43714956890E+02  0.51654765192E+02  0.10566000000E+00 0. -1.
         22    1    1    0    0    0  0.79561187743E+01  0.10965435018E+02  0.24572547288E+02  0.28059769623E+02  0.00000000000E+00 0. -1.
</event>
<event>
 5    1  0.2491889E-009  0.9118800E+02  0.7818608E-02  0.1130116E+00
         25   -1    0    0    0    0  0.00000000000E+00  0.00000000000E+00  0.99999998245E-14  0.12500000000E+03  0.12500000000E+03 0.  0.
        -13    1    3    3    0    0 -0.32267989184E+02 -0.82491925512E+01  0.95261382839E+01  0.34641460396E+02  0.10566000000E+00 0.  1.
         23    2    1    0    0    0  0.45106418260E+01  0.12231165019E+02 -0.29939974081E+02  0.92344995248E+02  0.86378520548E+02 0.  0.
         13    1    3    3    0    0  0.36778631010E+02  0.20480357570E+02 -0.39466112364E+02  0.57703534852E+02  0.10566000000E+00 0. -1.
         22    1    1    0    0    0 -0.45106418260E+01 -0.12231165019E+02  0.29939974081E+02  0.32655004752E+02  0.00000000000E+00 0. -1.
</event>
<event>
 5    1  0.2491889E-009  0.9118800E+02  0.7818608E-02  0.1130116E+00
         25   -1    0    0    0    0  0.00000000000E+00  0.00000000000E+00  0.99999998245E-14  0.12500000000E+03  0.12500000000E+03 0.  0.
        -13    1    3    3    0    0  0.25467253898E+00 -0.36351369050E+02 -0.11532902757E+02  0.38137985002E+02  0.10566000000E+00 0. -1.
         23    2    1    0    0    0  0.32034852349E+01  0.20627871744E+02 -0.20322040990E+02  0.95866569712E+02  0.91332592365E+02 0.  0.
         13    1    3    3    0    0  0.29488126959E+01  0.56979240794E+02 -0.87891382334E+01  0.57728584711E+02  0.10566000000E+00 0.  1.
         22    1    1    0    0    0 -0.32034852349E+01 -0.20627871744E+02  0.20322040990E+02  0.29133430288E+02  0.00000000000E+00 0.  1.
</event>
<event>
 5    1  0.2491889E-009  0.9118800E+02  0.7818608E-02  0.1130116E+00
         25   -1    0    0    0    0  0.00000000000E+00  0.00000000000E+00  0.99999998245E-14  0.12500000000E+03  0.12500000000E+03 0.  0.
        -13    1    3    3    0    0  0.20657386789E+02 -0.41402118696E+02  0.35385251654E+02  0.58249379912E+02  0.10566000000E+00 0.  1.
         23    2    1    0    0    0  0.93413458895E+01 -0.84414430229E+01  0.28597656266E+02  0.93753485838E+02  0.88393277231E+02 0.  0.
         13    1    3    3    0    0 -0.11316040900E+02  0.32960675673E+02 -0.67875953878E+01  0.35504105927E+02  0.10566000000E+00 0. -1.
         22    1    1    0    0    0 -0.93413458895E+01  0.84414430229E+01 -0.28597656266E+02  0.31246514162E+02  0.00000000000E+00 0.  1.
</event>
<event>
 5    1  0.2491889E-009  0.9118800E+02  0.7818608E-02  0.1130116E+00
         25   -1    0    0    0    0  0.00000000000E+00  0.00000000000E+00  0.99999998245E-14  0.12500000000E+03  0.12500000000E+03 0.  0.
        -13    1    3    3    0    0 -0.61346221665E+01 -0.79143887231E+01  0.40563826428E+02  0.41781650476E+02  0.10566000000E+00 0. -1.
         23    2    1    0    0    0 -0.23752052433E+02  0.17654389761E+02 -0.29725508896E+01  0.95256538006E+02  0.90493836815E+02 0.  0.
         13    1    3    3    0    0 -0.17617430267E+02  0.25568778484E+02 -0.43536377317E+02  0.53474887530E+02  0.10566000000E+00 0.  1.
         22    1    1    0    0    0  0.23752052433E+02 -0.17654389761E+02  0.29725508896E+01  0.29743461994E+02  0.00000000000E+00 0.  1.
</event>
<event>
 5    1  0.2491889E-009  0.9118800E+02  0.7818608E-02  0.1130116E+00
         25   -1    0    0    0    0  0.00000000000E+00  0.00000000000E+00  0.99999998245E-14  0.12500000000E+03  0.12500000000E+03 0.  0.
        -13    1    3    3    0    0  0.12345841236E+02 -0.31239916898E+01 -0.33885517393E+02  0.36199704045E+02  0.10566000000E+00 0.  1.
         23    2    1    0    0    0  0.77808695063E+00 -0.16049607333E+02  0.23714149462E+02  0.96354647855E+02  0.91998162828E+02 0.  0.
         13    1    3    3    0    0 -0.11567754285E+02 -0.12925615643E+02  0.57599666855E+02  0.60154943810E+02  0.10566000000E+00 0. -1.
         22    1    1    0    0    0 -0.77808695063E+00  0.16049607333E+02 -0.23714149462E+02  0.28645352145E+02  0.00000000000E+00 0. -1.
</event>
<event>
 5    1  0.2491889E-009  0.9118800E+02  0.7818608E-02  0.1130116E+00
         25   -1    0    0    0    0  0.00000000000E+00  0.00000000000E+00  0.99999998245E-14  0.12500000000E+03  0.12500000000E+03 0.  0.
        -13    1    3    3    0    0 -0.13023573003E+02  0.13029588855E+02  0.30875039958E+02  0.35953621458E+02  0.10566000000E+00 0.  1.
         23    2    1    0    0    0 -0.80256897605E+01  0.11974052216E+01 -0.27811232621E+02  0.96029150249E+02  0.91554833637E+02 0.  0.
         13    1    3    3    0    0  0.49978832428E+01 -0.11832183633E+02 -0.58686272578E+02  0.60075528792E+02  0.10566000000E+00 0. -1.
         22    1    1    0    0    0  0.80256897605E+01 -0.11974052216E+01  0.27811232621E+02  0.28970849751E+02  0.00000000000E+00 0. -1.
</event>
<event>
 5    1  0.2491889E-009  0.9118800E+02  0.7818608E-02  0.1130116E+00
         25   -1    0    0    0    0  0.00000000000E+00  0.00000000000E+00  0.99999998245E-14  0.12500000000E+03  0.12500000000E+03 0.  0.
        -13    1    3    3    0    0  0.11639180937E+01  0.36403003318E+02  0.13415948113E+02  0.38814071980E+02  0.10566000000E+00 0. -1.
         23    2    1    0    0    0 -0.21931381096E+02 -0.52002538928E+01 -0.18272789549E+02  0.95984091342E+02  0.91493293937E+02 0.  0.
         13    1    3    3    0    0 -0.23095299190E+02 -0.41603257210E+02 -0.31688737662E+02  0.57170019362E+02  0.10566000000E+00 0.  1.
         22    1    1    0    0    0  0.21931381096E+02  0.52002538928E+01  0.18272789549E+02  0.29015908658E+02  0.00000000000E+00 0.  1.
</event>
<event>
 5    1  0.2491889E-009  0.9118800E+02  0.7818608E-02  0.1130116E+00
         25   -1    0    0    0    0  0.00000000000E+00  0.00000000000E+00  0.99999998245E-14  0.12500000000E+03  0.12500000000E+03 0.  0.
        -13    1    3    3    0    0  0.19041489889E+02 -0.13669653298E+01  0.24282001509E+02  0.30888083345E+02  0.10566000000E+00 0.  1.
         23    2    1    0    0    0  0.44326947934E+01 -0.12674531254E+02 -0.32092167158E+02  0.90212075104E+02  0.83234720977E+02 0.  0.
         13    1    3    3    0    0 -0.14608795096E+02 -0.11307565924E+02 -0.56374168667E+02  0.59323991759E+02  0.10566000000E+00 0. -1.
         22    1    1    0    0    0 -0.44326947934E+01  0.12674531254E+02  0.32092167158E+02  0.34787924896E+02  0.00000000000E+00 0. -1.
</event>
<event>
 5    1  0.2491889E-009  0.9118800E+02  0.7818608E-02  0.1130116E+00
         25   -1    0    0    0    0  0.00000000000E+00  0.00000000000E+00  0.99999998245E-14  0.12500000000E+03  0.12500000000E+03 0.  0.
        -13    1    3    3    0    0  0.34017518064E+02 -0.37695507155E+02 -0.59540381306E+01  0.51123424465E+02  0.10566000000E+00 0.  1.
         23    2    1    0    0    0  0.32105636210E+02 -0.44549023701E+00 -0.15085394749E+02  0.89524100114E+02  0.82195042603E+02 0.  0.
         13    1    3    3    0    0 -0.19118818548E+01  0.37250016918E+02 -0.91313566183E+01  0.38400675649E+02  0.10566000000E+00 0. -1.
         22    1    1    0    0    0 -0.32105636210E+02  0.44549023701E+00  0.15085394749E+02  0.35475899886E+02  0.00000000000E+00 0.  1.
</event>
<event>
 4    1  0.2491889E-009  0.9118800E+02  0.7818608E-02  0.1130116E+00
         25   -1    0    0    0    0  0.00000000000E+00  0.00000000000E+00  0.99999998245E-14  0.12500000000E+03  0.12500000000E+03 0.  0.
        -13    1    1    0    0    0  0.34324986757E+00 -0.64737953270E+01 -0.11521643145E+02  0.13220713717E+02  0.10566000000E+00 0. -1.
         13    1    1    0    0    0 -0.10336172531E+02 -0.16367675046E+02  0.56845185711E+02  0.60051007915E+02  0.10566000000E+00 0.  1.
         22    1    1    0    0    0  0.99929226635E+01  0.22841470373E+02 -0.45323542566E+02  0.51728278368E+02  0.00000000000E+00 0.  1.
</event>
<event>
 5    1  0.2491889E-009  0.9118800E+02  0.7818608E-02  0.1130116E+00
         25   -1    0    0    0    0  0.00000000000E+00  0.00000000000E+00  0.99999998245E-14  0.12500000000E+03  0.12500000000E+03 0.  0.
        -13    1    3    3    0    0  0.35136587716E+02  0.65323334123E+01 -0.31799984898E+01  0.35880004606E+02  0.10566000000E+00 0. -1.
         23    2    1    0    0    0 -0.24479241209E+02  0.11222648883E+02 -0.10437265435E+02  0.96118905701E+02  0.91677295037E+02 0.  0.
         13    1    3    3    0    0 -0.59615828925E+02  0.46903154705E+01 -0.72572669454E+01  0.60238901095E+02  0.10566000000E+00 0.  1.
         22    1    1    0    0    0  0.24479241209E+02 -0.11222648883E+02  0.10437265435E+02  0.28881094299E+02  0.00000000000E+00 0.  1.
</event>
<event>
 4    1  0.2491889E-009  0.9118800E+02  0.7818608E-02  0.1130116E+00
         25   -1    0    0    0    0  0.00000000000E+00  0.00000000000E+00  0.99999998245E-14  0.12500000000E+03  0.12500000000E+03 0.  0.
        -13    1    1    0    0    0  0.84619101609E+01 -0.26024266691E+01 -0.27288135691E+02  0.28688500513E+02  0.10566000000E+00 0. -1.
         13    1    1    0    0    0  0.31512116307E+02 -0.27830698178E+02  0.10414358723E+02  0.43313176596E+02  0.10566000000E+00 0.  1.
         22    1    1    0    0    0 -0.39974026468E+02  0.30433124847E+02  0.16873776969E+02  0.52998322891E+02  0.00000000000E+00 0.  1.
</event>
<event>
 5    1  0.2491889E-009  0.9118800E+02  0.7818608E-02  0.1130116E+00
         25   -1    0    0    0    0  0.00000000000E+00  0.00000000000E+00  0.99999998245E-14  0.12500000000E+03  0.12500000000E+03 0.  0.
        -13    1    3    3    0    0  0.16284868645E+02  0.40050848443E+02  0.32003383308E+02  0.53791217824E+02  0.10566000000E+00 0. -1.
         23    2    1    0    0    0  0.24191702658E+02  0.76186156898E+01  0.27687943140E+02  0.87451311902E+02  0.78979921345E+02 0.  0.
         13    1    3    3    0    0  0.79068340122E+01 -0.32432232754E+02 -0.43154401675E+01  0.33660094078E+02  0.10566000000E+00 0.  1.
         22    1    1    0    0    0 -0.24191702658E+02 -0.76186156898E+01 -0.27687943140E+02  0.37548688098E+02  0.00000000000E+00 0. -1.
</event>
<event>
 5    1  0.2491889E-009  0.9118800E+02  0.7818608E-02  0.1130116E+00
         25   -1    0    0    0    0  0.00000000000E+00  0.00000000000E+00  0.99999998245E-14  0.12500000000E+03  0.12500000000E+03 0.  0.
        -13    1    3    3    0    0  0.23720101688E+02 -0.13451355798E+02 -0.19963941607E+02  0.33795744191E+02  0.10566000000E+00 0. -1.
         23    2    1    0    0    0 -0.31329031286E+02 -0.93917879296E+01 -0.61408322772E+00  0.92287754892E+02  0.86295647184E+02 0.  0.
         13    1    3    3    0    0 -0.55049132974E+02  0.40595678684E+01  0.19349858379E+02  0.58492010701E+02  0.10566000000E+00 0.  1.
         22    1    1    0    0    0  0.31329031286E+02  0.93917879296E+01  0.61408322772E+00  0.32712245108E+02  0.00000000000E+00 0.  1.
</event>
<event>
 5    1  0.2491889E-009  0.9118800E+02  0.7818608E-02  0.1130116E+00
         25   -1    0    0    0    0  0.00000000000E+00  0.00000000000E+00  0.99999998245E-14  0.12500000000E+03  0.12500000000E+03 0.  0.
        -13    1    3    3    0    0 -0.35247960704E+02  0.46359865488E+02 -0.22277399042E+02  0.62353424396E+02  0.10566000000E+00 0.  1.
         23    2    1    0    0    0 -0.16400590144E+02  0.19168783401E+02 -0.12456478164E+02  0.96864871381E+02  0.92688822656E+02 0.  0.
         13    1    3    3    0    0  0.18847370560E+02 -0.27191082086E+02  0.98209208785E+01  0.34511446985E+02  0.10566000000E+00 0. -1.
         22    1    1    0    0    0  0.16400590144E+02 -0.19168783401E+02  0.12456478164E+02  0.28135128619E+02  0.00000000000E+00 0.  1.
</event>
<event>
 5    1  0.2491889E-009  0.9118800E+02  0.7818608E-02  0.1130116E+00
         25   -1    0    0    0    0  0.00000000000E+00  0.00000000000E+00  0.99999998245E-14  0.12500000000E+03  0.12500000000E+03 0.  0.
        -13    1    3    3    0    0 -0.39595627464E+02  0.29398561617E+02  0.33351206141E+00  0.49317456683E+02  0.10566000000E+00 0. -1.
         23    2    1    0    0    0 -0.53614087156E+01  0.14537213585E+02  0.26084800014E+02  0.94660387708E+02  0.89666587573E+02 0.  0.
         13    1    3    3    0    0  0.34234218748E+02 -0.14861348032E+02  0.25751287953E+02  0.45342931025E+02  0.10566000000E+00 0.  1.
         22    1    1    0    0    0  0.53614087156E+01 -0.14537213585E+02 -0.26084800014E+02  0.30339612292E+02  0.00000000000E+00 0. -1.
</event>
<event>
 5    1  0.2491889E-009  0.9118800E+02  0.7818608E-02  0.1130116E+00
         25   -1    0    0    0    0  0.00000000000E+00  0.00000000000E+00  0.99999998245E-14  0.12500000000E+03  0.12500000000E+03 0.  0.
        -13    1    3    3    0    0 -0.10926037237E+02 -0.15561158482E+02  0.27942878130E+02  0.33798573125E+02  0.10566000000E+00 0. -1.
         23    2    1    0    0    0  0.15553972997E+02 -0.42031389267E+01 -0.25686775058E+02  0.94678343289E+02  0.89691615117E+02 0.  0.
         13    1    3    3    0    0  0.26480010234E+02  0.11358019556E+02 -0.53629653188E+02  0.60879770165E+02  0.10566000000E+00 0.  1.
         22    1    1    0    0    0 -0.15553972997E+02  0.42031389267E+01  0.25686775058E+02  0.30321656711E+02  0.00000000000E+00 0.  1.
</event>
<event>
 5    1  0.2491889E-009  0.9118800E+02  0.7818608E-02  0.1130116E+00
         25   -1    0    0    0    0  0.00000000000E+00  0.00000000000E+00  0.99999998245E-14  0.12500000000E+03  0.12500000000E+03 0.  0.
        -13    1    3    3    0    0  0.21607583678E+02  0.48901065059E+02  0.10282543201E+02  0.54442113249E+02  0.10566000000E+00 0.  1.
         23    2    1    0    0    0 -0.96808012231E+01  0.27821429297E+02 -0.49522805733E+01  0.95129028751E+02  0.90317535329E+02 0.  0.
         13    1    3    3    0    0 -0.31288384901E+02 -0.21079635762E+02 -0.15234823775E+02  0.40686915502E+02  0.10566000000E+00 0. -1.
         22    1    1    0    0    0  0.96808012231E+01 -0.27821429297E+02  0.49522805733E+01  0.29870971249E+02  0.00000000000E+00 0.  1.
</event>
<event>
 5    1  0.2491889E-009  0.9118800E+02  0.7818608E-02  0.1130116E+00
         25   -1    0    0    0    0  0.00000000000E+00  0.00000000000E+00  0.99999998245E-14  0.12500000000E+03  0.12500000000E+03 0.  0.
        -13    1    3    3    0    0  0.53619902119E+02 -0.14670206872E+02  0.21183033083E+02  0.59489838860E+02  0.10566000000E+00 0. -1.
         23    2    1    0    0    0  0.30039838067E+02  0.23277598840E+01  0.10455269744E+01  0.94851974131E+02  0.89933272668E+02 0.  0.
         13    1    3    3    0    0 -0.23580064052E+02  0.16997966757E+02 -0.20137506109E+02  0.35362135271E+02  0.10566000000E+00 0.  1.
         22    1    1    0    0    0 -0.30039838067E+02 -0.23277598840E+01 -0.10455269744E+01  0.30148025869E+02  0.00000000000E+00 0. -1.
</event>
<event>
 5    1  0.2491889E-009  0.9118800E+02  0.7818608E-02  0.1130116E+00
         25   -1    0    0    0    0  0.00000000000E+00  0.00000000000E+00  0.99999998245E-14  0.12500000000E+03  0.12500000000E+03 0.  0.
        -13    1    3    3    0    0 -0.34921752571E+02  0.34916589646E+02 -0.18849508774E+02  0.52858416361E+02  0.10566000000E+00 0. -1.
         23    2    1    0    0    0 -0.23650508690E+02  0.83087941932E+01  0.13739714214E+02  0.96413948001E+02  0.92078700035E+02 0.  0.
         13    1    3    3    0    0  0.11271243881E+02 -0.26607795453E+02  0.32589222988E+02  0.43555531640E+02  0.10566000000E+00 0.  1.
         22    1    1    0    0    0  0.23650508690E+02 -0.83087941932E+01 -0.13739714214E+02  0.28586051999E+02  0.00000000000E+00 0. -1.
</event>
<event>
 5    1  0.2491889E-009  0.9118800E+02  0.7818608E-02  0.1130116E+00
         25   -1    0    0    0    0  0.00000000000E+00  0.00000000000E+00  0.99999998245E-14  0.12500000000E+03  0.12500000000E+03 0.  0.
        -13    1    3    3    0    0  0.96044466305E+01  0.51206135215E+02 -0.61373925694E+01  0.52459436046E+02  0.10566000000E+00 0. -1.
         23    2    1    0    0    0  0.15487230571E+01  0.13896598047E+02 -0.25993216603E+02  0.95484558452E+02  0.90808257405E+02 0.  0.
         13    1    3    3    0    0 -0.80557235735E+01 -0.37309537167E+02 -0.19855824034E+02  0.43025122406E+02  0.10566000000E+00 0.  1.
         22    1    1    0    0    0 -0.15487230571E+01 -0.13896598047E+02  0.25993216603E+02  0.29515441548E+02  0.00000000000E+00 0.  1.
</event>
<event>
 5    1  0.2491889E-009  0.9118800E+02  0.7818608E-02  0.1130116E+00
         25   -1    0    0    0    0  0.00000000000E+00  0.00000000000E+00  0.99999998245E-14  0.12500000000E+03  0.12500000000E+03 0.  0.
        -13    1    3    3    0    0 -0.57676415006E+02  0.68351216232E+01 -0.22750604898E+02  0.62376990332E+02  0.10566000000E+00 0. -1.
         23    2    1    0    0    0 -0.25058486799E+02  0.44124917574E+01 -0.12484014876E+02  0.96658361523E+02  0.92409904126E+02 0.  0.
         13    1    3    3    0    0  0.32617928207E+02 -0.24226298658E+01  0.10266590022E+02  0.34281371191E+02  0.10566000000E+00 0.  1.
         22    1    1    0    0    0  0.25058486799E+02 -0.44124917574E+01  0.12484014876E+02  0.28341638477E+02  0.00000000000E+00 0. -1.
</event>
<event>
 5    1  0.2491889E-009  0.9118800E+02  0.7818608E-02  0.1130116E+00
         25   -1    0    0    0    0  0.00000000000E+00  0.00000000000E+00  0.99999998245E-14  0.12500000000E+03  0.12500000000E+03 0.  0.
        -13    1    3    3    0    0 -0.16536780793E+02 -0.28917166549E+02  0.84229442285E+01  0.34360221095E+02  0.10566000000E+00 0.  1.
         23    2    1    0    0    0  0.49654395278E+01  0.27052000468E+02  0.13170233997E+02  0.94505387647E+02  0.89450248248E+02 0.  0.
         13    1    3    3    0    0  0.21502220321E+02  0.55969167017E+02  0.47472897685E+01  0.60145166551E+02  0.10566000000E+00 0. -1.
         22    1    1    0    0    0 -0.49654395278E+01 -0.27052000468E+02 -0.13170233997E+02  0.30494612353E+02  0.00000000000E+00 0. -1.
</event>
<event>
 5    1  0.2491889E-009  0.9118800E+02  0.7818608E-02  0.1130116E+00
         25   -1    0    0    0    0  0.00000000000E+00  0.00000000000E+00  0.99999998245E-14  0.12500000000E+03  0.12500000000E+03 0.  0.
        -13    1    3    3    0    0 -0.51077931314E+02  0.96646315677E+01 -0.27286949559E+02  0.58710722623E+02  0.10566000000E+00 0. -1.
         23    2    1    0    0    0 -0.24748044801E+02  0.71552770236E+01  0.31640438587E+01  0.99044752278E+02  0.95583408966E+02 0.  0.
         13    1    3    3    0    0  0.26329886513E+02 -0.25093545442E+01  0.30450993418E+02  0.40334029654E+02  0.10566000000E+00 0.  1.
         22    1    1    0    0    0  0.24748044801E+02 -0.71552770236E+01 -0.31640438587E+01  0.25955247722E+02  0.00000000000E+00 0. -1.
</event>
