<event>
 4    1  0.9897231E-003  0.9118800E+02  0.7818608E-02  0.1130116E+00
         25   -1    0    0    0    0  0.00000000000E+00  0.00000000000E+00  0.99999998245E-14  0.12500000000E+03  0.12500000000E+03 0.  0.
        -13    1    1    0    0    0  0.10524837103E+02 -0.63757715242E+01  0.26094886162E+01  0.12579477471E+02  0.10566000000E+00 0. -1.
         13    1    1    0    0    0  0.15148390598E+02  0.51136619836E+02  0.18806556063E+02  0.56551970266E+02  0.10566000000E+00 0.  1.
         22    1    1    0    0    0 -0.25673227702E+02 -0.44760848312E+02 -0.21416044679E+02  0.55868552263E+02  0.00000000000E+00 0.  1.
</event>
<event>
 4    1  0.9897231E-003  0.9118800E+02  0.7818608E-02  0.1130116E+00
         25   -1    0    0    0    0  0.00000000000E+00  0.00000000000E+00  0.99999998245E-14  0.12500000000E+03  0.12500000000E+03 0.  0.
        -13    1    1    0    0    0  0.52275349495E+01 -0.14496343371E+02  0.43208970907E+01  0.16004762056E+02  0.10566000000E+00 0. -1.
         13    1    1    0    0    0  0.13633571029E+02 -0.43203791074E+02  0.10505878197E+02  0.46506198112E+02  0.10566000000E+00 0.  1.
         22    1    1    0    0    0 -0.18861105979E+02  0.57700134444E+02 -0.14826775288E+02  0.62489039832E+02  0.00000000000E+00 0.  1.
</event>
<event>
 4    1  0.9897231E-003  0.9118800E+02  0.7818608E-02  0.1130116E+00
         25   -1    0    0    0    0  0.00000000000E+00  0.00000000000E+00  0.99999998245E-14  0.12500000000E+03  0.12500000000E+03 0.  0.
        -13    1    1    0    0    0  0.53870406360E+01  0.70192330398E+01 -0.25451141778E+01  0.92075300431E+01  0.10566000000E+00 0. -1.
         13    1    1    0    0    0  0.80599355798E+01  0.28432439701E+02 -0.45704878463E+02  0.54427137241E+02  0.10566000000E+00 0.  1.
         22    1    1    0    0    0 -0.13446976216E+02 -0.35451672741E+02  0.48249992641E+02  0.61365332716E+02  0.00000000000E+00 0.  1.
</event>
<event>
 4    1  0.9897231E-003  0.9118800E+02  0.7818608E-02  0.1130116E+00
         25   -1    0    0    0    0  0.00000000000E+00  0.00000000000E+00  0.99999998245E-14  0.12500000000E+03  0.12500000000E+03 0.  0.
        -13    1    1    0    0    0 -0.23062518628E+02 -0.65596275103E+01  0.10441594015E+02  0.26152371367E+02  0.10566000000E+00 0.  1.
         13    1    1    0    0    0 -0.32017245395E+02 -0.95342519436E+01  0.14324469096E+02  0.36348418696E+02  0.10566000000E+00 0. -1.
         22    1    1    0    0    0  0.55079764023E+02  0.16093879454E+02 -0.24766063111E+02  0.62499209936E+02  0.00000000000E+00 0.  1.
</event>
<event>
 4    1  0.9897231E-003  0.9118800E+02  0.7818608E-02  0.1130116E+00
         25   -1    0    0    0    0  0.00000000000E+00  0.00000000000E+00  0.99999998245E-14  0.12500000000E+03  0.12500000000E+03 0.  0.
        -13    1    1    0    0    0 -0.22129814591E+02 -0.47440220148E+02  0.11405174892E+02  0.53576042779E+02  0.10566000000E+00 0. -1.
         13    1    1    0    0    0 -0.36914822509E+01 -0.79171473958E+01  0.18239162849E+01  0.89244663003E+01  0.10566000000E+00 0. -1.
         22    1    1    0    0    0  0.25821296842E+02  0.55357367544E+02 -0.13229091177E+02  0.62499490921E+02  0.00000000000E+00 0. -1.
</event>
<event>
 4    1  0.9897231E-003  0.9118800E+02  0.7818608E-02  0.1130116E+00
         25   -1    0    0    0    0  0.00000000000E+00  0.00000000000E+00  0.99999998245E-14  0.12500000000E+03  0.12500000000E+03 0.  0.
        -13    1    1    0    0    0 -0.33335717791E+02  0.16813915370E+02  0.19735321887E+02  0.42231172430E+02  0.10566000000E+00 0. -1.
         13    1    1    0    0    0 -0.16513510382E+02  0.78318031009E+01  0.87783976855E+01  0.20275714412E+02  0.10566000000E+00 0.  1.
         22    1    1    0    0    0  0.49849228173E+02 -0.24645718471E+02 -0.28513719573E+02  0.62493113159E+02  0.00000000000E+00 0. -1.
</event>
<event>
 4    1  0.9897231E-003  0.9118800E+02  0.7818608E-02  0.1130116E+00
         25   -1    0    0    0    0  0.00000000000E+00  0.00000000000E+00  0.99999998245E-14  0.12500000000E+03  0.12500000000E+03 0.  0.
        -13    1    1    0    0    0  0.22773446387E+02  0.12668400648E+02  0.20274963808E+02  0.33018230673E+02  0.10566000000E+00 0.  1.
         13    1    1    0    0    0 -0.23556281953E+02  0.28876778287E+02  0.12234343621E+02  0.39223170086E+02  0.10566000000E+00 0. -1.
         22    1    1    0    0    0  0.78283556593E+00 -0.41545178936E+02 -0.32509307429E+02  0.52758599241E+02  0.00000000000E+00 0.  1.
</event>
<event>
 4    1  0.9897231E-003  0.9118800E+02  0.7818608E-02  0.1130116E+00
         25   -1    0    0    0    0  0.00000000000E+00  0.00000000000E+00  0.99999998245E-14  0.12500000000E+03  0.12500000000E+03 0.  0.
        -13    1    1    0    0    0 -0.63804149511E+01  0.18609790572E-01  0.86014146111E+01  0.10710067162E+02  0.10566000000E+00 0.  1.
         13    1    1    0    0    0 -0.85931479975E+01 -0.35213647082E+02  0.38988584254E+02  0.53234988490E+02  0.10566000000E+00 0. -1.
         22    1    1    0    0    0  0.14973562949E+02  0.35195037292E+02 -0.47589998865E+02  0.61054944348E+02  0.00000000000E+00 0. -1.
</event>
<event>
 4    1  0.9897231E-003  0.9118800E+02  0.7818608E-02  0.1130116E+00
         25   -1    0    0    0    0  0.00000000000E+00  0.00000000000E+00  0.99999998245E-14  0.12500000000E+03  0.12500000000E+03 0.  0.
        -13    1    1    0    0    0 -0.80730825263E+00  0.50448979176E+01  0.51870426520E+01  0.72814364739E+01  0.10566000000E+00 0.  1.
         13    1    1    0    0    0 -0.73241923520E+01  0.35599677303E+02  0.41580464200E+02  0.55226144033E+02  0.10566000000E+00 0. -1.
         22    1    1    0    0    0  0.81315006047E+01 -0.40644575220E+02 -0.46767506852E+02  0.62492419493E+02  0.00000000000E+00 0. -1.
</event>
<event>
 4    1  0.9897231E-003  0.9118800E+02  0.7818608E-02  0.1130116E+00
         25   -1    0    0    0    0  0.00000000000E+00  0.00000000000E+00  0.99999998245E-14  0.12500000000E+03  0.12500000000E+03 0.  0.
        -13    1    1    0    0    0  0.34982150130E+02  0.20168686664E+02 -0.20658236222E+02  0.45357476091E+02  0.10566000000E+00 0. -1.
         13    1    1    0    0    0  0.12486976589E+02  0.80036106359E+01 -0.86238311404E+01  0.17157039229E+02  0.10566000000E+00 0.  1.
         22    1    1    0    0    0 -0.47469126719E+02 -0.28172297300E+02  0.29282067362E+02  0.62485484680E+02  0.00000000000E+00 0. -1.
</event>
<event>
 4    1  0.9897231E-003  0.9118800E+02  0.7818608E-02  0.1130116E+00
         25   -1    0    0    0    0  0.00000000000E+00  0.00000000000E+00  0.99999998245E-14  0.12500000000E+03  0.12500000000E+03 0.  0.
        -13    1    1    0    0    0 -0.32809023763E+01 -0.11675242191E+02  0.17546223674E+02  0.21329714716E+02  0.10566000000E+00 0. -1.
         13    1    1    0    0    0 -0.57663869404E+01 -0.20207982953E+02  0.35422815625E+02  0.41187386713E+02  0.10566000000E+00 0.  1.
         22    1    1    0    0    0  0.90472893167E+01  0.31883225144E+02 -0.52969039299E+02  0.62482898571E+02  0.00000000000E+00 0.  1.
</event>
<event>
 4    1  0.9897231E-003  0.9118800E+02  0.7818608E-02  0.1130116E+00
         25   -1    0    0    0    0  0.00000000000E+00  0.00000000000E+00  0.99999998245E-14  0.12500000000E+03  0.12500000000E+03 0.  0.
        -13    1    1    0    0    0  0.26154873425E+01 -0.38627510297E+01  0.81612799376E+01  0.94010251468E+01  0.10566000000E+00 0. -1.
         13    1    1    0    0    0  0.17388995993E+02 -0.24180957015E+02  0.43973913277E+02  0.53111317784E+02  0.10566000000E+00 0.  1.
         22    1    1    0    0    0 -0.20004483336E+02  0.28043708045E+02 -0.52135193215E+02  0.62487657069E+02  0.00000000000E+00 0.  1.
</event>
<event>
 4    1  0.9897231E-003  0.9118800E+02  0.7818608E-02  0.1130116E+00
         25   -1    0    0    0    0  0.00000000000E+00  0.00000000000E+00  0.99999998245E-14  0.12500000000E+03  0.12500000000E+03 0.  0.
        -13    1    1    0    0    0 -0.13483546166E+01 -0.64925412128E+01  0.57960956900E+01  0.88077829705E+01  0.10566000000E+00 0. -1.
         13    1    1    0    0    0 -0.33372064509E+02 -0.29588761931E+02  0.30773282826E+02  0.54186673843E+02  0.10566000000E+00 0.  1.
         22    1    1    0    0    0  0.34720419126E+02  0.36081303144E+02 -0.36569378516E+02  0.62005543187E+02  0.00000000000E+00 0.  1.
</event>
<event>
 4    1  0.9897231E-003  0.9118800E+02  0.7818608E-02  0.1130116E+00
         25   -1    0    0    0    0  0.00000000000E+00  0.00000000000E+00  0.99999998245E-14  0.12500000000E+03  0.12500000000E+03 0.  0.
        -13    1    1    0    0    0  0.65748212455E+01  0.38956926598E+02 -0.20419455892E+02  0.44472865293E+02  0.10566000000E+00 0. -1.
         13    1    1    0    0    0  0.18097022635E+01  0.15976816168E+02 -0.81680746258E+01  0.18035029367E+02  0.10566000000E+00 0.  1.
         22    1    1    0    0    0 -0.83845235090E+01 -0.54933742766E+02  0.28587530518E+02  0.62492105340E+02  0.00000000000E+00 0. -1.
</event>
<event>
 4    1  0.9897231E-003  0.9118800E+02  0.7818608E-02  0.1130116E+00
         25   -1    0    0    0    0  0.00000000000E+00  0.00000000000E+00  0.99999998245E-14  0.12500000000E+03  0.12500000000E+03 0.  0.
        -13    1    1    0    0    0 -0.81865167066E+01  0.12035785072E+02 -0.52456397737E+02  0.54438626045E+02  0.10566000000E+00 0. -1.
         13    1    1    0    0    0 -0.11542733101E+01  0.28701143427E+01 -0.74809394311E+01  0.80960188995E+01  0.10566000000E+00 0.  1.
         22    1    1    0    0    0  0.93407900167E+01 -0.14905899414E+02  0.59937337168E+02  0.62465355056E+02  0.00000000000E+00 0.  1.
</event>
<event>
 4    1  0.9897231E-003  0.9118800E+02  0.7818608E-02  0.1130116E+00
         25   -1    0    0    0    0  0.00000000000E+00  0.00000000000E+00  0.99999998245E-14  0.12500000000E+03  0.12500000000E+03 0.  0.
        -13    1    1    0    0    0 -0.20239611796E+02  0.76617220050E+01  0.40226875617E+01  0.22012202274E+02  0.10566000000E+00 0. -1.
         13    1    1    0    0    0 -0.37199852921E+02  0.14238652671E+02  0.72598534757E+01  0.40488083725E+02  0.10566000000E+00 0. -1.
         22    1    1    0    0    0  0.57439464717E+02 -0.21900374676E+02 -0.11282541037E+02  0.62499714000E+02  0.00000000000E+00 0. -1.
</event>
<event>
 4    1  0.9897231E-003  0.9118800E+02  0.7818608E-02  0.1130116E+00
         25   -1    0    0    0    0  0.00000000000E+00  0.00000000000E+00  0.99999998245E-14  0.12500000000E+03  0.12500000000E+03 0.  0.
        -13    1    1    0    0    0 -0.38062124890E+02 -0.38121482966E+02 -0.63268486917E+01  0.54240326262E+02  0.10566000000E+00 0. -1.
         13    1    1    0    0    0 -0.54331097171E+01 -0.59095762360E+01 -0.20965552583E+01  0.82974984468E+01  0.10566000000E+00 0.  1.
         22    1    1    0    0    0  0.43495234607E+02  0.44031059202E+02  0.84234039501E+01  0.62462175291E+02  0.00000000000E+00 0. -1.
</event>
<event>
 4    1  0.9897231E-003  0.9118800E+02  0.7818608E-02  0.1130116E+00
         25   -1    0    0    0    0  0.00000000000E+00  0.00000000000E+00  0.99999998245E-14  0.12500000000E+03  0.12500000000E+03 0.  0.
        -13    1    1    0    0    0 -0.89359038044E+00  0.43280595003E+00  0.25052641634E+01  0.26969125537E+01  0.10566000000E+00 0. -1.
         13    1    1    0    0    0 -0.51268988418E+02  0.20022634383E+02  0.24330505420E+02  0.60178066760E+02  0.10566000000E+00 0.  1.
         22    1    1    0    0    0  0.52162578798E+02 -0.20455440333E+02 -0.26835769583E+02  0.62125020686E+02  0.00000000000E+00 0.  1.
</event>
<event>
 4    1  0.9897231E-003  0.9118800E+02  0.7818608E-02  0.1130116E+00
         25   -1    0    0    0    0  0.00000000000E+00  0.00000000000E+00  0.99999998245E-14  0.12500000000E+03  0.12500000000E+03 0.  0.
        -13    1    1    0    0    0 -0.41404431707E+02  0.17191780756E+02  0.43194326214E+02  0.62254680721E+02  0.10566000000E+00 0.  1.
         13    1    1    0    0    0 -0.37176847891E-02  0.69013068600E-02  0.27533179012E+00  0.29501369369E+00  0.10566000000E+00 0. -1.
         22    1    1    0    0    0  0.41408149392E+02 -0.17198682062E+02 -0.43469658004E+02  0.62450305586E+02  0.00000000000E+00 0.  1.
</event>
<event>
 4    1  0.9897231E-003  0.9118800E+02  0.7818608E-02  0.1130116E+00
         25   -1    0    0    0    0  0.00000000000E+00  0.00000000000E+00  0.99999998245E-14  0.12500000000E+03  0.12500000000E+03 0.  0.
        -13    1    1    0    0    0  0.13560247515E+02  0.11034962604E+02 -0.15252158050E+02  0.23201081905E+02  0.10566000000E+00 0.  1.
         13    1    1    0    0    0  0.29535635320E+02  0.15376400299E+02 -0.21205392508E+02  0.39477427416E+02  0.10566000000E+00 0. -1.
         22    1    1    0    0    0 -0.43095882835E+02 -0.26411362902E+02  0.36457550559E+02  0.62321490679E+02  0.00000000000E+00 0. -1.
</event>
<event>
 4    1  0.9897231E-003  0.9118800E+02  0.7818608E-02  0.1130116E+00
         25   -1    0    0    0    0  0.00000000000E+00  0.00000000000E+00  0.99999998245E-14  0.12500000000E+03  0.12500000000E+03 0.  0.
        -13    1    1    0    0    0 -0.26777210823E+02  0.20503476872E+01  0.19283997603E+02  0.33062163763E+02  0.10566000000E+00 0.  1.
         13    1    1    0    0    0 -0.22369832410E+02 -0.46852083213E+01  0.18889840880E+02  0.29651270320E+02  0.10566000000E+00 0. -1.
         22    1    1    0    0    0  0.49147043233E+02  0.26348606341E+01 -0.38173838484E+02  0.62286565917E+02  0.00000000000E+00 0. -1.
</event>
<event>
 4    1  0.9897231E-003  0.9118800E+02  0.7818608E-02  0.1130116E+00
         25   -1    0    0    0    0  0.00000000000E+00  0.00000000000E+00  0.99999998245E-14  0.12500000000E+03  0.12500000000E+03 0.  0.
        -13    1    1    0    0    0 -0.14307487397E+02  0.50488614097E+02  0.11156142016E+02  0.53649557480E+02  0.10566000000E+00 0.  1.
         13    1    1    0    0    0 -0.23748071980E+01  0.83559831148E+01  0.16949890549E+01  0.88513453765E+01  0.10566000000E+00 0. -1.
         22    1    1    0    0    0  0.16682294595E+02 -0.58844597212E+02 -0.12851131070E+02  0.62499097144E+02  0.00000000000E+00 0.  1.
</event>
<event>
 4    1  0.9897231E-003  0.9118800E+02  0.7818608E-02  0.1130116E+00
         25   -1    0    0    0    0  0.00000000000E+00  0.00000000000E+00  0.99999998245E-14  0.12500000000E+03  0.12500000000E+03 0.  0.
        -13    1    1    0    0    0 -0.51318053102E+02  0.14103449228E+01  0.11064707338E+02  0.52516383725E+02  0.10566000000E+00 0. -1.
         13    1    1    0    0    0 -0.94773063588E+01  0.25782699044E+01  0.23470497762E+01  0.10098842419E+02  0.10566000000E+00 0.  1.
         22    1    1    0    0    0  0.60795359461E+02 -0.39886148272E+01 -0.13411757114E+02  0.62384773856E+02  0.00000000000E+00 0. -1.
</event>
<event>
 4    1  0.9897231E-003  0.9118800E+02  0.7818608E-02  0.1130116E+00
         25   -1    0    0    0    0  0.00000000000E+00  0.00000000000E+00  0.99999998245E-14  0.12500000000E+03  0.12500000000E+03 0.  0.
        -13    1    1    0    0    0  0.68754945400E+01 -0.49974372930E+02 -0.23775596529E+02  0.55767378719E+02  0.10566000000E+00 0.  1.
         13    1    1    0    0    0  0.21929748227E+01 -0.67759401998E+01  0.23130508455E+00  0.71265117864E+01  0.10566000000E+00 0. -1.
         22    1    1    0    0    0 -0.90684693627E+01  0.56750313129E+02  0.23544291445E+02  0.62106109494E+02  0.00000000000E+00 0.  1.
</event>
<event>
 4    1  0.9897231E-003  0.9118800E+02  0.7818608E-02  0.1130116E+00
         25   -1    0    0    0    0  0.00000000000E+00  0.00000000000E+00  0.99999998245E-14  0.12500000000E+03  0.12500000000E+03 0.  0.
        -13    1    1    0    0    0 -0.12294194466E+02 -0.18098523208E+01 -0.56249040327E+02  0.57605455338E+02  0.10566000000E+00 0. -1.
         13    1    1    0    0    0 -0.29239590565E+01 -0.11899485696E+01 -0.40479561046E+01  0.51344548711E+01  0.10566000000E+00 0.  1.
         22    1    1    0    0    0  0.15218153523E+02  0.29998008905E+01  0.60296996432E+02  0.62260089790E+02  0.00000000000E+00 0. -1.
</event>
<event>
 4    1  0.9897231E-003  0.9118800E+02  0.7818608E-02  0.1130116E+00
         25   -1    0    0    0    0  0.00000000000E+00  0.00000000000E+00  0.99999998245E-14  0.12500000000E+03  0.12500000000E+03 0.  0.
        -13    1    1    0    0    0  0.31772861373E+02 -0.13377867996E+02 -0.19431378934E+02  0.39573624086E+02  0.10566000000E+00 0. -1.
         13    1    1    0    0    0 -0.68651883076E+01 -0.10039531131E+02 -0.25920559876E+02  0.28632317129E+02  0.10566000000E+00 0.  1.
         22    1    1    0    0    0 -0.24907673066E+02  0.23417399127E+02  0.45351938811E+02  0.56794058785E+02  0.00000000000E+00 0. -1.
</event>
<event>
 4    1  0.9897231E-003  0.9118800E+02  0.7818608E-02  0.1130116E+00
         25   -1    0    0    0    0  0.00000000000E+00  0.00000000000E+00  0.99999998245E-14  0.12500000000E+03  0.12500000000E+03 0.  0.
        -13    1    1    0    0    0  0.24280896133E+02  0.10871741345E+02  0.46904815379E+02  0.53924294587E+02  0.10566000000E+00 0.  1.
         13    1    1    0    0    0  0.35053808592E+01  0.19423887172E+01  0.75867528260E+01  0.85808246326E+01  0.10566000000E+00 0. -1.
         22    1    1    0    0    0 -0.27786276993E+02 -0.12814130063E+02 -0.54491568205E+02  0.62494880781E+02  0.00000000000E+00 0.  1.
</event>
<event>
 4    1  0.9897231E-003  0.9118800E+02  0.7818608E-02  0.1130116E+00
         25   -1    0    0    0    0  0.00000000000E+00  0.00000000000E+00  0.99999998245E-14  0.12500000000E+03  0.12500000000E+03 0.  0.
        -13    1    1    0    0    0  0.19642489016E+02 -0.54169971070E+00  0.13451989655E+01  0.19696231559E+02  0.10566000000E+00 0.  1.
         13    1    1    0    0    0  0.42600382581E+02  0.24442069841E+01 -0.47782052264E+01  0.42937269977E+02  0.10566000000E+00 0. -1.
         22    1    1    0    0    0 -0.62242871598E+02 -0.19025072734E+01  0.34330062609E+01  0.62366498464E+02  0.00000000000E+00 0. -1.
</event>
<event>
 4    1  0.9897231E-003  0.9118800E+02  0.7818608E-02  0.1130116E+00
         25   -1    0    0    0    0  0.00000000000E+00  0.00000000000E+00  0.99999998245E-14  0.12500000000E+03  0.12500000000E+03 0.  0.
        -13    1    1    0    0    0 -0.10520423738E+01  0.41046127089E+00  0.46150546376E+01  0.47523851858E+01  0.10566000000E+00 0. -1.
         13    1    1    0    0    0 -0.10842998991E+02  0.69315547704E+01  0.56298498059E+02  0.57750750007E+02  0.10566000000E+00 0. -1.
         22    1    1    0    0    0  0.11895041365E+02 -0.73420160413E+01 -0.60913552696E+02  0.62496864807E+02  0.00000000000E+00 0. -1.
</event>
<event>
 4    1  0.9897231E-003  0.9118800E+02  0.7818608E-02  0.1130116E+00
         25   -1    0    0    0    0  0.00000000000E+00  0.00000000000E+00  0.99999998245E-14  0.12500000000E+03  0.12500000000E+03 0.  0.
        -13    1    1    0    0    0  0.32989430383E+01  0.96546700280E+01 -0.12006069832E+01  0.10273670215E+02  0.10566000000E+00 0.  1.
         13    1    1    0    0    0  0.11674803102E+02  0.48943762673E+02 -0.14262954862E+02  0.52299483530E+02  0.10566000000E+00 0. -1.
         22    1    1    0    0    0 -0.14973746140E+02 -0.58598432701E+02  0.15463561845E+02  0.62426846255E+02  0.00000000000E+00 0. -1.
</event>
<event>
 4    1  0.9897231E-003  0.9118800E+02  0.7818608E-02  0.1130116E+00
         25   -1    0    0    0    0  0.00000000000E+00  0.00000000000E+00  0.99999998245E-14  0.12500000000E+03  0.12500000000E+03 0.  0.
        -13    1    1    0    0    0  0.11315916534E-01  0.51731444812E-01 -0.14933173786E+00  0.19044210638E+00  0.10566000000E+00 0. -1.
         13    1    1    0    0    0  0.30117777677E+02  0.24369515424E+02 -0.48831301733E+02  0.62333466189E+02  0.10566000000E+00 0. -1.
         22    1    1    0    0    0 -0.30129093594E+02 -0.24421246869E+02  0.48980633471E+02  0.62476091704E+02  0.00000000000E+00 0. -1.
</event>
<event>
 4    1  0.9897231E-003  0.9118800E+02  0.7818608E-02  0.1130116E+00
         25   -1    0    0    0    0  0.00000000000E+00  0.00000000000E+00  0.99999998245E-14  0.12500000000E+03  0.12500000000E+03 0.  0.
        -13    1    1    0    0    0 -0.38597426844E+02  0.29155572122E+02  0.36691449933E+02  0.60713115609E+02  0.10566000000E+00 0. -1.
         13    1    1    0    0    0  0.64050047395E+01 -0.56909625565E+01  0.19504976104E+01  0.87878749135E+01  0.10566000000E+00 0.  1.
         22    1    1    0    0    0  0.32192422105E+02 -0.23464609565E+02 -0.38641947544E+02  0.55499009477E+02  0.00000000000E+00 0. -1.
</event>
<event>
 4    1  0.9897231E-003  0.9118800E+02  0.7818608E-02  0.1130116E+00
         25   -1    0    0    0    0  0.00000000000E+00  0.00000000000E+00  0.99999998245E-14  0.12500000000E+03  0.12500000000E+03 0.  0.
        -13    1    1    0    0    0  0.26421587326E+02 -0.16800150292E+02 -0.49284937947E+02  0.58389738817E+02  0.10566000000E+00 0.  1.
         13    1    1    0    0    0 -0.10778456159E+02 -0.22357681288E+01 -0.54472445986E+00  0.11021872122E+02  0.10566000000E+00 0. -1.
         22    1    1    0    0    0 -0.15643131167E+02  0.19035918421E+02  0.49829662407E+02  0.55588389061E+02  0.00000000000E+00 0.  1.
</event>
<event>
 4    1  0.9897231E-003  0.9118800E+02  0.7818608E-02  0.1130116E+00
         25   -1    0    0    0    0  0.00000000000E+00  0.00000000000E+00  0.99999998245E-14  0.12500000000E+03  0.12500000000E+03 0.  0.
        -13    1    1    0    0    0  0.26851593131E+02 -0.31651898710E+02  0.26326742677E+02  0.49152408788E+02  0.10566000000E+00 0. -1.
         13    1    1    0    0    0  0.80323528454E+01 -0.76508269664E+01  0.74636395788E+01  0.13370524496E+02  0.10566000000E+00 0.  1.
         22    1    1    0    0    0 -0.34883945976E+02  0.39302725677E+02 -0.33790382256E+02  0.62477066716E+02  0.00000000000E+00 0. -1.
</event>
<event>
 4    1  0.9897231E-003  0.9118800E+02  0.7818608E-02  0.1130116E+00
         25   -1    0    0    0    0  0.00000000000E+00  0.00000000000E+00  0.99999998245E-14  0.12500000000E+03  0.12500000000E+03 0.  0.
        -13    1    1    0    0    0  0.52880566239E+01  0.46984265325E+01  0.28381756080E-01  0.70746536522E+01  0.10566000000E+00 0.  1.
         13    1    1    0    0    0  0.51428695843E+02  0.21111172167E+02 -0.10706841028E+01  0.55603505958E+02  0.10566000000E+00 0. -1.
         22    1    1    0    0    0 -0.56716752467E+02 -0.25809598699E+02  0.10423023468E+01  0.62321840390E+02  0.00000000000E+00 0. -1.
</event>
<event>
 4    1  0.9897231E-003  0.9118800E+02  0.7818608E-02  0.1130116E+00
         25   -1    0    0    0    0  0.00000000000E+00  0.00000000000E+00  0.99999998245E-14  0.12500000000E+03  0.12500000000E+03 0.  0.
        -13    1    1    0    0    0  0.15974558488E+02 -0.48045215259E+01 -0.85703370483E+01  0.18754513780E+02  0.10566000000E+00 0.  1.
         13    1    1    0    0    0 -0.30895486916E+02 -0.31153573916E+02 -0.28636572207E+02  0.52394090423E+02  0.10566000000E+00 0. -1.
         22    1    1    0    0    0  0.14920928428E+02  0.35958095441E+02  0.37206909255E+02  0.53851395797E+02  0.00000000000E+00 0. -1.
</event>
<event>
 4    1  0.9897231E-003  0.9118800E+02  0.7818608E-02  0.1130116E+00
         25   -1    0    0    0    0  0.00000000000E+00  0.00000000000E+00  0.99999998245E-14  0.12500000000E+03  0.12500000000E+03 0.  0.
        -13    1    1    0    0    0  0.54350891468E+01 -0.52333301150E+01 -0.19096172602E+02  0.20532971295E+02  0.10566000000E+00 0.  1.
         13    1    1    0    0    0  0.11406343014E+02 -0.10072695215E+02 -0.39112057085E+02  0.41968178699E+02  0.10566000000E+00 0.  1.
         22    1    1    0    0    0 -0.16841432161E+02  0.15306025330E+02  0.58208229688E+02  0.62498850005E+02  0.00000000000E+00 0.  1.
</event>
<event>
 4    1  0.9897231E-003  0.9118800E+02  0.7818608E-02  0.1130116E+00
         25   -1    0    0    0    0  0.00000000000E+00  0.00000000000E+00  0.99999998245E-14  0.12500000000E+03  0.12500000000E+03 0.  0.
        -13    1    1    0    0    0  0.12837852455E+00 -0.66294883828E+01 -0.24432989742E+01  0.70673524871E+01  0.10566000000E+00 0. -1.
         13    1    1    0    0    0 -0.33918884134E+01 -0.53510821015E+02 -0.14161307327E+02  0.55456890121E+02  0.10566000000E+00 0.  1.
         22    1    1    0    0    0  0.32635098888E+01  0.60140309398E+02  0.16604606302E+02  0.62475757392E+02  0.00000000000E+00 0.  1.
</event>
<event>
 4    1  0.9897231E-003  0.9118800E+02  0.7818608E-02  0.1130116E+00
         25   -1    0    0    0    0  0.00000000000E+00  0.00000000000E+00  0.99999998245E-14  0.12500000000E+03  0.12500000000E+03 0.  0.
        -13    1    1    0    0    0  0.87844843723E+01 -0.73300147115E+01 -0.56058501106E+01  0.12740996855E+02  0.10566000000E+00 0.  1.
         13    1    1    0    0    0  0.36400623311E+02 -0.29291702788E+02 -0.17196123555E+02  0.49786816117E+02  0.10566000000E+00 0. -1.
         22    1    1    0    0    0 -0.45185107684E+02  0.36621717500E+02  0.22801973666E+02  0.62472187028E+02  0.00000000000E+00 0. -1.
</event>
<event>
 4    1  0.9897231E-003  0.9118800E+02  0.7818608E-02  0.1130116E+00
         25   -1    0    0    0    0  0.00000000000E+00  0.00000000000E+00  0.99999998245E-14  0.12500000000E+03  0.12500000000E+03 0.  0.
        -13    1    1    0    0    0 -0.20155641121E+02  0.23361845151E+02  0.76324402956E+00  0.30864532774E+02  0.10566000000E+00 0.  1.
         13    1    1    0    0    0 -0.15099700703E+02  0.27930724649E+02 -0.26928440879E+01  0.31865167723E+02  0.10566000000E+00 0. -1.
         22    1    1    0    0    0  0.35255341824E+02 -0.51292569800E+02  0.19296000584E+01  0.62270299503E+02  0.00000000000E+00 0.  1.
</event>
<event>
 4    1  0.9897231E-003  0.9118800E+02  0.7818608E-02  0.1130116E+00
         25   -1    0    0    0    0  0.00000000000E+00  0.00000000000E+00  0.99999998245E-14  0.12500000000E+03  0.12500000000E+03 0.  0.
        -13    1    1    0    0    0 -0.36491591952E+01 -0.20322107087E+01  0.62378014233E+01  0.75078341636E+01  0.10566000000E+00 0. -1.
         13    1    1    0    0    0 -0.26918737502E+02 -0.14642106272E+02  0.45663657987E+02  0.54992640685E+02  0.10566000000E+00 0. -1.
         22    1    1    0    0    0  0.30567896697E+02  0.16674316980E+02 -0.51901459410E+02  0.62499525151E+02  0.00000000000E+00 0. -1.
</event>
<event>
 4    1  0.9897231E-003  0.9118800E+02  0.7818608E-02  0.1130116E+00
         25   -1    0    0    0    0  0.00000000000E+00  0.00000000000E+00  0.99999998245E-14  0.12500000000E+03  0.12500000000E+03 0.  0.
        -13    1    1    0    0    0 -0.14529781286E+01 -0.12573045098E+01 -0.11630402135E+01  0.22485076488E+01  0.10566000000E+00 0. -1.
         13    1    1    0    0    0 -0.36791148349E+02 -0.35447504107E+02 -0.31944032663E+02  0.60254016721E+02  0.10566000000E+00 0.  1.
         22    1    1    0    0    0  0.38244126478E+02  0.36704808617E+02  0.33107072877E+02  0.62497475630E+02  0.00000000000E+00 0.  1.
</event>
<event>
 4    1  0.9897231E-003  0.9118800E+02  0.7818608E-02  0.1130116E+00
         25   -1    0    0    0    0  0.00000000000E+00  0.00000000000E+00  0.99999998245E-14  0.12500000000E+03  0.12500000000E+03 0.  0.
        -13    1    1    0    0    0  0.10116977065E+01  0.40214546726E-01 -0.10851485279E+02  0.10899130528E+02  0.10566000000E+00 0.  1.
         13    1    1    0    0    0  0.63343339035E+01  0.87384180957E+01 -0.50525564927E+02  0.51665536018E+02  0.10566000000E+00 0. -1.
         22    1    1    0    0    0 -0.73460316100E+01 -0.87786326424E+01  0.61377050206E+02  0.62435333454E+02  0.00000000000E+00 0. -1.
</event>
<event>
 4    1  0.9897231E-003  0.9118800E+02  0.7818608E-02  0.1130116E+00
         25   -1    0    0    0    0  0.00000000000E+00  0.00000000000E+00  0.99999998245E-14  0.12500000000E+03  0.12500000000E+03 0.  0.
        -13    1    1    0    0    0 -0.29647609867E+02  0.12552115502E+02  0.38930459004E+02  0.50518592387E+02  0.10566000000E+00 0.  1.
         13    1    1    0    0    0  0.79854779621E+00  0.91794046322E+01  0.10042935665E+02  0.13629778751E+02  0.10566000000E+00 0. -1.
         22    1    1    0    0    0  0.28849062071E+02 -0.21731520134E+02 -0.48973394670E+02  0.60851628862E+02  0.00000000000E+00 0.  1.
</event>
<event>
 4    1  0.9897231E-003  0.9118800E+02  0.7818608E-02  0.1130116E+00
         25   -1    0    0    0    0  0.00000000000E+00  0.00000000000E+00  0.99999998245E-14  0.12500000000E+03  0.12500000000E+03 0.  0.
        -13    1    1    0    0    0  0.49514030511E+01  0.13296677097E+02  0.84751512500E+01  0.16527473090E+02  0.10566000000E+00 0.  1.
         13    1    1    0    0    0  0.12479620121E+02  0.39309703561E+02  0.20366293253E+02  0.45997725784E+02  0.10566000000E+00 0. -1.
         22    1    1    0    0    0 -0.17431023172E+02 -0.52606380658E+02 -0.28841444503E+02  0.62474801126E+02  0.00000000000E+00 0.  1.
</event>
<event>
 4    1  0.9897231E-003  0.9118800E+02  0.7818608E-02  0.1130116E+00
         25   -1    0    0    0    0  0.00000000000E+00  0.00000000000E+00  0.99999998245E-14  0.12500000000E+03  0.12500000000E+03 0.  0.
        -13    1    1    0    0    0 -0.23266939629E+02 -0.31371776977E+02  0.22715957661E+02  0.45183678103E+02  0.10566000000E+00 0. -1.
         13    1    1    0    0    0 -0.89971787390E+01 -0.11949433693E+02  0.87245507386E+01  0.17316672327E+02  0.10566000000E+00 0. -1.
         22    1    1    0    0    0  0.32264118368E+02  0.43321210670E+02 -0.31440508400E+02  0.62499649570E+02  0.00000000000E+00 0. -1.
</event>
<event>
 4    1  0.9897231E-003  0.9118800E+02  0.7818608E-02  0.1130116E+00
         25   -1    0    0    0    0  0.00000000000E+00  0.00000000000E+00  0.99999998245E-14  0.12500000000E+03  0.12500000000E+03 0.  0.
        -13    1    1    0    0    0  0.61404916151E-01  0.16413406791E+01 -0.11600098608E+01  0.20135929831E+01  0.10566000000E+00 0.  1.
         13    1    1    0    0    0 -0.20707462403E+01  0.48843319759E+02 -0.35624005824E+02  0.60489989503E+02  0.10566000000E+00 0.  1.
         22    1    1    0    0    0  0.20093413242E+01 -0.50484660438E+02  0.36784015685E+02  0.62496417514E+02  0.00000000000E+00 0.  1.
</event>
<event>
 4    1  0.9897231E-003  0.9118800E+02  0.7818608E-02  0.1130116E+00
         25   -1    0    0    0    0  0.00000000000E+00  0.00000000000E+00  0.99999998245E-14  0.12500000000E+03  0.12500000000E+03 0.  0.
        -13    1    1    0    0    0  0.98974381517E+01 -0.64828309186E+01 -0.25069621796E+01  0.12094726210E+02  0.10566000000E+00 0.  1.
         13    1    1    0    0    0  0.47039226089E+02 -0.16482642081E+02 -0.84110891155E+01  0.50548233057E+02  0.10566000000E+00 0. -1.
         22    1    1    0    0    0 -0.56936664241E+02  0.22965473000E+02  0.10918051295E+02  0.62357040733E+02  0.00000000000E+00 0. -1.
</event>
<event>
 4    1  0.9897231E-003  0.9118800E+02  0.7818608E-02  0.1130116E+00
         25   -1    0    0    0    0  0.00000000000E+00  0.00000000000E+00  0.99999998245E-14  0.12500000000E+03  0.12500000000E+03 0.  0.
        -13    1    1    0    0    0 -0.27200057454E+02 -0.27457015599E+02 -0.46376026871E+02  0.60369511042E+02  0.10566000000E+00 0. -1.
         13    1    1    0    0    0  0.28151429685E+00 -0.14465874792E+01 -0.18028652856E+01  0.23309553638E+01  0.10566000000E+00 0.  1.
         22    1    1    0    0    0  0.26918543157E+02  0.28903603078E+02  0.48178892157E+02  0.62299533594E+02  0.00000000000E+00 0. -1.
</event>
<event>
 4    1  0.9897231E-003  0.9118800E+02  0.7818608E-02  0.1130116E+00
         25   -1    0    0    0    0  0.00000000000E+00  0.00000000000E+00  0.99999998245E-14  0.12500000000E+03  0.12500000000E+03 0.  0.
        -13    1    1    0    0    0  0.31640680656E+01 -0.38112490286E+02 -0.31598736996E+02  0.49609117976E+02  0.10566000000E+00 0.  1.
         13    1    1    0    0    0 -0.73198308182E+01 -0.93211386046E+01 -0.72883673561E+01  0.13913842419E+02  0.10566000000E+00 0. -1.
         22    1    1    0    0    0  0.41557627526E+01  0.47433628891E+02  0.38887104352E+02  0.61477039606E+02  0.00000000000E+00 0. -1.
</event>
<event>
 4    1  0.9897231E-003  0.9118800E+02  0.7818608E-02  0.1130116E+00
         25   -1    0    0    0    0  0.00000000000E+00  0.00000000000E+00  0.99999998245E-14  0.12500000000E+03  0.12500000000E+03 0.  0.
        -13    1    1    0    0    0 -0.22786320031E+02 -0.49258815707E+02  0.23348499632E+02  0.59083084758E+02  0.10566000000E+00 0. -1.
         13    1    1    0    0    0 -0.92794211380E+00 -0.28650354784E+01  0.16475533410E+01  0.34343996427E+01  0.10566000000E+00 0.  1.
         22    1    1    0    0    0  0.23714262145E+02  0.52123851185E+02 -0.24996052973E+02  0.62482515600E+02  0.00000000000E+00 0. -1.
</event>
<event>
 4    1  0.9897231E-003  0.9118800E+02  0.7818608E-02  0.1130116E+00
         25   -1    0    0    0    0  0.00000000000E+00  0.00000000000E+00  0.99999998245E-14  0.12500000000E+03  0.12500000000E+03 0.  0.
        -13    1    1    0    0    0  0.82707731431E+01 -0.36037880180E+00  0.12048241838E+02  0.14618715972E+02  0.10566000000E+00 0.  1.
         13    1    1    0    0    0  0.43823012443E+02  0.26713464065E+02 -0.66431012671E+01  0.51751401338E+02  0.10566000000E+00 0. -1.
         22    1    1    0    0    0 -0.52093785587E+02 -0.26353085263E+02 -0.54051405704E+01  0.58629882690E+02  0.00000000000E+00 0. -1.
</event>
<event>
 4    1  0.9897231E-003  0.9118800E+02  0.7818608E-02  0.1130116E+00
         25   -1    0    0    0    0  0.00000000000E+00  0.00000000000E+00  0.99999998245E-14  0.12500000000E+03  0.12500000000E+03 0.  0.
        -13    1    1    0    0    0  0.57179864398E+01  0.58976114635E+01  0.31428127179E+01  0.87957731732E+01  0.10566000000E+00 0. -1.
         13    1    1    0    0    0  0.17537857359E+01  0.41503627378E+02 -0.38468835629E+02  0.56617040974E+02  0.10566000000E+00 0.  1.
         22    1    1    0    0    0 -0.74717721757E+01 -0.47401238841E+02  0.35326022912E+02  0.59587185853E+02  0.00000000000E+00 0.  1.
</event>
<event>
 4    1  0.9897231E-003  0.9118800E+02  0.7818608E-02  0.1130116E+00
         25   -1    0    0    0    0  0.00000000000E+00  0.00000000000E+00  0.99999998245E-14  0.12500000000E+03  0.12500000000E+03 0.  0.
        -13    1    1    0    0    0 -0.74562717162E+01  0.64220148031E+01 -0.73846733728E+01  0.12303772872E+02  0.10566000000E+00 0.  1.
         13    1    1    0    0    0 -0.31669265511E+02  0.28943349311E+02 -0.26105664024E+02  0.50221277418E+02  0.10566000000E+00 0. -1.
         22    1    1    0    0    0  0.39125537227E+02 -0.35365364114E+02  0.33490337397E+02  0.62474949709E+02  0.00000000000E+00 0. -1.
</event>
<event>
 4    1  0.9897231E-003  0.9118800E+02  0.7818608E-02  0.1130116E+00
         25   -1    0    0    0    0  0.00000000000E+00  0.00000000000E+00  0.99999998245E-14  0.12500000000E+03  0.12500000000E+03 0.  0.
        -13    1    1    0    0    0  0.15675472828E+00 -0.87458161757E+01  0.14455286249E+02  0.16896163387E+02  0.10566000000E+00 0. -1.
         13    1    1    0    0    0  0.55750001263E+01 -0.25353089154E+02  0.37551986367E+02  0.45651096374E+02  0.10566000000E+00 0.  1.
         22    1    1    0    0    0 -0.57317548546E+01  0.34098905330E+02 -0.52007272615E+02  0.62452740239E+02  0.00000000000E+00 0. -1.
</event>
<event>
 4    1  0.9897231E-003  0.9118800E+02  0.7818608E-02  0.1130116E+00
         25   -1    0    0    0    0  0.00000000000E+00  0.00000000000E+00  0.99999998245E-14  0.12500000000E+03  0.12500000000E+03 0.  0.
        -13    1    1    0    0    0 -0.20089123926E+00 -0.83042206227E+00  0.45818061135E+00  0.97521874456E+00  0.10566000000E+00 0. -1.
         13    1    1    0    0    0 -0.25652514856E+02 -0.53317549058E+02  0.16949026366E+02  0.61547487477E+02  0.10566000000E+00 0.  1.
         22    1    1    0    0    0  0.25853406095E+02  0.54147971120E+02 -0.17407206977E+02  0.62477293778E+02  0.00000000000E+00 0.  1.
</event>
<event>
 4    1  0.9897231E-003  0.9118800E+02  0.7818608E-02  0.1130116E+00
         25   -1    0    0    0    0  0.00000000000E+00  0.00000000000E+00  0.99999998245E-14  0.12500000000E+03  0.12500000000E+03 0.  0.
        -13    1    1    0    0    0  0.29631204867E+02  0.38309596303E+02 -0.30767779740E+02  0.57378575313E+02  0.10566000000E+00 0.  1.
         13    1    1    0    0    0  0.25497735472E+01  0.34188766903E+01 -0.28357838639E+01  0.51227821664E+01  0.10566000000E+00 0. -1.
         22    1    1    0    0    0 -0.32180978414E+02 -0.41728472993E+02  0.33603563604E+02  0.62498642521E+02  0.00000000000E+00 0.  1.
</event>
<event>
 4    1  0.9897231E-003  0.9118800E+02  0.7818608E-02  0.1130116E+00
         25   -1    0    0    0    0  0.00000000000E+00  0.00000000000E+00  0.99999998245E-14  0.12500000000E+03  0.12500000000E+03 0.  0.
        -13    1    1    0    0    0 -0.26899828610E+02 -0.14300684516E+02 -0.48897082098E+02  0.57611163490E+02  0.10566000000E+00 0. -1.
         13    1    1    0    0    0  0.16737539724E+00  0.71236575806E+01 -0.36431001593E+01  0.80036150992E+01  0.10566000000E+00 0.  1.
         22    1    1    0    0    0  0.26732453213E+02  0.71770269352E+01  0.52540182257E+02  0.59385221411E+02  0.00000000000E+00 0. -1.
</event>
<event>
 4    1  0.9897231E-003  0.9118800E+02  0.7818608E-02  0.1130116E+00
         25   -1    0    0    0    0  0.00000000000E+00  0.00000000000E+00  0.99999998245E-14  0.12500000000E+03  0.12500000000E+03 0.  0.
        -13    1    1    0    0    0 -0.48208263808E+01 -0.41992607897E+02  0.38735521933E+02  0.57332986216E+02  0.10566000000E+00 0. -1.
         13    1    1    0    0    0 -0.12233245219E+01 -0.26366915861E+01  0.44202290279E+01  0.52913376476E+01  0.10566000000E+00 0.  1.
         22    1    1    0    0    0  0.60441509026E+01  0.44629299483E+02 -0.43155750961E+02  0.62375676136E+02  0.00000000000E+00 0. -1.
</event>
<event>
 4    1  0.9897231E-003  0.9118800E+02  0.7818608E-02  0.1130116E+00
         25   -1    0    0    0    0  0.00000000000E+00  0.00000000000E+00  0.99999998245E-14  0.12500000000E+03  0.12500000000E+03 0.  0.
        -13    1    1    0    0    0 -0.17574535413E+02 -0.72018651495E+01 -0.57336140327E+01  0.19839774458E+02  0.10566000000E+00 0. -1.
         13    1    1    0    0    0 -0.38463922002E+02 -0.14721988746E+02 -0.11139137794E+02  0.42664995057E+02  0.10566000000E+00 0.  1.
         22    1    1    0    0    0  0.56038457415E+02  0.21923853896E+02  0.16872751826E+02  0.62495230485E+02  0.00000000000E+00 0. -1.
</event>
<event>
 4    1  0.9897231E-003  0.9118800E+02  0.7818608E-02  0.1130116E+00
         25   -1    0    0    0    0  0.00000000000E+00  0.00000000000E+00  0.99999998245E-14  0.12500000000E+03  0.12500000000E+03 0.  0.
        -13    1    1    0    0    0 -0.30277129803E+01 -0.17713225737E+01 -0.24802272354E+01  0.42973620660E+01  0.10566000000E+00 0. -1.
         13    1    1    0    0    0 -0.36113792843E+02 -0.29450222330E+02 -0.34899891716E+02  0.58219715171E+02  0.10566000000E+00 0.  1.
         22    1    1    0    0    0  0.39141505823E+02  0.31221544904E+02  0.37380118951E+02  0.62482922763E+02  0.00000000000E+00 0.  1.
</event>
<event>
 4    1  0.9897231E-003  0.9118800E+02  0.7818608E-02  0.1130116E+00
         25   -1    0    0    0    0  0.00000000000E+00  0.00000000000E+00  0.99999998245E-14  0.12500000000E+03  0.12500000000E+03 0.  0.
        -13    1    1    0    0    0  0.20900923324E+01  0.43929304760E+01 -0.27239468099E+02  0.27670672390E+02  0.10566000000E+00 0. -1.
         13    1    1    0    0    0  0.27207699632E+01  0.55923042547E+01 -0.34269662671E+02  0.34829547796E+02  0.10566000000E+00 0. -1.
         22    1    1    0    0    0 -0.48108622956E+01 -0.99852347308E+01  0.61509130770E+02  0.62499779814E+02  0.00000000000E+00 0. -1.
</event>
<event>
 4    1  0.9897231E-003  0.9118800E+02  0.7818608E-02  0.1130116E+00
         25   -1    0    0    0    0  0.00000000000E+00  0.00000000000E+00  0.99999998245E-14  0.12500000000E+03  0.12500000000E+03 0.  0.
        -13    1    1    0    0    0 -0.15417003260E+02 -0.23061155764E+02  0.66167525623E+01  0.28518300672E+02  0.10566000000E+00 0.  1.
         13    1    1    0    0    0 -0.18815148209E+02 -0.27207721277E+02  0.77814767910E+01  0.33982825725E+02  0.10566000000E+00 0.  1.
         22    1    1    0    0    0  0.34232151469E+02  0.50268877041E+02 -0.14398229353E+02  0.62498873603E+02  0.00000000000E+00 0.  1.
</event>
<event>
 4    1  0.9897231E-003  0.9118800E+02  0.7818608E-02  0.1130116E+00
         25   -1    0    0    0    0  0.00000000000E+00  0.00000000000E+00  0.99999998245E-14  0.12500000000E+03  0.12500000000E+03 0.  0.
        -13    1    1    0    0    0  0.10161054555E+02 -0.26662516114E+02  0.31009392753E+02  0.42139416205E+02  0.10566000000E+00 0. -1.
         13    1    1    0    0    0  0.49680122181E+01 -0.12901894054E+02  0.14946979116E+02  0.20360829166E+02  0.10566000000E+00 0. -1.
         22    1    1    0    0    0 -0.15129066773E+02  0.39564410168E+02 -0.45956371869E+02  0.62499754629E+02  0.00000000000E+00 0. -1.
</event>
<event>
 4    1  0.9897231E-003  0.9118800E+02  0.7818608E-02  0.1130116E+00
         25   -1    0    0    0    0  0.00000000000E+00  0.00000000000E+00  0.99999998245E-14  0.12500000000E+03  0.12500000000E+03 0.  0.
        -13    1    1    0    0    0 -0.48253525361E+02  0.11688442846E+02 -0.35219966649E+02  0.60872650844E+02  0.10566000000E+00 0.  1.
         13    1    1    0    0    0  0.13055043079E+01 -0.32543698146E+01  0.90815595582E+01  0.97355612285E+01  0.10566000000E+00 0. -1.
         22    1    1    0    0    0  0.46948021053E+02 -0.84340730311E+01  0.26138407091E+02  0.54391787928E+02  0.00000000000E+00 0.  1.
</event>
<event>
 4    1  0.9897231E-003  0.9118800E+02  0.7818608E-02  0.1130116E+00
         25   -1    0    0    0    0  0.00000000000E+00  0.00000000000E+00  0.99999998245E-14  0.12500000000E+03  0.12500000000E+03 0.  0.
        -13    1    1    0    0    0 -0.18039443487E+01  0.14391220458E+02  0.11114398991E+02  0.18272998398E+02  0.10566000000E+00 0.  1.
         13    1    1    0    0    0  0.21627411149E+02  0.35816701519E+02  0.17825434589E+02  0.45478987489E+02  0.10566000000E+00 0. -1.
         22    1    1    0    0    0 -0.19823466800E+02 -0.50207921977E+02 -0.28939833580E+02  0.61248014113E+02  0.00000000000E+00 0. -1.
</event>
<event>
 4    1  0.9897231E-003  0.9118800E+02  0.7818608E-02  0.1130116E+00
         25   -1    0    0    0    0  0.00000000000E+00  0.00000000000E+00  0.99999998245E-14  0.12500000000E+03  0.12500000000E+03 0.  0.
        -13    1    1    0    0    0  0.18038409658E+02  0.26342518656E+02  0.11646668174E+02  0.33984828317E+02  0.10566000000E+00 0. -1.
         13    1    1    0    0    0  0.14666583036E+02  0.23023055768E+02  0.82961917470E+01  0.28530820465E+02  0.10566000000E+00 0.  1.
         22    1    1    0    0    0 -0.32704992694E+02 -0.49365574425E+02 -0.19942859921E+02  0.62484351218E+02  0.00000000000E+00 0. -1.
</event>
<event>
 4    1  0.9897231E-003  0.9118800E+02  0.7818608E-02  0.1130116E+00
         25   -1    0    0    0    0  0.00000000000E+00  0.00000000000E+00  0.99999998245E-14  0.12500000000E+03  0.12500000000E+03 0.  0.
        -13    1    1    0    0    0  0.15253316926E+01  0.33043438116E+00 -0.15804154929E+02  0.15881382204E+02  0.10566000000E+00 0.  1.
         13    1    1    0    0    0 -0.19863401969E+01 -0.25049197271E+01 -0.46582593105E+02  0.46692283245E+02  0.10566000000E+00 0. -1.
         22    1    1    0    0    0  0.46100850431E+00  0.21744853459E+01  0.62386748033E+02  0.62426334552E+02  0.00000000000E+00 0. -1.
</event>
<event>
 4    1  0.9897231E-003  0.9118800E+02  0.7818608E-02  0.1130116E+00
         25   -1    0    0    0    0  0.00000000000E+00  0.00000000000E+00  0.99999998245E-14  0.12500000000E+03  0.12500000000E+03 0.  0.
        -13    1    1    0    0    0 -0.12885784413E+02 -0.92802576336E+00 -0.17400604449E+02  0.21672491112E+02  0.10566000000E+00 0.  1.
         13    1    1    0    0    0 -0.23484807664E+02  0.63348093155E+00 -0.33408281366E+02  0.40841913728E+02  0.10566000000E+00 0. -1.
         22    1    1    0    0    0  0.36370592077E+02  0.29454483181E+00  0.50808885815E+02  0.62485595160E+02  0.00000000000E+00 0.  1.
</event>
<event>
 4    1  0.9897231E-003  0.9118800E+02  0.7818608E-02  0.1130116E+00
         25   -1    0    0    0    0  0.00000000000E+00  0.00000000000E+00  0.99999998245E-14  0.12500000000E+03  0.12500000000E+03 0.  0.
        -13    1    1    0    0    0  0.10879537087E+02 -0.14563395026E+02  0.99822874589E+01  0.20739190651E+02  0.10566000000E+00 0.  1.
         13    1    1    0    0    0  0.23200784547E+02 -0.28922442408E+02  0.19225461386E+02  0.41766177799E+02  0.10566000000E+00 0. -1.
         22    1    1    0    0    0 -0.34080321634E+02  0.43485837434E+02 -0.29207748845E+02  0.62494631550E+02  0.00000000000E+00 0.  1.
</event>
<event>
 4    1  0.9897231E-003  0.9118800E+02  0.7818608E-02  0.1130116E+00
         25   -1    0    0    0    0  0.00000000000E+00  0.00000000000E+00  0.99999998245E-14  0.12500000000E+03  0.12500000000E+03 0.  0.
        -13    1    1    0    0    0 -0.27851246033E+02 -0.44714220690E+02  0.18973649410E+02  0.55991641997E+02  0.10566000000E+00 0. -1.
         13    1    1    0    0    0 -0.35191313110E+01 -0.49678133422E+01  0.23140492995E+01  0.65137886658E+01  0.10566000000E+00 0.  1.
         22    1    1    0    0    0  0.31370377344E+02  0.49682034033E+02 -0.21287698709E+02  0.62494569337E+02  0.00000000000E+00 0. -1.
</event>
<event>
 4    1  0.9897231E-003  0.9118800E+02  0.7818608E-02  0.1130116E+00
         25   -1    0    0    0    0  0.00000000000E+00  0.00000000000E+00  0.99999998245E-14  0.12500000000E+03  0.12500000000E+03 0.  0.
        -13    1    1    0    0    0  0.20102167505E+00 -0.10445967712E+02  0.74092931560E+01  0.12808881304E+02  0.10566000000E+00 0.  1.
         13    1    1    0    0    0  0.25400717502E+02 -0.34530537237E+02  0.26427570167E+02  0.50358535329E+02  0.10566000000E+00 0. -1.
         22    1    1    0    0    0 -0.25601739177E+02  0.44976504949E+02 -0.33836863323E+02  0.61832583367E+02  0.00000000000E+00 0. -1.
</event>
<event>
 4    1  0.9897231E-003  0.9118800E+02  0.7818608E-02  0.1130116E+00
         25   -1    0    0    0    0  0.00000000000E+00  0.00000000000E+00  0.99999998245E-14  0.12500000000E+03  0.12500000000E+03 0.  0.
        -13    1    1    0    0    0 -0.10190721323E+02  0.14001519706E+02 -0.37622389251E+01  0.17721708747E+02  0.10566000000E+00 0.  1.
         13    1    1    0    0    0 -0.22807040611E+02 -0.29115393224E+02 -0.37263894966E+02  0.52502154775E+02  0.10566000000E+00 0. -1.
         22    1    1    0    0    0  0.32997761934E+02  0.15113873518E+02  0.41026133891E+02  0.54776136477E+02  0.00000000000E+00 0. -1.
</event>
<event>
 4    1  0.9897231E-003  0.9118800E+02  0.7818608E-02  0.1130116E+00
         25   -1    0    0    0    0  0.00000000000E+00  0.00000000000E+00  0.99999998245E-14  0.12500000000E+03  0.12500000000E+03 0.  0.
        -13    1    1    0    0    0 -0.39268128420E+02 -0.30417763851E+02 -0.59007365330E+01  0.50020557004E+02  0.10566000000E+00 0.  1.
         13    1    1    0    0    0 -0.95403994669E+01 -0.78275706007E+01 -0.18868456708E+01  0.12484447690E+02  0.10566000000E+00 0. -1.
         22    1    1    0    0    0  0.48808527887E+02  0.38245334452E+02  0.77875822037E+01  0.62494995307E+02  0.00000000000E+00 0.  1.
</event>
<event>
 4    1  0.9897231E-003  0.9118800E+02  0.7818608E-02  0.1130116E+00
         25   -1    0    0    0    0  0.00000000000E+00  0.00000000000E+00  0.99999998245E-14  0.12500000000E+03  0.12500000000E+03 0.  0.
        -13    1    1    0    0    0 -0.80406160802E+01  0.53070137209E+01 -0.30937345776E+01  0.10119202501E+02  0.10566000000E+00 0. -1.
         13    1    1    0    0    0 -0.40618118693E+02  0.33159472642E+02  0.60555470068E+01  0.52783169720E+02  0.10566000000E+00 0.  1.
         22    1    1    0    0    0  0.48658734774E+02 -0.38466486363E+02 -0.29618124292E+01  0.62097627779E+02  0.00000000000E+00 0.  1.
</event>
<event>
 4    1  0.9897231E-003  0.9118800E+02  0.7818608E-02  0.1130116E+00
         25   -1    0    0    0    0  0.00000000000E+00  0.00000000000E+00  0.99999998245E-14  0.12500000000E+03  0.12500000000E+03 0.  0.
        -13    1    1    0    0    0  0.36004394700E+02  0.98937177336E+01 -0.41527230113E+02  0.55845537809E+02  0.10566000000E+00 0. -1.
         13    1    1    0    0    0 -0.21095972975E+02  0.15201079985E+02  0.17432497522E+02  0.31305207911E+02  0.10566000000E+00 0.  1.
         22    1    1    0    0    0 -0.14908421725E+02 -0.25094797719E+02  0.24094732591E+02  0.37849254279E+02  0.00000000000E+00 0. -1.
</event>
<event>
 4    1  0.9897231E-003  0.9118800E+02  0.7818608E-02  0.1130116E+00
         25   -1    0    0    0    0  0.00000000000E+00  0.00000000000E+00  0.99999998245E-14  0.12500000000E+03  0.12500000000E+03 0.  0.
        -13    1    1    0    0    0  0.20856001548E+02 -0.31391131768E+02 -0.61328357364E+01  0.38183750372E+02  0.10566000000E+00 0.  1.
         13    1    1    0    0    0  0.15494048185E+02 -0.17862802050E+02  0.95588577208E+01  0.25505453362E+02  0.10566000000E+00 0. -1.
         22    1    1    0    0    0 -0.36350049733E+02  0.49253933818E+02 -0.34260219844E+01  0.61310796266E+02  0.00000000000E+00 0.  1.
</event>
<event>
 4    1  0.9897231E-003  0.9118800E+02  0.7818608E-02  0.1130116E+00
         25   -1    0    0    0    0  0.00000000000E+00  0.00000000000E+00  0.99999998245E-14  0.12500000000E+03  0.12500000000E+03 0.  0.
        -13    1    1    0    0    0 -0.63087434946E+00 -0.78114037894E+00 -0.26432355609E+01  0.28294948317E+01  0.10566000000E+00 0.  1.
         13    1    1    0    0    0  0.57383197908E+02  0.21998982595E+02  0.37684560874E+01  0.61571089504E+02  0.10566000000E+00 0. -1.
         22    1    1    0    0    0 -0.56752323559E+02 -0.21217842216E+02 -0.11252205265E+01  0.60599415664E+02  0.00000000000E+00 0. -1.
</event>
<event>
 4    1  0.9897231E-003  0.9118800E+02  0.7818608E-02  0.1130116E+00
         25   -1    0    0    0    0  0.00000000000E+00  0.00000000000E+00  0.99999998245E-14  0.12500000000E+03  0.12500000000E+03 0.  0.
        -13    1    1    0    0    0 -0.26683229445E+02  0.27079496615E+02  0.58437952817E+01  0.38463683883E+02  0.10566000000E+00 0.  1.
         13    1    1    0    0    0 -0.15271703374E+02  0.18093291509E+02  0.42777105480E+01  0.24060384310E+02  0.10566000000E+00 0. -1.
         22    1    1    0    0    0  0.41954932820E+02 -0.45172788124E+02 -0.10121505830E+02  0.62475931806E+02  0.00000000000E+00 0.  1.
</event>
<event>
 4    1  0.9897231E-003  0.9118800E+02  0.7818608E-02  0.1130116E+00
         25   -1    0    0    0    0  0.00000000000E+00  0.00000000000E+00  0.99999998245E-14  0.12500000000E+03  0.12500000000E+03 0.  0.
        -13    1    1    0    0    0  0.90822355972E+01  0.16469279153E+02  0.22264548179E+01  0.18939176971E+02  0.10566000000E+00 0. -1.
         13    1    1    0    0    0  0.34840230594E+02 -0.69284815533E+01  0.33360405706E+02  0.48731646364E+02  0.10566000000E+00 0.  1.
         22    1    1    0    0    0 -0.43922466191E+02 -0.95407975994E+01 -0.35586860524E+02  0.57329176665E+02  0.00000000000E+00 0.  1.
</event>
<event>
 4    1  0.9897231E-003  0.9118800E+02  0.7818608E-02  0.1130116E+00
         25   -1    0    0    0    0  0.00000000000E+00  0.00000000000E+00  0.99999998245E-14  0.12500000000E+03  0.12500000000E+03 0.  0.
        -13    1    1    0    0    0  0.16561292977E+01  0.50227677846E+01  0.12665830996E+02  0.13726084632E+02  0.10566000000E+00 0. -1.
         13    1    1    0    0    0  0.61271332226E+01  0.18374044902E+02  0.44763881706E+02  0.48774620008E+02  0.10566000000E+00 0.  1.
         22    1    1    0    0    0 -0.77832625203E+01 -0.23396812687E+02 -0.57429712702E+02  0.62499295359E+02  0.00000000000E+00 0.  1.
</event>
<event>
 4    1  0.9897231E-003  0.9118800E+02  0.7818608E-02  0.1130116E+00
         25   -1    0    0    0    0  0.00000000000E+00  0.00000000000E+00  0.99999998245E-14  0.12500000000E+03  0.12500000000E+03 0.  0.
        -13    1    1    0    0    0 -0.63775056503E+01 -0.69289770160E+01 -0.26291434424E+01  0.97778760518E+01  0.10566000000E+00 0. -1.
         13    1    1    0    0    0  0.24444106818E+02 -0.49287809499E+02 -0.67655266683E+01  0.55430912300E+02  0.10566000000E+00 0.  1.
         22    1    1    0    0    0 -0.18066601167E+02  0.56216786515E+02  0.93946701107E+01  0.59791211648E+02  0.00000000000E+00 0.  1.
</event>
<event>
 4    1  0.9897231E-003  0.9118800E+02  0.7818608E-02  0.1130116E+00
         25   -1    0    0    0    0  0.00000000000E+00  0.00000000000E+00  0.99999998245E-14  0.12500000000E+03  0.12500000000E+03 0.  0.
        -13    1    1    0    0    0 -0.17651650929E+02 -0.40933486176E+02 -0.80258834841E+01  0.45294117066E+02  0.10566000000E+00 0.  1.
         13    1    1    0    0    0 -0.60319973596E+01 -0.15448285455E+02 -0.47086627429E+01  0.17239987950E+02  0.10566000000E+00 0. -1.
         22    1    1    0    0    0  0.23683648289E+02  0.56381771631E+02  0.12734546227E+02  0.62465894984E+02  0.00000000000E+00 0.  1.
</event>
<event>
 4    1  0.9897231E-003  0.9118800E+02  0.7818608E-02  0.1130116E+00
         25   -1    0    0    0    0  0.00000000000E+00  0.00000000000E+00  0.99999998245E-14  0.12500000000E+03  0.12500000000E+03 0.  0.
        -13    1    1    0    0    0 -0.37333892774E+02 -0.14015079017E+02  0.35123868484E+01  0.40032362095E+02  0.10566000000E+00 0. -1.
         13    1    1    0    0    0 -0.21128066638E+02 -0.77518865684E+01 -0.14058428519E+01  0.22549379224E+02  0.10566000000E+00 0.  1.
         22    1    1    0    0    0  0.58461959412E+02  0.21766965585E+02 -0.21065439965E+01  0.62418258681E+02  0.00000000000E+00 0.  1.
</event>
<event>
 4    1  0.9897231E-003  0.9118800E+02  0.7818608E-02  0.1130116E+00
         25   -1    0    0    0    0  0.00000000000E+00  0.00000000000E+00  0.99999998245E-14  0.12500000000E+03  0.12500000000E+03 0.  0.
        -13    1    1    0    0    0 -0.10853422001E+02 -0.30929885486E+01  0.26172261201E+02  0.28501960770E+02  0.10566000000E+00 0. -1.
         13    1    1    0    0    0 -0.13060808837E+02 -0.34090097638E+01  0.31203888276E+02  0.33998527653E+02  0.10566000000E+00 0. -1.
         22    1    1    0    0    0  0.23914230838E+02  0.65019983124E+01 -0.57376149477E+02  0.62499511577E+02  0.00000000000E+00 0. -1.
</event>
<event>
 4    1  0.9897231E-003  0.9118800E+02  0.7818608E-02  0.1130116E+00
         25   -1    0    0    0    0  0.00000000000E+00  0.00000000000E+00  0.99999998245E-14  0.12500000000E+03  0.12500000000E+03 0.  0.
        -13    1    1    0    0    0  0.18266325710E+01 -0.20308976902E+01 -0.15864242361E+02  0.16098027261E+02  0.10566000000E+00 0. -1.
         13    1    1    0    0    0  0.42555780409E+01 -0.83034976557E+01 -0.45464366295E+02  0.46412043528E+02  0.10566000000E+00 0.  1.
         22    1    1    0    0    0 -0.60822106119E+01  0.10334395346E+02  0.61328608656E+02  0.62489929211E+02  0.00000000000E+00 0.  1.
</event>
<event>
 4    1  0.9897231E-003  0.9118800E+02  0.7818608E-02  0.1130116E+00
         25   -1    0    0    0    0  0.00000000000E+00  0.00000000000E+00  0.99999998245E-14  0.12500000000E+03  0.12500000000E+03 0.  0.
        -13    1    1    0    0    0 -0.99073737506E+01  0.92988650541E+01 -0.21334643351E+02  0.25294329738E+02  0.10566000000E+00 0.  1.
         13    1    1    0    0    0  0.92813065300E+01  0.37491022873E+02  0.33751453429E+02  0.51292214025E+02  0.10566000000E+00 0. -1.
         22    1    1    0    0    0  0.62606722062E+00 -0.46789887927E+02 -0.12416810078E+02  0.48413456238E+02  0.00000000000E+00 0. -1.
</event>
<event>
 4    1  0.9897231E-003  0.9118800E+02  0.7818608E-02  0.1130116E+00
         25   -1    0    0    0    0  0.00000000000E+00  0.00000000000E+00  0.99999998245E-14  0.12500000000E+03  0.12500000000E+03 0.  0.
        -13    1    1    0    0    0 -0.37701851621E+02  0.62479724351E+01 -0.42191662399E+01  0.38448397925E+02  0.10566000000E+00 0.  1.
         13    1    1    0    0    0 -0.24070209411E+02 -0.33566190911E+01  0.44721265252E+01  0.24711393172E+02  0.10566000000E+00 0. -1.
         22    1    1    0    0    0  0.61772061032E+02 -0.28913533440E+01 -0.25296028534E+00  0.61840208903E+02  0.00000000000E+00 0. -1.
</event>
<event>
 4    1  0.9897231E-003  0.9118800E+02  0.7818608E-02  0.1130116E+00
         25   -1    0    0    0    0  0.00000000000E+00  0.00000000000E+00  0.99999998245E-14  0.12500000000E+03  0.12500000000E+03 0.  0.
        -13    1    1    0    0    0 -0.64660002506E-01 -0.15698242166E+01  0.39130319484E+00  0.16225939766E+01  0.10566000000E+00 0.  1.
         13    1    1    0    0    0  0.45399616416E+01 -0.60523598890E+02  0.49437263164E+01  0.60894735964E+02  0.10566000000E+00 0. -1.
         22    1    1    0    0    0 -0.44753016391E+01  0.62093423106E+02 -0.53350295113E+01  0.62482670059E+02  0.00000000000E+00 0. -1.
</event>
<event>
 4    1  0.9897231E-003  0.9118800E+02  0.7818608E-02  0.1130116E+00
         25   -1    0    0    0    0  0.00000000000E+00  0.00000000000E+00  0.99999998245E-14  0.12500000000E+03  0.12500000000E+03 0.  0.
        -13    1    1    0    0    0  0.63402077905E+01  0.64846655460E+01  0.65251130781E+01  0.11173065237E+02  0.10566000000E+00 0.  1.
         13    1    1    0    0    0  0.29368067846E+02  0.30532645722E+02  0.28980880406E+02  0.51328631941E+02  0.10566000000E+00 0. -1.
         22    1    1    0    0    0 -0.35708275637E+02 -0.37017311268E+02 -0.35505993484E+02  0.62498302822E+02  0.00000000000E+00 0. -1.
</event>
<event>
 4    1  0.9897231E-003  0.9118800E+02  0.7818608E-02  0.1130116E+00
         25   -1    0    0    0    0  0.00000000000E+00  0.00000000000E+00  0.99999998245E-14  0.12500000000E+03  0.12500000000E+03 0.  0.
        -13    1    1    0    0    0  0.25076451241E+02 -0.42563865392E+02 -0.31206619037E+02  0.58432655935E+02  0.10566000000E+00 0.  1.
         13    1    1    0    0    0  0.19829301532E+01 -0.27786851660E+01 -0.22199699857E+01  0.40733934278E+01  0.10566000000E+00 0. -1.
         22    1    1    0    0    0 -0.27059381394E+02  0.45342550558E+02  0.33426589023E+02  0.62493950637E+02  0.00000000000E+00 0.  1.
</event>
<event>
 4    1  0.9897231E-003  0.9118800E+02  0.7818608E-02  0.1130116E+00
         25   -1    0    0    0    0  0.00000000000E+00  0.00000000000E+00  0.99999998245E-14  0.12500000000E+03  0.12500000000E+03 0.  0.
        -13    1    1    0    0    0 -0.35927014162E+02  0.29358472127E+02 -0.22201819599E+02  0.51435417659E+02  0.10566000000E+00 0. -1.
         13    1    1    0    0    0 -0.76333355436E+01  0.64563612889E+01 -0.47413683044E+01  0.11065448479E+02  0.10566000000E+00 0. -1.
         22    1    1    0    0    0  0.43560349705E+02 -0.35814833416E+02  0.26943187903E+02  0.62499133862E+02  0.00000000000E+00 0. -1.
</event>
<event>
 4    1  0.9897231E-003  0.9118800E+02  0.7818608E-02  0.1130116E+00
         25   -1    0    0    0    0  0.00000000000E+00  0.00000000000E+00  0.99999998245E-14  0.12500000000E+03  0.12500000000E+03 0.  0.
        -13    1    1    0    0    0  0.54126500341E+01  0.20984836899E+02  0.85116460330E+01  0.23283458555E+02  0.10566000000E+00 0. -1.
         13    1    1    0    0    0  0.85347825452E+01  0.35179341628E+02  0.15089272278E+02  0.39218948129E+02  0.10566000000E+00 0.  1.
         22    1    1    0    0    0 -0.13947432579E+02 -0.56164178526E+02 -0.23600918311E+02  0.62497593316E+02  0.00000000000E+00 0.  1.
</event>
<event>
 4    1  0.9897231E-003  0.9118800E+02  0.7818608E-02  0.1130116E+00
         25   -1    0    0    0    0  0.00000000000E+00  0.00000000000E+00  0.99999998245E-14  0.12500000000E+03  0.12500000000E+03 0.  0.
        -13    1    1    0    0    0  0.19363597974E+02 -0.69536888670E+01 -0.14267196755E+02  0.25037307816E+02  0.10566000000E+00 0. -1.
         13    1    1    0    0    0  0.28609537359E+02 -0.10756312639E+02 -0.21663875216E+02  0.37463829795E+02  0.10566000000E+00 0.  1.
         22    1    1    0    0    0 -0.47973135333E+02  0.17710001506E+02  0.35931071971E+02  0.62498862390E+02  0.00000000000E+00 0. -1.
</event>
<event>
 4    1  0.9897231E-003  0.9118800E+02  0.7818608E-02  0.1130116E+00
         25   -1    0    0    0    0  0.00000000000E+00  0.00000000000E+00  0.99999998245E-14  0.12500000000E+03  0.12500000000E+03 0.  0.
        -13    1    1    0    0    0  0.45403192915E+01 -0.10006255299E+02 -0.11412501683E+02  0.15842853375E+02  0.10566000000E+00 0. -1.
         13    1    1    0    0    0  0.30037688073E+02 -0.34076316401E+02 -0.14145497331E+02  0.47576930365E+02  0.10566000000E+00 0.  1.
         22    1    1    0    0    0 -0.34578007365E+02  0.44082571700E+02  0.25557999014E+02  0.61580216259E+02  0.00000000000E+00 0.  1.
</event>
<event>
 4    1  0.9897231E-003  0.9118800E+02  0.7818608E-02  0.1130116E+00
         25   -1    0    0    0    0  0.00000000000E+00  0.00000000000E+00  0.99999998245E-14  0.12500000000E+03  0.12500000000E+03 0.  0.
        -13    1    1    0    0    0  0.24437826849E+02 -0.22554301340E+02  0.31221034321E+02  0.45614340269E+02  0.10566000000E+00 0. -1.
         13    1    1    0    0    0  0.16795929035E+00 -0.52070836497E+01  0.17437321515E+02  0.18199265813E+02  0.10566000000E+00 0.  1.
         22    1    1    0    0    0 -0.24605786139E+02  0.27761384990E+02 -0.48658355836E+02  0.61186393919E+02  0.00000000000E+00 0. -1.
</event>
<event>
 4    1  0.9897231E-003  0.9118800E+02  0.7818608E-02  0.1130116E+00
         25   -1    0    0    0    0  0.00000000000E+00  0.00000000000E+00  0.99999998245E-14  0.12500000000E+03  0.12500000000E+03 0.  0.
        -13    1    1    0    0    0 -0.12763157946E+02 -0.33093305285E+01 -0.21208282086E+02  0.24973030701E+02  0.10566000000E+00 0.  1.
         13    1    1    0    0    0 -0.19835694375E+02 -0.84113331495E+01 -0.30769495778E+02  0.37562991509E+02  0.10566000000E+00 0. -1.
         22    1    1    0    0    0  0.32598852321E+02  0.11720663678E+02  0.51977777864E+02  0.62463977790E+02  0.00000000000E+00 0.  1.
</event>
<event>
 4    1  0.9897231E-003  0.9118800E+02  0.7818608E-02  0.1130116E+00
         25   -1    0    0    0    0  0.00000000000E+00  0.00000000000E+00  0.99999998245E-14  0.12500000000E+03  0.12500000000E+03 0.  0.
        -13    1    1    0    0    0 -0.14939443082E+02  0.21320140690E+02 -0.15291765894E+02  0.30192459768E+02  0.10566000000E+00 0.  1.
         13    1    1    0    0    0 -0.14929177058E+02  0.25012792787E+02 -0.14070058639E+02  0.32349618928E+02  0.10566000000E+00 0. -1.
         22    1    1    0    0    0  0.29868620141E+02 -0.46332933477E+02  0.29361824533E+02  0.62457921304E+02  0.00000000000E+00 0. -1.
</event>
<event>
 4    1  0.9897231E-003  0.9118800E+02  0.7818608E-02  0.1130116E+00
         25   -1    0    0    0    0  0.00000000000E+00  0.00000000000E+00  0.99999998245E-14  0.12500000000E+03  0.12500000000E+03 0.  0.
        -13    1    1    0    0    0  0.15997012757E+01 -0.32176194660E+01 -0.31878062135E+02  0.32080120460E+02  0.10566000000E+00 0. -1.
         13    1    1    0    0    0  0.75356619661E+01 -0.21038619288E+02 -0.23098426469E+02  0.32139666647E+02  0.10566000000E+00 0.  1.
         22    1    1    0    0    0 -0.91353632418E+01  0.24256238754E+02  0.54976488604E+02  0.60780212893E+02  0.00000000000E+00 0. -1.
</event>
<event>
 4    1  0.9897231E-003  0.9118800E+02  0.7818608E-02  0.1130116E+00
         25   -1    0    0    0    0  0.00000000000E+00  0.00000000000E+00  0.99999998245E-14  0.12500000000E+03  0.12500000000E+03 0.  0.
        -13    1    1    0    0    0 -0.89916536034E+01 -0.16567739773E+01 -0.52211453651E+00  0.91585207408E+01  0.10566000000E+00 0.  1.
         13    1    1    0    0    0 -0.51897024205E+02 -0.11982190636E+02 -0.29802136280E+01  0.53345729455E+02  0.10566000000E+00 0. -1.
         22    1    1    0    0    0  0.60888677809E+02  0.13638964613E+02  0.35023281645E+01  0.62495749804E+02  0.00000000000E+00 0. -1.
</event>
<event>
 4    1  0.9897231E-003  0.9118800E+02  0.7818608E-02  0.1130116E+00
         25   -1    0    0    0    0  0.00000000000E+00  0.00000000000E+00  0.99999998245E-14  0.12500000000E+03  0.12500000000E+03 0.  0.
        -13    1    1    0    0    0  0.29849445024E+02  0.41864369302E+02 -0.17276966522E+02  0.54241308258E+02  0.10566000000E+00 0.  1.
         13    1    1    0    0    0  0.38878227791E+01  0.73832343336E+01 -0.80815131151E+00  0.83840078581E+01  0.10566000000E+00 0. -1.
         22    1    1    0    0    0 -0.33737267803E+02 -0.49247603635E+02  0.18085117834E+02  0.62374683884E+02  0.00000000000E+00 0.  1.
</event>
<event>
 4    1  0.9897231E-003  0.9118800E+02  0.7818608E-02  0.1130116E+00
         25   -1    0    0    0    0  0.00000000000E+00  0.00000000000E+00  0.99999998245E-14  0.12500000000E+03  0.12500000000E+03 0.  0.
        -13    1    1    0    0    0 -0.34765880448E+02 -0.36571942540E+01  0.13158750852E+02  0.37352448396E+02  0.10566000000E+00 0.  1.
         13    1    1    0    0    0 -0.23117831144E+02  0.25839392868E+01  0.99651291168E+01  0.25306635916E+02  0.10566000000E+00 0. -1.
         22    1    1    0    0    0  0.57883711593E+02  0.10732549672E+01 -0.23123879969E+02  0.62340915688E+02  0.00000000000E+00 0.  1.
</event>
<event>
 4    1  0.9897231E-003  0.9118800E+02  0.7818608E-02  0.1130116E+00
         25   -1    0    0    0    0  0.00000000000E+00  0.00000000000E+00  0.99999998245E-14  0.12500000000E+03  0.12500000000E+03 0.  0.
        -13    1    1    0    0    0 -0.50462182793E+01  0.33084083580E+01  0.44014096605E+02  0.44425913033E+02  0.10566000000E+00 0. -1.
         13    1    1    0    0    0 -0.15522769652E+01  0.12219435085E+01  0.17968375975E+02  0.18076957956E+02  0.10566000000E+00 0.  1.
         22    1    1    0    0    0  0.65984952445E+01 -0.45303518665E+01 -0.61982472580E+02  0.62497129012E+02  0.00000000000E+00 0. -1.
</event>
<event>
 4    1  0.9897231E-003  0.9118800E+02  0.7818608E-02  0.1130116E+00
         25   -1    0    0    0    0  0.00000000000E+00  0.00000000000E+00  0.99999998245E-14  0.12500000000E+03  0.12500000000E+03 0.  0.
        -13    1    1    0    0    0  0.21254809011E+02 -0.12781269402E+02 -0.28718103037E+02  0.37945597369E+02  0.10566000000E+00 0.  1.
         13    1    1    0    0    0  0.14669555430E+02 -0.95679385116E+01 -0.17247690865E+02  0.24581198264E+02  0.10566000000E+00 0. -1.
         22    1    1    0    0    0 -0.35924364441E+02  0.22349207914E+02  0.45965793902E+02  0.62473204367E+02  0.00000000000E+00 0.  1.
</event>
<event>
 4    1  0.9897231E-003  0.9118800E+02  0.7818608E-02  0.1130116E+00
         25   -1    0    0    0    0  0.00000000000E+00  0.00000000000E+00  0.99999998245E-14  0.12500000000E+03  0.12500000000E+03 0.  0.
        -13    1    1    0    0    0 -0.11862849651E+01 -0.19699597198E+02 -0.39238584873E+02  0.43922193805E+02  0.10566000000E+00 0.  1.
         13    1    1    0    0    0 -0.20950432332E+02 -0.17629199449E+02  0.17934968796E+02  0.32731995935E+02  0.10566000000E+00 0. -1.
         22    1    1    0    0    0  0.22136717297E+02  0.37328796647E+02  0.21303616077E+02  0.48345810260E+02  0.00000000000E+00 0.  1.
</event>
<event>
 4    1  0.9897231E-003  0.9118800E+02  0.7818608E-02  0.1130116E+00
         25   -1    0    0    0    0  0.00000000000E+00  0.00000000000E+00  0.99999998245E-14  0.12500000000E+03  0.12500000000E+03 0.  0.
        -13    1    1    0    0    0  0.51200945591E+02 -0.26773105764E+02 -0.16645142669E+02  0.60128262574E+02  0.10566000000E+00 0. -1.
         13    1    1    0    0    0  0.19465796215E+01 -0.10158233338E+01 -0.91309677546E+00  0.23803317049E+01  0.10566000000E+00 0.  1.
         22    1    1    0    0    0 -0.53147525213E+02  0.27788929097E+02  0.17558239445E+02  0.62491405721E+02  0.00000000000E+00 0. -1.
</event>
<event>
 4    1  0.9897231E-003  0.9118800E+02  0.7818608E-02  0.1130116E+00
         25   -1    0    0    0    0  0.00000000000E+00  0.00000000000E+00  0.99999998245E-14  0.12500000000E+03  0.12500000000E+03 0.  0.
        -13    1    1    0    0    0 -0.12882487278E+02  0.31635122993E+00 -0.99150651544E+01  0.16259712101E+02  0.10566000000E+00 0.  1.
         13    1    1    0    0    0 -0.36705696128E+02  0.12903427241E+02 -0.25380761873E+02  0.46454287209E+02  0.10566000000E+00 0. -1.
         22    1    1    0    0    0  0.49588183406E+02 -0.13219778471E+02  0.35295827028E+02  0.62286000689E+02  0.00000000000E+00 0. -1.
</event>
<event>
 4    1  0.9897231E-003  0.9118800E+02  0.7818608E-02  0.1130116E+00
         25   -1    0    0    0    0  0.00000000000E+00  0.00000000000E+00  0.99999998245E-14  0.12500000000E+03  0.12500000000E+03 0.  0.
        -13    1    1    0    0    0 -0.46000285361E+02 -0.21626758530E+02 -0.11022852813E+01  0.50842591739E+02  0.10566000000E+00 0.  1.
         13    1    1    0    0    0 -0.10445805645E+02 -0.51577782717E+01 -0.45934585719E+00  0.11659317944E+02  0.10566000000E+00 0.  1.
         22    1    1    0    0    0  0.56446091006E+02  0.26784536802E+02  0.15616311385E+01  0.62498090317E+02  0.00000000000E+00 0.  1.
</event>
<event>
 4    1  0.9897231E-003  0.9118800E+02  0.7818608E-02  0.1130116E+00
         25   -1    0    0    0    0  0.00000000000E+00  0.00000000000E+00  0.99999998245E-14  0.12500000000E+03  0.12500000000E+03 0.  0.
        -13    1    1    0    0    0 -0.20784835905E+01 -0.17238959071E+02 -0.30640509849E+01  0.17632395650E+02  0.10566000000E+00 0. -1.
         13    1    1    0    0    0  0.14655551201E+02 -0.41070505499E+02 -0.13160974212E+02  0.45549906797E+02  0.10566000000E+00 0.  1.
         22    1    1    0    0    0 -0.12577067611E+02  0.58309464570E+02  0.16225025197E+02  0.61817697553E+02  0.00000000000E+00 0.  1.
</event>
<event>
 4    1  0.9897231E-003  0.9118800E+02  0.7818608E-02  0.1130116E+00
         25   -1    0    0    0    0  0.00000000000E+00  0.00000000000E+00  0.99999998245E-14  0.12500000000E+03  0.12500000000E+03 0.  0.
        -13    1    1    0    0    0  0.62283853556E+01 -0.10412572356E+01  0.30740934052E+01  0.70241166753E+01  0.10566000000E+00 0.  1.
         13    1    1    0    0    0  0.49355117690E+02 -0.84453307485E+01  0.23882503636E+02  0.55476449036E+02  0.10566000000E+00 0.  1.
         22    1    1    0    0    0 -0.55583503045E+02  0.94865879842E+01 -0.26956597042E+02  0.62499434289E+02  0.00000000000E+00 0.  1.
</event>
<event>
 4    1  0.9897231E-003  0.9118800E+02  0.7818608E-02  0.1130116E+00
         25   -1    0    0    0    0  0.00000000000E+00  0.00000000000E+00  0.99999998245E-14  0.12500000000E+03  0.12500000000E+03 0.  0.
        -13    1    1    0    0    0  0.19748351914E+01 -0.16999926915E+02 -0.21137473187E+02  0.27197452563E+02  0.10566000000E+00 0. -1.
         13    1    1    0    0    0  0.24871149597E+01 -0.21996621257E+02 -0.27499774776E+02  0.35302774174E+02  0.10566000000E+00 0. -1.
         22    1    1    0    0    0 -0.44619501511E+01  0.38996548173E+02  0.48637247963E+02  0.62499773263E+02  0.00000000000E+00 0. -1.
</event>
<event>
 4    1  0.9897231E-003  0.9118800E+02  0.7818608E-02  0.1130116E+00
         25   -1    0    0    0    0  0.00000000000E+00  0.00000000000E+00  0.99999998245E-14  0.12500000000E+03  0.12500000000E+03 0.  0.
        -13    1    1    0    0    0  0.15188252424E+02 -0.32354037634E+02 -0.44837899830E+02  0.57340345204E+02  0.10566000000E+00 0. -1.
         13    1    1    0    0    0  0.14677820150E+01 -0.28508616425E+01 -0.40424689740E+01  0.51608638414E+01  0.10566000000E+00 0. -1.
         22    1    1    0    0    0 -0.16656034439E+02  0.35204899276E+02  0.48880368804E+02  0.62498790954E+02  0.00000000000E+00 0. -1.
</event>
<event>
 4    1  0.9897231E-003  0.9118800E+02  0.7818608E-02  0.1130116E+00
         25   -1    0    0    0    0  0.00000000000E+00  0.00000000000E+00  0.99999998245E-14  0.12500000000E+03  0.12500000000E+03 0.  0.
        -13    1    1    0    0    0 -0.20690083081E+02  0.42842202010E+02  0.21760090900E+01  0.47626463133E+02  0.10566000000E+00 0.  1.
         13    1    1    0    0    0 -0.66773230314E+01  0.13301139900E+02 -0.57868737216E+00  0.14894730901E+02  0.10566000000E+00 0. -1.
         22    1    1    0    0    0  0.27367406112E+02 -0.56143341911E+02 -0.15973217178E+01  0.62478805965E+02  0.00000000000E+00 0.  1.
</event>
<event>
 4    1  0.9897231E-003  0.9118800E+02  0.7818608E-02  0.1130116E+00
         25   -1    0    0    0    0  0.00000000000E+00  0.00000000000E+00  0.99999998245E-14  0.12500000000E+03  0.12500000000E+03 0.  0.
        -13    1    1    0    0    0  0.28009349809E+02  0.38292087498E+01  0.56679775711E+01  0.28832683714E+02  0.10566000000E+00 0. -1.
         13    1    1    0    0    0  0.25424604074E+02 -0.53878678417E+00  0.23994690940E+02  0.34963654569E+02  0.10566000000E+00 0.  1.
         22    1    1    0    0    0 -0.53433953883E+02 -0.32904219657E+01 -0.29662668511E+02  0.61203661716E+02  0.00000000000E+00 0. -1.
</event>
<event>
 4    1  0.9897231E-003  0.9118800E+02  0.7818608E-02  0.1130116E+00
         25   -1    0    0    0    0  0.00000000000E+00  0.00000000000E+00  0.99999998245E-14  0.12500000000E+03  0.12500000000E+03 0.  0.
        -13    1    1    0    0    0  0.67768076544E+01  0.47013215768E+01  0.29190356377E+02  0.30333407590E+02  0.10566000000E+00 0.  1.
         13    1    1    0    0    0  0.72202413230E+01  0.42086878537E+01  0.31064363730E+02  0.32169096913E+02  0.10566000000E+00 0. -1.
         22    1    1    0    0    0 -0.13997048977E+02 -0.89100094305E+01 -0.60254720108E+02  0.62497495497E+02  0.00000000000E+00 0. -1.
</event>
<event>
 4    1  0.9897231E-003  0.9118800E+02  0.7818608E-02  0.1130116E+00
         25   -1    0    0    0    0  0.00000000000E+00  0.00000000000E+00  0.99999998245E-14  0.12500000000E+03  0.12500000000E+03 0.  0.
        -13    1    1    0    0    0  0.30391137940E+02  0.22062819378E+01  0.44508205182E+01  0.30794640972E+02  0.10566000000E+00 0. -1.
         13    1    1    0    0    0 -0.36449723308E+02  0.70357108470E+01  0.36337119289E+02  0.51946905188E+02  0.10566000000E+00 0.  1.
         22    1    1    0    0    0  0.60585853680E+01 -0.92419927847E+01 -0.40787939807E+02  0.42258453840E+02  0.00000000000E+00 0.  1.
</event>
<event>
 4    1  0.9897231E-003  0.9118800E+02  0.7818608E-02  0.1130116E+00
         25   -1    0    0    0    0  0.00000000000E+00  0.00000000000E+00  0.99999998245E-14  0.12500000000E+03  0.12500000000E+03 0.  0.
        -13    1    1    0    0    0 -0.39533795021E+00 -0.43769726557E+01 -0.58886320527E+02  0.59050182819E+02  0.10566000000E+00 0.  1.
         13    1    1    0    0    0 -0.38725439626E+00 -0.42178641365E+00 -0.34123642088E+01  0.34616850341E+01  0.10566000000E+00 0. -1.
         22    1    1    0    0    0  0.78259234646E+00  0.47987590694E+01  0.62298684736E+02  0.62488132147E+02  0.00000000000E+00 0.  1.
</event>
<event>
 4    1  0.9897231E-003  0.9118800E+02  0.7818608E-02  0.1130116E+00
         25   -1    0    0    0    0  0.00000000000E+00  0.00000000000E+00  0.99999998245E-14  0.12500000000E+03  0.12500000000E+03 0.  0.
        -13    1    1    0    0    0 -0.29559543910E+01  0.29383501196E+00 -0.30939676458E+01  0.42904318203E+01  0.10566000000E+00 0. -1.
         13    1    1    0    0    0 -0.48827504680E+02 -0.27926483579E+02 -0.16849349694E+02  0.58719038203E+02  0.10566000000E+00 0.  1.
         22    1    1    0    0    0  0.51783459071E+02  0.27632648567E+02  0.19943317340E+02  0.61990529976E+02  0.00000000000E+00 0.  1.
</event>
<event>
 4    1  0.9897231E-003  0.9118800E+02  0.7818608E-02  0.1130116E+00
         25   -1    0    0    0    0  0.00000000000E+00  0.00000000000E+00  0.99999998245E-14  0.12500000000E+03  0.12500000000E+03 0.  0.
        -13    1    1    0    0    0 -0.15229302231E+02 -0.59159144148E+01  0.43444705709E+02  0.46415334836E+02  0.10566000000E+00 0. -1.
         13    1    1    0    0    0 -0.56532244137E+01 -0.21548316879E+01  0.14905548220E+02  0.16086913242E+02  0.10566000000E+00 0. -1.
         22    1    1    0    0    0  0.20882526645E+02  0.80707461026E+01 -0.58350253929E+02  0.62497751922E+02  0.00000000000E+00 0. -1.
</event>
<event>
 4    1  0.9897231E-003  0.9118800E+02  0.7818608E-02  0.1130116E+00
         25   -1    0    0    0    0  0.00000000000E+00  0.00000000000E+00  0.99999998245E-14  0.12500000000E+03  0.12500000000E+03 0.  0.
        -13    1    1    0    0    0  0.11502962451E+02 -0.11954668132E+02 -0.26001216070E+02  0.30843259174E+02  0.10566000000E+00 0. -1.
         13    1    1    0    0    0  0.35751409668E+02  0.18300735940E+02  0.67473890092E+00  0.40168976409E+02  0.10566000000E+00 0.  1.
         22    1    1    0    0    0 -0.47254372119E+02 -0.63460678074E+01  0.25326477169E+02  0.53987764417E+02  0.00000000000E+00 0.  1.
</event>
<event>
 4    1  0.9897231E-003  0.9118800E+02  0.7818608E-02  0.1130116E+00
         25   -1    0    0    0    0  0.00000000000E+00  0.00000000000E+00  0.99999998245E-14  0.12500000000E+03  0.12500000000E+03 0.  0.
        -13    1    1    0    0    0  0.18174021980E+00  0.54595991569E+00  0.15868669124E+01  0.16912753680E+01  0.10566000000E+00 0. -1.
         13    1    1    0    0    0  0.90611384209E+01  0.19688768932E+02  0.56817527717E+02  0.60811137725E+02  0.10566000000E+00 0. -1.
         22    1    1    0    0    0 -0.92428786407E+01 -0.20234728847E+02 -0.58404394630E+02  0.62497586907E+02  0.00000000000E+00 0. -1.
</event>
<event>
 4    1  0.9897231E-003  0.9118800E+02  0.7818608E-02  0.1130116E+00
         25   -1    0    0    0    0  0.00000000000E+00  0.00000000000E+00  0.99999998245E-14  0.12500000000E+03  0.12500000000E+03 0.  0.
        -13    1    1    0    0    0 -0.20429101379E+02  0.47704240943E+01 -0.13351264269E+02  0.24867097756E+02  0.10566000000E+00 0.  1.
         13    1    1    0    0    0 -0.10441789070E+02  0.11692864567E+01 -0.38273389078E+02  0.39689566203E+02  0.10566000000E+00 0. -1.
         22    1    1    0    0    0  0.30870890449E+02 -0.59397105510E+01  0.51624653347E+02  0.60443336041E+02  0.00000000000E+00 0. -1.
</event>
<event>
 4    1  0.9897231E-003  0.9118800E+02  0.7818608E-02  0.1130116E+00
         25   -1    0    0    0    0  0.00000000000E+00  0.00000000000E+00  0.99999998245E-14  0.12500000000E+03  0.12500000000E+03 0.  0.
        -13    1    1    0    0    0  0.24576624091E+02  0.56431936930E+01  0.22615396219E+01  0.25317618613E+02  0.10566000000E+00 0.  1.
         13    1    1    0    0    0  0.30348860974E+02  0.21366800692E+02  0.70232604886E+01  0.37774738730E+02  0.10566000000E+00 0. -1.
         22    1    1    0    0    0 -0.54925485064E+02 -0.27009994385E+02 -0.92848001105E+01  0.61907642657E+02  0.00000000000E+00 0.  1.
</event>
<event>
 4    1  0.9897231E-003  0.9118800E+02  0.7818608E-02  0.1130116E+00
         25   -1    0    0    0    0  0.00000000000E+00  0.00000000000E+00  0.99999998245E-14  0.12500000000E+03  0.12500000000E+03 0.  0.
        -13    1    1    0    0    0  0.10126350495E+02 -0.44467465701E+01 -0.67341589253E+00  0.11080667056E+02  0.10566000000E+00 0.  1.
         13    1    1    0    0    0  0.45808579357E+02 -0.22740655694E+02  0.60296132114E+01  0.51496900524E+02  0.10566000000E+00 0. -1.
         22    1    1    0    0    0 -0.55934929852E+02  0.27187402265E+02 -0.53561973188E+01  0.62422432419E+02  0.00000000000E+00 0. -1.
</event>
<event>
 4    1  0.9897231E-003  0.9118800E+02  0.7818608E-02  0.1130116E+00
         25   -1    0    0    0    0  0.00000000000E+00  0.00000000000E+00  0.99999998245E-14  0.12500000000E+03  0.12500000000E+03 0.  0.
        -13    1    1    0    0    0 -0.58963144529E+02 -0.57208720414E+01  0.10090511353E+02  0.60093347161E+02  0.10566000000E+00 0. -1.
         13    1    1    0    0    0 -0.24064319245E+01  0.81704364577E+00 -0.19187437882E+00  0.25507753212E+01  0.10566000000E+00 0.  1.
         22    1    1    0    0    0  0.61369576453E+02  0.49038283957E+01 -0.98986369744E+01  0.62355877517E+02  0.00000000000E+00 0. -1.
</event>
<event>
 4    1  0.9897231E-003  0.9118800E+02  0.7818608E-02  0.1130116E+00
         25   -1    0    0    0    0  0.00000000000E+00  0.00000000000E+00  0.99999998245E-14  0.12500000000E+03  0.12500000000E+03 0.  0.
        -13    1    1    0    0    0  0.31891323017E+02  0.25015853308E+02  0.46875053713E+02  0.61968792349E+02  0.10566000000E+00 0.  1.
         13    1    1    0    0    0  0.86086059610E+00  0.96149661040E-03 -0.55139089686E+00  0.10277537872E+01  0.10566000000E+00 0. -1.
         22    1    1    0    0    0 -0.32752183613E+02 -0.25016814804E+02 -0.46323662816E+02  0.62003453864E+02  0.00000000000E+00 0.  1.
</event>
<event>
 4    1  0.9897231E-003  0.9118800E+02  0.7818608E-02  0.1130116E+00
         25   -1    0    0    0    0  0.00000000000E+00  0.00000000000E+00  0.99999998245E-14  0.12500000000E+03  0.12500000000E+03 0.  0.
        -13    1    1    0    0    0 -0.47130216127E+02  0.10553041573E+02  0.28535617023E+02  0.56097384622E+02  0.10566000000E+00 0.  1.
         13    1    1    0    0    0 -0.48869338873E+01  0.12831697201E+01  0.39753586765E+01  0.64298746482E+01  0.10566000000E+00 0. -1.
         22    1    1    0    0    0  0.52017150014E+02 -0.11836211293E+02 -0.32510975699E+02  0.62472740729E+02  0.00000000000E+00 0.  1.
</event>
<event>
 4    1  0.9897231E-003  0.9118800E+02  0.7818608E-02  0.1130116E+00
         25   -1    0    0    0    0  0.00000000000E+00  0.00000000000E+00  0.99999998245E-14  0.12500000000E+03  0.12500000000E+03 0.  0.
        -13    1    1    0    0    0 -0.37921824397E+01  0.24504489324E+02  0.10708396977E+02  0.27009842179E+02  0.10566000000E+00 0.  1.
         13    1    1    0    0    0 -0.54259188597E+01  0.32853758210E+02  0.12310474662E+02  0.35501675656E+02  0.10566000000E+00 0. -1.
         22    1    1    0    0    0  0.92181012994E+01 -0.57358247533E+02 -0.23018871640E+02  0.62488482165E+02  0.00000000000E+00 0. -1.
</event>
<event>
 4    1  0.9897231E-003  0.9118800E+02  0.7818608E-02  0.1130116E+00
         25   -1    0    0    0    0  0.00000000000E+00  0.00000000000E+00  0.99999998245E-14  0.12500000000E+03  0.12500000000E+03 0.  0.
        -13    1    1    0    0    0 -0.14834717869E+02 -0.12772650966E+02  0.14116688728E+01  0.19626855071E+02  0.10566000000E+00 0. -1.
         13    1    1    0    0    0 -0.35418542666E+02 -0.24082600702E+02  0.27212784224E+01  0.42916912068E+02  0.10566000000E+00 0.  1.
         22    1    1    0    0    0  0.50253260535E+02  0.36855251668E+02 -0.41329472952E+01  0.62456232861E+02  0.00000000000E+00 0.  1.
</event>
<event>
 4    1  0.9897231E-003  0.9118800E+02  0.7818608E-02  0.1130116E+00
         25   -1    0    0    0    0  0.00000000000E+00  0.00000000000E+00  0.99999998245E-14  0.12500000000E+03  0.12500000000E+03 0.  0.
        -13    1    1    0    0    0  0.99338694754E+00  0.13880318508E+02  0.37040829179E+02  0.39568728180E+02  0.10566000000E+00 0.  1.
         13    1    1    0    0    0  0.24731218885E+02  0.21167228160E+01  0.12169413584E+02  0.27644520145E+02  0.10566000000E+00 0. -1.
         22    1    1    0    0    0 -0.25724605833E+02 -0.15997041324E+02 -0.49210242762E+02  0.57786751675E+02  0.00000000000E+00 0. -1.
</event>
<event>
 4    1  0.9897231E-003  0.9118800E+02  0.7818608E-02  0.1130116E+00
         25   -1    0    0    0    0  0.00000000000E+00  0.00000000000E+00  0.99999998245E-14  0.12500000000E+03  0.12500000000E+03 0.  0.
        -13    1    1    0    0    0  0.49276127508E+01  0.40701528576E+02 -0.46889808357E+02  0.62286122753E+02  0.10566000000E+00 0.  1.
         13    1    1    0    0    0 -0.16605174220E+00  0.21289435341E+00  0.10366551388E+01  0.10764362959E+01  0.10566000000E+00 0. -1.
         22    1    1    0    0    0 -0.47615610086E+01 -0.40914422930E+02  0.45853153218E+02  0.61637440951E+02  0.00000000000E+00 0.  1.
</event>
<event>
 4    1  0.9897231E-003  0.9118800E+02  0.7818608E-02  0.1130116E+00
         25   -1    0    0    0    0  0.00000000000E+00  0.00000000000E+00  0.99999998245E-14  0.12500000000E+03  0.12500000000E+03 0.  0.
        -13    1    1    0    0    0  0.25882151550E+00 -0.68140022163E+00  0.84639026299E+00  0.11219783206E+01  0.10566000000E+00 0.  1.
         13    1    1    0    0    0 -0.20972723945E+00 -0.32986220110E+02  0.51785280265E+02  0.61399194773E+02  0.10566000000E+00 0. -1.
         22    1    1    0    0    0 -0.49094276055E-01  0.33667620332E+02 -0.52631670528E+02  0.62478826906E+02  0.00000000000E+00 0. -1.
</event>
<event>
 4    1  0.9897231E-003  0.9118800E+02  0.7818608E-02  0.1130116E+00
         25   -1    0    0    0    0  0.00000000000E+00  0.00000000000E+00  0.99999998245E-14  0.12500000000E+03  0.12500000000E+03 0.  0.
        -13    1    1    0    0    0  0.49057200385E+02 -0.71242112007E+01  0.27569669553E+02  0.56722668645E+02  0.10566000000E+00 0. -1.
         13    1    1    0    0    0  0.55499642712E+01 -0.96038160650E+00  0.15806956880E+01  0.58509998406E+01  0.10566000000E+00 0.  1.
         22    1    1    0    0    0 -0.54607164657E+02  0.80845928072E+01 -0.29150365241E+02  0.62426331515E+02  0.00000000000E+00 0. -1.
</event>
<event>
 4    1  0.9897231E-003  0.9118800E+02  0.7818608E-02  0.1130116E+00
         25   -1    0    0    0    0  0.00000000000E+00  0.00000000000E+00  0.99999998245E-14  0.12500000000E+03  0.12500000000E+03 0.  0.
        -13    1    1    0    0    0 -0.12900086800E+02 -0.23971932190E+00 -0.32282580946E+01  0.13300470636E+02  0.10566000000E+00 0. -1.
         13    1    1    0    0    0 -0.47838134159E+02 -0.10730314726E+01 -0.11445596205E+02  0.49200114968E+02  0.10566000000E+00 0. -1.
         22    1    1    0    0    0  0.60738220958E+02  0.13127507945E+01  0.14673854299E+02  0.62499414396E+02  0.00000000000E+00 0. -1.
</event>
<event>
 4    1  0.9897231E-003  0.9118800E+02  0.7818608E-02  0.1130116E+00
         25   -1    0    0    0    0  0.00000000000E+00  0.00000000000E+00  0.99999998245E-14  0.12500000000E+03  0.12500000000E+03 0.  0.
        -13    1    1    0    0    0 -0.14721687197E+02  0.22255341165E+02 -0.31468674374E+02  0.41259143413E+02  0.10566000000E+00 0.  1.
         13    1    1    0    0    0  0.68875229415E+01  0.79226700333E+01 -0.20560123295E+02  0.23085417620E+02  0.10566000000E+00 0. -1.
         22    1    1    0    0    0  0.78341642558E+01 -0.30178011198E+02  0.52028797669E+02  0.60655438967E+02  0.00000000000E+00 0.  1.
</event>
<event>
 4    1  0.9897231E-003  0.9118800E+02  0.7818608E-02  0.1130116E+00
         25   -1    0    0    0    0  0.00000000000E+00  0.00000000000E+00  0.99999998245E-14  0.12500000000E+03  0.12500000000E+03 0.  0.
        -13    1    1    0    0    0 -0.87186820575E+00 -0.37795228119E+01 -0.12664782816E+02  0.13245861039E+02  0.10566000000E+00 0.  1.
         13    1    1    0    0    0 -0.30216025965E+01 -0.13941407412E+02 -0.47143389903E+02  0.49254474908E+02  0.10566000000E+00 0.  1.
         22    1    1    0    0    0  0.38934708023E+01  0.17720930224E+02  0.59808172718E+02  0.62499664054E+02  0.00000000000E+00 0.  1.
</event>
<event>
 4    1  0.9897231E-003  0.9118800E+02  0.7818608E-02  0.1130116E+00
         25   -1    0    0    0    0  0.00000000000E+00  0.00000000000E+00  0.99999998245E-14  0.12500000000E+03  0.12500000000E+03 0.  0.
        -13    1    1    0    0    0  0.32311806994E+01  0.59289523146E+01 -0.61334157791E+01  0.91226617506E+01  0.10566000000E+00 0. -1.
         13    1    1    0    0    0  0.31510559630E+02  0.25569810347E+02 -0.34931298646E+02  0.53543789168E+02  0.10566000000E+00 0.  1.
         22    1    1    0    0    0 -0.34741740329E+02 -0.31498762661E+02  0.41064714425E+02  0.62333549081E+02  0.00000000000E+00 0.  1.
</event>
<event>
 4    1  0.9897231E-003  0.9118800E+02  0.7818608E-02  0.1130116E+00
         25   -1    0    0    0    0  0.00000000000E+00  0.00000000000E+00  0.99999998245E-14  0.12500000000E+03  0.12500000000E+03 0.  0.
        -13    1    1    0    0    0  0.56754883421E+02  0.53664712946E+01  0.18245128369E+02  0.59856592615E+02  0.10566000000E+00 0. -1.
         13    1    1    0    0    0 -0.79155413832E+00  0.37935428609E+01 -0.59760327678E+01  0.71233178413E+01  0.10566000000E+00 0.  1.
         22    1    1    0    0    0 -0.55963329283E+02 -0.91600141555E+01 -0.12269095601E+02  0.58020089543E+02  0.00000000000E+00 0. -1.
</event>
<event>
 4    1  0.9897231E-003  0.9118800E+02  0.7818608E-02  0.1130116E+00
         25   -1    0    0    0    0  0.00000000000E+00  0.00000000000E+00  0.99999998245E-14  0.12500000000E+03  0.12500000000E+03 0.  0.
        -13    1    1    0    0    0 -0.53175300537E+02  0.20627594503E+02 -0.22465029841E+02  0.61300888835E+02  0.10566000000E+00 0.  1.
         13    1    1    0    0    0 -0.58628914348E+00  0.74611084919E+00  0.21997347526E+01  0.23980019550E+01  0.10566000000E+00 0. -1.
         22    1    1    0    0    0  0.53761589680E+02 -0.21373705352E+02  0.20265295088E+02  0.61301109210E+02  0.00000000000E+00 0.  1.
</event>
<event>
 4    1  0.9897231E-003  0.9118800E+02  0.7818608E-02  0.1130116E+00
         25   -1    0    0    0    0  0.00000000000E+00  0.00000000000E+00  0.99999998245E-14  0.12500000000E+03  0.12500000000E+03 0.  0.
        -13    1    1    0    0    0  0.22827377422E+02 -0.60815592650E+01 -0.43971708563E+02  0.49915897679E+02  0.10566000000E+00 0.  1.
         13    1    1    0    0    0  0.71376660073E+01 -0.41336968139E+01 -0.97233449394E+01  0.12751012753E+02  0.10566000000E+00 0. -1.
         22    1    1    0    0    0 -0.29965043429E+02  0.10215256079E+02  0.53695053503E+02  0.62333089568E+02  0.00000000000E+00 0.  1.
</event>
<event>
 4    1  0.9897231E-003  0.9118800E+02  0.7818608E-02  0.1130116E+00
         25   -1    0    0    0    0  0.00000000000E+00  0.00000000000E+00  0.99999998245E-14  0.12500000000E+03  0.12500000000E+03 0.  0.
        -13    1    1    0    0    0  0.11336867692E+02 -0.18488774342E+02 -0.15203604766E+02  0.26486224866E+02  0.10566000000E+00 0. -1.
         13    1    1    0    0    0 -0.19864402543E+02 -0.16957387313E+01 -0.36926996166E+02  0.41965274074E+02  0.10566000000E+00 0.  1.
         22    1    1    0    0    0  0.85275348507E+01  0.20184513073E+02  0.52130600932E+02  0.56548501060E+02  0.00000000000E+00 0.  1.
</event>
<event>
 4    1  0.9897231E-003  0.9118800E+02  0.7818608E-02  0.1130116E+00
         25   -1    0    0    0    0  0.00000000000E+00  0.00000000000E+00  0.99999998245E-14  0.12500000000E+03  0.12500000000E+03 0.  0.
        -13    1    1    0    0    0 -0.21664365389E+01 -0.30464395904E+01 -0.37440872817E+01  0.52918423128E+01  0.10566000000E+00 0. -1.
         13    1    1    0    0    0 -0.13681524397E+02 -0.55414215804E+02 -0.90767320864E+01  0.57795481245E+02  0.10566000000E+00 0.  1.
         22    1    1    0    0    0  0.15847960936E+02  0.58460655394E+02  0.12820819368E+02  0.61912676442E+02  0.00000000000E+00 0.  1.
</event>
<event>
 4    1  0.9897231E-003  0.9118800E+02  0.7818608E-02  0.1130116E+00
         25   -1    0    0    0    0  0.00000000000E+00  0.00000000000E+00  0.99999998245E-14  0.12500000000E+03  0.12500000000E+03 0.  0.
        -13    1    1    0    0    0  0.22493886013E+01  0.15584502211E+01 -0.32466564020E+01  0.42474060319E+01  0.10566000000E+00 0.  1.
         13    1    1    0    0    0  0.32238642873E+02  0.22345204106E+02 -0.43069330835E+02  0.58254756574E+02  0.10566000000E+00 0.  1.
         22    1    1    0    0    0 -0.34488031474E+02 -0.23903654327E+02  0.46315987237E+02  0.62497837394E+02  0.00000000000E+00 0.  1.
</event>
<event>
 4    1  0.9897231E-003  0.9118800E+02  0.7818608E-02  0.1130116E+00
         25   -1    0    0    0    0  0.00000000000E+00  0.00000000000E+00  0.99999998245E-14  0.12500000000E+03  0.12500000000E+03 0.  0.
        -13    1    1    0    0    0 -0.20037515166E+02  0.43709166056E+02  0.15077468882E+02  0.50391809287E+02  0.10566000000E+00 0.  1.
         13    1    1    0    0    0 -0.44247965740E+01  0.10670193739E+02  0.36393548460E+01  0.12111479137E+02  0.10566000000E+00 0. -1.
         22    1    1    0    0    0  0.24462311740E+02 -0.54379359795E+02 -0.18716823728E+02  0.62496711576E+02  0.00000000000E+00 0.  1.
</event>
<event>
 4    1  0.9897231E-003  0.9118800E+02  0.7818608E-02  0.1130116E+00
         25   -1    0    0    0    0  0.00000000000E+00  0.00000000000E+00  0.99999998245E-14  0.12500000000E+03  0.12500000000E+03 0.  0.
        -13    1    1    0    0    0 -0.25029641256E+02  0.40627603185E+01  0.23605786896E+02  0.34644383410E+02  0.10566000000E+00 0. -1.
         13    1    1    0    0    0 -0.29319639618E+02  0.98112961846E+01 -0.54221421676E+01  0.31389705158E+02  0.10566000000E+00 0.  1.
         22    1    1    0    0    0  0.54349280875E+02 -0.13874056503E+02 -0.18183644728E+02  0.58965911432E+02  0.00000000000E+00 0. -1.
</event>
<event>
 4    1  0.9897231E-003  0.9118800E+02  0.7818608E-02  0.1130116E+00
         25   -1    0    0    0    0  0.00000000000E+00  0.00000000000E+00  0.99999998245E-14  0.12500000000E+03  0.12500000000E+03 0.  0.
        -13    1    1    0    0    0  0.79512063914E+01 -0.97100177645E+01  0.37488024529E+02  0.39533141479E+02  0.10566000000E+00 0.  1.
         13    1    1    0    0    0 -0.22439439358E+01 -0.73323268309E+01  0.22013087568E+02  0.23310630396E+02  0.10566000000E+00 0. -1.
         22    1    1    0    0    0 -0.57072624556E+01  0.17042344595E+02 -0.59501112097E+02  0.62156228126E+02  0.00000000000E+00 0.  1.
</event>
<event>
 4    1  0.9897231E-003  0.9118800E+02  0.7818608E-02  0.1130116E+00
         25   -1    0    0    0    0  0.00000000000E+00  0.00000000000E+00  0.99999998245E-14  0.12500000000E+03  0.12500000000E+03 0.  0.
        -13    1    1    0    0    0  0.11580695847E+01 -0.56417212628E+00  0.17339686375E+00  0.13040881331E+01  0.10566000000E+00 0. -1.
         13    1    1    0    0    0  0.53390107866E+02 -0.28478486475E+02  0.91504258570E+01  0.61198605109E+02  0.10566000000E+00 0. -1.
         22    1    1    0    0    0 -0.54548177451E+02  0.29042658602E+02 -0.93238227208E+01  0.62497306758E+02  0.00000000000E+00 0. -1.
</event>
<event>
 4    1  0.9897231E-003  0.9118800E+02  0.7818608E-02  0.1130116E+00
         25   -1    0    0    0    0  0.00000000000E+00  0.00000000000E+00  0.99999998245E-14  0.12500000000E+03  0.12500000000E+03 0.  0.
        -13    1    1    0    0    0 -0.17683215146E+02 -0.69943525206E+01  0.48807013724E+02  0.52380843997E+02  0.10566000000E+00 0. -1.
         13    1    1    0    0    0 -0.29964609286E+01 -0.19380131862E+01  0.94803707292E+01  0.10130314230E+02  0.10566000000E+00 0.  1.
         22    1    1    0    0    0  0.20679676075E+02  0.89323657068E+01 -0.58287384453E+02  0.62488841773E+02  0.00000000000E+00 0. -1.
</event>
<event>
 4    1  0.9897231E-003  0.9118800E+02  0.7818608E-02  0.1130116E+00
         25   -1    0    0    0    0  0.00000000000E+00  0.00000000000E+00  0.99999998245E-14  0.12500000000E+03  0.12500000000E+03 0.  0.
        -13    1    1    0    0    0 -0.31297751598E+02 -0.23591718271E+02 -0.11792316976E+02  0.40929064609E+02  0.10566000000E+00 0. -1.
         13    1    1    0    0    0 -0.12022655831E+02 -0.16891261468E+02 -0.69824880789E+01  0.21877506051E+02  0.10566000000E+00 0.  1.
         22    1    1    0    0    0  0.43320407428E+02  0.40482979739E+02  0.18774805055E+02  0.62193429340E+02  0.00000000000E+00 0. -1.
</event>
<event>
 4    1  0.9897231E-003  0.9118800E+02  0.7818608E-02  0.1130116E+00
         25   -1    0    0    0    0  0.00000000000E+00  0.00000000000E+00  0.99999998245E-14  0.12500000000E+03  0.12500000000E+03 0.  0.
        -13    1    1    0    0    0 -0.31921028400E+01  0.29395891481E+01 -0.78272543292E+00  0.44107287425E+01  0.10566000000E+00 0. -1.
         13    1    1    0    0    0 -0.49225504663E+02  0.22668068285E+02 -0.21274562472E+02  0.58220355560E+02  0.10566000000E+00 0.  1.
         22    1    1    0    0    0  0.52417607503E+02 -0.25607657433E+02  0.22057287905E+02  0.62368915698E+02  0.00000000000E+00 0.  1.
</event>
<event>
 4    1  0.9897231E-003  0.9118800E+02  0.7818608E-02  0.1130116E+00
         25   -1    0    0    0    0  0.00000000000E+00  0.00000000000E+00  0.99999998245E-14  0.12500000000E+03  0.12500000000E+03 0.  0.
        -13    1    1    0    0    0  0.46076246556E+01 -0.17922172831E+02 -0.87238400536E+01  0.20458519821E+02  0.10566000000E+00 0.  1.
         13    1    1    0    0    0  0.95140278177E+01 -0.36842672405E+02 -0.17877177808E+02  0.42041692231E+02  0.10566000000E+00 0.  1.
         22    1    1    0    0    0 -0.14121652473E+02  0.54764845236E+02  0.26601017862E+02  0.62499787948E+02  0.00000000000E+00 0.  1.
</event>
<event>
 4    1  0.9897231E-003  0.9118800E+02  0.7818608E-02  0.1130116E+00
         25   -1    0    0    0    0  0.00000000000E+00  0.00000000000E+00  0.99999998245E-14  0.12500000000E+03  0.12500000000E+03 0.  0.
        -13    1    1    0    0    0  0.19963607084E+02 -0.46939349098E+02 -0.22894414530E+02  0.55910763564E+02  0.10566000000E+00 0.  1.
         13    1    1    0    0    0  0.38330768147E+01 -0.59626511009E+01  0.13931247051E+01  0.72247938723E+01  0.10566000000E+00 0. -1.
         22    1    1    0    0    0 -0.23796683899E+02  0.52902000199E+02  0.21501289824E+02  0.61864442564E+02  0.00000000000E+00 0.  1.
</event>
<event>
 4    1  0.9897231E-003  0.9118800E+02  0.7818608E-02  0.1130116E+00
         25   -1    0    0    0    0  0.00000000000E+00  0.00000000000E+00  0.99999998245E-14  0.12500000000E+03  0.12500000000E+03 0.  0.
        -13    1    1    0    0    0  0.44675479383E+02  0.38916842803E+01 -0.20928218949E+02  0.49487828575E+02  0.10566000000E+00 0.  1.
         13    1    1    0    0    0  0.12090323820E+02  0.16154224348E+01 -0.45874263687E+01  0.13032312321E+02  0.10566000000E+00 0. -1.
         22    1    1    0    0    0 -0.56765803203E+02 -0.55071067151E+01  0.25515645317E+02  0.62479859104E+02  0.00000000000E+00 0.  1.
</event>
<event>
 4    1  0.9897231E-003  0.9118800E+02  0.7818608E-02  0.1130116E+00
         25   -1    0    0    0    0  0.00000000000E+00  0.00000000000E+00  0.99999998245E-14  0.12500000000E+03  0.12500000000E+03 0.  0.
        -13    1    1    0    0    0 -0.21433035000E+02  0.38597279612E+02  0.31805566750E+02  0.54412592505E+02  0.10566000000E+00 0. -1.
         13    1    1    0    0    0 -0.10174635017E+02  0.29099019131E+01 -0.30403180469E+01  0.11011150018E+02  0.10566000000E+00 0.  1.
         22    1    1    0    0    0  0.31607670016E+02 -0.41507181525E+02 -0.28765248703E+02  0.59576257477E+02  0.00000000000E+00 0. -1.
</event>
<event>
 4    1  0.9897231E-003  0.9118800E+02  0.7818608E-02  0.1130116E+00
         25   -1    0    0    0    0  0.00000000000E+00  0.00000000000E+00  0.99999998245E-14  0.12500000000E+03  0.12500000000E+03 0.  0.
        -13    1    1    0    0    0 -0.67399122897E+01 -0.31441729520E+02 -0.48832188174E+01  0.32524848392E+02  0.10566000000E+00 0. -1.
         13    1    1    0    0    0 -0.79846244512E+01 -0.28076248607E+02 -0.70106702395E+01  0.30019837187E+02  0.10566000000E+00 0.  1.
         22    1    1    0    0    0  0.14724536741E+02  0.59517978127E+02  0.11893889057E+02  0.62455314421E+02  0.00000000000E+00 0.  1.
</event>
<event>
 4    1  0.9897231E-003  0.9118800E+02  0.7818608E-02  0.1130116E+00
         25   -1    0    0    0    0  0.00000000000E+00  0.00000000000E+00  0.99999998245E-14  0.12500000000E+03  0.12500000000E+03 0.  0.
        -13    1    1    0    0    0 -0.34351036250E+02 -0.25306382528E+02 -0.15384759337E+02  0.45355359904E+02  0.10566000000E+00 0.  1.
         13    1    1    0    0    0 -0.12225413118E+02 -0.10709311479E+02 -0.55226941128E+01  0.17165703964E+02  0.10566000000E+00 0. -1.
         22    1    1    0    0    0  0.46576449368E+02  0.36015694007E+02  0.20907453450E+02  0.62478936133E+02  0.00000000000E+00 0. -1.
</event>
<event>
 4    1  0.9897231E-003  0.9118800E+02  0.7818608E-02  0.1130116E+00
         25   -1    0    0    0    0  0.00000000000E+00  0.00000000000E+00  0.99999998245E-14  0.12500000000E+03  0.12500000000E+03 0.  0.
        -13    1    1    0    0    0  0.49579975167E+02  0.58889423499E+01  0.21312009653E+02  0.54286890674E+02  0.10566000000E+00 0. -1.
         13    1    1    0    0    0  0.67819069757E+01  0.13948243520E+01  0.45385048419E+01  0.82794315889E+01  0.10566000000E+00 0.  1.
         22    1    1    0    0    0 -0.56361882143E+02 -0.72837667020E+01 -0.25850514495E+02  0.62433677737E+02  0.00000000000E+00 0. -1.
</event>
<event>
 4    1  0.9897231E-003  0.9118800E+02  0.7818608E-02  0.1130116E+00
         25   -1    0    0    0    0  0.00000000000E+00  0.00000000000E+00  0.99999998245E-14  0.12500000000E+03  0.12500000000E+03 0.  0.
        -13    1    1    0    0    0 -0.73578827897E+01 -0.57929263192E+02 -0.16461253863E+02  0.60670602567E+02  0.10566000000E+00 0. -1.
         13    1    1    0    0    0 -0.17584033606E+00 -0.17692478789E+01 -0.42852506944E+00  0.18319267593E+01  0.10566000000E+00 0. -1.
         22    1    1    0    0    0  0.75337231258E+01  0.59698511071E+02  0.16889778932E+02  0.62497470673E+02  0.00000000000E+00 0. -1.
</event>
<event>
 4    1  0.9897231E-003  0.9118800E+02  0.7818608E-02  0.1130116E+00
         25   -1    0    0    0    0  0.00000000000E+00  0.00000000000E+00  0.99999998245E-14  0.12500000000E+03  0.12500000000E+03 0.  0.
        -13    1    1    0    0    0 -0.27444190021E+02 -0.52790494998E+01 -0.49880269647E+02  0.57176082356E+02  0.10566000000E+00 0. -1.
         13    1    1    0    0    0 -0.79396940823E+01  0.49061400221E+01  0.47438776883E+01  0.10470171517E+02  0.10566000000E+00 0.  1.
         22    1    1    0    0    0  0.35383884104E+02  0.37290947778E+00  0.45136391958E+02  0.57353746127E+02  0.00000000000E+00 0. -1.
</event>
<event>
 4    1  0.9897231E-003  0.9118800E+02  0.7818608E-02  0.1130116E+00
         25   -1    0    0    0    0  0.00000000000E+00  0.00000000000E+00  0.99999998245E-14  0.12500000000E+03  0.12500000000E+03 0.  0.
        -13    1    1    0    0    0 -0.32166658078E+01  0.82490781252E+01 -0.26693273945E+02  0.28123589152E+02  0.10566000000E+00 0. -1.
         13    1    1    0    0    0 -0.36881927358E+01  0.96461427570E+01 -0.32789483197E+02  0.34377495664E+02  0.10566000000E+00 0.  1.
         22    1    1    0    0    0  0.69048585436E+01 -0.17895220882E+02  0.59482757142E+02  0.62498915184E+02  0.00000000000E+00 0.  1.
</event>
<event>
 4    1  0.9897231E-003  0.9118800E+02  0.7818608E-02  0.1130116E+00
         25   -1    0    0    0    0  0.00000000000E+00  0.00000000000E+00  0.99999998245E-14  0.12500000000E+03  0.12500000000E+03 0.  0.
        -13    1    1    0    0    0 -0.38026146483E+02  0.16328354449E+02  0.29128403792E+02  0.50607094827E+02  0.10566000000E+00 0. -1.
         13    1    1    0    0    0 -0.88185792665E+01  0.33524408006E+01  0.72524923855E+01  0.11900252495E+02  0.10566000000E+00 0.  1.
         22    1    1    0    0    0  0.46844725749E+02 -0.19680795249E+02 -0.36380896177E+02  0.62492652679E+02  0.00000000000E+00 0. -1.
</event>
<event>
 4    1  0.9897231E-003  0.9118800E+02  0.7818608E-02  0.1130116E+00
         25   -1    0    0    0    0  0.00000000000E+00  0.00000000000E+00  0.99999998245E-14  0.12500000000E+03  0.12500000000E+03 0.  0.
        -13    1    1    0    0    0  0.16038310963E+02 -0.48787598494E+02  0.30580533345E+02  0.59771543137E+02  0.10566000000E+00 0. -1.
         13    1    1    0    0    0  0.17825432242E+01  0.82777447153E+00  0.33151965310E+01  0.38554329195E+01  0.10566000000E+00 0.  1.
         22    1    1    0    0    0 -0.17820854187E+02  0.47959824022E+02 -0.33895729876E+02  0.61373023944E+02  0.00000000000E+00 0. -1.
</event>
<event>
 4    1  0.9897231E-003  0.9118800E+02  0.7818608E-02  0.1130116E+00
         25   -1    0    0    0    0  0.00000000000E+00  0.00000000000E+00  0.99999998245E-14  0.12500000000E+03  0.12500000000E+03 0.  0.
        -13    1    1    0    0    0  0.10744096452E+02  0.19970756937E+02  0.41284493213E+02  0.47102943487E+02  0.10566000000E+00 0.  1.
         13    1    1    0    0    0  0.35561864004E+01  0.67090331159E+01  0.13394956558E+02  0.15397844404E+02  0.10566000000E+00 0. -1.
         22    1    1    0    0    0 -0.14300282853E+02 -0.26679790053E+02 -0.54679449771E+02  0.62499212109E+02  0.00000000000E+00 0.  1.
</event>
<event>
 4    1  0.9897231E-003  0.9118800E+02  0.7818608E-02  0.1130116E+00
         25   -1    0    0    0    0  0.00000000000E+00  0.00000000000E+00  0.99999998245E-14  0.12500000000E+03  0.12500000000E+03 0.  0.
        -13    1    1    0    0    0 -0.31088353176E+02  0.23416887252E+02 -0.48609610307E+02  0.62271515880E+02  0.10566000000E+00 0.  1.
         13    1    1    0    0    0  0.23586200995E+01  0.26441229375E-01  0.15896038901E+01  0.28463647825E+01  0.10566000000E+00 0. -1.
         22    1    1    0    0    0  0.28729733076E+02 -0.23443328481E+02  0.47020006417E+02  0.59882119338E+02  0.00000000000E+00 0.  1.
</event>
<event>
 4    1  0.9897231E-003  0.9118800E+02  0.7818608E-02  0.1130116E+00
         25   -1    0    0    0    0  0.00000000000E+00  0.00000000000E+00  0.99999998245E-14  0.12500000000E+03  0.12500000000E+03 0.  0.
        -13    1    1    0    0    0 -0.46973330357E+02  0.22287183461E+02 -0.18645187935E+01  0.52025954155E+02  0.10566000000E+00 0. -1.
         13    1    1    0    0    0 -0.10003236121E+02  0.27957354854E+01  0.26341776441E+01  0.10715919265E+02  0.10566000000E+00 0.  1.
         22    1    1    0    0    0  0.56976566478E+02 -0.25082918946E+02 -0.76965885053E+00  0.62258126580E+02  0.00000000000E+00 0. -1.
</event>
<event>
 4    1  0.9897231E-003  0.9118800E+02  0.7818608E-02  0.1130116E+00
         25   -1    0    0    0    0  0.00000000000E+00  0.00000000000E+00  0.99999998245E-14  0.12500000000E+03  0.12500000000E+03 0.  0.
        -13    1    1    0    0    0 -0.34127228937E+01  0.46570530577E+00  0.44693158139E-01  0.34462618146E+01  0.10566000000E+00 0.  1.
         13    1    1    0    0    0 -0.53987431765E+02 -0.22861832847E+02  0.88758231847E+01  0.59296691231E+02  0.10566000000E+00 0. -1.
         22    1    1    0    0    0  0.57400154659E+02  0.22396127541E+02 -0.89205163428E+01  0.62257046954E+02  0.00000000000E+00 0. -1.
</event>
<event>
 4    1  0.9897231E-003  0.9118800E+02  0.7818608E-02  0.1130116E+00
         25   -1    0    0    0    0  0.00000000000E+00  0.00000000000E+00  0.99999998245E-14  0.12500000000E+03  0.12500000000E+03 0.  0.
        -13    1    1    0    0    0 -0.13642310597E+02  0.12828554531E+02  0.10803934536E+02  0.21619912471E+02  0.10566000000E+00 0. -1.
         13    1    1    0    0    0 -0.26737458051E+02  0.23819964275E+02  0.19727535353E+02  0.40883605225E+02  0.10566000000E+00 0.  1.
         22    1    1    0    0    0  0.40379768648E+02 -0.36648518806E+02 -0.30531469889E+02  0.62496482303E+02  0.00000000000E+00 0. -1.
</event>
<event>
 4    1  0.9897231E-003  0.9118800E+02  0.7818608E-02  0.1130116E+00
         25   -1    0    0    0    0  0.00000000000E+00  0.00000000000E+00  0.99999998245E-14  0.12500000000E+03  0.12500000000E+03 0.  0.
        -13    1    1    0    0    0 -0.42990767761E+01 -0.10705258631E+01  0.24947481660E+01  0.50855697024E+01  0.10566000000E+00 0.  1.
         13    1    1    0    0    0 -0.50435615242E+02 -0.20647728676E+02  0.18262442655E+02  0.57477021148E+02  0.10566000000E+00 0. -1.
         22    1    1    0    0    0  0.54734692018E+02  0.21718254539E+02 -0.20757190821E+02  0.62437409150E+02  0.00000000000E+00 0. -1.
</event>
<event>
 4    1  0.9897231E-003  0.9118800E+02  0.7818608E-02  0.1130116E+00
         25   -1    0    0    0    0  0.00000000000E+00  0.00000000000E+00  0.99999998245E-14  0.12500000000E+03  0.12500000000E+03 0.  0.
        -13    1    1    0    0    0  0.59904842688E+01 -0.10347855891E+02  0.29880499117E+02  0.32184148502E+02  0.10566000000E+00 0.  1.
         13    1    1    0    0    0  0.30273315667E+01 -0.12665152997E+02  0.27451063529E+02  0.30383266608E+02  0.10566000000E+00 0. -1.
         22    1    1    0    0    0 -0.90178158354E+01  0.23013008888E+02 -0.57331562646E+02  0.62432584889E+02  0.00000000000E+00 0. -1.
</event>
<event>
 4    1  0.9897231E-003  0.9118800E+02  0.7818608E-02  0.1130116E+00
         25   -1    0    0    0    0  0.00000000000E+00  0.00000000000E+00  0.99999998245E-14  0.12500000000E+03  0.12500000000E+03 0.  0.
        -13    1    1    0    0    0  0.11383044189E+02  0.12764017870E+02  0.48170344745E+02  0.51116407582E+02  0.10566000000E+00 0. -1.
         13    1    1    0    0    0  0.36826303596E+00  0.13246133907E+01  0.11435441761E+02  0.11518277241E+02  0.10566000000E+00 0.  1.
         22    1    1    0    0    0 -0.11751307225E+02 -0.14088631261E+02 -0.59605786505E+02  0.62365315178E+02  0.00000000000E+00 0. -1.
</event>
<event>
 4    1  0.9897231E-003  0.9118800E+02  0.7818608E-02  0.1130116E+00
         25   -1    0    0    0    0  0.00000000000E+00  0.00000000000E+00  0.99999998245E-14  0.12500000000E+03  0.12500000000E+03 0.  0.
        -13    1    1    0    0    0 -0.11387282104E+02  0.19643131734E+02  0.25469945492E+02  0.34121138689E+02  0.10566000000E+00 0.  1.
         13    1    1    0    0    0 -0.92516114242E+01  0.17589874924E+02  0.20273879035E+02  0.28390796906E+02  0.10566000000E+00 0. -1.
         22    1    1    0    0    0  0.20638893529E+02 -0.37233006657E+02 -0.45743824527E+02  0.62488064406E+02  0.00000000000E+00 0. -1.
</event>
<event>
 4    1  0.9897231E-003  0.9118800E+02  0.7818608E-02  0.1130116E+00
         25   -1    0    0    0    0  0.00000000000E+00  0.00000000000E+00  0.99999998245E-14  0.12500000000E+03  0.12500000000E+03 0.  0.
        -13    1    1    0    0    0 -0.44486658161E+02 -0.37538364228E+02 -0.15457353619E+02  0.60225679641E+02  0.10566000000E+00 0.  1.
         13    1    1    0    0    0 -0.38387969922E+00  0.23195791422E+01 -0.38853208999E+01  0.45425426306E+01  0.10566000000E+00 0. -1.
         22    1    1    0    0    0  0.44870537860E+02  0.35218785086E+02  0.19342674519E+02  0.60231777729E+02  0.00000000000E+00 0.  1.
</event>
<event>
 4    1  0.9897231E-003  0.9118800E+02  0.7818608E-02  0.1130116E+00
         25   -1    0    0    0    0  0.00000000000E+00  0.00000000000E+00  0.99999998245E-14  0.12500000000E+03  0.12500000000E+03 0.  0.
        -13    1    1    0    0    0  0.68510424552E+01  0.28639050592E+00  0.85311483403E+01  0.10945796375E+02  0.10566000000E+00 0. -1.
         13    1    1    0    0    0  0.29495435139E+02  0.44325925602E+00  0.42294391515E+02  0.51565530061E+02  0.10566000000E+00 0.  1.
         22    1    1    0    0    0 -0.36346477594E+02 -0.72964976193E+00 -0.50825539855E+02  0.62488673564E+02  0.00000000000E+00 0.  1.
</event>
<event>
 4    1  0.9897231E-003  0.9118800E+02  0.7818608E-02  0.1130116E+00
         25   -1    0    0    0    0  0.00000000000E+00  0.00000000000E+00  0.99999998245E-14  0.12500000000E+03  0.12500000000E+03 0.  0.
        -13    1    1    0    0    0 -0.25815359024E+02 -0.36581716994E+02  0.13572468159E+02  0.46785444699E+02  0.10566000000E+00 0. -1.
         13    1    1    0    0    0 -0.15988042445E+02  0.52973635921E+01  0.11398166206E+02  0.20337377391E+02  0.10566000000E+00 0.  1.
         22    1    1    0    0    0  0.41803401469E+02  0.31284353402E+02 -0.24970634365E+02  0.57877177909E+02  0.00000000000E+00 0. -1.
</event>
<event>
 4    1  0.9897231E-003  0.9118800E+02  0.7818608E-02  0.1130116E+00
         25   -1    0    0    0    0  0.00000000000E+00  0.00000000000E+00  0.99999998245E-14  0.12500000000E+03  0.12500000000E+03 0.  0.
        -13    1    1    0    0    0  0.18383436969E+01  0.33779074788E+01 -0.46708681554E+00  0.38754484402E+01  0.10566000000E+00 0. -1.
         13    1    1    0    0    0 -0.48140183752E+01  0.26282016303E+02 -0.53314068394E+02  0.59634890850E+02  0.10566000000E+00 0.  1.
         22    1    1    0    0    0  0.29756746783E+01 -0.29659923782E+02  0.53781155210E+02  0.61489660710E+02  0.00000000000E+00 0.  1.
</event>
<event>
 4    1  0.9897231E-003  0.9118800E+02  0.7818608E-02  0.1130116E+00
         25   -1    0    0    0    0  0.00000000000E+00  0.00000000000E+00  0.99999998245E-14  0.12500000000E+03  0.12500000000E+03 0.  0.
        -13    1    1    0    0    0  0.54506220517E+01  0.82450242488E+01  0.51871559014E+00  0.98979763342E+01  0.10566000000E+00 0.  1.
         13    1    1    0    0    0  0.26563074719E+02  0.45222431219E+02  0.41347337638E+01  0.52609622800E+02  0.10566000000E+00 0. -1.
         22    1    1    0    0    0 -0.32013696770E+02 -0.53467455468E+02 -0.46534493539E+01  0.62492400866E+02  0.00000000000E+00 0. -1.
</event>
<event>
 4    1  0.9897231E-003  0.9118800E+02  0.7818608E-02  0.1130116E+00
         25   -1    0    0    0    0  0.00000000000E+00  0.00000000000E+00  0.99999998245E-14  0.12500000000E+03  0.12500000000E+03 0.  0.
        -13    1    1    0    0    0  0.47947527858E+02 -0.25015116967E+02 -0.94321310135E+01  0.54897156247E+02  0.10566000000E+00 0.  1.
         13    1    1    0    0    0  0.79407644208E+01  0.16633172317E+01 -0.22410415708E+01  0.84175884407E+01  0.10566000000E+00 0. -1.
         22    1    1    0    0    0 -0.55888292279E+02  0.23351799735E+02  0.11673172584E+02  0.61685255312E+02  0.00000000000E+00 0.  1.
</event>
<event>
 4    1  0.9897231E-003  0.9118800E+02  0.7818608E-02  0.1130116E+00
         25   -1    0    0    0    0  0.00000000000E+00  0.00000000000E+00  0.99999998245E-14  0.12500000000E+03  0.12500000000E+03 0.  0.
        -13    1    1    0    0    0 -0.11527063298E+02  0.19083610037E+02 -0.19580668046E+02  0.29672733030E+02  0.10566000000E+00 0. -1.
         13    1    1    0    0    0 -0.14234152617E+02  0.21267139977E+02 -0.20579910885E+02  0.32839705230E+02  0.10566000000E+00 0.  1.
         22    1    1    0    0    0  0.25761215915E+02 -0.40350750014E+02  0.40160578931E+02  0.62487561740E+02  0.00000000000E+00 0.  1.
</event>
<event>
 4    1  0.9897231E-003  0.9118800E+02  0.7818608E-02  0.1130116E+00
         25   -1    0    0    0    0  0.00000000000E+00  0.00000000000E+00  0.99999998245E-14  0.12500000000E+03  0.12500000000E+03 0.  0.
        -13    1    1    0    0    0 -0.43258305948E+01 -0.14808533648E+02  0.21700601056E+02  0.26625790681E+02  0.10566000000E+00 0.  1.
         13    1    1    0    0    0  0.12945100540E+02 -0.19214680620E+02  0.28745125114E+02  0.36919818000E+02  0.10566000000E+00 0. -1.
         22    1    1    0    0    0 -0.86192699453E+01  0.34023214268E+02 -0.50445726170E+02  0.61454391319E+02  0.00000000000E+00 0. -1.
</event>
<event>
 4    1  0.9897231E-003  0.9118800E+02  0.7818608E-02  0.1130116E+00
         25   -1    0    0    0    0  0.00000000000E+00  0.00000000000E+00  0.99999998245E-14  0.12500000000E+03  0.12500000000E+03 0.  0.
        -13    1    1    0    0    0 -0.42667438455E+01 -0.19314020444E+02 -0.27958407862E+02  0.34247922901E+02  0.10566000000E+00 0.  1.
         13    1    1    0    0    0 -0.34771626363E+01 -0.15451246447E+02 -0.23397472859E+02  0.28253930293E+02  0.10566000000E+00 0. -1.
         22    1    1    0    0    0  0.77439064818E+01  0.34765266891E+02  0.51355880721E+02  0.62498146807E+02  0.00000000000E+00 0.  1.
</event>
<event>
 4    1  0.9897231E-003  0.9118800E+02  0.7818608E-02  0.1130116E+00
         25   -1    0    0    0    0  0.00000000000E+00  0.00000000000E+00  0.99999998245E-14  0.12500000000E+03  0.12500000000E+03 0.  0.
        -13    1    1    0    0    0 -0.61495960929E+01 -0.17899682912E+02 -0.20520440959E+02  0.27916229001E+02  0.10566000000E+00 0. -1.
         13    1    1    0    0    0  0.87158136057E+01 -0.20122020598E+02 -0.27886914821E+02  0.35476080702E+02  0.10566000000E+00 0.  1.
         22    1    1    0    0    0 -0.25662175128E+01  0.38021703510E+02  0.48407355780E+02  0.61607690297E+02  0.00000000000E+00 0.  1.
</event>
<event>
 4    1  0.9897231E-003  0.9118800E+02  0.7818608E-02  0.1130116E+00
         25   -1    0    0    0    0  0.00000000000E+00  0.00000000000E+00  0.99999998245E-14  0.12500000000E+03  0.12500000000E+03 0.  0.
        -13    1    1    0    0    0 -0.25971209796E+02 -0.38394126901E+02  0.48287541035E+01  0.46604085111E+02  0.10566000000E+00 0.  1.
         13    1    1    0    0    0 -0.90204809372E+01 -0.13119674764E+02  0.15351435337E+00  0.15922615141E+02  0.10566000000E+00 0. -1.
         22    1    1    0    0    0  0.34991690733E+02  0.51513801665E+02 -0.49822684569E+01  0.62473299748E+02  0.00000000000E+00 0.  1.
</event>
<event>
 4    1  0.9897231E-003  0.9118800E+02  0.7818608E-02  0.1130116E+00
         25   -1    0    0    0    0  0.00000000000E+00  0.00000000000E+00  0.99999998245E-14  0.12500000000E+03  0.12500000000E+03 0.  0.
        -13    1    1    0    0    0 -0.61900680587E+01  0.18718076125E+02 -0.18395016826E+02  0.26964256423E+02  0.10566000000E+00 0. -1.
         13    1    1    0    0    0 -0.81028133552E+01  0.24590570088E+02 -0.24340154796E+02  0.35535982061E+02  0.10566000000E+00 0.  1.
         22    1    1    0    0    0  0.14292881414E+02 -0.43308646213E+02  0.42735171622E+02  0.62499761515E+02  0.00000000000E+00 0.  1.
</event>
<event>
 4    1  0.9897231E-003  0.9118800E+02  0.7818608E-02  0.1130116E+00
         25   -1    0    0    0    0  0.00000000000E+00  0.00000000000E+00  0.99999998245E-14  0.12500000000E+03  0.12500000000E+03 0.  0.
        -13    1    1    0    0    0 -0.18877294231E+02 -0.11642521415E+02  0.78886712947E+01  0.23540238767E+02  0.10566000000E+00 0. -1.
         13    1    1    0    0    0  0.24355945137E+01  0.30514492586E+02  0.38236736875E+02  0.48980869626E+02  0.10566000000E+00 0.  1.
         22    1    1    0    0    0  0.16441699717E+02 -0.18871971171E+02 -0.46125408170E+02  0.52478891607E+02  0.00000000000E+00 0.  1.
</event>
<event>
 4    1  0.9897231E-003  0.9118800E+02  0.7818608E-02  0.1130116E+00
         25   -1    0    0    0    0  0.00000000000E+00  0.00000000000E+00  0.99999998245E-14  0.12500000000E+03  0.12500000000E+03 0.  0.
        -13    1    1    0    0    0  0.16437674348E+02 -0.75621886434E+01  0.13008397215E+02  0.22284824370E+02  0.10566000000E+00 0. -1.
         13    1    1    0    0    0  0.18436553360E+02 -0.22483884480E+02  0.28512510226E+02  0.40723530845E+02  0.10566000000E+00 0.  1.
         22    1    1    0    0    0 -0.34874227709E+02  0.30046073123E+02 -0.41520907441E+02  0.61991644785E+02  0.00000000000E+00 0.  1.
</event>
<event>
 4    1  0.9897231E-003  0.9118800E+02  0.7818608E-02  0.1130116E+00
         25   -1    0    0    0    0  0.00000000000E+00  0.00000000000E+00  0.99999998245E-14  0.12500000000E+03  0.12500000000E+03 0.  0.
        -13    1    1    0    0    0  0.23459735808E+02 -0.11985584578E+02 -0.11470664463E+02  0.28733269029E+02  0.10566000000E+00 0. -1.
         13    1    1    0    0    0  0.26365713463E+02 -0.14812108855E+02 -0.15055527002E+02  0.33782088042E+02  0.10566000000E+00 0.  1.
         22    1    1    0    0    0 -0.49825449271E+02  0.26797693433E+02  0.26526191464E+02  0.62484642929E+02  0.00000000000E+00 0.  1.
</event>
<event>
 4    1  0.9897231E-003  0.9118800E+02  0.7818608E-02  0.1130116E+00
         25   -1    0    0    0    0  0.00000000000E+00  0.00000000000E+00  0.99999998245E-14  0.12500000000E+03  0.12500000000E+03 0.  0.
        -13    1    1    0    0    0 -0.11428717836E+02  0.19286458059E+02 -0.35887962910E+02  0.42314774036E+02  0.10566000000E+00 0.  1.
         13    1    1    0    0    0 -0.71126681542E+01 -0.24861910496E+00 -0.19767893657E+02  0.21010298508E+02  0.10566000000E+00 0. -1.
         22    1    1    0    0    0  0.18541385990E+02 -0.19037838954E+02  0.55655856567E+02  0.61674927456E+02  0.00000000000E+00 0.  1.
</event>
<event>
 4    1  0.9897231E-003  0.9118800E+02  0.7818608E-02  0.1130116E+00
         25   -1    0    0    0    0  0.00000000000E+00  0.00000000000E+00  0.99999998245E-14  0.12500000000E+03  0.12500000000E+03 0.  0.
        -13    1    1    0    0    0 -0.37936915688E+01 -0.21760182164E+02 -0.19569674885E+01  0.22175177774E+02  0.10566000000E+00 0. -1.
         13    1    1    0    0    0 -0.57759593166E+01 -0.39657588719E+02 -0.45163603747E+01  0.40329824251E+02  0.10566000000E+00 0.  1.
         22    1    1    0    0    0  0.95696508854E+01  0.61417770883E+02  0.64733278632E+01  0.62494997975E+02  0.00000000000E+00 0.  1.
</event>
<event>
 4    1  0.9897231E-003  0.9118800E+02  0.7818608E-02  0.1130116E+00
         25   -1    0    0    0    0  0.00000000000E+00  0.00000000000E+00  0.99999998245E-14  0.12500000000E+03  0.12500000000E+03 0.  0.
        -13    1    1    0    0    0 -0.10426565178E+02  0.90134920110E+01  0.14637295472E+02  0.20105170539E+02  0.10566000000E+00 0.  1.
         13    1    1    0    0    0 -0.22050527504E+02  0.19461066367E+02  0.30535557476E+02  0.42395640127E+02  0.10566000000E+00 0. -1.
         22    1    1    0    0    0  0.32477092682E+02 -0.28474558378E+02 -0.45172852948E+02  0.62499189334E+02  0.00000000000E+00 0. -1.
</event>
<event>
 4    1  0.9897231E-003  0.9118800E+02  0.7818608E-02  0.1130116E+00
         25   -1    0    0    0    0  0.00000000000E+00  0.00000000000E+00  0.99999998245E-14  0.12500000000E+03  0.12500000000E+03 0.  0.
        -13    1    1    0    0    0 -0.10575817298E+02  0.41065732599E+02 -0.93690508186E+01  0.43428476633E+02  0.10566000000E+00 0.  1.
         13    1    1    0    0    0  0.26471430197E+02  0.84981591297E+01 -0.33112629049E+01  0.27998766961E+02  0.10566000000E+00 0. -1.
         22    1    1    0    0    0 -0.15895612900E+02 -0.49563891729E+02  0.12680313724E+02  0.53572756405E+02  0.00000000000E+00 0.  1.
</event>
<event>
 4    1  0.9897231E-003  0.9118800E+02  0.7818608E-02  0.1130116E+00
         25   -1    0    0    0    0  0.00000000000E+00  0.00000000000E+00  0.99999998245E-14  0.12500000000E+03  0.12500000000E+03 0.  0.
        -13    1    1    0    0    0 -0.40103307346E+01  0.12681349846E+00  0.54212531872E+01  0.67453676267E+01  0.10566000000E+00 0. -1.
         13    1    1    0    0    0 -0.33604114059E+02 -0.30971917482E+01  0.44393000720E+02  0.55763597045E+02  0.10566000000E+00 0.  1.
         22    1    1    0    0    0  0.37614444794E+02  0.29703782498E+01 -0.49814253907E+02  0.62491035328E+02  0.00000000000E+00 0.  1.
</event>
<event>
 4    1  0.9897231E-003  0.9118800E+02  0.7818608E-02  0.1130116E+00
         25   -1    0    0    0    0  0.00000000000E+00  0.00000000000E+00  0.99999998245E-14  0.12500000000E+03  0.12500000000E+03 0.  0.
        -13    1    1    0    0    0  0.10314308316E+02  0.18280890586E+01  0.23810357006E+01  0.10742781795E+02  0.10566000000E+00 0. -1.
         13    1    1    0    0    0  0.82208359951E+01 -0.47729508999E+02  0.28225690713E+02  0.56057015208E+02  0.10566000000E+00 0.  1.
         22    1    1    0    0    0 -0.18535144311E+02  0.45901419940E+02 -0.30606726414E+02  0.58200202998E+02  0.00000000000E+00 0.  1.
</event>
<event>
 4    1  0.9897231E-003  0.9118800E+02  0.7818608E-02  0.1130116E+00
         25   -1    0    0    0    0  0.00000000000E+00  0.00000000000E+00  0.99999998245E-14  0.12500000000E+03  0.12500000000E+03 0.  0.
        -13    1    1    0    0    0 -0.35333427232E+01 -0.27480178511E+02  0.62356354464E+01  0.28399630899E+02  0.10566000000E+00 0.  1.
         13    1    1    0    0    0 -0.96948970775E+01 -0.29750571078E+02  0.14261322646E+02  0.34387265033E+02  0.10566000000E+00 0. -1.
         22    1    1    0    0    0  0.13228239801E+02  0.57230749589E+02 -0.20496958092E+02  0.62213104068E+02  0.00000000000E+00 0. -1.
</event>
<event>
 4    1  0.9897231E-003  0.9118800E+02  0.7818608E-02  0.1130116E+00
         25   -1    0    0    0    0  0.00000000000E+00  0.00000000000E+00  0.99999998245E-14  0.12500000000E+03  0.12500000000E+03 0.  0.
        -13    1    1    0    0    0  0.20749157517E+02 -0.11033388045E+02  0.77778458711E+00  0.23513385599E+02  0.10566000000E+00 0. -1.
         13    1    1    0    0    0  0.34067035357E+02 -0.18876701877E+02  0.17885691021E+01  0.38988497217E+02  0.10566000000E+00 0. -1.
         22    1    1    0    0    0 -0.54816192874E+02  0.29910089922E+02 -0.25663536892E+01  0.62498117184E+02  0.00000000000E+00 0. -1.
</event>
<event>
 4    1  0.9897231E-003  0.9118800E+02  0.7818608E-02  0.1130116E+00
         25   -1    0    0    0    0  0.00000000000E+00  0.00000000000E+00  0.99999998245E-14  0.12500000000E+03  0.12500000000E+03 0.  0.
        -13    1    1    0    0    0  0.14799968402E+02 -0.14582290776E+02 -0.29676600423E+01  0.20988102323E+02  0.10566000000E+00 0.  1.
         13    1    1    0    0    0  0.41834456048E+02 -0.61348852678E+01  0.95557506644E+01  0.43348380188E+02  0.10566000000E+00 0. -1.
         22    1    1    0    0    0 -0.56634424451E+02  0.20717176044E+02 -0.65880906221E+01  0.60663517489E+02  0.00000000000E+00 0. -1.
</event>
<event>
 4    1  0.9897231E-003  0.9118800E+02  0.7818608E-02  0.1130116E+00
         25   -1    0    0    0    0  0.00000000000E+00  0.00000000000E+00  0.99999998245E-14  0.12500000000E+03  0.12500000000E+03 0.  0.
        -13    1    1    0    0    0 -0.48155146176E+01  0.47351760389E+02  0.13230008678E+02  0.49400634476E+02  0.10566000000E+00 0.  1.
         13    1    1    0    0    0 -0.34677010022E+00  0.13220792659E+02  0.65405151022E+00  0.13241924160E+02  0.10566000000E+00 0. -1.
         22    1    1    0    0    0  0.51622847179E+01 -0.60572553048E+02 -0.13884060188E+02  0.62357441365E+02  0.00000000000E+00 0.  1.
</event>
<event>
 4    1  0.9897231E-003  0.9118800E+02  0.7818608E-02  0.1130116E+00
         25   -1    0    0    0    0  0.00000000000E+00  0.00000000000E+00  0.99999998245E-14  0.12500000000E+03  0.12500000000E+03 0.  0.
        -13    1    1    0    0    0 -0.49226853654E+00 -0.59491260442E+01  0.48058100120E+01  0.76642940255E+01  0.10566000000E+00 0. -1.
         13    1    1    0    0    0 -0.65242510197E+00 -0.43178112736E+02  0.33804771047E+02  0.54841123142E+02  0.10566000000E+00 0.  1.
         22    1    1    0    0    0  0.11446936385E+01  0.49127238780E+02 -0.38610581059E+02  0.62494582832E+02  0.00000000000E+00 0.  1.
</event>
<event>
 4    1  0.9897231E-003  0.9118800E+02  0.7818608E-02  0.1130116E+00
         25   -1    0    0    0    0  0.00000000000E+00  0.00000000000E+00  0.99999998245E-14  0.12500000000E+03  0.12500000000E+03 0.  0.
        -13    1    1    0    0    0 -0.42246176561E+01  0.80195293023E+01  0.15044060807E+01  0.91888326932E+01  0.10566000000E+00 0.  1.
         13    1    1    0    0    0 -0.10324971143E+01  0.50273574615E+02  0.19057873276E+02  0.53774641353E+02  0.10566000000E+00 0. -1.
         22    1    1    0    0    0  0.52571147704E+01 -0.58293103917E+02 -0.20562279357E+02  0.62036525953E+02  0.00000000000E+00 0. -1.
</event>
<event>
 4    1  0.9897231E-003  0.9118800E+02  0.7818608E-02  0.1130116E+00
         25   -1    0    0    0    0  0.00000000000E+00  0.00000000000E+00  0.99999998245E-14  0.12500000000E+03  0.12500000000E+03 0.  0.
        -13    1    1    0    0    0  0.11295748003E+02 -0.13306263220E+02 -0.33868243816E+01  0.17780109878E+02  0.10566000000E+00 0. -1.
         13    1    1    0    0    0  0.34343295382E+02 -0.28558739157E+02 -0.40177359334E+01  0.44846592802E+02  0.10566000000E+00 0.  1.
         22    1    1    0    0    0 -0.45639043384E+02  0.41865002378E+02  0.74045603150E+01  0.62373297320E+02  0.00000000000E+00 0. -1.
</event>
<event>
 4    1  0.9897231E-003  0.9118800E+02  0.7818608E-02  0.1130116E+00
         25   -1    0    0    0    0  0.00000000000E+00  0.00000000000E+00  0.99999998245E-14  0.12500000000E+03  0.12500000000E+03 0.  0.
        -13    1    1    0    0    0  0.63572283495E+00 -0.33142788884E+01  0.72294788033E+01  0.79790422906E+01  0.10566000000E+00 0.  1.
         13    1    1    0    0    0 -0.12878490707E+02 -0.30373744350E+02  0.43692332033E+02  0.54748980916E+02  0.10566000000E+00 0. -1.
         22    1    1    0    0    0  0.12242767872E+02  0.33688023239E+02 -0.50921810837E+02  0.62271976794E+02  0.00000000000E+00 0. -1.
</event>
<event>
 4    1  0.9897231E-003  0.9118800E+02  0.7818608E-02  0.1130116E+00
         25   -1    0    0    0    0  0.00000000000E+00  0.00000000000E+00  0.99999998245E-14  0.12500000000E+03  0.12500000000E+03 0.  0.
        -13    1    1    0    0    0 -0.20155411513E+02 -0.25451016610E+02  0.30909980364E+02  0.44826698628E+02  0.10566000000E+00 0. -1.
         13    1    1    0    0    0 -0.57146520062E+01 -0.19365571157E+02 -0.17492368279E+02  0.26714728257E+02  0.10566000000E+00 0.  1.
         22    1    1    0    0    0  0.25870063519E+02  0.44816587766E+02 -0.13417612085E+02  0.53458573116E+02  0.00000000000E+00 0. -1.
</event>
<event>
 4    1  0.9897231E-003  0.9118800E+02  0.7818608E-02  0.1130116E+00
         25   -1    0    0    0    0  0.00000000000E+00  0.00000000000E+00  0.99999998245E-14  0.12500000000E+03  0.12500000000E+03 0.  0.
        -13    1    1    0    0    0  0.31947041371E+02 -0.14532483666E+02  0.12949507378E+02  0.37409991168E+02  0.10566000000E+00 0. -1.
         13    1    1    0    0    0  0.21680129261E+02 -0.97304160123E+01  0.80582038861E+01  0.25092923593E+02  0.10566000000E+00 0.  1.
         22    1    1    0    0    0 -0.53627170632E+02  0.24262899678E+02 -0.21007711264E+02  0.62497085239E+02  0.00000000000E+00 0.  1.
</event>
<event>
 4    1  0.9897231E-003  0.9118800E+02  0.7818608E-02  0.1130116E+00
         25   -1    0    0    0    0  0.00000000000E+00  0.00000000000E+00  0.99999998245E-14  0.12500000000E+03  0.12500000000E+03 0.  0.
        -13    1    1    0    0    0 -0.10233635451E+02  0.15132188701E+02  0.20260418927E+00  0.18269171900E+02  0.10566000000E+00 0. -1.
         13    1    1    0    0    0 -0.24211609948E+02  0.37007745228E+02  0.82587029542E+00  0.44231984908E+02  0.10566000000E+00 0.  1.
         22    1    1    0    0    0  0.34445245398E+02 -0.52139933929E+02 -0.10284744847E+01  0.62498843192E+02  0.00000000000E+00 0.  1.
</event>
<event>
 4    1  0.9897231E-003  0.9118800E+02  0.7818608E-02  0.1130116E+00
         25   -1    0    0    0    0  0.00000000000E+00  0.00000000000E+00  0.99999998245E-14  0.12500000000E+03  0.12500000000E+03 0.  0.
        -13    1    1    0    0    0 -0.36434357631E+02  0.41091439633E+01  0.20275053988E+02  0.41897929046E+02  0.10566000000E+00 0. -1.
         13    1    1    0    0    0 -0.17897143944E+02  0.18955848877E+01  0.10027360098E+02  0.20602429904E+02  0.10566000000E+00 0. -1.
         22    1    1    0    0    0  0.54331501575E+02 -0.60047288511E+01 -0.30302414085E+02  0.62499641050E+02  0.00000000000E+00 0. -1.
</event>
<event>
 4    1  0.9897231E-003  0.9118800E+02  0.7818608E-02  0.1130116E+00
         25   -1    0    0    0    0  0.00000000000E+00  0.00000000000E+00  0.99999998245E-14  0.12500000000E+03  0.12500000000E+03 0.  0.
        -13    1    1    0    0    0 -0.82264318640E+01 -0.12448966797E+02 -0.43738684230E+01  0.15549689532E+02  0.10566000000E+00 0.  1.
         13    1    1    0    0    0 -0.24891744465E+02 -0.37499569516E+02 -0.13361533967E+02  0.46950595421E+02  0.10566000000E+00 0.  1.
         22    1    1    0    0    0  0.33118176329E+02  0.49948536312E+02  0.17735402390E+02  0.62499715048E+02  0.00000000000E+00 0.  1.
</event>
<event>
 4    1  0.9897231E-003  0.9118800E+02  0.7818608E-02  0.1130116E+00
         25   -1    0    0    0    0  0.00000000000E+00  0.00000000000E+00  0.99999998245E-14  0.12500000000E+03  0.12500000000E+03 0.  0.
        -13    1    1    0    0    0  0.94732795908E+01  0.84998709861E+00  0.17756652184E+01  0.96762417950E+01  0.10566000000E+00 0. -1.
         13    1    1    0    0    0  0.52365299178E+02  0.74494896134E+01  0.36782991468E+00  0.52893911903E+02  0.10566000000E+00 0.  1.
         22    1    1    0    0    0 -0.61838578769E+02 -0.82994767120E+01 -0.21434951331E+01  0.62429846302E+02  0.00000000000E+00 0.  1.
</event>
<event>
 4    1  0.9897231E-003  0.9118800E+02  0.7818608E-02  0.1130116E+00
         25   -1    0    0    0    0  0.00000000000E+00  0.00000000000E+00  0.99999998245E-14  0.12500000000E+03  0.12500000000E+03 0.  0.
        -13    1    1    0    0    0 -0.65924673863E+01 -0.20974533525E+02 -0.49520964686E+02  0.54182366045E+02  0.10566000000E+00 0. -1.
         13    1    1    0    0    0 -0.17758228256E+00 -0.69783758421E+01 -0.53969651478E+01  0.88242655050E+01  0.10566000000E+00 0.  1.
         22    1    1    0    0    0  0.67700496688E+01  0.27952909367E+02  0.54917929833E+02  0.61993368450E+02  0.00000000000E+00 0. -1.
</event>
<event>
 4    1  0.9897231E-003  0.9118800E+02  0.7818608E-02  0.1130116E+00
         25   -1    0    0    0    0  0.00000000000E+00  0.00000000000E+00  0.99999998245E-14  0.12500000000E+03  0.12500000000E+03 0.  0.
        -13    1    1    0    0    0  0.35982760465E+01 -0.17695226480E+01  0.10446090355E+01  0.41450178505E+01  0.10566000000E+00 0.  1.
         13    1    1    0    0    0  0.47722530354E+01 -0.26347441119E+02  0.52989605574E+02  0.59370628391E+02  0.10566000000E+00 0. -1.
         22    1    1    0    0    0 -0.83705290819E+01  0.28116963767E+02 -0.54034214610E+02  0.61484353759E+02  0.00000000000E+00 0. -1.
</event>
<event>
 4    1  0.9897231E-003  0.9118800E+02  0.7818608E-02  0.1130116E+00
         25   -1    0    0    0    0  0.00000000000E+00  0.00000000000E+00  0.99999998245E-14  0.12500000000E+03  0.12500000000E+03 0.  0.
        -13    1    1    0    0    0 -0.50431462085E+00  0.21290083395E+02 -0.41610413789E+01  0.21699018724E+02  0.10566000000E+00 0.  1.
         13    1    1    0    0    0 -0.10572637397E+01  0.39915164289E+02 -0.83933023185E+01  0.40801921949E+02  0.10566000000E+00 0. -1.
         22    1    1    0    0    0  0.15615783605E+01 -0.61205247684E+02  0.12554343697E+02  0.62499059327E+02  0.00000000000E+00 0. -1.
</event>
<event>
 4    1  0.9897231E-003  0.9118800E+02  0.7818608E-02  0.1130116E+00
         25   -1    0    0    0    0  0.00000000000E+00  0.00000000000E+00  0.99999998245E-14  0.12500000000E+03  0.12500000000E+03 0.  0.
        -13    1    1    0    0    0 -0.35566262456E+02  0.15611256464E+02 -0.17123300761E+02  0.42448662481E+02  0.10566000000E+00 0. -1.
         13    1    1    0    0    0 -0.16713280985E+02  0.80022500809E+01 -0.76732327882E+01  0.20056406286E+02  0.10566000000E+00 0.  1.
         22    1    1    0    0    0  0.52279543441E+02 -0.23613506545E+02  0.24796533549E+02  0.62494931233E+02  0.00000000000E+00 0. -1.
</event>
<event>
 4    1  0.9897231E-003  0.9118800E+02  0.7818608E-02  0.1130116E+00
         25   -1    0    0    0    0  0.00000000000E+00  0.00000000000E+00  0.99999998245E-14  0.12500000000E+03  0.12500000000E+03 0.  0.
        -13    1    1    0    0    0  0.10732587770E+02  0.40930121204E+02  0.22080968999E+02  0.47728855193E+02  0.10566000000E+00 0. -1.
         13    1    1    0    0    0 -0.20183835833E+02  0.70344054661E+01 -0.18473193148E+02  0.28251373742E+02  0.10566000000E+00 0.  1.
         22    1    1    0    0    0  0.94512480633E+01 -0.47964526671E+02 -0.36077758504E+01  0.49019771065E+02  0.00000000000E+00 0. -1.
</event>
<event>
 4    1  0.9897231E-003  0.9118800E+02  0.7818608E-02  0.1130116E+00
         25   -1    0    0    0    0  0.00000000000E+00  0.00000000000E+00  0.99999998245E-14  0.12500000000E+03  0.12500000000E+03 0.  0.
        -13    1    1    0    0    0  0.64065699499E+01 -0.25649315456E+02 -0.42973749228E+02  0.50454789750E+02  0.10566000000E+00 0.  1.
         13    1    1    0    0    0  0.14101856256E+01 -0.63140800312E+01 -0.10161245795E+02  0.12046506144E+02  0.10566000000E+00 0.  1.
         22    1    1    0    0    0 -0.78167555755E+01  0.31963395488E+02  0.53134995023E+02  0.62498704106E+02  0.00000000000E+00 0.  1.
</event>
<event>
 4    1  0.9897231E-003  0.9118800E+02  0.7818608E-02  0.1130116E+00
         25   -1    0    0    0    0  0.00000000000E+00  0.00000000000E+00  0.99999998245E-14  0.12500000000E+03  0.12500000000E+03 0.  0.
        -13    1    1    0    0    0 -0.33415362283E+00 -0.39679158456E+01  0.13805505141E+00  0.39857543871E+01  0.10566000000E+00 0.  1.
         13    1    1    0    0    0 -0.33781252385E+02 -0.38442642397E+02 -0.29603045533E+02  0.59121580121E+02  0.10566000000E+00 0. -1.
         22    1    1    0    0    0  0.34115406008E+02  0.42410558243E+02  0.29464990482E+02  0.61892665491E+02  0.00000000000E+00 0. -1.
</event>
<event>
 4    1  0.9897231E-003  0.9118800E+02  0.7818608E-02  0.1130116E+00
         25   -1    0    0    0    0  0.00000000000E+00  0.00000000000E+00  0.99999998245E-14  0.12500000000E+03  0.12500000000E+03 0.  0.
        -13    1    1    0    0    0  0.14711851510E+02  0.89358967250E+01  0.98243618859E+01  0.19819638635E+02  0.10566000000E+00 0. -1.
         13    1    1    0    0    0  0.29283042854E+02  0.23164618141E+02  0.20758139820E+02  0.42720108441E+02  0.10566000000E+00 0.  1.
         22    1    1    0    0    0 -0.43994894364E+02 -0.32100514866E+02 -0.30582501706E+02  0.62460252924E+02  0.00000000000E+00 0.  1.
</event>
<event>
 4    1  0.9897231E-003  0.9118800E+02  0.7818608E-02  0.1130116E+00
         25   -1    0    0    0    0  0.00000000000E+00  0.00000000000E+00  0.99999998245E-14  0.12500000000E+03  0.12500000000E+03 0.  0.
        -13    1    1    0    0    0  0.34466736324E+02  0.10817347457E+02 -0.43904629326E+00  0.36127203664E+02  0.10566000000E+00 0.  1.
         13    1    1    0    0    0  0.25833026823E+02  0.48263737341E+01  0.34409928445E+01  0.26504542140E+02  0.10566000000E+00 0. -1.
         22    1    1    0    0    0 -0.60299763148E+02 -0.15643721191E+02 -0.30019465512E+01  0.62368254196E+02  0.00000000000E+00 0. -1.
</event>
<event>
 4    1  0.9897231E-003  0.9118800E+02  0.7818608E-02  0.1130116E+00
         25   -1    0    0    0    0  0.00000000000E+00  0.00000000000E+00  0.99999998245E-14  0.12500000000E+03  0.12500000000E+03 0.  0.
        -13    1    1    0    0    0  0.43299717179E+02 -0.17926505336E+02 -0.10116371151E+02  0.47943479542E+02  0.10566000000E+00 0.  1.
         13    1    1    0    0    0  0.44364513598E+01 -0.85874059113E+01  0.19393375630E+02  0.21668867606E+02  0.10566000000E+00 0. -1.
         22    1    1    0    0    0 -0.47736168539E+02  0.26513911247E+02 -0.92770044784E+01  0.55387652852E+02  0.00000000000E+00 0.  1.
</event>
<event>
 4    1  0.9897231E-003  0.9118800E+02  0.7818608E-02  0.1130116E+00
         25   -1    0    0    0    0  0.00000000000E+00  0.00000000000E+00  0.99999998245E-14  0.12500000000E+03  0.12500000000E+03 0.  0.
        -13    1    1    0    0    0 -0.15614292828E+02 -0.12440813894E+02 -0.12692396417E+02  0.23657727738E+02  0.10566000000E+00 0.  1.
         13    1    1    0    0    0 -0.30429013402E+02  0.71673836438E+01 -0.26240337708E+02  0.40814981709E+02  0.10566000000E+00 0. -1.
         22    1    1    0    0    0  0.46043306230E+02  0.52734302506E+01  0.38932734125E+02  0.60527290552E+02  0.00000000000E+00 0.  1.
</event>
<event>
 4    1  0.9897231E-003  0.9118800E+02  0.7818608E-02  0.1130116E+00
         25   -1    0    0    0    0  0.00000000000E+00  0.00000000000E+00  0.99999998245E-14  0.12500000000E+03  0.12500000000E+03 0.  0.
        -13    1    1    0    0    0 -0.21082780987E+02 -0.16061009841E+02  0.93845931245E+01  0.28116213177E+02  0.10566000000E+00 0.  1.
         13    1    1    0    0    0 -0.23901989055E+02  0.91099564605E+00 -0.35423778363E+02  0.42743306276E+02  0.10566000000E+00 0. -1.
         22    1    1    0    0    0  0.44984770043E+02  0.15150014195E+02  0.26039185239E+02  0.54140480546E+02  0.00000000000E+00 0. -1.
</event>
<event>
 4    1  0.9897231E-003  0.9118800E+02  0.7818608E-02  0.1130116E+00
         25   -1    0    0    0    0  0.00000000000E+00  0.00000000000E+00  0.99999998245E-14  0.12500000000E+03  0.12500000000E+03 0.  0.
        -13    1    1    0    0    0 -0.10878314901E+02  0.27790406222E+02  0.87289551227E+01  0.31094215453E+02  0.10566000000E+00 0. -1.
         13    1    1    0    0    0 -0.19653268814E+02  0.21104612414E+02 -0.20097589042E+02  0.35150816343E+02  0.10566000000E+00 0.  1.
         22    1    1    0    0    0  0.30531583716E+02 -0.48895018636E+02  0.11368633919E+02  0.58754968205E+02  0.00000000000E+00 0. -1.
</event>
<event>
 4    1  0.9897231E-003  0.9118800E+02  0.7818608E-02  0.1130116E+00
         25   -1    0    0    0    0  0.00000000000E+00  0.00000000000E+00  0.99999998245E-14  0.12500000000E+03  0.12500000000E+03 0.  0.
        -13    1    1    0    0    0 -0.33982962250E+02 -0.33454137351E+02  0.26073819826E+02  0.54349574732E+02  0.10566000000E+00 0.  1.
         13    1    1    0    0    0 -0.78188421190E+01 -0.10655354482E+01 -0.12469470885E+02  0.14756982282E+02  0.10566000000E+00 0. -1.
         22    1    1    0    0    0  0.41801804369E+02  0.34519672799E+02 -0.13604348941E+02  0.55893442986E+02  0.00000000000E+00 0.  1.
</event>
<event>
 4    1  0.9897231E-003  0.9118800E+02  0.7818608E-02  0.1130116E+00
         25   -1    0    0    0    0  0.00000000000E+00  0.00000000000E+00  0.99999998245E-14  0.12500000000E+03  0.12500000000E+03 0.  0.
        -13    1    1    0    0    0 -0.25326574019E+02  0.22375191029E+02  0.30079171798E+02  0.45242151421E+02  0.10566000000E+00 0. -1.
         13    1    1    0    0    0 -0.16080259601E+02 -0.87136255362E+00  0.93929424668E+01  0.18643297824E+02  0.10566000000E+00 0.  1.
         22    1    1    0    0    0  0.41406833620E+02 -0.21503828475E+02 -0.39472114265E+02  0.61114550755E+02  0.00000000000E+00 0. -1.
</event>
<event>
 4    1  0.9897231E-003  0.9118800E+02  0.7818608E-02  0.1130116E+00
         25   -1    0    0    0    0  0.00000000000E+00  0.00000000000E+00  0.99999998245E-14  0.12500000000E+03  0.12500000000E+03 0.  0.
        -13    1    1    0    0    0  0.10518330351E+02  0.21649885369E+02 -0.59590112475E+01  0.24796648745E+02  0.10566000000E+00 0.  1.
         13    1    1    0    0    0  0.15847405262E+02  0.32833712446E+02 -0.96134769771E+01  0.37704416586E+02  0.10566000000E+00 0. -1.
         22    1    1    0    0    0 -0.26365735613E+02 -0.54483597815E+02  0.15572488225E+02  0.62498934669E+02  0.00000000000E+00 0. -1.
</event>
<event>
 4    1  0.9897231E-003  0.9118800E+02  0.7818608E-02  0.1130116E+00
         25   -1    0    0    0    0  0.00000000000E+00  0.00000000000E+00  0.99999998245E-14  0.12500000000E+03  0.12500000000E+03 0.  0.
        -13    1    1    0    0    0  0.50226778230E+02 -0.17906272408E+02  0.15079271770E+02  0.55414433536E+02  0.10566000000E+00 0. -1.
         13    1    1    0    0    0  0.63810016493E+01 -0.24358662325E+01  0.18869944426E+01  0.70867861837E+01  0.10566000000E+00 0.  1.
         22    1    1    0    0    0 -0.56607779880E+02  0.20342138640E+02 -0.16966266212E+02  0.62498780281E+02  0.00000000000E+00 0. -1.
</event>
<event>
 4    1  0.9897231E-003  0.9118800E+02  0.7818608E-02  0.1130116E+00
         25   -1    0    0    0    0  0.00000000000E+00  0.00000000000E+00  0.99999998245E-14  0.12500000000E+03  0.12500000000E+03 0.  0.
        -13    1    1    0    0    0 -0.41359662630E+01  0.11225387593E+02  0.18420812927E+01  0.12104543406E+02  0.10566000000E+00 0.  1.
         13    1    1    0    0    0 -0.16846004414E+02  0.46792397716E+02  0.81510526441E+01  0.50396102746E+02  0.10566000000E+00 0. -1.
         22    1    1    0    0    0  0.20981970677E+02 -0.58017785309E+02 -0.99931339367E+01  0.62499353849E+02  0.00000000000E+00 0. -1.
</event>
<event>
 4    1  0.9897231E-003  0.9118800E+02  0.7818608E-02  0.1130116E+00
         25   -1    0    0    0    0  0.00000000000E+00  0.00000000000E+00  0.99999998245E-14  0.12500000000E+03  0.12500000000E+03 0.  0.
        -13    1    1    0    0    0  0.50040750097E+01 -0.37803076399E+02 -0.27178394987E+02  0.46827232141E+02  0.10566000000E+00 0. -1.
         13    1    1    0    0    0  0.19784667548E+01 -0.12620271648E+02 -0.90819247337E+01  0.15674122242E+02  0.10566000000E+00 0.  1.
         22    1    1    0    0    0 -0.69825417645E+01  0.50423348046E+02  0.36260319721E+02  0.62498645617E+02  0.00000000000E+00 0.  1.
</event>
<event>
 4    1  0.9897231E-003  0.9118800E+02  0.7818608E-02  0.1130116E+00
         25   -1    0    0    0    0  0.00000000000E+00  0.00000000000E+00  0.99999998245E-14  0.12500000000E+03  0.12500000000E+03 0.  0.
        -13    1    1    0    0    0  0.80409100824E+01  0.51440355328E+02 -0.24749991847E+02  0.57648414130E+02  0.10566000000E+00 0.  1.
         13    1    1    0    0    0  0.60227530318E+01  0.24510991925E+01  0.51904235195E+01  0.83206431050E+01  0.10566000000E+00 0. -1.
         22    1    1    0    0    0 -0.14063663114E+02 -0.53891454521E+02  0.19559568327E+02  0.59030942765E+02  0.00000000000E+00 0.  1.
</event>
<event>
 4    1  0.9897231E-003  0.9118800E+02  0.7818608E-02  0.1130116E+00
         25   -1    0    0    0    0  0.00000000000E+00  0.00000000000E+00  0.99999998245E-14  0.12500000000E+03  0.12500000000E+03 0.  0.
        -13    1    1    0    0    0  0.33532888570E+01 -0.52343761196E+02  0.13503251668E+02  0.54161451716E+02  0.10566000000E+00 0. -1.
         13    1    1    0    0    0 -0.13012072143E+01 -0.81825797154E+01  0.15613516587E+01  0.84318879292E+01  0.10566000000E+00 0.  1.
         22    1    1    0    0    0 -0.20520816428E+01  0.60526340912E+02 -0.15064603327E+02  0.62406660355E+02  0.00000000000E+00 0. -1.
</event>
<event>
 4    1  0.9897231E-003  0.9118800E+02  0.7818608E-02  0.1130116E+00
         25   -1    0    0    0    0  0.00000000000E+00  0.00000000000E+00  0.99999998245E-14  0.12500000000E+03  0.12500000000E+03 0.  0.
        -13    1    1    0    0    0  0.17262342567E+02 -0.20711112081E+02  0.18125989627E+01  0.27022866495E+02  0.10566000000E+00 0.  1.
         13    1    1    0    0    0  0.22661032372E+02 -0.27190740109E+02  0.24021077923E+01  0.35477317003E+02  0.10566000000E+00 0.  1.
         22    1    1    0    0    0 -0.39923374939E+02  0.47901852190E+02 -0.42147067550E+01  0.62499816502E+02  0.00000000000E+00 0.  1.
</event>
<event>
 4    1  0.9897231E-003  0.9118800E+02  0.7818608E-02  0.1130116E+00
         25   -1    0    0    0    0  0.00000000000E+00  0.00000000000E+00  0.99999998245E-14  0.12500000000E+03  0.12500000000E+03 0.  0.
        -13    1    1    0    0    0 -0.45454549983E+02  0.32672942252E+02 -0.21611801664E+02  0.60005986408E+02  0.10566000000E+00 0.  1.
         13    1    1    0    0    0 -0.20011521366E+01  0.13090787909E+01 -0.72030271767E+00  0.24996594158E+01  0.10566000000E+00 0. -1.
         22    1    1    0    0    0  0.47455702120E+02 -0.33982021043E+02  0.22332104382E+02  0.62494354176E+02  0.00000000000E+00 0.  1.
</event>
<event>
 4    1  0.9897231E-003  0.9118800E+02  0.7818608E-02  0.1130116E+00
         25   -1    0    0    0    0  0.00000000000E+00  0.00000000000E+00  0.99999998245E-14  0.12500000000E+03  0.12500000000E+03 0.  0.
        -13    1    1    0    0    0  0.33872282391E+02  0.17386693145E+02  0.10852963510E+02  0.39590738739E+02  0.10566000000E+00 0.  1.
         13    1    1    0    0    0  0.30396366028E+01 -0.12849924144E+02  0.28410195136E+02  0.31329064667E+02  0.10566000000E+00 0. -1.
         22    1    1    0    0    0 -0.36911918994E+02 -0.45367690012E+01 -0.39263158646E+02  0.54080196594E+02  0.00000000000E+00 0.  1.
</event>
<event>
 4    1  0.9897231E-003  0.9118800E+02  0.7818608E-02  0.1130116E+00
         25   -1    0    0    0    0  0.00000000000E+00  0.00000000000E+00  0.99999998245E-14  0.12500000000E+03  0.12500000000E+03 0.  0.
        -13    1    1    0    0    0 -0.13237307190E+02 -0.25664322158E+02  0.48194326916E+02  0.56183521111E+02  0.10566000000E+00 0. -1.
         13    1    1    0    0    0 -0.99790526812E+00 -0.55018316600E+01  0.36462070255E+01  0.66762232024E+01  0.10566000000E+00 0.  1.
         22    1    1    0    0    0  0.14235212458E+02  0.31166153818E+02 -0.51840533941E+02  0.62140255687E+02  0.00000000000E+00 0. -1.
</event>
<event>
 4    1  0.9897231E-003  0.9118800E+02  0.7818608E-02  0.1130116E+00
         25   -1    0    0    0    0  0.00000000000E+00  0.00000000000E+00  0.99999998245E-14  0.12500000000E+03  0.12500000000E+03 0.  0.
        -13    1    1    0    0    0 -0.54755487015E+01 -0.56741068841E+01 -0.10904351904E+02  0.13457086497E+02  0.10566000000E+00 0. -1.
         13    1    1    0    0    0 -0.20673581524E+02 -0.21203964419E+02 -0.39094081586E+02  0.49044504883E+02  0.10566000000E+00 0.  1.
         22    1    1    0    0    0  0.26149130225E+02  0.26878071303E+02  0.49998433490E+02  0.62498408620E+02  0.00000000000E+00 0.  1.
</event>
<event>
 4    1  0.9897231E-003  0.9118800E+02  0.7818608E-02  0.1130116E+00
         25   -1    0    0    0    0  0.00000000000E+00  0.00000000000E+00  0.99999998245E-14  0.12500000000E+03  0.12500000000E+03 0.  0.
        -13    1    1    0    0    0  0.25204981852E+02 -0.27337320440E+02  0.34655882734E+02  0.50829731173E+02  0.10566000000E+00 0.  1.
         13    1    1    0    0    0  0.54672203038E+01 -0.64409646571E+01  0.80542397525E+01  0.11672980150E+02  0.10566000000E+00 0. -1.
         22    1    1    0    0    0 -0.30672202156E+02  0.33778285097E+02 -0.42710122486E+02  0.62497288677E+02  0.00000000000E+00 0.  1.
</event>
<event>
 4    1  0.9897231E-003  0.9118800E+02  0.7818608E-02  0.1130116E+00
         25   -1    0    0    0    0  0.00000000000E+00  0.00000000000E+00  0.99999998245E-14  0.12500000000E+03  0.12500000000E+03 0.  0.
        -13    1    1    0    0    0 -0.20604661687E+02  0.10823245419E+02 -0.11862763230E+01  0.23304787924E+02  0.10566000000E+00 0.  1.
         13    1    1    0    0    0 -0.34896137895E+02  0.17522712221E+02  0.43769479214E+01  0.39293189241E+02  0.10566000000E+00 0. -1.
         22    1    1    0    0    0  0.55500799582E+02 -0.28345957640E+02 -0.31906715984E+01  0.62402022836E+02  0.00000000000E+00 0. -1.
</event>
<event>
 4    1  0.9897231E-003  0.9118800E+02  0.7818608E-02  0.1130116E+00
         25   -1    0    0    0    0  0.00000000000E+00  0.00000000000E+00  0.99999998245E-14  0.12500000000E+03  0.12500000000E+03 0.  0.
        -13    1    1    0    0    0 -0.19871884232E+02 -0.29960587774E+01  0.12545243182E+02  0.23690978065E+02  0.10566000000E+00 0. -1.
         13    1    1    0    0    0 -0.32157632074E+02 -0.22829645438E+01  0.21642091237E+02  0.38829325321E+02  0.10566000000E+00 0.  1.
         22    1    1    0    0    0  0.52029516306E+02  0.52790233212E+01 -0.34187334420E+02  0.62479696614E+02  0.00000000000E+00 0.  1.
</event>
<event>
 4    1  0.9897231E-003  0.9118800E+02  0.7818608E-02  0.1130116E+00
         25   -1    0    0    0    0  0.00000000000E+00  0.00000000000E+00  0.99999998245E-14  0.12500000000E+03  0.12500000000E+03 0.  0.
        -13    1    1    0    0    0  0.29668628607E+02  0.20667706099E+02  0.19245015019E+02  0.40960509834E+02  0.10566000000E+00 0.  1.
         13    1    1    0    0    0  0.15534103865E+02  0.10872913739E+02  0.10218758996E+02  0.21539796552E+02  0.10566000000E+00 0.  1.
         22    1    1    0    0    0 -0.45202732471E+02 -0.31540619837E+02 -0.29463774015E+02  0.62499693614E+02  0.00000000000E+00 0.  1.
</event>
<event>
 4    1  0.9897231E-003  0.9118800E+02  0.7818608E-02  0.1130116E+00
         25   -1    0    0    0    0  0.00000000000E+00  0.00000000000E+00  0.99999998245E-14  0.12500000000E+03  0.12500000000E+03 0.  0.
        -13    1    1    0    0    0 -0.10532651315E+02  0.26165778798E+02 -0.68620409353E+01  0.29029011242E+02  0.10566000000E+00 0. -1.
         13    1    1    0    0    0 -0.11127521628E+02  0.30488341399E+02 -0.81993983042E+01  0.33475393880E+02  0.10566000000E+00 0.  1.
         22    1    1    0    0    0  0.21660172944E+02 -0.56654120197E+02  0.15061439240E+02  0.62495594878E+02  0.00000000000E+00 0.  1.
</event>
<event>
 4    1  0.9897231E-003  0.9118800E+02  0.7818608E-02  0.1130116E+00
         25   -1    0    0    0    0  0.00000000000E+00  0.00000000000E+00  0.99999998245E-14  0.12500000000E+03  0.12500000000E+03 0.  0.
        -13    1    1    0    0    0  0.46817072083E+02  0.31729666355E+02 -0.79098933681E+01  0.57106808198E+02  0.10566000000E+00 0. -1.
         13    1    1    0    0    0 -0.73501432192E+00 -0.18749320857E+02 -0.24102636802E+01  0.18918187379E+02  0.10566000000E+00 0.  1.
         22    1    1    0    0    0 -0.46082057761E+02 -0.12980345498E+02  0.10320157048E+02  0.48975004423E+02  0.00000000000E+00 0. -1.
</event>
<event>
 4    1  0.9897231E-003  0.9118800E+02  0.7818608E-02  0.1130116E+00
         25   -1    0    0    0    0  0.00000000000E+00  0.00000000000E+00  0.99999998245E-14  0.12500000000E+03  0.12500000000E+03 0.  0.
        -13    1    1    0    0    0  0.34616836054E+02  0.92901817405E+01  0.12905639116E+02  0.38094612483E+02  0.10566000000E+00 0. -1.
         13    1    1    0    0    0  0.23246355700E+02  0.34876611874E+01  0.67780389465E+01  0.24464460139E+02  0.10566000000E+00 0.  1.
         22    1    1    0    0    0 -0.57863191754E+02 -0.12777842928E+02 -0.19683678062E+02  0.62440927379E+02  0.00000000000E+00 0. -1.
</event>
<event>
 4    1  0.9897231E-003  0.9118800E+02  0.7818608E-02  0.1130116E+00
         25   -1    0    0    0    0  0.00000000000E+00  0.00000000000E+00  0.99999998245E-14  0.12500000000E+03  0.12500000000E+03 0.  0.
        -13    1    1    0    0    0 -0.11309726115E+02  0.93563249197E+01 -0.15722074176E+02  0.21509195737E+02  0.10566000000E+00 0. -1.
         13    1    1    0    0    0 -0.11239070540E+02 -0.39273300052E+02  0.41330749017E+02  0.58111537425E+02  0.10566000000E+00 0.  1.
         22    1    1    0    0    0  0.22548796655E+02  0.29916975132E+02 -0.25608674841E+02  0.45379266838E+02  0.00000000000E+00 0.  1.
</event>
<event>
 4    1  0.9897231E-003  0.9118800E+02  0.7818608E-02  0.1130116E+00
         25   -1    0    0    0    0  0.00000000000E+00  0.00000000000E+00  0.99999998245E-14  0.12500000000E+03  0.12500000000E+03 0.  0.
        -13    1    1    0    0    0 -0.20806526747E+02 -0.32982597123E+02  0.13887328376E+02  0.41396042344E+02  0.10566000000E+00 0.  1.
         13    1    1    0    0    0 -0.10613563536E+02 -0.16789833338E+02  0.71294523856E+01  0.21104181809E+02  0.10566000000E+00 0.  1.
         22    1    1    0    0    0  0.31420090283E+02  0.49772430461E+02 -0.21016780761E+02  0.62499775848E+02  0.00000000000E+00 0.  1.
</event>
<event>
 4    1  0.9897231E-003  0.9118800E+02  0.7818608E-02  0.1130116E+00
         25   -1    0    0    0    0  0.00000000000E+00  0.00000000000E+00  0.99999998245E-14  0.12500000000E+03  0.12500000000E+03 0.  0.
        -13    1    1    0    0    0  0.39232424584E+02  0.70329755616E+01  0.18656058695E+02  0.44008017157E+02  0.10566000000E+00 0. -1.
         13    1    1    0    0    0  0.16415642143E+02  0.26314795365E+01  0.81002971571E+01  0.18493890061E+02  0.10566000000E+00 0.  1.
         22    1    1    0    0    0 -0.55648066728E+02 -0.96644550981E+01 -0.26756355852E+02  0.62498092782E+02  0.00000000000E+00 0. -1.
</event>
<event>
 4    1  0.9897231E-003  0.9118800E+02  0.7818608E-02  0.1130116E+00
         25   -1    0    0    0    0  0.00000000000E+00  0.00000000000E+00  0.99999998245E-14  0.12500000000E+03  0.12500000000E+03 0.  0.
        -13    1    1    0    0    0  0.85119404729E+01 -0.38927608947E+02  0.31136147063E+02  0.50569582626E+02  0.10566000000E+00 0. -1.
         13    1    1    0    0    0  0.20125404025E+01 -0.93473170708E+01  0.71369727126E+01  0.11931898375E+02  0.10566000000E+00 0.  1.
         22    1    1    0    0    0 -0.10524480875E+02  0.48274926018E+02 -0.38273119776E+02  0.62498518999E+02  0.00000000000E+00 0. -1.
</event>
<event>
 4    1  0.9897231E-003  0.9118800E+02  0.7818608E-02  0.1130116E+00
         25   -1    0    0    0    0  0.00000000000E+00  0.00000000000E+00  0.99999998245E-14  0.12500000000E+03  0.12500000000E+03 0.  0.
        -13    1    1    0    0    0 -0.20102268355E+01 -0.52472889122E+02 -0.37558873688E+01  0.52645635704E+02  0.10566000000E+00 0.  1.
         13    1    1    0    0    0  0.14539693566E+02 -0.20439286347E+01  0.71138097324E+01  0.16315568828E+02  0.10566000000E+00 0. -1.
         22    1    1    0    0    0 -0.12529466730E+02  0.54516817757E+02 -0.33579223635E+01  0.56038795467E+02  0.00000000000E+00 0.  1.
</event>
<event>
 4    1  0.9897231E-003  0.9118800E+02  0.7818608E-02  0.1130116E+00
         25   -1    0    0    0    0  0.00000000000E+00  0.00000000000E+00  0.99999998245E-14  0.12500000000E+03  0.12500000000E+03 0.  0.
        -13    1    1    0    0    0  0.53188882806E+01  0.18090315694E+02  0.20388518778E+01  0.18966237778E+02  0.10566000000E+00 0.  1.
         13    1    1    0    0    0  0.12650093970E+02  0.41444110143E+02  0.41978933179E+01  0.43534728841E+02  0.10566000000E+00 0. -1.
         22    1    1    0    0    0 -0.17968982251E+02 -0.59534425837E+02 -0.62367451957E+01  0.62499033380E+02  0.00000000000E+00 0. -1.
</event>
<event>
 4    1  0.9897231E-003  0.9118800E+02  0.7818608E-02  0.1130116E+00
         25   -1    0    0    0    0  0.00000000000E+00  0.00000000000E+00  0.99999998245E-14  0.12500000000E+03  0.12500000000E+03 0.  0.
        -13    1    1    0    0    0  0.52354962228E+01 -0.26424295383E+02  0.16686420401E+02  0.31687562182E+02  0.10566000000E+00 0. -1.
         13    1    1    0    0    0  0.50624594071E+01 -0.25591353754E+02  0.16397276120E+02  0.30812784853E+02  0.10566000000E+00 0.  1.
         22    1    1    0    0    0 -0.10297955630E+02  0.52015649137E+02 -0.33083696521E+02  0.62499652965E+02  0.00000000000E+00 0.  1.
</event>
<event>
 4    1  0.9897231E-003  0.9118800E+02  0.7818608E-02  0.1130116E+00
         25   -1    0    0    0    0  0.00000000000E+00  0.00000000000E+00  0.99999998245E-14  0.12500000000E+03  0.12500000000E+03 0.  0.
        -13    1    1    0    0    0 -0.65457486251E+01 -0.37341805009E+02 -0.15906983376E+02  0.41113264411E+02  0.10566000000E+00 0. -1.
         13    1    1    0    0    0 -0.86295163663E+01 -0.18675698619E+02 -0.66488973128E+01  0.21621037698E+02  0.10566000000E+00 0.  1.
         22    1    1    0    0    0  0.15175264991E+02  0.56017503628E+02  0.22555880689E+02  0.62265697891E+02  0.00000000000E+00 0. -1.
</event>
<event>
 4    1  0.9897231E-003  0.9118800E+02  0.7818608E-02  0.1130116E+00
         25   -1    0    0    0    0  0.00000000000E+00  0.00000000000E+00  0.99999998245E-14  0.12500000000E+03  0.12500000000E+03 0.  0.
        -13    1    1    0    0    0  0.23349363138E+02  0.22111069023E+02  0.30802388815E+01  0.32304661705E+02  0.10566000000E+00 0.  1.
         13    1    1    0    0    0  0.21226964779E+02  0.21242599997E+02  0.31823995019E+01  0.30198856253E+02  0.10566000000E+00 0. -1.
         22    1    1    0    0    0 -0.44576327917E+02 -0.43353669020E+02 -0.62626383834E+01  0.62496482042E+02  0.00000000000E+00 0. -1.
</event>
<event>
 4    1  0.9897231E-003  0.9118800E+02  0.7818608E-02  0.1130116E+00
         25   -1    0    0    0    0  0.00000000000E+00  0.00000000000E+00  0.99999998245E-14  0.12500000000E+03  0.12500000000E+03 0.  0.
        -13    1    1    0    0    0  0.17568121646E+02  0.51310020717E+02 -0.18331628897E+02  0.57248728424E+02  0.10566000000E+00 0.  1.
         13    1    1    0    0    0  0.59290711723E+00  0.43806768770E+01 -0.30742149538E+01  0.53855204362E+01  0.10566000000E+00 0. -1.
         22    1    1    0    0    0 -0.18161028763E+02 -0.55690697594E+02  0.21405843851E+02  0.62365751140E+02  0.00000000000E+00 0.  1.
</event>
<event>
 4    1  0.9897231E-003  0.9118800E+02  0.7818608E-02  0.1130116E+00
         25   -1    0    0    0    0  0.00000000000E+00  0.00000000000E+00  0.99999998245E-14  0.12500000000E+03  0.12500000000E+03 0.  0.
        -13    1    1    0    0    0  0.83333182874E+01  0.21479869645E+02 -0.60138584467E+00  0.23047816006E+02  0.10566000000E+00 0.  1.
         13    1    1    0    0    0  0.54065837214E+01  0.33166496468E+02  0.23629937904E+02  0.41080807744E+02  0.10566000000E+00 0. -1.
         22    1    1    0    0    0 -0.13739902009E+02 -0.54646366114E+02 -0.23028552060E+02  0.60871376250E+02  0.00000000000E+00 0. -1.
</event>
<event>
 4    1  0.9897231E-003  0.9118800E+02  0.7818608E-02  0.1130116E+00
         25   -1    0    0    0    0  0.00000000000E+00  0.00000000000E+00  0.99999998245E-14  0.12500000000E+03  0.12500000000E+03 0.  0.
        -13    1    1    0    0    0  0.10741201577E+02 -0.24525658324E+01 -0.58109942584E+02  0.59145287907E+02  0.10566000000E+00 0. -1.
         13    1    1    0    0    0  0.13827833329E+01 -0.15025469403E+00 -0.31010362845E+01  0.34003317914E+01  0.10566000000E+00 0.  1.
         22    1    1    0    0    0 -0.12123984909E+02  0.26028205265E+01  0.61210978869E+02  0.62454380301E+02  0.00000000000E+00 0. -1.
</event>
<event>
 4    1  0.9897231E-003  0.9118800E+02  0.7818608E-02  0.1130116E+00
         25   -1    0    0    0    0  0.00000000000E+00  0.00000000000E+00  0.99999998245E-14  0.12500000000E+03  0.12500000000E+03 0.  0.
        -13    1    1    0    0    0 -0.13485949063E+02 -0.28730484315E+02 -0.47560750103E+02  0.57178209709E+02  0.10566000000E+00 0. -1.
         13    1    1    0    0    0 -0.17153771303E+01 -0.25038516393E+01 -0.43835641605E+01  0.53327844993E+01  0.10566000000E+00 0.  1.
         22    1    1    0    0    0  0.15201326193E+02  0.31234335954E+02  0.51944314264E+02  0.62489005792E+02  0.00000000000E+00 0. -1.
</event>
<event>
 4    1  0.9897231E-003  0.9118800E+02  0.7818608E-02  0.1130116E+00
         25   -1    0    0    0    0  0.00000000000E+00  0.00000000000E+00  0.99999998245E-14  0.12500000000E+03  0.12500000000E+03 0.  0.
        -13    1    1    0    0    0  0.18715043734E+02 -0.14409932858E+02  0.11042803052E+00  0.23620380719E+02  0.10566000000E+00 0.  1.
         13    1    1    0    0    0  0.29630430548E+02 -0.25184536360E+02  0.27084299040E+00  0.38888401948E+02  0.10566000000E+00 0. -1.
         22    1    1    0    0    0 -0.48345474281E+02  0.39594469218E+02 -0.38127102092E+00  0.62491217333E+02  0.00000000000E+00 0.  1.
</event>
<event>
 4    1  0.9897231E-003  0.9118800E+02  0.7818608E-02  0.1130116E+00
         25   -1    0    0    0    0  0.00000000000E+00  0.00000000000E+00  0.99999998245E-14  0.12500000000E+03  0.12500000000E+03 0.  0.
        -13    1    1    0    0    0  0.19908352361E+02 -0.34551982684E+02  0.14872517356E+02  0.42560368157E+02  0.10566000000E+00 0. -1.
         13    1    1    0    0    0  0.99576873939E+01 -0.17068035138E+02 -0.11142808481E+02  0.22685826116E+02  0.10566000000E+00 0.  1.
         22    1    1    0    0    0 -0.29866039755E+02  0.51620017822E+02 -0.37297088746E+01  0.59753805727E+02  0.00000000000E+00 0. -1.
</event>
<event>
 4    1  0.9897231E-003  0.9118800E+02  0.7818608E-02  0.1130116E+00
         25   -1    0    0    0    0  0.00000000000E+00  0.00000000000E+00  0.99999998245E-14  0.12500000000E+03  0.12500000000E+03 0.  0.
        -13    1    1    0    0    0  0.58446981663E+01  0.19672823061E+02  0.34441938831E+01  0.20809951931E+02  0.10566000000E+00 0. -1.
         13    1    1    0    0    0 -0.48786054364E+02  0.89414950485E+01  0.10583962210E+02  0.50715489293E+02  0.10566000000E+00 0.  1.
         22    1    1    0    0    0  0.42941356198E+02 -0.28614318109E+02 -0.14028156093E+02  0.53474558776E+02  0.00000000000E+00 0.  1.
</event>
<event>
 4    1  0.9897231E-003  0.9118800E+02  0.7818608E-02  0.1130116E+00
         25   -1    0    0    0    0  0.00000000000E+00  0.00000000000E+00  0.99999998245E-14  0.12500000000E+03  0.12500000000E+03 0.  0.
        -13    1    1    0    0    0 -0.11511976651E+01  0.14282266412E+02 -0.13268668542E+02  0.19528879098E+02  0.10566000000E+00 0.  1.
         13    1    1    0    0    0 -0.41243952709E+01  0.31064817951E+02 -0.29409412875E+02  0.42976252517E+02  0.10566000000E+00 0. -1.
         22    1    1    0    0    0  0.52755929361E+01 -0.45347084363E+02  0.42678081417E+02  0.62494868385E+02  0.00000000000E+00 0. -1.
</event>
<event>
 4    1  0.9897231E-003  0.9118800E+02  0.7818608E-02  0.1130116E+00
         25   -1    0    0    0    0  0.00000000000E+00  0.00000000000E+00  0.99999998245E-14  0.12500000000E+03  0.12500000000E+03 0.  0.
        -13    1    1    0    0    0 -0.26441415246E+01  0.57042393132E+00  0.12625022797E+02  0.12911980194E+02  0.10566000000E+00 0. -1.
         13    1    1    0    0    0 -0.23040624880E+01  0.13438333011E+02  0.47881069791E+02  0.49784591054E+02  0.10566000000E+00 0.  1.
         22    1    1    0    0    0  0.49482040126E+01 -0.14008756942E+02 -0.60506092588E+02  0.62303428752E+02  0.00000000000E+00 0.  1.
</event>
<event>
 4    1  0.9897231E-003  0.9118800E+02  0.7818608E-02  0.1130116E+00
         25   -1    0    0    0    0  0.00000000000E+00  0.00000000000E+00  0.99999998245E-14  0.12500000000E+03  0.12500000000E+03 0.  0.
        -13    1    1    0    0    0 -0.31381041299E+01  0.13263998128E+02 -0.10925981540E+01  0.13674292619E+02  0.10566000000E+00 0.  1.
         13    1    1    0    0    0 -0.36629335473E+02  0.21623794271E+02  0.29031972877E+02  0.51499158333E+02  0.10566000000E+00 0. -1.
         22    1    1    0    0    0  0.39767439602E+02 -0.34887792399E+02 -0.27939374723E+02  0.59826549048E+02  0.00000000000E+00 0. -1.
</event>
<event>
 4    1  0.9897231E-003  0.9118800E+02  0.7818608E-02  0.1130116E+00
         25   -1    0    0    0    0  0.00000000000E+00  0.00000000000E+00  0.99999998245E-14  0.12500000000E+03  0.12500000000E+03 0.  0.
        -13    1    1    0    0    0  0.13528169115E+02  0.26894907424E+02 -0.36242141403E+02  0.47115298815E+02  0.10566000000E+00 0.  1.
         13    1    1    0    0    0  0.41849958438E+01  0.90448208836E+01 -0.11722346055E+02  0.15386602487E+02  0.10566000000E+00 0. -1.
         22    1    1    0    0    0 -0.17713164959E+02 -0.35939728308E+02  0.47964487458E+02  0.62498098697E+02  0.00000000000E+00 0.  1.
</event>
<event>
 4    1  0.9897231E-003  0.9118800E+02  0.7818608E-02  0.1130116E+00
         25   -1    0    0    0    0  0.00000000000E+00  0.00000000000E+00  0.99999998245E-14  0.12500000000E+03  0.12500000000E+03 0.  0.
        -13    1    1    0    0    0  0.12755659538E+01  0.64365654980E+00  0.16582785310E+01  0.21914410734E+01  0.10566000000E+00 0.  1.
         13    1    1    0    0    0 -0.21579154248E+02  0.18821445182E+02  0.53619534827E+02  0.60786284439E+02  0.10566000000E+00 0. -1.
         22    1    1    0    0    0  0.20303588294E+02 -0.19465101732E+02 -0.55277813358E+02  0.62022274488E+02  0.00000000000E+00 0. -1.
</event>
<event>
 4    1  0.9897231E-003  0.9118800E+02  0.7818608E-02  0.1130116E+00
         25   -1    0    0    0    0  0.00000000000E+00  0.00000000000E+00  0.99999998245E-14  0.12500000000E+03  0.12500000000E+03 0.  0.
        -13    1    1    0    0    0 -0.52032744012E+01 -0.68831568699E+01 -0.37427984595E+01  0.94059352185E+01  0.10566000000E+00 0.  1.
         13    1    1    0    0    0 -0.26658963870E+02 -0.37012583121E+02 -0.27239585960E+02  0.53128503379E+02  0.10566000000E+00 0. -1.
         22    1    1    0    0    0  0.31862238271E+02  0.43895739991E+02  0.30982384420E+02  0.62465561403E+02  0.00000000000E+00 0. -1.
</event>
<event>
 4    1  0.9897231E-003  0.9118800E+02  0.7818608E-02  0.1130116E+00
         25   -1    0    0    0    0  0.00000000000E+00  0.00000000000E+00  0.99999998245E-14  0.12500000000E+03  0.12500000000E+03 0.  0.
        -13    1    1    0    0    0 -0.14744609231E+02 -0.78475153876E+01  0.24696310879E+02  0.29814525557E+02  0.10566000000E+00 0. -1.
         13    1    1    0    0    0  0.24759934642E+02 -0.33096740771E+02  0.76725758139E+01  0.42039602719E+02  0.10566000000E+00 0.  1.
         22    1    1    0    0    0 -0.10015325411E+02  0.40944256159E+02 -0.32368886693E+02  0.53145871723E+02  0.00000000000E+00 0. -1.
</event>
<event>
 4    1  0.9897231E-003  0.9118800E+02  0.7818608E-02  0.1130116E+00
         25   -1    0    0    0    0  0.00000000000E+00  0.00000000000E+00  0.99999998245E-14  0.12500000000E+03  0.12500000000E+03 0.  0.
        -13    1    1    0    0    0 -0.79266207111E+01 -0.12347198638E+02 -0.55654239272E+02  0.57555974000E+02  0.10566000000E+00 0.  1.
         13    1    1    0    0    0  0.21991556931E+01  0.49026941960E+01 -0.42227046890E+01  0.68348441875E+01  0.10566000000E+00 0. -1.
         22    1    1    0    0    0  0.57274650180E+01  0.74445044421E+01  0.59876943961E+02  0.60609181813E+02  0.00000000000E+00 0.  1.
</event>
<event>
 4    1  0.9897231E-003  0.9118800E+02  0.7818608E-02  0.1130116E+00
         25   -1    0    0    0    0  0.00000000000E+00  0.00000000000E+00  0.99999998245E-14  0.12500000000E+03  0.12500000000E+03 0.  0.
        -13    1    1    0    0    0  0.34840789247E+02  0.99980991241E+01 -0.19893304409E+02  0.41347276885E+02  0.10566000000E+00 0. -1.
         13    1    1    0    0    0  0.17910344362E+02  0.52145679608E+01 -0.99740765642E+01  0.21153380853E+02  0.10566000000E+00 0. -1.
         22    1    1    0    0    0 -0.52751133609E+02 -0.15212667085E+02  0.29867380973E+02  0.62499342261E+02  0.00000000000E+00 0. -1.
</event>
<event>
 4    1  0.9897231E-003  0.9118800E+02  0.7818608E-02  0.1130116E+00
         25   -1    0    0    0    0  0.00000000000E+00  0.00000000000E+00  0.99999998245E-14  0.12500000000E+03  0.12500000000E+03 0.  0.
        -13    1    1    0    0    0 -0.19402173426E+02 -0.22267543256E+02  0.26687172949E+02  0.39805830984E+02  0.10566000000E+00 0. -1.
         13    1    1    0    0    0 -0.11497075989E+02 -0.12222308895E+02  0.15283600052E+02  0.22697294676E+02  0.10566000000E+00 0.  1.
         22    1    1    0    0    0  0.30899249415E+02  0.34489852151E+02 -0.41970773002E+02  0.62496874339E+02  0.00000000000E+00 0. -1.
</event>
<event>
 4    1  0.9897231E-003  0.9118800E+02  0.7818608E-02  0.1130116E+00
         25   -1    0    0    0    0  0.00000000000E+00  0.00000000000E+00  0.99999998245E-14  0.12500000000E+03  0.12500000000E+03 0.  0.
        -13    1    1    0    0    0 -0.52723782137E+02 -0.18097556889E+02  0.21924427038E+02  0.59900003616E+02  0.10566000000E+00 0. -1.
         13    1    1    0    0    0 -0.18463395988E+01 -0.12195886741E+01  0.14749341253E+01  0.26613833166E+01  0.10566000000E+00 0.  1.
         22    1    1    0    0    0  0.54570121736E+02  0.19317145563E+02 -0.23399361163E+02  0.62438613068E+02  0.00000000000E+00 0. -1.
</event>
<event>
 4    1  0.9897231E-003  0.9118800E+02  0.7818608E-02  0.1130116E+00
         25   -1    0    0    0    0  0.00000000000E+00  0.00000000000E+00  0.99999998245E-14  0.12500000000E+03  0.12500000000E+03 0.  0.
        -13    1    1    0    0    0  0.45523637141E+02 -0.14959535741E+02  0.15331454476E+02  0.50311568337E+02  0.10566000000E+00 0.  1.
         13    1    1    0    0    0  0.10625701910E+02 -0.44704220621E+01  0.40064405644E+01  0.12204627996E+02  0.10566000000E+00 0. -1.
         22    1    1    0    0    0 -0.56149339051E+02  0.19429957803E+02 -0.19337895040E+02  0.62483803667E+02  0.00000000000E+00 0.  1.
</event>
<event>
 4    1  0.9897231E-003  0.9118800E+02  0.7818608E-02  0.1130116E+00
         25   -1    0    0    0    0  0.00000000000E+00  0.00000000000E+00  0.99999998245E-14  0.12500000000E+03  0.12500000000E+03 0.  0.
        -13    1    1    0    0    0  0.75379476024E+01 -0.11632507132E+01  0.16085303415E+02  0.17802301993E+02  0.10566000000E+00 0.  1.
         13    1    1    0    0    0  0.18946198385E+02 -0.28315425334E+01  0.40384622855E+02  0.44697930529E+02  0.10566000000E+00 0.  1.
         22    1    1    0    0    0 -0.26484145987E+02  0.39947932466E+01 -0.56469926270E+02  0.62499767478E+02  0.00000000000E+00 0.  1.
</event>
<event>
 4    1  0.9897231E-003  0.9118800E+02  0.7818608E-02  0.1130116E+00
         25   -1    0    0    0    0  0.00000000000E+00  0.00000000000E+00  0.99999998245E-14  0.12500000000E+03  0.12500000000E+03 0.  0.
        -13    1    1    0    0    0 -0.59343393765E+01  0.52453973344E+02 -0.20138411542E+02  0.56499579528E+02  0.10566000000E+00 0. -1.
         13    1    1    0    0    0 -0.75879582367E+00  0.57994549591E+01 -0.14311810365E+01  0.60223659901E+01  0.10566000000E+00 0.  1.
         22    1    1    0    0    0  0.66931352002E+01 -0.58253428303E+02  0.21569592578E+02  0.62478054482E+02  0.00000000000E+00 0. -1.
</event>
<event>
 4    1  0.9897231E-003  0.9118800E+02  0.7818608E-02  0.1130116E+00
         25   -1    0    0    0    0  0.00000000000E+00  0.00000000000E+00  0.99999998245E-14  0.12500000000E+03  0.12500000000E+03 0.  0.
        -13    1    1    0    0    0  0.13520286827E+02  0.16015580693E+02  0.71699881017E+01  0.22152130241E+02  0.10566000000E+00 0.  1.
         13    1    1    0    0    0  0.24645892817E+02  0.28944083456E+02  0.13521173932E+02  0.40348646921E+02  0.10566000000E+00 0. -1.
         22    1    1    0    0    0 -0.38166179644E+02 -0.44959664149E+02 -0.20691162034E+02  0.62499222837E+02  0.00000000000E+00 0. -1.
</event>
<event>
 4    1  0.9897231E-003  0.9118800E+02  0.7818608E-02  0.1130116E+00
         25   -1    0    0    0    0  0.00000000000E+00  0.00000000000E+00  0.99999998245E-14  0.12500000000E+03  0.12500000000E+03 0.  0.
        -13    1    1    0    0    0 -0.11688721773E+02 -0.88442540304E+00  0.10965615927E+02  0.16051925794E+02  0.10566000000E+00 0. -1.
         13    1    1    0    0    0 -0.42243876281E+02 -0.14318454920E+02  0.15176116336E+02  0.47115697019E+02  0.10566000000E+00 0.  1.
         22    1    1    0    0    0  0.53932598054E+02  0.15202880323E+02 -0.26141732263E+02  0.61832377188E+02  0.00000000000E+00 0.  1.
</event>
<event>
 4    1  0.9897231E-003  0.9118800E+02  0.7818608E-02  0.1130116E+00
         25   -1    0    0    0    0  0.00000000000E+00  0.00000000000E+00  0.99999998245E-14  0.12500000000E+03  0.12500000000E+03 0.  0.
        -13    1    1    0    0    0 -0.50011540860E+01 -0.49225043588E+01 -0.12299933892E+02  0.14161289812E+02  0.10566000000E+00 0. -1.
         13    1    1    0    0    0 -0.10697308012E+02 -0.47879744205E+02 -0.12192633834E+02  0.50552683288E+02  0.10566000000E+00 0.  1.
         22    1    1    0    0    0  0.15698462098E+02  0.52802248563E+02  0.24492567726E+02  0.60286026900E+02  0.00000000000E+00 0.  1.
</event>
<event>
 4    1  0.9897231E-003  0.9118800E+02  0.7818608E-02  0.1130116E+00
         25   -1    0    0    0    0  0.00000000000E+00  0.00000000000E+00  0.99999998245E-14  0.12500000000E+03  0.12500000000E+03 0.  0.
        -13    1    1    0    0    0  0.39442198860E+00  0.84540045643E+00 -0.83028988059E+00  0.12533219691E+01  0.10566000000E+00 0. -1.
         13    1    1    0    0    0  0.21814678627E+02  0.44785017139E+02 -0.35640909825E+02  0.61252457754E+02  0.10566000000E+00 0.  1.
         22    1    1    0    0    0 -0.22209100615E+02 -0.45630417595E+02  0.36471199706E+02  0.62494220277E+02  0.00000000000E+00 0.  1.
</event>
<event>
 4    1  0.9897231E-003  0.9118800E+02  0.7818608E-02  0.1130116E+00
         25   -1    0    0    0    0  0.00000000000E+00  0.00000000000E+00  0.99999998245E-14  0.12500000000E+03  0.12500000000E+03 0.  0.
        -13    1    1    0    0    0 -0.80351334672E+00  0.19571205740E+01  0.17097362161E+01  0.27221896707E+01  0.10566000000E+00 0.  1.
         13    1    1    0    0    0 -0.19274288609E+02  0.21783700840E+02  0.52365193942E+02  0.59901189674E+02  0.10566000000E+00 0. -1.
         22    1    1    0    0    0  0.20077801956E+02 -0.23740821414E+02 -0.54074930158E+02  0.62376620656E+02  0.00000000000E+00 0. -1.
</event>
<event>
 4    1  0.9897231E-003  0.9118800E+02  0.7818608E-02  0.1130116E+00
         25   -1    0    0    0    0  0.00000000000E+00  0.00000000000E+00  0.99999998245E-14  0.12500000000E+03  0.12500000000E+03 0.  0.
        -13    1    1    0    0    0 -0.14059015940E+02 -0.10921175274E+02 -0.44974382672E+01  0.18362083585E+02  0.10566000000E+00 0.  1.
         13    1    1    0    0    0 -0.39038843491E+02  0.27972006476E+02 -0.99121418724E+01  0.49038007381E+02  0.10566000000E+00 0. -1.
         22    1    1    0    0    0  0.53097859432E+02 -0.17050831201E+02  0.14409580140E+02  0.57599909034E+02  0.00000000000E+00 0. -1.
</event>
<event>
 4    1  0.9897231E-003  0.9118800E+02  0.7818608E-02  0.1130116E+00
         25   -1    0    0    0    0  0.00000000000E+00  0.00000000000E+00  0.99999998245E-14  0.12500000000E+03  0.12500000000E+03 0.  0.
        -13    1    1    0    0    0 -0.28889846596E+02 -0.24864959717E+02 -0.39693717656E+02  0.55031734876E+02  0.10566000000E+00 0. -1.
         13    1    1    0    0    0 -0.39756198981E+01 -0.34339757571E+01 -0.53082976805E+01  0.74690649599E+01  0.10566000000E+00 0. -1.
         22    1    1    0    0    0  0.32865466494E+02  0.28298935474E+02  0.45002015337E+02  0.62499200164E+02  0.00000000000E+00 0. -1.
</event>
<event>
 4    1  0.9897231E-003  0.9118800E+02  0.7818608E-02  0.1130116E+00
         25   -1    0    0    0    0  0.00000000000E+00  0.00000000000E+00  0.99999998245E-14  0.12500000000E+03  0.12500000000E+03 0.  0.
        -13    1    1    0    0    0 -0.17546851759E+02 -0.21812370403E+02  0.36524837432E+02  0.46018978941E+02  0.10566000000E+00 0. -1.
         13    1    1    0    0    0  0.16615767186E+02 -0.86201921916E+01  0.11608558742E+02  0.22026375841E+02  0.10566000000E+00 0.  1.
         22    1    1    0    0    0  0.93108457288E+00  0.30432562595E+02 -0.48133396175E+02  0.56954645218E+02  0.00000000000E+00 0. -1.
</event>
<event>
 4    1  0.9897231E-003  0.9118800E+02  0.7818608E-02  0.1130116E+00
         25   -1    0    0    0    0  0.00000000000E+00  0.00000000000E+00  0.99999998245E-14  0.12500000000E+03  0.12500000000E+03 0.  0.
        -13    1    1    0    0    0  0.29703012132E+02 -0.19170288878E+02 -0.25465547856E+01  0.35443828951E+02  0.10566000000E+00 0. -1.
         13    1    1    0    0    0  0.24977211554E+02  0.80462323883E+00  0.16833409331E+02  0.30131102690E+02  0.10566000000E+00 0.  1.
         22    1    1    0    0    0 -0.54680223686E+02  0.18365665640E+02 -0.14286854545E+02  0.59425068359E+02  0.00000000000E+00 0.  1.
</event>
<event>
 4    1  0.9897231E-003  0.9118800E+02  0.7818608E-02  0.1130116E+00
         25   -1    0    0    0    0  0.00000000000E+00  0.00000000000E+00  0.99999998245E-14  0.12500000000E+03  0.12500000000E+03 0.  0.
        -13    1    1    0    0    0 -0.45475271531E+01 -0.11110911977E+02  0.41109250879E+02  0.42826557649E+02  0.10566000000E+00 0.  1.
         13    1    1    0    0    0 -0.23228845859E+01 -0.51837894879E+01  0.18836017973E+02  0.19674201467E+02  0.10566000000E+00 0. -1.
         22    1    1    0    0    0  0.68704117391E+01  0.16294701465E+02 -0.59945268852E+02  0.62499240884E+02  0.00000000000E+00 0.  1.
</event>
<event>
 4    1  0.9897231E-003  0.9118800E+02  0.7818608E-02  0.1130116E+00
         25   -1    0    0    0    0  0.00000000000E+00  0.00000000000E+00  0.99999998245E-14  0.12500000000E+03  0.12500000000E+03 0.  0.
        -13    1    1    0    0    0 -0.19606867425E+02 -0.18408052191E+02 -0.27475746634E+02  0.38447541570E+02  0.10566000000E+00 0.  1.
         13    1    1    0    0    0 -0.11876227182E+02 -0.12360536876E+02 -0.16881533498E+02  0.24058781790E+02  0.10566000000E+00 0. -1.
         22    1    1    0    0    0  0.31483094607E+02  0.30768589066E+02  0.44357280132E+02  0.62493676639E+02  0.00000000000E+00 0. -1.
</event>
<event>
 4    1  0.9897231E-003  0.9118800E+02  0.7818608E-02  0.1130116E+00
         25   -1    0    0    0    0  0.00000000000E+00  0.00000000000E+00  0.99999998245E-14  0.12500000000E+03  0.12500000000E+03 0.  0.
        -13    1    1    0    0    0  0.43680470886E+02  0.11195552736E+02 -0.17401456145E+02  0.48333691954E+02  0.10566000000E+00 0. -1.
         13    1    1    0    0    0  0.13001028799E+02  0.33882921798E+01 -0.45086669236E+01  0.14172032853E+02  0.10566000000E+00 0. -1.
         22    1    1    0    0    0 -0.56681499685E+02 -0.14583844915E+02  0.21910123069E+02  0.62494275193E+02  0.00000000000E+00 0. -1.
</event>
<event>
 4    1  0.9897231E-003  0.9118800E+02  0.7818608E-02  0.1130116E+00
         25   -1    0    0    0    0  0.00000000000E+00  0.00000000000E+00  0.99999998245E-14  0.12500000000E+03  0.12500000000E+03 0.  0.
        -13    1    1    0    0    0  0.29487521287E+02  0.40490919690E+02 -0.11836540875E+01  0.50104298120E+02  0.10566000000E+00 0. -1.
         13    1    1    0    0    0  0.78775634585E+01  0.95794351694E+01 -0.20830562773E+00  0.12404682160E+02  0.10566000000E+00 0.  1.
         22    1    1    0    0    0 -0.37365084746E+02 -0.50070354860E+02  0.13919597153E+01  0.62491019721E+02  0.00000000000E+00 0. -1.
</event>
<event>
 4    1  0.9897231E-003  0.9118800E+02  0.7818608E-02  0.1130116E+00
         25   -1    0    0    0    0  0.00000000000E+00  0.00000000000E+00  0.99999998245E-14  0.12500000000E+03  0.12500000000E+03 0.  0.
        -13    1    1    0    0    0  0.98029160755E+01 -0.23237077549E+02  0.25485238219E+02  0.35854810942E+02  0.10566000000E+00 0.  1.
         13    1    1    0    0    0  0.70733881451E+01 -0.17367805906E+02  0.18928995355E+02  0.26645666271E+02  0.10566000000E+00 0.  1.
         22    1    1    0    0    0 -0.16876304221E+02  0.40604883455E+02 -0.44414233574E+02  0.62499522786E+02  0.00000000000E+00 0.  1.
</event>
<event>
 4    1  0.9897231E-003  0.9118800E+02  0.7818608E-02  0.1130116E+00
         25   -1    0    0    0    0  0.00000000000E+00  0.00000000000E+00  0.99999998245E-14  0.12500000000E+03  0.12500000000E+03 0.  0.
        -13    1    1    0    0    0 -0.31321493969E+02 -0.23124700438E+02 -0.47151406677E+01  0.39217744330E+02  0.10566000000E+00 0. -1.
         13    1    1    0    0    0  0.31789183485E+01 -0.18143405167E+02 -0.22356413732E+02  0.28967379445E+02  0.10566000000E+00 0.  1.
         22    1    1    0    0    0  0.28142575620E+02  0.41268105605E+02  0.27071554400E+02  0.56814876225E+02  0.00000000000E+00 0. -1.
</event>
<event>
 4    1  0.9897231E-003  0.9118800E+02  0.7818608E-02  0.1130116E+00
         25   -1    0    0    0    0  0.00000000000E+00  0.00000000000E+00  0.99999998245E-14  0.12500000000E+03  0.12500000000E+03 0.  0.
        -13    1    1    0    0    0  0.38672749358E+02  0.37198258524E+02  0.33264237633E+01  0.53762145040E+02  0.10566000000E+00 0.  1.
         13    1    1    0    0    0  0.49727722845E+01  0.44985391034E+01  0.73382204866E+01  0.99411247957E+01  0.10566000000E+00 0. -1.
         22    1    1    0    0    0 -0.43645521643E+02 -0.41696797628E+02 -0.10664644250E+02  0.61296730165E+02  0.00000000000E+00 0.  1.
</event>
<event>
 4    1  0.9897231E-003  0.9118800E+02  0.7818608E-02  0.1130116E+00
         25   -1    0    0    0    0  0.00000000000E+00  0.00000000000E+00  0.99999998245E-14  0.12500000000E+03  0.12500000000E+03 0.  0.
        -13    1    1    0    0    0 -0.68105131749E+01 -0.96998625818E+01  0.41751256644E+01  0.12566354370E+02  0.10566000000E+00 0. -1.
         13    1    1    0    0    0 -0.27455991336E+02 -0.38522652081E+02  0.15987854577E+02  0.49934445442E+02  0.10566000000E+00 0.  1.
         22    1    1    0    0    0  0.34266504511E+02  0.48222514663E+02 -0.20162980241E+02  0.62499200187E+02  0.00000000000E+00 0. -1.
</event>
<event>
 4    1  0.9897231E-003  0.9118800E+02  0.7818608E-02  0.1130116E+00
         25   -1    0    0    0    0  0.00000000000E+00  0.00000000000E+00  0.99999998245E-14  0.12500000000E+03  0.12500000000E+03 0.  0.
        -13    1    1    0    0    0  0.11022808730E+02 -0.90705015679E+01 -0.54213654953E+01  0.15270189222E+02  0.10566000000E+00 0. -1.
         13    1    1    0    0    0  0.25095915415E+02 -0.40845177046E+02  0.82962950361E+00  0.47946145909E+02  0.10566000000E+00 0.  1.
         22    1    1    0    0    0 -0.36118724145E+02  0.49915678614E+02  0.45917359917E+01  0.61783664869E+02  0.00000000000E+00 0. -1.
</event>
<event>
 4    1  0.9897231E-003  0.9118800E+02  0.7818608E-02  0.1130116E+00
         25   -1    0    0    0    0  0.00000000000E+00  0.00000000000E+00  0.99999998245E-14  0.12500000000E+03  0.12500000000E+03 0.  0.
        -13    1    1    0    0    0 -0.21241897437E+02 -0.35284349475E+02 -0.11623130371E+02  0.42793829558E+02  0.10566000000E+00 0.  1.
         13    1    1    0    0    0 -0.98520951009E+01 -0.16573422361E+02 -0.41388658360E+01  0.19720128830E+02  0.10566000000E+00 0. -1.
         22    1    1    0    0    0  0.31093992538E+02  0.51857771837E+02  0.15761996207E+02  0.62486041611E+02  0.00000000000E+00 0.  1.
</event>
<event>
 4    1  0.9897231E-003  0.9118800E+02  0.7818608E-02  0.1130116E+00
         25   -1    0    0    0    0  0.00000000000E+00  0.00000000000E+00  0.99999998245E-14  0.12500000000E+03  0.12500000000E+03 0.  0.
        -13    1    1    0    0    0 -0.37252840109E+01 -0.70045375633E+01  0.27076906416E+01  0.83835577224E+01  0.10566000000E+00 0.  1.
         13    1    1    0    0    0 -0.23870535884E+02 -0.45330661745E+02  0.17434205362E+02  0.54116855584E+02  0.10566000000E+00 0. -1.
         22    1    1    0    0    0  0.27595819894E+02  0.52335199308E+02 -0.20141896004E+02  0.62499586694E+02  0.00000000000E+00 0. -1.
</event>
<event>
 4    1  0.9897231E-003  0.9118800E+02  0.7818608E-02  0.1130116E+00
         25   -1    0    0    0    0  0.00000000000E+00  0.00000000000E+00  0.99999998245E-14  0.12500000000E+03  0.12500000000E+03 0.  0.
        -13    1    1    0    0    0 -0.27542368270E+02  0.84940940060E+01 -0.36940068495E+02  0.46854151442E+02  0.10566000000E+00 0.  1.
         13    1    1    0    0    0 -0.90789560759E+01  0.27918727709E+01 -0.12432876216E+02  0.15646391661E+02  0.10566000000E+00 0. -1.
         22    1    1    0    0    0  0.36621324346E+02 -0.11285966777E+02  0.49372944710E+02  0.62499456896E+02  0.00000000000E+00 0.  1.
</event>
<event>
 4    1  0.9897231E-003  0.9118800E+02  0.7818608E-02  0.1130116E+00
         25   -1    0    0    0    0  0.00000000000E+00  0.00000000000E+00  0.99999998245E-14  0.12500000000E+03  0.12500000000E+03 0.  0.
        -13    1    1    0    0    0  0.24979794194E+02 -0.24486941619E+00  0.30202397407E+00  0.24983043480E+02  0.10566000000E+00 0.  1.
         13    1    1    0    0    0  0.37505170371E+02  0.10108708219E+00  0.98895644975E+00  0.37518491734E+02  0.10566000000E+00 0. -1.
         22    1    1    0    0    0 -0.62484964565E+02  0.14378233400E+00 -0.12909804238E+01  0.62498464785E+02  0.00000000000E+00 0.  1.
</event>
<event>
 4    1  0.9897231E-003  0.9118800E+02  0.7818608E-02  0.1130116E+00
         25   -1    0    0    0    0  0.00000000000E+00  0.00000000000E+00  0.99999998245E-14  0.12500000000E+03  0.12500000000E+03 0.  0.
        -13    1    1    0    0    0  0.22801993596E+02  0.45358236942E+02  0.35820800742E+02  0.62132451266E+02  0.10566000000E+00 0.  1.
         13    1    1    0    0    0 -0.93457071100E+00 -0.49913657189E+01 -0.83611456603E+00  0.51475630892E+01  0.10566000000E+00 0. -1.
         22    1    1    0    0    0 -0.21867422885E+02 -0.40366871223E+02 -0.34984686176E+02  0.57719985645E+02  0.00000000000E+00 0.  1.
</event>
<event>
 4    1  0.9897231E-003  0.9118800E+02  0.7818608E-02  0.1130116E+00
         25   -1    0    0    0    0  0.00000000000E+00  0.00000000000E+00  0.99999998245E-14  0.12500000000E+03  0.12500000000E+03 0.  0.
        -13    1    1    0    0    0 -0.49585129064E+02  0.26804955978E+02  0.73998650904E+01  0.56850328554E+02  0.10566000000E+00 0. -1.
         13    1    1    0    0    0 -0.49681789530E+01  0.25849231638E+01  0.74346344451E+00  0.56505337624E+01  0.10566000000E+00 0. -1.
         22    1    1    0    0    0  0.54553308017E+02 -0.29389879142E+02 -0.81433285349E+01  0.62499137684E+02  0.00000000000E+00 0. -1.
</event>
<event>
 4    1  0.9897231E-003  0.9118800E+02  0.7818608E-02  0.1130116E+00
         25   -1    0    0    0    0  0.00000000000E+00  0.00000000000E+00  0.99999998245E-14  0.12500000000E+03  0.12500000000E+03 0.  0.
        -13    1    1    0    0    0  0.12406967652E+02  0.48947832851E+02  0.17699284312E+02  0.53507934143E+02  0.10566000000E+00 0.  1.
         13    1    1    0    0    0  0.14666697519E+01  0.81472264105E+01  0.35545385270E+01  0.90096796014E+01  0.10566000000E+00 0. -1.
         22    1    1    0    0    0 -0.13873637404E+02 -0.57095059261E+02 -0.21253822839E+02  0.62482386255E+02  0.00000000000E+00 0.  1.
</event>
<event>
 4    1  0.9897231E-003  0.9118800E+02  0.7818608E-02  0.1130116E+00
         25   -1    0    0    0    0  0.00000000000E+00  0.00000000000E+00  0.99999998245E-14  0.12500000000E+03  0.12500000000E+03 0.  0.
        -13    1    1    0    0    0  0.51231112213E+01  0.13756935994E+01  0.37741130626E+01  0.65110594307E+01  0.10566000000E+00 0. -1.
         13    1    1    0    0    0 -0.19983906281E+02  0.39041319544E+02 -0.42134274940E+02  0.60818495795E+02  0.10566000000E+00 0.  1.
         22    1    1    0    0    0  0.14860795060E+02 -0.40417013143E+02  0.38360161877E+02  0.57670444775E+02  0.00000000000E+00 0.  1.
</event>
<event>
 4    1  0.9897231E-003  0.9118800E+02  0.7818608E-02  0.1130116E+00
         25   -1    0    0    0    0  0.00000000000E+00  0.00000000000E+00  0.99999998245E-14  0.12500000000E+03  0.12500000000E+03 0.  0.
        -13    1    1    0    0    0  0.25336199998E+02  0.50812076803E+02  0.39689119758E+01  0.56917076574E+02  0.10566000000E+00 0. -1.
         13    1    1    0    0    0  0.86308803666E+00  0.56137020872E+01 -0.12232592465E+01  0.58108604615E+01  0.10566000000E+00 0.  1.
         22    1    1    0    0    0 -0.26199288035E+02 -0.56425778891E+02 -0.27456527292E+01  0.62272062965E+02  0.00000000000E+00 0. -1.
</event>
<event>
 4    1  0.9897231E-003  0.9118800E+02  0.7818608E-02  0.1130116E+00
         25   -1    0    0    0    0  0.00000000000E+00  0.00000000000E+00  0.99999998245E-14  0.12500000000E+03  0.12500000000E+03 0.  0.
        -13    1    1    0    0    0  0.23258365969E+02 -0.11000261171E+02 -0.25451207837E+00  0.25730007264E+02  0.10566000000E+00 0.  1.
         13    1    1    0    0    0  0.27932708251E+02 -0.19887701804E+02  0.15407108917E+02  0.37591848086E+02  0.10566000000E+00 0. -1.
         22    1    1    0    0    0 -0.51191074220E+02  0.30887962975E+02 -0.15152596839E+02  0.61678144650E+02  0.00000000000E+00 0. -1.
</event>
<event>
 4    1  0.9897231E-003  0.9118800E+02  0.7818608E-02  0.1130116E+00
         25   -1    0    0    0    0  0.00000000000E+00  0.00000000000E+00  0.99999998245E-14  0.12500000000E+03  0.12500000000E+03 0.  0.
        -13    1    1    0    0    0 -0.19606922788E+02 -0.25920924549E+02  0.18987687787E+02  0.37641323067E+02  0.10566000000E+00 0.  1.
         13    1    1    0    0    0 -0.13051841706E+02 -0.17115259582E+02  0.12436865963E+02  0.24858991964E+02  0.10566000000E+00 0.  1.
         22    1    1    0    0    0  0.32658764494E+02  0.43036184131E+02 -0.31424553750E+02  0.62499684969E+02  0.00000000000E+00 0.  1.
</event>
<event>
 4    1  0.9897231E-003  0.9118800E+02  0.7818608E-02  0.1130116E+00
         25   -1    0    0    0    0  0.00000000000E+00  0.00000000000E+00  0.99999998245E-14  0.12500000000E+03  0.12500000000E+03 0.  0.
        -13    1    1    0    0    0 -0.85624289587E+01  0.65231941973E+01  0.36037604075E+02  0.37611000036E+02  0.10566000000E+00 0.  1.
         13    1    1    0    0    0 -0.55946903240E+01  0.43166352032E+01  0.23864789039E+02  0.24889218936E+02  0.10566000000E+00 0. -1.
         22    1    1    0    0    0  0.14157119283E+02 -0.10839829401E+02 -0.59902393114E+02  0.62499781029E+02  0.00000000000E+00 0.  1.
</event>
<event>
 4    1  0.9897231E-003  0.9118800E+02  0.7818608E-02  0.1130116E+00
         25   -1    0    0    0    0  0.00000000000E+00  0.00000000000E+00  0.99999998245E-14  0.12500000000E+03  0.12500000000E+03 0.  0.
        -13    1    1    0    0    0  0.18199812883E+02 -0.23117956337E+02 -0.37758808458E+02  0.47868694095E+02  0.10566000000E+00 0.  1.
         13    1    1    0    0    0 -0.32974533208E+01  0.35664616202E-01 -0.16225507721E+02  0.16557558250E+02  0.10566000000E+00 0. -1.
         22    1    1    0    0    0 -0.14902359562E+02  0.23082291720E+02  0.53984316179E+02  0.60573747655E+02  0.00000000000E+00 0.  1.
</event>
<event>
 4    1  0.9897231E-003  0.9118800E+02  0.7818608E-02  0.1130116E+00
         25   -1    0    0    0    0  0.00000000000E+00  0.00000000000E+00  0.99999998245E-14  0.12500000000E+03  0.12500000000E+03 0.  0.
        -13    1    1    0    0    0  0.67053712946E+01  0.69742988557E+00 -0.64409481246E+01  0.93244511593E+01  0.10566000000E+00 0. -1.
         13    1    1    0    0    0  0.38629616490E+02  0.66075860749E+01 -0.35949004452E+02  0.53181289464E+02  0.10566000000E+00 0.  1.
         22    1    1    0    0    0 -0.45334987785E+02 -0.73050159604E+01  0.42389952576E+02  0.62494259377E+02  0.00000000000E+00 0.  1.
</event>
<event>
 4    1  0.9897231E-003  0.9118800E+02  0.7818608E-02  0.1130116E+00
         25   -1    0    0    0    0  0.00000000000E+00  0.00000000000E+00  0.99999998245E-14  0.12500000000E+03  0.12500000000E+03 0.  0.
        -13    1    1    0    0    0  0.21837970563E+01  0.17203450293E+01 -0.45471927213E+00  0.28189519781E+01  0.10566000000E+00 0. -1.
         13    1    1    0    0    0  0.81379261229E+01 -0.60893023647E+02 -0.62038705736E+01  0.61746946035E+02  0.10566000000E+00 0.  1.
         22    1    1    0    0    0 -0.10321723179E+02  0.59172678618E+02  0.66585898457E+01  0.60434101987E+02  0.00000000000E+00 0.  1.
</event>
<event>
 4    1  0.9897231E-003  0.9118800E+02  0.7818608E-02  0.1130116E+00
         25   -1    0    0    0    0  0.00000000000E+00  0.00000000000E+00  0.99999998245E-14  0.12500000000E+03  0.12500000000E+03 0.  0.
        -13    1    1    0    0    0  0.36655218626E+02 -0.26031495338E+02 -0.42234202873E+02  0.61684543108E+02  0.10566000000E+00 0. -1.
         13    1    1    0    0    0  0.68395770307E-01  0.62810710449E-01 -0.95136630710E+00  0.96170944293E+00  0.10566000000E+00 0.  1.
         22    1    1    0    0    0 -0.36723614396E+02  0.25968684628E+02  0.43185569180E+02  0.62353747450E+02  0.00000000000E+00 0. -1.
</event>
<event>
 4    1  0.9897231E-003  0.9118800E+02  0.7818608E-02  0.1130116E+00
         25   -1    0    0    0    0  0.00000000000E+00  0.00000000000E+00  0.99999998245E-14  0.12500000000E+03  0.12500000000E+03 0.  0.
        -13    1    1    0    0    0 -0.87772756442E+01 -0.25986328707E+01  0.34635195506E+01  0.97877776968E+01  0.10566000000E+00 0.  1.
         13    1    1    0    0    0 -0.49189961896E+02 -0.61088471402E+01  0.18078133462E+02  0.52761732707E+02  0.10566000000E+00 0. -1.
         22    1    1    0    0    0  0.57967237541E+02  0.87074800109E+01 -0.21541653013E+02  0.62450489596E+02  0.00000000000E+00 0. -1.
</event>
<event>
 4    1  0.9897231E-003  0.9118800E+02  0.7818608E-02  0.1130116E+00
         25   -1    0    0    0    0  0.00000000000E+00  0.00000000000E+00  0.99999998245E-14  0.12500000000E+03  0.12500000000E+03 0.  0.
        -13    1    1    0    0    0 -0.12184620547E+02 -0.22658670581E+02 -0.35710752548E+02  0.44013058766E+02  0.10566000000E+00 0.  1.
         13    1    1    0    0    0 -0.54717514142E+01 -0.96669513100E+01 -0.14779808101E+02  0.18489021140E+02  0.10566000000E+00 0. -1.
         22    1    1    0    0    0  0.17656371961E+02  0.32325621891E+02  0.50490560649E+02  0.62497920094E+02  0.00000000000E+00 0.  1.
</event>
<event>
 4    1  0.9897231E-003  0.9118800E+02  0.7818608E-02  0.1130116E+00
         25   -1    0    0    0    0  0.00000000000E+00  0.00000000000E+00  0.99999998245E-14  0.12500000000E+03  0.12500000000E+03 0.  0.
        -13    1    1    0    0    0 -0.92415448904E+01 -0.11202713821E+02  0.84944934026E+00  0.14547840978E+02  0.10566000000E+00 0. -1.
         13    1    1    0    0    0 -0.38607531700E+02 -0.26476879974E+02 -0.12476505685E+02  0.48448333669E+02  0.10566000000E+00 0.  1.
         22    1    1    0    0    0  0.47849076591E+02  0.37679593795E+02  0.11627056345E+02  0.62003825353E+02  0.00000000000E+00 0.  1.
</event>
<event>
 4    1  0.9897231E-003  0.9118800E+02  0.7818608E-02  0.1130116E+00
         25   -1    0    0    0    0  0.00000000000E+00  0.00000000000E+00  0.99999998245E-14  0.12500000000E+03  0.12500000000E+03 0.  0.
        -13    1    1    0    0    0 -0.22602603504E+02  0.20135691474E+02  0.46443184235E+02  0.55437390652E+02  0.10566000000E+00 0. -1.
         13    1    1    0    0    0 -0.29641715635E+01  0.24464043810E+01  0.59256940387E+01  0.70637257400E+01  0.10566000000E+00 0. -1.
         22    1    1    0    0    0  0.25566775068E+02 -0.22582095855E+02 -0.52368878274E+02  0.62498883608E+02  0.00000000000E+00 0. -1.
</event>
<event>
 4    1  0.9897231E-003  0.9118800E+02  0.7818608E-02  0.1130116E+00
         25   -1    0    0    0    0  0.00000000000E+00  0.00000000000E+00  0.99999998245E-14  0.12500000000E+03  0.12500000000E+03 0.  0.
        -13    1    1    0    0    0 -0.21753104744E+00 -0.46864697668E-01 -0.16452324528E+00  0.29622287272E+00  0.10566000000E+00 0. -1.
         13    1    1    0    0    0 -0.79863952499E+01 -0.55215000259E+02  0.27847657671E+02  0.62353684450E+02  0.10566000000E+00 0.  1.
         22    1    1    0    0    0  0.82039262974E+01  0.55261864957E+02 -0.27683134426E+02  0.62350092677E+02  0.00000000000E+00 0.  1.
</event>
<event>
 4    1  0.9897231E-003  0.9118800E+02  0.7818608E-02  0.1130116E+00
         25   -1    0    0    0    0  0.00000000000E+00  0.00000000000E+00  0.99999998245E-14  0.12500000000E+03  0.12500000000E+03 0.  0.
        -13    1    1    0    0    0  0.65610903309E+01 -0.11348272401E+02  0.18164585168E+01  0.13234117968E+02  0.10566000000E+00 0. -1.
         13    1    1    0    0    0  0.24427615044E+02 -0.42202085397E+02  0.70303460225E+01  0.49266228980E+02  0.10566000000E+00 0.  1.
         22    1    1    0    0    0 -0.30988705375E+02  0.53550357798E+02 -0.88468045394E+01  0.62499653052E+02  0.00000000000E+00 0.  1.
</event>
<event>
 4    1  0.9897231E-003  0.9118800E+02  0.7818608E-02  0.1130116E+00
         25   -1    0    0    0    0  0.00000000000E+00  0.00000000000E+00  0.99999998245E-14  0.12500000000E+03  0.12500000000E+03 0.  0.
        -13    1    1    0    0    0 -0.17753732378E+01  0.72433410234E+00 -0.57086431162E+00  0.20034121202E+01  0.10566000000E+00 0. -1.
         13    1    1    0    0    0 -0.50710539204E+02  0.23109244252E+02 -0.23562780324E+02  0.60504642275E+02  0.10566000000E+00 0.  1.
         22    1    1    0    0    0  0.52485912442E+02 -0.23833578354E+02  0.24133644636E+02  0.62491945604E+02  0.00000000000E+00 0.  1.
</event>
<event>
 4    1  0.9897231E-003  0.9118800E+02  0.7818608E-02  0.1130116E+00
         25   -1    0    0    0    0  0.00000000000E+00  0.00000000000E+00  0.99999998245E-14  0.12500000000E+03  0.12500000000E+03 0.  0.
        -13    1    1    0    0    0 -0.10239404846E+02 -0.34163236177E+02 -0.12577208012E+02  0.37817581138E+02  0.10566000000E+00 0.  1.
         13    1    1    0    0    0 -0.34177473143E+02  0.10441389945E+02  0.24604856805E+01  0.35821605886E+02  0.10566000000E+00 0. -1.
         22    1    1    0    0    0  0.44416877988E+02  0.23721846232E+02  0.10116722332E+02  0.51360812977E+02  0.00000000000E+00 0.  1.
</event>
<event>
 4    1  0.9897231E-003  0.9118800E+02  0.7818608E-02  0.1130116E+00
         25   -1    0    0    0    0  0.00000000000E+00  0.00000000000E+00  0.99999998245E-14  0.12500000000E+03  0.12500000000E+03 0.  0.
        -13    1    1    0    0    0 -0.10611366206E+02 -0.39449859517E+02 -0.67149387597E+01  0.41400411535E+02  0.10566000000E+00 0. -1.
         13    1    1    0    0    0 -0.12843368564E+01 -0.18277006679E+02 -0.11831818492E+02  0.21810584292E+02  0.10566000000E+00 0.  1.
         22    1    1    0    0    0  0.11895703062E+02  0.57726866196E+02  0.18546757252E+02  0.61789004173E+02  0.00000000000E+00 0.  1.
</event>
<event>
 4    1  0.9897231E-003  0.9118800E+02  0.7818608E-02  0.1130116E+00
         25   -1    0    0    0    0  0.00000000000E+00  0.00000000000E+00  0.99999998245E-14  0.12500000000E+03  0.12500000000E+03 0.  0.
        -13    1    1    0    0    0  0.12114747132E+02  0.41824919195E+02 -0.24319605474E+02  0.49875297876E+02  0.10566000000E+00 0. -1.
         13    1    1    0    0    0  0.30032635225E+01  0.11579605900E+02 -0.42556759612E+01  0.12697590579E+02  0.10566000000E+00 0.  1.
         22    1    1    0    0    0 -0.15118010654E+02 -0.53404525095E+02  0.28575281435E+02  0.62427111545E+02  0.00000000000E+00 0. -1.
</event>
<event>
 4    1  0.9897231E-003  0.9118800E+02  0.7818608E-02  0.1130116E+00
         25   -1    0    0    0    0  0.00000000000E+00  0.00000000000E+00  0.99999998245E-14  0.12500000000E+03  0.12500000000E+03 0.  0.
        -13    1    1    0    0    0 -0.87533784891E-01 -0.26909847686E+01 -0.74173364371E+00  0.27947082177E+01  0.10566000000E+00 0.  1.
         13    1    1    0    0    0 -0.83195030162E+00 -0.55267046981E+02 -0.22602034876E+02  0.59716009310E+02  0.10566000000E+00 0. -1.
         22    1    1    0    0    0  0.91948408651E+00  0.57958031750E+02  0.23343768519E+02  0.62489282473E+02  0.00000000000E+00 0. -1.
</event>
<event>
 4    1  0.9897231E-003  0.9118800E+02  0.7818608E-02  0.1130116E+00
         25   -1    0    0    0    0  0.00000000000E+00  0.00000000000E+00  0.99999998245E-14  0.12500000000E+03  0.12500000000E+03 0.  0.
        -13    1    1    0    0    0  0.45097179891E+01 -0.42045701425E+02  0.20288996297E+02  0.46902378399E+02  0.10566000000E+00 0.  1.
         13    1    1    0    0    0  0.16427255608E+01 -0.13885805685E+02  0.69129893221E+01  0.15598549041E+02  0.10566000000E+00 0.  1.
         22    1    1    0    0    0 -0.61524435500E+01  0.55931507110E+02 -0.27201985619E+02  0.62499072560E+02  0.00000000000E+00 0.  1.
</event>
<event>
 4    1  0.9897231E-003  0.9118800E+02  0.7818608E-02  0.1130116E+00
         25   -1    0    0    0    0  0.00000000000E+00  0.00000000000E+00  0.99999998245E-14  0.12500000000E+03  0.12500000000E+03 0.  0.
        -13    1    1    0    0    0  0.10712241983E+02 -0.39591497172E+01  0.41030793105E+01  0.12135626010E+02  0.10566000000E+00 0. -1.
         13    1    1    0    0    0  0.44389917292E+02 -0.16902187962E+02  0.16747199889E+02  0.50364953919E+02  0.10566000000E+00 0. -1.
         22    1    1    0    0    0 -0.55102159275E+02  0.20861337679E+02 -0.20850279199E+02  0.62499420071E+02  0.00000000000E+00 0. -1.
</event>
<event>
 4    1  0.9897231E-003  0.9118800E+02  0.7818608E-02  0.1130116E+00
         25   -1    0    0    0    0  0.00000000000E+00  0.00000000000E+00  0.99999998245E-14  0.12500000000E+03  0.12500000000E+03 0.  0.
        -13    1    1    0    0    0 -0.91848157930E+01 -0.10513378184E+02  0.10341575606E+02  0.17373868655E+02  0.10566000000E+00 0. -1.
         13    1    1    0    0    0 -0.27784906656E+02 -0.22377234343E+02  0.27735677965E+02  0.45188722608E+02  0.10566000000E+00 0.  1.
         22    1    1    0    0    0  0.36969722449E+02  0.32890612527E+02 -0.38077253570E+02  0.62437408737E+02  0.00000000000E+00 0.  1.
</event>
<event>
 4    1  0.9897231E-003  0.9118800E+02  0.7818608E-02  0.1130116E+00
         25   -1    0    0    0    0  0.00000000000E+00  0.00000000000E+00  0.99999998245E-14  0.12500000000E+03  0.12500000000E+03 0.  0.
        -13    1    1    0    0    0 -0.20494078610E+01 -0.17536700415E+02 -0.52046678876E+01  0.18407489397E+02  0.10566000000E+00 0.  1.
         13    1    1    0    0    0 -0.55000152421E+01 -0.41850449474E+02 -0.12748083926E+02  0.44093481340E+02  0.10566000000E+00 0. -1.
         22    1    1    0    0    0  0.75494231032E+01  0.59387149889E+02  0.17952751814E+02  0.62499029263E+02  0.00000000000E+00 0. -1.
</event>
<event>
 4    1  0.9897231E-003  0.9118800E+02  0.7818608E-02  0.1130116E+00
         25   -1    0    0    0    0  0.00000000000E+00  0.00000000000E+00  0.99999998245E-14  0.12500000000E+03  0.12500000000E+03 0.  0.
        -13    1    1    0    0    0  0.88609442642E+01 -0.23818196321E+02  0.18933677622E+02  0.31690978552E+02  0.10566000000E+00 0. -1.
         13    1    1    0    0    0  0.10545176278E+02 -0.24622489265E+02  0.15349013341E+02  0.30871849554E+02  0.10566000000E+00 0.  1.
         22    1    1    0    0    0 -0.19406120542E+02  0.48440685585E+02 -0.34282690963E+02  0.62437171894E+02  0.00000000000E+00 0. -1.
</event>
<event>
 4    1  0.9897231E-003  0.9118800E+02  0.7818608E-02  0.1130116E+00
         25   -1    0    0    0    0  0.00000000000E+00  0.00000000000E+00  0.99999998245E-14  0.12500000000E+03  0.12500000000E+03 0.  0.
        -13    1    1    0    0    0  0.16096652799E+02  0.34151763359E+02  0.49562635654E+02  0.62304985265E+02  0.10566000000E+00 0.  1.
         13    1    1    0    0    0 -0.54260486416E+00  0.24302394607E+00 -0.12115394008E+01  0.13536884547E+01  0.10566000000E+00 0. -1.
         22    1    1    0    0    0 -0.15554047935E+02 -0.34394787305E+02 -0.48351096254E+02  0.61341326280E+02  0.00000000000E+00 0.  1.
</event>
<event>
 4    1  0.9897231E-003  0.9118800E+02  0.7818608E-02  0.1130116E+00
         25   -1    0    0    0    0  0.00000000000E+00  0.00000000000E+00  0.99999998245E-14  0.12500000000E+03  0.12500000000E+03 0.  0.
        -13    1    1    0    0    0 -0.16600915484E+02 -0.13397116959E+02  0.49825044170E+02  0.54199809302E+02  0.10566000000E+00 0.  1.
         13    1    1    0    0    0 -0.25675857451E+01 -0.17211241433E+01  0.77060898025E+01  0.83035985545E+01  0.10566000000E+00 0. -1.
         22    1    1    0    0    0  0.19168501229E+02  0.15118241102E+02 -0.57531133973E+02  0.62496592144E+02  0.00000000000E+00 0.  1.
</event>
<event>
 4    1  0.9897231E-003  0.9118800E+02  0.7818608E-02  0.1130116E+00
         25   -1    0    0    0    0  0.00000000000E+00  0.00000000000E+00  0.99999998245E-14  0.12500000000E+03  0.12500000000E+03 0.  0.
        -13    1    1    0    0    0  0.40154299374E+02 -0.29027532066E+02 -0.13455065698E+02  0.51342139934E+02  0.10566000000E+00 0.  1.
         13    1    1    0    0    0  0.87608547881E+01 -0.65239009895E+01 -0.23135138954E+01  0.11165902172E+02  0.10566000000E+00 0. -1.
         22    1    1    0    0    0 -0.48915154162E+02  0.35551433055E+02  0.15768579594E+02  0.62491957894E+02  0.00000000000E+00 0.  1.
</event>
<event>
 4    1  0.9897231E-003  0.9118800E+02  0.7818608E-02  0.1130116E+00
         25   -1    0    0    0    0  0.00000000000E+00  0.00000000000E+00  0.99999998245E-14  0.12500000000E+03  0.12500000000E+03 0.  0.
        -13    1    1    0    0    0 -0.20979739081E+02 -0.78993304372E+00  0.14682022144E+02  0.25619258076E+02  0.10566000000E+00 0.  1.
         13    1    1    0    0    0 -0.29191252315E+02  0.25910514440E+01  0.22467129167E+02  0.36927304482E+02  0.10566000000E+00 0. -1.
         22    1    1    0    0    0  0.50170991396E+02 -0.18011184002E+01 -0.37149151311E+02  0.62453437441E+02  0.00000000000E+00 0.  1.
</event>
<event>
 4    1  0.9897231E-003  0.9118800E+02  0.7818608E-02  0.1130116E+00
         25   -1    0    0    0    0  0.00000000000E+00  0.00000000000E+00  0.99999998245E-14  0.12500000000E+03  0.12500000000E+03 0.  0.
        -13    1    1    0    0    0  0.36496496102E+02 -0.16241664369E+02  0.11516423961E+02  0.41574331914E+02  0.10566000000E+00 0. -1.
         13    1    1    0    0    0  0.18680490292E+02 -0.75312758651E+01  0.56897871208E+01  0.20930018520E+02  0.10566000000E+00 0.  1.
         22    1    1    0    0    0 -0.55176986394E+02  0.23772940234E+02 -0.17206211082E+02  0.62495649566E+02  0.00000000000E+00 0.  1.
</event>
<event>
 4    1  0.9897231E-003  0.9118800E+02  0.7818608E-02  0.1130116E+00
         25   -1    0    0    0    0  0.00000000000E+00  0.00000000000E+00  0.99999998245E-14  0.12500000000E+03  0.12500000000E+03 0.  0.
        -13    1    1    0    0    0 -0.34565597300E+02  0.19003211285E+02  0.30422324960E+02  0.49813969685E+02  0.10566000000E+00 0. -1.
         13    1    1    0    0    0  0.52442101891E+01  0.82199782881E+01  0.12928430871E+02  0.16193371248E+02  0.10566000000E+00 0.  1.
         22    1    1    0    0    0  0.29321387111E+02 -0.27223189573E+02 -0.43350755831E+02  0.58992659066E+02  0.00000000000E+00 0. -1.
</event>
<event>
 4    1  0.9897231E-003  0.9118800E+02  0.7818608E-02  0.1130116E+00
         25   -1    0    0    0    0  0.00000000000E+00  0.00000000000E+00  0.99999998245E-14  0.12500000000E+03  0.12500000000E+03 0.  0.
        -13    1    1    0    0    0  0.25629177966E+02 -0.23078746765E+02  0.13239295023E+02  0.36942839796E+02  0.10566000000E+00 0.  1.
         13    1    1    0    0    0  0.17759220534E+02 -0.16102901746E+02  0.88603334687E+01  0.25557973938E+02  0.10566000000E+00 0.  1.
         22    1    1    0    0    0 -0.43388398500E+02  0.39181648511E+02 -0.22099628492E+02  0.62499186266E+02  0.00000000000E+00 0.  1.
</event>
<event>
 4    1  0.9897231E-003  0.9118800E+02  0.7818608E-02  0.1130116E+00
         25   -1    0    0    0    0  0.00000000000E+00  0.00000000000E+00  0.99999998245E-14  0.12500000000E+03  0.12500000000E+03 0.  0.
        -13    1    1    0    0    0  0.88181765764E+01  0.42561732033E+01  0.14333453044E+02  0.17358982939E+02  0.10566000000E+00 0. -1.
         13    1    1    0    0    0  0.27699612765E+02  0.39782336716E+01  0.35569346064E+02  0.45257976467E+02  0.10566000000E+00 0.  1.
         22    1    1    0    0    0 -0.36517789341E+02 -0.82344068749E+01 -0.49902799108E+02  0.62383040594E+02  0.00000000000E+00 0.  1.
</event>
<event>
 4    1  0.9897231E-003  0.9118800E+02  0.7818608E-02  0.1130116E+00
         25   -1    0    0    0    0  0.00000000000E+00  0.00000000000E+00  0.99999998245E-14  0.12500000000E+03  0.12500000000E+03 0.  0.
        -13    1    1    0    0    0  0.15216384822E+02  0.25238986623E+02 -0.53284526332E+01  0.29949096552E+02  0.10566000000E+00 0.  1.
         13    1    1    0    0    0  0.16655480014E+02  0.27336865813E+02 -0.59043248048E+01  0.32551212918E+02  0.10566000000E+00 0.  1.
         22    1    1    0    0    0 -0.31871864836E+02 -0.52575852435E+02  0.11232777438E+02  0.62499690530E+02  0.00000000000E+00 0.  1.
</event>
<event>
 4    1  0.9897231E-003  0.9118800E+02  0.7818608E-02  0.1130116E+00
         25   -1    0    0    0    0  0.00000000000E+00  0.00000000000E+00  0.99999998245E-14  0.12500000000E+03  0.12500000000E+03 0.  0.
        -13    1    1    0    0    0  0.30807800318E+01  0.37295812573E+02  0.19021627564E+02  0.41979784662E+02  0.10566000000E+00 0. -1.
         13    1    1    0    0    0  0.41884107278E+01  0.93346367690E+01  0.19552438238E+02  0.22067787227E+02  0.10566000000E+00 0.  1.
         22    1    1    0    0    0 -0.72691907596E+01 -0.46630449342E+02 -0.38574065802E+02  0.60952428111E+02  0.00000000000E+00 0.  1.
</event>
<event>
 4    1  0.9897231E-003  0.9118800E+02  0.7818608E-02  0.1130116E+00
         25   -1    0    0    0    0  0.00000000000E+00  0.00000000000E+00  0.99999998245E-14  0.12500000000E+03  0.12500000000E+03 0.  0.
        -13    1    1    0    0    0 -0.26316493927E+02  0.20880115395E+02  0.31603303493E+02  0.46122847128E+02  0.10566000000E+00 0. -1.
         13    1    1    0    0    0 -0.89530371447E+01  0.74218748573E+01  0.11535130874E+02  0.16380216996E+02  0.10566000000E+00 0.  1.
         22    1    1    0    0    0  0.35269531071E+02 -0.28301990252E+02 -0.43138434367E+02  0.62496935876E+02  0.00000000000E+00 0. -1.
</event>
<event>
 4    1  0.9897231E-003  0.9118800E+02  0.7818608E-02  0.1130116E+00
         25   -1    0    0    0    0  0.00000000000E+00  0.00000000000E+00  0.99999998245E-14  0.12500000000E+03  0.12500000000E+03 0.  0.
        -13    1    1    0    0    0  0.51653895852E+02  0.17234718991E+02  0.11412283754E+01  0.54465347347E+02  0.10566000000E+00 0. -1.
         13    1    1    0    0    0  0.79896247008E+01  0.10934563262E+01  0.83032945036E+00  0.81074262642E+01  0.10566000000E+00 0.  1.
         22    1    1    0    0    0 -0.59643520553E+02 -0.18328175317E+02 -0.19715578257E+01  0.62427226389E+02  0.00000000000E+00 0. -1.
</event>
<event>
 4    1  0.9897231E-003  0.9118800E+02  0.7818608E-02  0.1130116E+00
         25   -1    0    0    0    0  0.00000000000E+00  0.00000000000E+00  0.99999998245E-14  0.12500000000E+03  0.12500000000E+03 0.  0.
        -13    1    1    0    0    0 -0.97407655949E+01 -0.44749375155E+01  0.43842835659E+02  0.45134388029E+02  0.10566000000E+00 0.  1.
         13    1    1    0    0    0 -0.93896438845E+01  0.12902588024E+02  0.12176537840E+02  0.20072902824E+02  0.10566000000E+00 0. -1.
         22    1    1    0    0    0  0.19130409479E+02 -0.84276505086E+01 -0.56019373498E+02  0.59792709147E+02  0.00000000000E+00 0. -1.
</event>
<event>
 4    1  0.9897231E-003  0.9118800E+02  0.7818608E-02  0.1130116E+00
         25   -1    0    0    0    0  0.00000000000E+00  0.00000000000E+00  0.99999998245E-14  0.12500000000E+03  0.12500000000E+03 0.  0.
        -13    1    1    0    0    0 -0.21787976649E+01  0.10511600412E+02 -0.27637405708E+00  0.10739108396E+02  0.10566000000E+00 0. -1.
         13    1    1    0    0    0 -0.12572067265E+02  0.50206786728E+02  0.11638378901E+01  0.51770107123E+02  0.10566000000E+00 0.  1.
         22    1    1    0    0    0  0.14750864930E+02 -0.60718387140E+02 -0.88746383306E+00  0.62490784481E+02  0.00000000000E+00 0.  1.
</event>
<event>
 4    1  0.9897231E-003  0.9118800E+02  0.7818608E-02  0.1130116E+00
         25   -1    0    0    0    0  0.00000000000E+00  0.00000000000E+00  0.99999998245E-14  0.12500000000E+03  0.12500000000E+03 0.  0.
        -13    1    1    0    0    0  0.18989370129E+01 -0.48041042823E+02 -0.25752962788E+02  0.54541488921E+02  0.10566000000E+00 0.  1.
         13    1    1    0    0    0  0.11051363699E+01 -0.66723237598E+01 -0.42480804522E+01  0.79874014745E+01  0.10566000000E+00 0. -1.
         22    1    1    0    0    0 -0.30040733828E+01  0.54713366583E+02  0.30001043240E+02  0.62471109605E+02  0.00000000000E+00 0.  1.
</event>
<event>
 4    1  0.9897231E-003  0.9118800E+02  0.7818608E-02  0.1130116E+00
         25   -1    0    0    0    0  0.00000000000E+00  0.00000000000E+00  0.99999998245E-14  0.12500000000E+03  0.12500000000E+03 0.  0.
        -13    1    1    0    0    0  0.57097745496E+01 -0.10580032772E+02  0.14487992835E+02  0.18826888200E+02  0.10566000000E+00 0.  1.
         13    1    1    0    0    0  0.13630173833E+02 -0.25235366790E+02  0.32937895123E+02  0.43675181452E+02  0.10566000000E+00 0. -1.
         22    1    1    0    0    0 -0.19339948382E+02  0.35815399562E+02 -0.47425887958E+02  0.62497930348E+02  0.00000000000E+00 0. -1.
</event>
<event>
 4    1  0.9897231E-003  0.9118800E+02  0.7818608E-02  0.1130116E+00
         25   -1    0    0    0    0  0.00000000000E+00  0.00000000000E+00  0.99999998245E-14  0.12500000000E+03  0.12500000000E+03 0.  0.
        -13    1    1    0    0    0  0.10485819804E+02 -0.21876692978E+02 -0.40165300271E+01  0.24590359699E+02  0.10566000000E+00 0.  1.
         13    1    1    0    0    0  0.17511326338E+02 -0.33420888499E+02 -0.38700368580E+01  0.37928758053E+02  0.10566000000E+00 0. -1.
         22    1    1    0    0    0 -0.27997146142E+02  0.55297581477E+02  0.78865668851E+01  0.62480882248E+02  0.00000000000E+00 0. -1.
</event>
<event>
 4    1  0.9897231E-003  0.9118800E+02  0.7818608E-02  0.1130116E+00
         25   -1    0    0    0    0  0.00000000000E+00  0.00000000000E+00  0.99999998245E-14  0.12500000000E+03  0.12500000000E+03 0.  0.
        -13    1    1    0    0    0  0.75810239143E+01  0.28913860706E+02 -0.49614956279E+02  0.57923555788E+02  0.10566000000E+00 0.  1.
         13    1    1    0    0    0 -0.23192789153E+00  0.13345694181E+01 -0.44707213050E+01  0.46726201537E+01  0.10566000000E+00 0. -1.
         22    1    1    0    0    0 -0.73490960228E+01 -0.30248430124E+02  0.54085677584E+02  0.62403824058E+02  0.00000000000E+00 0.  1.
</event>
<event>
 4    1  0.9897231E-003  0.9118800E+02  0.7818608E-02  0.1130116E+00
         25   -1    0    0    0    0  0.00000000000E+00  0.00000000000E+00  0.99999998245E-14  0.12500000000E+03  0.12500000000E+03 0.  0.
        -13    1    1    0    0    0  0.94509541044E+01 -0.26036477489E+01 -0.49605895257E+01  0.10987180146E+02  0.10566000000E+00 0.  1.
         13    1    1    0    0    0  0.96322320137E+01  0.18612383685E+02  0.54594763464E+02  0.58479056779E+02  0.10566000000E+00 0. -1.
         22    1    1    0    0    0 -0.19083186118E+02 -0.16008735936E+02 -0.49634173939E+02  0.55533763075E+02  0.00000000000E+00 0. -1.
</event>
<event>
 4    1  0.9897231E-003  0.9118800E+02  0.7818608E-02  0.1130116E+00
         25   -1    0    0    0    0  0.00000000000E+00  0.00000000000E+00  0.99999998245E-14  0.12500000000E+03  0.12500000000E+03 0.  0.
        -13    1    1    0    0    0  0.13503011300E+02 -0.31553070620E+02 -0.37712544881E+02  0.50991909017E+02  0.10566000000E+00 0. -1.
         13    1    1    0    0    0  0.28629203897E+01 -0.87041725788E+01 -0.70944872410E+01  0.11588867360E+02  0.10566000000E+00 0.  1.
         22    1    1    0    0    0 -0.16365931690E+02  0.40257243199E+02  0.44807032122E+02  0.62419223623E+02  0.00000000000E+00 0. -1.
</event>
<event>
 4    1  0.9897231E-003  0.9118800E+02  0.7818608E-02  0.1130116E+00
         25   -1    0    0    0    0  0.00000000000E+00  0.00000000000E+00  0.99999998245E-14  0.12500000000E+03  0.12500000000E+03 0.  0.
        -13    1    1    0    0    0  0.18568548507E+02 -0.48369324203E+01  0.16135851769E+02  0.25071174389E+02  0.10566000000E+00 0. -1.
         13    1    1    0    0    0  0.23711066812E+02 -0.39352862176E+01  0.28865172418E+02  0.37562088730E+02  0.10566000000E+00 0.  1.
         22    1    1    0    0    0 -0.42279615319E+02  0.87722186379E+01 -0.45001024187E+02  0.62366736881E+02  0.00000000000E+00 0.  1.
</event>
<event>
 4    1  0.9897231E-003  0.9118800E+02  0.7818608E-02  0.1130116E+00
         25   -1    0    0    0    0  0.00000000000E+00  0.00000000000E+00  0.99999998245E-14  0.12500000000E+03  0.12500000000E+03 0.  0.
        -13    1    1    0    0    0 -0.10487894736E+02 -0.31484919575E+02  0.27404907029E+02  0.43038775423E+02  0.10566000000E+00 0.  1.
         13    1    1    0    0    0 -0.41690884749E+01  0.50301107389E+02 -0.28722231989E+02  0.58073750333E+02  0.10566000000E+00 0. -1.
         22    1    1    0    0    0  0.14656983210E+02 -0.18816187814E+02  0.13173249605E+01  0.23887474244E+02  0.00000000000E+00 0. -1.
</event>
<event>
 4    1  0.9897231E-003  0.9118800E+02  0.7818608E-02  0.1130116E+00
         25   -1    0    0    0    0  0.00000000000E+00  0.00000000000E+00  0.99999998245E-14  0.12500000000E+03  0.12500000000E+03 0.  0.
        -13    1    1    0    0    0  0.76854399382E+00  0.14931634855E+02  0.18226225594E+02  0.23574368343E+02  0.10566000000E+00 0. -1.
         13    1    1    0    0    0 -0.38743746883E+01  0.26293489286E+02  0.28544763763E+02  0.39002218660E+02  0.10566000000E+00 0.  1.
         22    1    1    0    0    0  0.31058306945E+01 -0.41225124141E+02 -0.46770989357E+02  0.62423412997E+02  0.00000000000E+00 0.  1.
</event>
<event>
 4    1  0.9897231E-003  0.9118800E+02  0.7818608E-02  0.1130116E+00
         25   -1    0    0    0    0  0.00000000000E+00  0.00000000000E+00  0.99999998245E-14  0.12500000000E+03  0.12500000000E+03 0.  0.
        -13    1    1    0    0    0  0.91038789340E+01  0.80529217745E+01 -0.24827090249E+02  0.27642824295E+02  0.10566000000E+00 0. -1.
         13    1    1    0    0    0  0.21057041652E+01  0.36387542978E+02 -0.12200636585E+02  0.38436362615E+02  0.10566000000E+00 0.  1.
         22    1    1    0    0    0 -0.11209583099E+02 -0.44440464752E+02  0.37027726834E+02  0.58920813089E+02  0.00000000000E+00 0.  1.
</event>
<event>
 4    1  0.9897231E-003  0.9118800E+02  0.7818608E-02  0.1130116E+00
         25   -1    0    0    0    0  0.00000000000E+00  0.00000000000E+00  0.99999998245E-14  0.12500000000E+03  0.12500000000E+03 0.  0.
        -13    1    1    0    0    0  0.13156240002E+01 -0.42487904468E+02  0.49143414983E+00  0.42511240444E+02  0.10566000000E+00 0.  1.
         13    1    1    0    0    0  0.47242277985E+01 -0.18246945385E+02  0.87110691464E+01  0.20764470469E+02  0.10566000000E+00 0. -1.
         22    1    1    0    0    0 -0.60398517987E+01  0.60734849852E+02 -0.92025032963E+01  0.61724289086E+02  0.00000000000E+00 0.  1.
</event>
<event>
 4    1  0.9897231E-003  0.9118800E+02  0.7818608E-02  0.1130116E+00
         25   -1    0    0    0    0  0.00000000000E+00  0.00000000000E+00  0.99999998245E-14  0.12500000000E+03  0.12500000000E+03 0.  0.
        -13    1    1    0    0    0  0.54705647012E-01 -0.15889305104E+02  0.25753261102E+02  0.30260777102E+02  0.10566000000E+00 0.  1.
         13    1    1    0    0    0  0.39264459661E+01 -0.13496567770E+02  0.29137187947E+02  0.32350598217E+02  0.10566000000E+00 0. -1.
         22    1    1    0    0    0 -0.39811516131E+01  0.29385872874E+02 -0.54890449049E+02  0.62388624681E+02  0.00000000000E+00 0. -1.
</event>
<event>
 4    1  0.9897231E-003  0.9118800E+02  0.7818608E-02  0.1130116E+00
         25   -1    0    0    0    0  0.00000000000E+00  0.00000000000E+00  0.99999998245E-14  0.12500000000E+03  0.12500000000E+03 0.  0.
        -13    1    1    0    0    0  0.67323914444E+01  0.15664219942E+02  0.83907164078E+00  0.17070679137E+02  0.10566000000E+00 0. -1.
         13    1    1    0    0    0  0.15316305559E+02  0.42697701506E+02  0.26909766716E+01  0.45441560816E+02  0.10566000000E+00 0.  1.
         22    1    1    0    0    0 -0.22048697003E+02 -0.58361921448E+02 -0.35300483123E+01  0.62487760047E+02  0.00000000000E+00 0.  1.
</event>
<event>
 4    1  0.9897231E-003  0.9118800E+02  0.7818608E-02  0.1130116E+00
         25   -1    0    0    0    0  0.00000000000E+00  0.00000000000E+00  0.99999998245E-14  0.12500000000E+03  0.12500000000E+03 0.  0.
        -13    1    1    0    0    0  0.32748903718E+01  0.12869984223E+02 -0.76813706497E+01  0.15341969233E+02  0.10566000000E+00 0. -1.
         13    1    1    0    0    0 -0.27480005027E+02  0.32242147471E+02 -0.24740835268E+02  0.49059421558E+02  0.10566000000E+00 0.  1.
         22    1    1    0    0    0  0.24205114655E+02 -0.45112131694E+02  0.32422205918E+02  0.60598609209E+02  0.00000000000E+00 0.  1.
</event>
<event>
 4    1  0.9897231E-003  0.9118800E+02  0.7818608E-02  0.1130116E+00
         25   -1    0    0    0    0  0.00000000000E+00  0.00000000000E+00  0.99999998245E-14  0.12500000000E+03  0.12500000000E+03 0.  0.
        -13    1    1    0    0    0 -0.53862470174E+01  0.92363020247E+01 -0.77986233134E+01  0.13234448294E+02  0.10566000000E+00 0. -1.
         13    1    1    0    0    0 -0.23024603473E+02  0.31454570655E+02 -0.30159023470E+02  0.49285903065E+02  0.10566000000E+00 0.  1.
         22    1    1    0    0    0  0.28410850491E+02 -0.40690872679E+02  0.37957646784E+02  0.62479648642E+02  0.00000000000E+00 0.  1.
</event>
<event>
 4    1  0.9897231E-003  0.9118800E+02  0.7818608E-02  0.1130116E+00
         25   -1    0    0    0    0  0.00000000000E+00  0.00000000000E+00  0.99999998245E-14  0.12500000000E+03  0.12500000000E+03 0.  0.
        -13    1    1    0    0    0 -0.35799151060E+02 -0.18398743684E+02 -0.19364193921E+02  0.44666275377E+02  0.10566000000E+00 0. -1.
         13    1    1    0    0    0 -0.15449081774E+02 -0.71125668430E+01 -0.55636364917E+01  0.17894914077E+02  0.10566000000E+00 0.  1.
         22    1    1    0    0    0  0.51248232834E+02  0.25511310527E+02  0.24927830413E+02  0.62438810547E+02  0.00000000000E+00 0. -1.
</event>
<event>
 4    1  0.9897231E-003  0.9118800E+02  0.7818608E-02  0.1130116E+00
         25   -1    0    0    0    0  0.00000000000E+00  0.00000000000E+00  0.99999998245E-14  0.12500000000E+03  0.12500000000E+03 0.  0.
        -13    1    1    0    0    0  0.58306378921E+01 -0.48962830692E+02  0.18932334342E+01  0.49345218861E+02  0.10566000000E+00 0.  1.
         13    1    1    0    0    0  0.24268110628E+01 -0.12946207204E+02 -0.52007102998E+00  0.13182387144E+02  0.10566000000E+00 0. -1.
         22    1    1    0    0    0 -0.82574489550E+01  0.61909037896E+02 -0.13731624042E+01  0.62472393995E+02  0.00000000000E+00 0.  1.
</event>
<event>
 4    1  0.9897231E-003  0.9118800E+02  0.7818608E-02  0.1130116E+00
         25   -1    0    0    0    0  0.00000000000E+00  0.00000000000E+00  0.99999998245E-14  0.12500000000E+03  0.12500000000E+03 0.  0.
        -13    1    1    0    0    0 -0.25536384184E+02 -0.38674565651E+02  0.93286592353E+01  0.47274348146E+02  0.10566000000E+00 0.  1.
         13    1    1    0    0    0 -0.81662787602E+01 -0.12323066434E+02  0.36666643364E+01  0.15231600917E+02  0.10566000000E+00 0. -1.
         22    1    1    0    0    0  0.33702662944E+02  0.50997632084E+02 -0.12995323572E+02  0.62494050937E+02  0.00000000000E+00 0.  1.
</event>
<event>
 4    1  0.9897231E-003  0.9118800E+02  0.7818608E-02  0.1130116E+00
         25   -1    0    0    0    0  0.00000000000E+00  0.00000000000E+00  0.99999998245E-14  0.12500000000E+03  0.12500000000E+03 0.  0.
        -13    1    1    0    0    0  0.28136430518E+02  0.14757024172E+02  0.46154205793E+02  0.56032583031E+02  0.10566000000E+00 0.  1.
         13    1    1    0    0    0  0.54525695183E+00  0.14126661126E+01  0.66049741916E+01  0.67771512301E+01  0.10566000000E+00 0. -1.
         22    1    1    0    0    0 -0.28681687470E+02 -0.16169690284E+02 -0.52759179985E+02  0.62190265739E+02  0.00000000000E+00 0.  1.
</event>
<event>
 4    1  0.9897231E-003  0.9118800E+02  0.7818608E-02  0.1130116E+00
         25   -1    0    0    0    0  0.00000000000E+00  0.00000000000E+00  0.99999998245E-14  0.12500000000E+03  0.12500000000E+03 0.  0.
        -13    1    1    0    0    0 -0.21902800303E+01  0.47719595126E+02  0.18277279070E+02  0.51147113114E+02  0.10566000000E+00 0.  1.
         13    1    1    0    0    0 -0.44236421387E+00  0.10589087480E+02  0.40694091111E+01  0.11353224842E+02  0.10566000000E+00 0.  1.
         22    1    1    0    0    0  0.26326442442E+01 -0.58308682606E+02 -0.22346688182E+02  0.62499662044E+02  0.00000000000E+00 0.  1.
</event>
<event>
 4    1  0.9897231E-003  0.9118800E+02  0.7818608E-02  0.1130116E+00
         25   -1    0    0    0    0  0.00000000000E+00  0.00000000000E+00  0.99999998245E-14  0.12500000000E+03  0.12500000000E+03 0.  0.
        -13    1    1    0    0    0  0.30702769636E+02  0.40547182658E+02  0.30721594098E+02  0.59418529036E+02  0.10566000000E+00 0.  1.
         13    1    1    0    0    0  0.14471474346E+01  0.23228432328E+01  0.14303858917E+01  0.30898226836E+01  0.10566000000E+00 0. -1.
         22    1    1    0    0    0 -0.32149917070E+02 -0.42870025891E+02 -0.32151979990E+02  0.62491648280E+02  0.00000000000E+00 0.  1.
</event>
<event>
 4    1  0.9897231E-003  0.9118800E+02  0.7818608E-02  0.1130116E+00
         25   -1    0    0    0    0  0.00000000000E+00  0.00000000000E+00  0.99999998245E-14  0.12500000000E+03  0.12500000000E+03 0.  0.
        -13    1    1    0    0    0 -0.23146836459E+02  0.14130314858E+02 -0.13880837109E+02  0.30465236565E+02  0.10566000000E+00 0. -1.
         13    1    1    0    0    0 -0.24521409853E+02  0.14121074286E+02 -0.15023554310E+02  0.32037831204E+02  0.10566000000E+00 0.  1.
         22    1    1    0    0    0  0.47668246312E+02 -0.28251389143E+02  0.28904391419E+02  0.62496932231E+02  0.00000000000E+00 0.  1.
</event>
<event>
 4    1  0.9897231E-003  0.9118800E+02  0.7818608E-02  0.1130116E+00
         25   -1    0    0    0    0  0.00000000000E+00  0.00000000000E+00  0.99999998245E-14  0.12500000000E+03  0.12500000000E+03 0.  0.
        -13    1    1    0    0    0 -0.10457529792E+02  0.32269223260E+00  0.14740580005E+02  0.18076501945E+02  0.10566000000E+00 0.  1.
         13    1    1    0    0    0 -0.26204099704E+02 -0.23864480093E-01  0.35874099992E+02  0.44425416432E+02  0.10566000000E+00 0. -1.
         22    1    1    0    0    0  0.36661629496E+02 -0.29882775250E+00 -0.50614679998E+02  0.62498081624E+02  0.00000000000E+00 0. -1.
</event>
<event>
 4    1  0.9897231E-003  0.9118800E+02  0.7818608E-02  0.1130116E+00
         25   -1    0    0    0    0  0.00000000000E+00  0.00000000000E+00  0.99999998245E-14  0.12500000000E+03  0.12500000000E+03 0.  0.
        -13    1    1    0    0    0 -0.29202053488E+02 -0.16915488061E+02 -0.30754321010E+02  0.45658877440E+02  0.10566000000E+00 0. -1.
         13    1    1    0    0    0 -0.12221067628E+02 -0.48762878590E+01 -0.10589751591E+02  0.16890431612E+02  0.10566000000E+00 0.  1.
         22    1    1    0    0    0  0.41423121116E+02  0.21791775920E+02  0.41344072600E+02  0.62450690948E+02  0.00000000000E+00 0. -1.
</event>
<event>
 4    1  0.9897231E-003  0.9118800E+02  0.7818608E-02  0.1130116E+00
         25   -1    0    0    0    0  0.00000000000E+00  0.00000000000E+00  0.99999998245E-14  0.12500000000E+03  0.12500000000E+03 0.  0.
        -13    1    1    0    0    0  0.62685224393E+00 -0.39647020252E+02 -0.12641085784E+02  0.41618353793E+02  0.10566000000E+00 0. -1.
         13    1    1    0    0    0  0.22642832489E+01 -0.19172077975E+02 -0.81135702906E+01  0.20941268811E+02  0.10566000000E+00 0.  1.
         22    1    1    0    0    0 -0.28911354929E+01  0.58819098227E+02  0.20754656075E+02  0.62440377397E+02  0.00000000000E+00 0. -1.
</event>
<event>
 4    1  0.9897231E-003  0.9118800E+02  0.7818608E-02  0.1130116E+00
         25   -1    0    0    0    0  0.00000000000E+00  0.00000000000E+00  0.99999998245E-14  0.12500000000E+03  0.12500000000E+03 0.  0.
        -13    1    1    0    0    0 -0.50324585532E+01 -0.10395347888E+02  0.98714201550E+01  0.15193584064E+02  0.10566000000E+00 0. -1.
         13    1    1    0    0    0 -0.15458061051E+02 -0.32304760502E+02  0.30909045932E+02  0.47306759421E+02  0.10566000000E+00 0. -1.
         22    1    1    0    0    0  0.20490519604E+02  0.42700108390E+02 -0.40780466087E+02  0.62499656514E+02  0.00000000000E+00 0. -1.
</event>
<event>
 4    1  0.9897231E-003  0.9118800E+02  0.7818608E-02  0.1130116E+00
         25   -1    0    0    0    0  0.00000000000E+00  0.00000000000E+00  0.99999998245E-14  0.12500000000E+03  0.12500000000E+03 0.  0.
        -13    1    1    0    0    0  0.74325605934E+01  0.85948943904E+01 -0.44171230487E+01  0.12191690064E+02  0.10566000000E+00 0.  1.
         13    1    1    0    0    0  0.45394693100E+02  0.22465883608E+02 -0.46343256827E+01  0.50861402129E+02  0.10566000000E+00 0. -1.
         22    1    1    0    0    0 -0.52827253694E+02 -0.31060777999E+02  0.90514487314E+01  0.61946907807E+02  0.00000000000E+00 0. -1.
</event>
<event>
 4    1  0.9897231E-003  0.9118800E+02  0.7818608E-02  0.1130116E+00
         25   -1    0    0    0    0  0.00000000000E+00  0.00000000000E+00  0.99999998245E-14  0.12500000000E+03  0.12500000000E+03 0.  0.
        -13    1    1    0    0    0  0.54384105762E+01 -0.22545989894E+01 -0.12967944042E+02  0.14242129859E+02  0.10566000000E+00 0. -1.
         13    1    1    0    0    0  0.20927930435E+02 -0.12253993137E+02 -0.41765720950E+02  0.48296223771E+02  0.10566000000E+00 0.  1.
         22    1    1    0    0    0 -0.26366341011E+02  0.14508592127E+02  0.54733664992E+02  0.62461646370E+02  0.00000000000E+00 0.  1.
</event>
<event>
 4    1  0.9897231E-003  0.9118800E+02  0.7818608E-02  0.1130116E+00
         25   -1    0    0    0    0  0.00000000000E+00  0.00000000000E+00  0.99999998245E-14  0.12500000000E+03  0.12500000000E+03 0.  0.
        -13    1    1    0    0    0 -0.43027366784E+01 -0.65965254158E+00 -0.59484904189E+01  0.73718645334E+01  0.10566000000E+00 0. -1.
         13    1    1    0    0    0 -0.31208708247E+02 -0.46964286743E+01 -0.45201731315E+02  0.55129371398E+02  0.10566000000E+00 0. -1.
         22    1    1    0    0    0  0.35511444926E+02  0.53560812159E+01  0.51150221734E+02  0.62498764069E+02  0.00000000000E+00 0. -1.
</event>
<event>
 4    1  0.9897231E-003  0.9118800E+02  0.7818608E-02  0.1130116E+00
         25   -1    0    0    0    0  0.00000000000E+00  0.00000000000E+00  0.99999998245E-14  0.12500000000E+03  0.12500000000E+03 0.  0.
        -13    1    1    0    0    0  0.34394899807E+02  0.16498054831E+02 -0.13641854193E+01  0.38171548459E+02  0.10566000000E+00 0.  1.
         13    1    1    0    0    0  0.21954931085E+02  0.10445078682E+02 -0.86873270432E+00  0.24328677074E+02  0.10566000000E+00 0.  1.
         22    1    1    0    0    0 -0.56349830892E+02 -0.26943133513E+02  0.22329181236E+01  0.62499774466E+02  0.00000000000E+00 0.  1.
</event>
<event>
 4    1  0.9897231E-003  0.9118800E+02  0.7818608E-02  0.1130116E+00
         25   -1    0    0    0    0  0.00000000000E+00  0.00000000000E+00  0.99999998245E-14  0.12500000000E+03  0.12500000000E+03 0.  0.
        -13    1    1    0    0    0  0.30374160733E+01  0.21893148823E+00 -0.14810871940E+01  0.33880098451E+01  0.10566000000E+00 0.  1.
         13    1    1    0    0    0 -0.52925188132E+02 -0.30192709121E+02  0.12950358492E+02  0.62292842060E+02  0.10566000000E+00 0. -1.
         22    1    1    0    0    0  0.49887772058E+02  0.29973777633E+02 -0.11469271298E+02  0.59319148094E+02  0.00000000000E+00 0. -1.
</event>
<event>
 4    1  0.9897231E-003  0.9118800E+02  0.7818608E-02  0.1130116E+00
         25   -1    0    0    0    0  0.00000000000E+00  0.00000000000E+00  0.99999998245E-14  0.12500000000E+03  0.12500000000E+03 0.  0.
        -13    1    1    0    0    0 -0.11603431789E+02 -0.16626224110E+02  0.38025879750E+01  0.20628664445E+02  0.10566000000E+00 0.  1.
         13    1    1    0    0    0 -0.19950300406E+02 -0.34917761197E+02 -0.14973201910E+02  0.42912381346E+02  0.10566000000E+00 0. -1.
         22    1    1    0    0    0  0.31553732195E+02  0.51543985307E+02  0.11170613935E+02  0.61458954209E+02  0.00000000000E+00 0. -1.
</event>
<event>
 4    1  0.9897231E-003  0.9118800E+02  0.7818608E-02  0.1130116E+00
         25   -1    0    0    0    0  0.00000000000E+00  0.00000000000E+00  0.99999998245E-14  0.12500000000E+03  0.12500000000E+03 0.  0.
        -13    1    1    0    0    0 -0.13432224177E+01 -0.17949484078E+01  0.10294498021E+02  0.10536315286E+02  0.10566000000E+00 0. -1.
         13    1    1    0    0    0 -0.80747252406E+01 -0.72336189127E+01  0.50824388304E+02  0.51967836599E+02  0.10566000000E+00 0.  1.
         22    1    1    0    0    0  0.94179476583E+01  0.90285673205E+01 -0.61118886326E+02  0.62495848115E+02  0.00000000000E+00 0.  1.
</event>
<event>
 4    1  0.9897231E-003  0.9118800E+02  0.7818608E-02  0.1130116E+00
         25   -1    0    0    0    0  0.00000000000E+00  0.00000000000E+00  0.99999998245E-14  0.12500000000E+03  0.12500000000E+03 0.  0.
        -13    1    1    0    0    0 -0.15508801245E+02 -0.26445262024E+01  0.46707150203E+02  0.49285753307E+02  0.10566000000E+00 0. -1.
         13    1    1    0    0    0 -0.46917547878E+01 -0.16492798519E+00  0.12361705474E+02  0.13223565725E+02  0.10566000000E+00 0.  1.
         22    1    1    0    0    0  0.20200556032E+02  0.28094541876E+01 -0.59068855677E+02  0.62490680968E+02  0.00000000000E+00 0. -1.
</event>
<event>
 4    1  0.9897231E-003  0.9118800E+02  0.7818608E-02  0.1130116E+00
         25   -1    0    0    0    0  0.00000000000E+00  0.00000000000E+00  0.99999998245E-14  0.12500000000E+03  0.12500000000E+03 0.  0.
        -13    1    1    0    0    0 -0.45757266446E+01  0.20240055740E+02  0.35645813234E+02  0.41245997331E+02  0.10566000000E+00 0.  1.
         13    1    1    0    0    0 -0.81051096899E+01  0.20481464299E+01  0.20440144815E+02  0.22083894380E+02  0.10566000000E+00 0. -1.
         22    1    1    0    0    0  0.12680836334E+02 -0.22288202170E+02 -0.56085958049E+02  0.61670108289E+02  0.00000000000E+00 0. -1.
</event>
<event>
 4    1  0.9897231E-003  0.9118800E+02  0.7818608E-02  0.1130116E+00
         25   -1    0    0    0    0  0.00000000000E+00  0.00000000000E+00  0.99999998245E-14  0.12500000000E+03  0.12500000000E+03 0.  0.
        -13    1    1    0    0    0  0.40396268819E+02  0.16176134430E+02 -0.32872982649E+02  0.54535951553E+02  0.10566000000E+00 0. -1.
         13    1    1    0    0    0  0.90234718917E+01  0.12317281496E+01  0.92752686317E+01  0.12999306575E+02  0.10566000000E+00 0.  1.
         22    1    1    0    0    0 -0.49419740710E+02 -0.17407862580E+02  0.23597714017E+02  0.57464741871E+02  0.00000000000E+00 0. -1.
</event>
<event>
 4    1  0.9897231E-003  0.9118800E+02  0.7818608E-02  0.1130116E+00
         25   -1    0    0    0    0  0.00000000000E+00  0.00000000000E+00  0.99999998245E-14  0.12500000000E+03  0.12500000000E+03 0.  0.
        -13    1    1    0    0    0  0.17584175669E+02  0.10057421038E+02  0.53260334401E+02  0.56982710855E+02  0.10566000000E+00 0. -1.
         13    1    1    0    0    0  0.17507405219E+01  0.98770781030E+00  0.51377127705E+01  0.55179629975E+01  0.10566000000E+00 0. -1.
         22    1    1    0    0    0 -0.19334916190E+02 -0.11045128849E+02 -0.58398047172E+02  0.62499326147E+02  0.00000000000E+00 0. -1.
</event>
<event>
 4    1  0.9897231E-003  0.9118800E+02  0.7818608E-02  0.1130116E+00
         25   -1    0    0    0    0  0.00000000000E+00  0.00000000000E+00  0.99999998245E-14  0.12500000000E+03  0.12500000000E+03 0.  0.
        -13    1    1    0    0    0 -0.22709246897E+02  0.36211061156E+02  0.27455590455E+02  0.50801293841E+02  0.10566000000E+00 0. -1.
         13    1    1    0    0    0 -0.53902999335E+01  0.81674967411E+01  0.64123158637E+01  0.11700098083E+02  0.10566000000E+00 0.  1.
         22    1    1    0    0    0  0.28099546830E+02 -0.44378557897E+02 -0.33867906318E+02  0.62498608076E+02  0.00000000000E+00 0. -1.
</event>
<event>
 4    1  0.9897231E-003  0.9118800E+02  0.7818608E-02  0.1130116E+00
         25   -1    0    0    0    0  0.00000000000E+00  0.00000000000E+00  0.99999998245E-14  0.12500000000E+03  0.12500000000E+03 0.  0.
        -13    1    1    0    0    0 -0.81190976614E+01 -0.21165343943E+02  0.10531179586E+02  0.24996168478E+02  0.10566000000E+00 0. -1.
         13    1    1    0    0    0 -0.11722612990E+02 -0.32643150492E+02  0.14289901911E+02  0.37512763028E+02  0.10566000000E+00 0.  1.
         22    1    1    0    0    0  0.19841710651E+02  0.53808494434E+02 -0.24821081497E+02  0.62491068494E+02  0.00000000000E+00 0.  1.
</event>
<event>
 4    1  0.9897231E-003  0.9118800E+02  0.7818608E-02  0.1130116E+00
         25   -1    0    0    0    0  0.00000000000E+00  0.00000000000E+00  0.99999998245E-14  0.12500000000E+03  0.12500000000E+03 0.  0.
        -13    1    1    0    0    0  0.43425959175E+02 -0.25703366844E+02 -0.28344887558E+02  0.57878500430E+02  0.10566000000E+00 0.  1.
         13    1    1    0    0    0  0.39408283430E+01 -0.17412524407E+01 -0.17498908943E+01  0.46513836940E+01  0.10566000000E+00 0. -1.
         22    1    1    0    0    0 -0.47366787518E+02  0.27444619284E+02  0.30094778452E+02  0.62470115876E+02  0.00000000000E+00 0.  1.
</event>
<event>
 4    1  0.9897231E-003  0.9118800E+02  0.7818608E-02  0.1130116E+00
         25   -1    0    0    0    0  0.00000000000E+00  0.00000000000E+00  0.99999998245E-14  0.12500000000E+03  0.12500000000E+03 0.  0.
        -13    1    1    0    0    0  0.14165900176E+02 -0.31103139988E+02  0.44566186179E+02  0.56162569025E+02  0.10566000000E+00 0. -1.
         13    1    1    0    0    0  0.34598458444E+01 -0.82549035098E+01 -0.47056477414E+01  0.10112776569E+02  0.10566000000E+00 0.  1.
         22    1    1    0    0    0 -0.17625746020E+02  0.39358043497E+02 -0.39860538437E+02  0.58724654407E+02  0.00000000000E+00 0. -1.
</event>
<event>
 4    1  0.9897231E-003  0.9118800E+02  0.7818608E-02  0.1130116E+00
         25   -1    0    0    0    0  0.00000000000E+00  0.00000000000E+00  0.99999998245E-14  0.12500000000E+03  0.12500000000E+03 0.  0.
        -13    1    1    0    0    0 -0.58968518525E+02 -0.77361116573E+01  0.13000718986E+02  0.60878267541E+02  0.10566000000E+00 0.  1.
         13    1    1    0    0    0 -0.15523704975E+01 -0.43083217142E+00  0.24315723381E+00  0.16327155286E+01  0.10566000000E+00 0. -1.
         22    1    1    0    0    0  0.60520889022E+02  0.81669438287E+01 -0.13243876220E+02  0.62489016930E+02  0.00000000000E+00 0.  1.
</event>
<event>
 4    1  0.9897231E-003  0.9118800E+02  0.7818608E-02  0.1130116E+00
         25   -1    0    0    0    0  0.00000000000E+00  0.00000000000E+00  0.99999998245E-14  0.12500000000E+03  0.12500000000E+03 0.  0.
        -13    1    1    0    0    0  0.92518400627E+00 -0.19026651348E+01 -0.40275939411E+01  0.45506897335E+01  0.10566000000E+00 0.  1.
         13    1    1    0    0    0  0.36347319259E+02 -0.26073330180E+02 -0.37236882518E+02  0.58202600867E+02  0.10566000000E+00 0. -1.
         22    1    1    0    0    0 -0.37272503266E+02  0.27975995315E+02  0.41264476459E+02  0.62246709399E+02  0.00000000000E+00 0. -1.
</event>
<event>
 4    1  0.9897231E-003  0.9118800E+02  0.7818608E-02  0.1130116E+00
         25   -1    0    0    0    0  0.00000000000E+00  0.00000000000E+00  0.99999998245E-14  0.12500000000E+03  0.12500000000E+03 0.  0.
        -13    1    1    0    0    0 -0.12582778933E+01  0.86076578923E-01  0.60453410654E+00  0.14026039911E+01  0.10566000000E+00 0. -1.
         13    1    1    0    0    0 -0.46359428445E+02 -0.18774653001E+02 -0.35796924013E+02  0.61507033207E+02  0.10566000000E+00 0.  1.
         22    1    1    0    0    0  0.47617706338E+02  0.18688576423E+02  0.35192389906E+02  0.62090362802E+02  0.00000000000E+00 0.  1.
</event>
<event>
 4    1  0.9897231E-003  0.9118800E+02  0.7818608E-02  0.1130116E+00
         25   -1    0    0    0    0  0.00000000000E+00  0.00000000000E+00  0.99999998245E-14  0.12500000000E+03  0.12500000000E+03 0.  0.
        -13    1    1    0    0    0  0.22601680917E+02  0.15761985652E+02  0.55204334114E+01  0.28102713767E+02  0.10566000000E+00 0. -1.
         13    1    1    0    0    0  0.27747970216E+02  0.18873390940E+02  0.75635410839E+01  0.34400189745E+02  0.10566000000E+00 0.  1.
         22    1    1    0    0    0 -0.50349651133E+02 -0.34635376593E+02 -0.13083974495E+02  0.62497096489E+02  0.00000000000E+00 0. -1.
</event>
<event>
 4    1  0.9897231E-003  0.9118800E+02  0.7818608E-02  0.1130116E+00
         25   -1    0    0    0    0  0.00000000000E+00  0.00000000000E+00  0.99999998245E-14  0.12500000000E+03  0.12500000000E+03 0.  0.
        -13    1    1    0    0    0 -0.42336630943E+02  0.63292599278E+00 -0.29622049117E+02  0.51674634715E+02  0.10566000000E+00 0.  1.
         13    1    1    0    0    0 -0.12043381209E+02 -0.22826046876E+01  0.87195555484E+01  0.15043108990E+02  0.10566000000E+00 0. -1.
         22    1    1    0    0    0  0.54380012152E+02  0.16496786948E+01  0.20902493569E+02  0.58282256295E+02  0.00000000000E+00 0.  1.
</event>
<event>
 4    1  0.9897231E-003  0.9118800E+02  0.7818608E-02  0.1130116E+00
         25   -1    0    0    0    0  0.00000000000E+00  0.00000000000E+00  0.99999998245E-14  0.12500000000E+03  0.12500000000E+03 0.  0.
        -13    1    1    0    0    0 -0.24641617253E+01 -0.22243696205E+01  0.28957338996E+01  0.44063989912E+01  0.10566000000E+00 0. -1.
         13    1    1    0    0    0 -0.29857793424E+02 -0.30058997055E+02  0.39752402820E+02  0.58097296204E+02  0.10566000000E+00 0.  1.
         22    1    1    0    0    0  0.32321955150E+02  0.32283366676E+02 -0.42648136720E+02  0.62496304805E+02  0.00000000000E+00 0.  1.
</event>
<event>
 4    1  0.9897231E-003  0.9118800E+02  0.7818608E-02  0.1130116E+00
         25   -1    0    0    0    0  0.00000000000E+00  0.00000000000E+00  0.99999998245E-14  0.12500000000E+03  0.12500000000E+03 0.  0.
        -13    1    1    0    0    0  0.24699070255E+02  0.19128729938E+02 -0.31216128740E+02  0.44163449119E+02  0.10566000000E+00 0. -1.
         13    1    1    0    0    0  0.90082460081E+01  0.10782835163E+02 -0.11940785638E+02  0.18439402267E+02  0.10566000000E+00 0.  1.
         22    1    1    0    0    0 -0.33707316263E+02 -0.29911565101E+02  0.43156914378E+02  0.62397148614E+02  0.00000000000E+00 0.  1.
</event>
<event>
 4    1  0.9897231E-003  0.9118800E+02  0.7818608E-02  0.1130116E+00
         25   -1    0    0    0    0  0.00000000000E+00  0.00000000000E+00  0.99999998245E-14  0.12500000000E+03  0.12500000000E+03 0.  0.
        -13    1    1    0    0    0  0.14279503641E+02 -0.12644213097E+02 -0.12900718197E+02  0.23026507402E+02  0.10566000000E+00 0. -1.
         13    1    1    0    0    0  0.23940997211E+02 -0.22123895134E+02 -0.22262453535E+02  0.39474879161E+02  0.10566000000E+00 0.  1.
         22    1    1    0    0    0 -0.38220500852E+02  0.34768108231E+02  0.35163171732E+02  0.62498613437E+02  0.00000000000E+00 0. -1.
</event>
<event>
 4    1  0.9897231E-003  0.9118800E+02  0.7818608E-02  0.1130116E+00
         25   -1    0    0    0    0  0.00000000000E+00  0.00000000000E+00  0.99999998245E-14  0.12500000000E+03  0.12500000000E+03 0.  0.
        -13    1    1    0    0    0 -0.37818932006E+02 -0.67330824530E+00 -0.49223887419E+01  0.38144017054E+02  0.10566000000E+00 0. -1.
         13    1    1    0    0    0 -0.24132895336E+02 -0.22505701040E+00 -0.32838279515E+01  0.24356559240E+02  0.10566000000E+00 0. -1.
         22    1    1    0    0    0  0.61951827342E+02  0.89836525570E+00  0.82062166935E+01  0.62499423706E+02  0.00000000000E+00 0. -1.
</event>
<event>
 4    1  0.9897231E-003  0.9118800E+02  0.7818608E-02  0.1130116E+00
         25   -1    0    0    0    0  0.00000000000E+00  0.00000000000E+00  0.99999998245E-14  0.12500000000E+03  0.12500000000E+03 0.  0.
        -13    1    1    0    0    0 -0.36859679815E+02 -0.19861908554E+02 -0.12110355920E+02  0.43586732982E+02  0.10566000000E+00 0. -1.
         13    1    1    0    0    0 -0.16321629369E+02 -0.76114872256E+01 -0.58207317537E+01  0.18926764257E+02  0.10566000000E+00 0.  1.
         22    1    1    0    0    0  0.53181309184E+02  0.27473395779E+02  0.17931087674E+02  0.62486502762E+02  0.00000000000E+00 0. -1.
</event>
<event>
 4    1  0.9897231E-003  0.9118800E+02  0.7818608E-02  0.1130116E+00
         25   -1    0    0    0    0  0.00000000000E+00  0.00000000000E+00  0.99999998245E-14  0.12500000000E+03  0.12500000000E+03 0.  0.
        -13    1    1    0    0    0 -0.17211764887E+02  0.38174702378E+02 -0.11817683783E+02  0.43511165995E+02  0.10566000000E+00 0.  1.
         13    1    1    0    0    0 -0.68302005407E+01  0.17224687329E+02 -0.42201499565E+01  0.19004271170E+02  0.10566000000E+00 0. -1.
         22    1    1    0    0    0  0.24041965428E+02 -0.55399389708E+02  0.16037833739E+02  0.62484562835E+02  0.00000000000E+00 0.  1.
</event>
<event>
 4    1  0.9897231E-003  0.9118800E+02  0.7818608E-02  0.1130116E+00
         25   -1    0    0    0    0  0.00000000000E+00  0.00000000000E+00  0.99999998245E-14  0.12500000000E+03  0.12500000000E+03 0.  0.
        -13    1    1    0    0    0  0.18664935411E+02 -0.18157437231E+02 -0.22548674825E+02  0.34445990203E+02  0.10566000000E+00 0.  1.
         13    1    1    0    0    0 -0.27956371296E+02 -0.26189788558E+02 -0.31959834716E+01  0.38440723135E+02  0.10566000000E+00 0. -1.
         22    1    1    0    0    0  0.92914358850E+01  0.44347225789E+02  0.25744658296E+02  0.52113286662E+02  0.00000000000E+00 0.  1.
</event>
<event>
 4    1  0.9897231E-003  0.9118800E+02  0.7818608E-02  0.1130116E+00
         25   -1    0    0    0    0  0.00000000000E+00  0.00000000000E+00  0.99999998245E-14  0.12500000000E+03  0.12500000000E+03 0.  0.
        -13    1    1    0    0    0  0.42555204264E+02 -0.72114308396E+01  0.78467428370E+01  0.43869496029E+02  0.10566000000E+00 0.  1.
         13    1    1    0    0    0  0.18441546965E+02 -0.24115044696E+01  0.15720478858E+01  0.18665168279E+02  0.10566000000E+00 0. -1.
         22    1    1    0    0    0 -0.60996751229E+02  0.96229353092E+01 -0.94187907228E+01  0.62465335692E+02  0.00000000000E+00 0.  1.
</event>
<event>
 4    1  0.9897231E-003  0.9118800E+02  0.7818608E-02  0.1130116E+00
         25   -1    0    0    0    0  0.00000000000E+00  0.00000000000E+00  0.99999998245E-14  0.12500000000E+03  0.12500000000E+03 0.  0.
        -13    1    1    0    0    0 -0.43255895717E+02  0.23705703483E+02 -0.27580539584E+02  0.56513097771E+02  0.10566000000E+00 0. -1.
         13    1    1    0    0    0  0.22962983491E+02  0.36888712049E+00 -0.46467161371E+01  0.23431556146E+02  0.10566000000E+00 0.  1.
         22    1    1    0    0    0  0.20292912226E+02 -0.24074590604E+02  0.32227255721E+02  0.45055346083E+02  0.00000000000E+00 0. -1.
</event>
<event>
 4    1  0.9897231E-003  0.9118800E+02  0.7818608E-02  0.1130116E+00
         25   -1    0    0    0    0  0.00000000000E+00  0.00000000000E+00  0.99999998245E-14  0.12500000000E+03  0.12500000000E+03 0.  0.
        -13    1    1    0    0    0  0.20595267195E+02 -0.41420040435E+02  0.37588914049E+02  0.59604717966E+02  0.10566000000E+00 0. -1.
         13    1    1    0    0    0  0.11214327730E+01 -0.17972437251E+01  0.19825119128E+01  0.29033108672E+01  0.10566000000E+00 0.  1.
         22    1    1    0    0    0 -0.21716699968E+02  0.43217284160E+02 -0.39571425962E+02  0.62491971166E+02  0.00000000000E+00 0. -1.
</event>
<event>
 4    1  0.9897231E-003  0.9118800E+02  0.7818608E-02  0.1130116E+00
         25   -1    0    0    0    0  0.00000000000E+00  0.00000000000E+00  0.99999998245E-14  0.12500000000E+03  0.12500000000E+03 0.  0.
        -13    1    1    0    0    0  0.10072255516E+02 -0.64139415123E+01  0.34436665423E+01  0.12428152727E+02  0.10566000000E+00 0. -1.
         13    1    1    0    0    0  0.14482859988E+02  0.41920497385E+02 -0.37107379819E+02  0.57827762671E+02  0.10566000000E+00 0.  1.
         22    1    1    0    0    0 -0.24555115504E+02 -0.35506555873E+02  0.33663713277E+02  0.54744084602E+02  0.00000000000E+00 0.  1.
</event>
<event>
 4    1  0.9897231E-003  0.9118800E+02  0.7818608E-02  0.1130116E+00
         25   -1    0    0    0    0  0.00000000000E+00  0.00000000000E+00  0.99999998245E-14  0.12500000000E+03  0.12500000000E+03 0.  0.
        -13    1    1    0    0    0  0.32426660059E+02 -0.27656949330E+02 -0.15612369610E+02  0.45388901482E+02  0.10566000000E+00 0.  1.
         13    1    1    0    0    0  0.10996949921E+02 -0.10852796031E+02 -0.74551292729E+01  0.17155355018E+02  0.10566000000E+00 0. -1.
         22    1    1    0    0    0 -0.43423609980E+02  0.38509745361E+02  0.23067498883E+02  0.62455743501E+02  0.00000000000E+00 0. -1.
</event>
<event>
 4    1  0.9897231E-003  0.9118800E+02  0.7818608E-02  0.1130116E+00
         25   -1    0    0    0    0  0.00000000000E+00  0.00000000000E+00  0.99999998245E-14  0.12500000000E+03  0.12500000000E+03 0.  0.
        -13    1    1    0    0    0  0.15607355462E+01 -0.75559008786E+01 -0.46572046003E+01  0.90126717602E+01  0.10566000000E+00 0. -1.
         13    1    1    0    0    0 -0.98020390509E+01 -0.43266800181E+02 -0.30328049175E+02  0.53739163543E+02  0.10566000000E+00 0.  1.
         22    1    1    0    0    0  0.82413035047E+01  0.50822701060E+02  0.34985253775E+02  0.62248164697E+02  0.00000000000E+00 0.  1.
</event>
<event>
 4    1  0.9897231E-003  0.9118800E+02  0.7818608E-02  0.1130116E+00
         25   -1    0    0    0    0  0.00000000000E+00  0.00000000000E+00  0.99999998245E-14  0.12500000000E+03  0.12500000000E+03 0.  0.
        -13    1    1    0    0    0 -0.43264793147E+02  0.83934305295E+00 -0.37298574649E+02  0.57129166436E+02  0.10566000000E+00 0.  1.
         13    1    1    0    0    0 -0.39664545892E+01  0.19815280330E+01 -0.32975487461E+01  0.55266813842E+01  0.10566000000E+00 0. -1.
         22    1    1    0    0    0  0.47231247736E+02 -0.28208710860E+01  0.40596123395E+02  0.62344152180E+02  0.00000000000E+00 0.  1.
</event>
<event>
 4    1  0.9897231E-003  0.9118800E+02  0.7818608E-02  0.1130116E+00
         25   -1    0    0    0    0  0.00000000000E+00  0.00000000000E+00  0.99999998245E-14  0.12500000000E+03  0.12500000000E+03 0.  0.
        -13    1    1    0    0    0 -0.24540341332E+02  0.37444933374E+01 -0.27764508723E+02  0.37244176614E+02  0.10566000000E+00 0.  1.
         13    1    1    0    0    0 -0.16774038676E+02  0.25738878082E+01 -0.18704856281E+02  0.25256208830E+02  0.10566000000E+00 0. -1.
         22    1    1    0    0    0  0.41314380007E+02 -0.63183811456E+01  0.46469365004E+02  0.62499614555E+02  0.00000000000E+00 0. -1.
</event>
<event>
 4    1  0.9897231E-003  0.9118800E+02  0.7818608E-02  0.1130116E+00
         25   -1    0    0    0    0  0.00000000000E+00  0.00000000000E+00  0.99999998245E-14  0.12500000000E+03  0.12500000000E+03 0.  0.
        -13    1    1    0    0    0  0.52291608122E+01  0.12635584980E+02  0.13705162446E+02  0.19360908354E+02  0.10566000000E+00 0. -1.
         13    1    1    0    0    0 -0.25802356864E+02  0.15656207134E+02  0.34653971786E+02  0.45954187689E+02  0.10566000000E+00 0.  1.
         22    1    1    0    0    0  0.20573196052E+02 -0.28291792114E+02 -0.48359134231E+02  0.59684903958E+02  0.00000000000E+00 0.  1.
</event>
<event>
 4    1  0.9897231E-003  0.9118800E+02  0.7818608E-02  0.1130116E+00
         25   -1    0    0    0    0  0.00000000000E+00  0.00000000000E+00  0.99999998245E-14  0.12500000000E+03  0.12500000000E+03 0.  0.
        -13    1    1    0    0    0 -0.10265372355E+01 -0.84732042756E+01  0.16254095003E+01  0.86891938332E+01  0.10566000000E+00 0.  1.
         13    1    1    0    0    0 -0.66029558200E+01 -0.52749279866E+02  0.83522412032E+01  0.53813164273E+02  0.10566000000E+00 0. -1.
         22    1    1    0    0    0  0.76294930556E+01  0.61222484141E+02 -0.99776507035E+01  0.62497641894E+02  0.00000000000E+00 0. -1.
</event>
<event>
 4    1  0.9897231E-003  0.9118800E+02  0.7818608E-02  0.1130116E+00
         25   -1    0    0    0    0  0.00000000000E+00  0.00000000000E+00  0.99999998245E-14  0.12500000000E+03  0.12500000000E+03 0.  0.
        -13    1    1    0    0    0 -0.31412337125E+02 -0.31900856896E+02  0.43345186789E+02  0.62315455356E+02  0.10566000000E+00 0. -1.
         13    1    1    0    0    0 -0.82385123179E-01  0.76755603313E-01  0.18298372826E+00  0.23942809269E+00  0.10566000000E+00 0.  1.
         22    1    1    0    0    0  0.31494722248E+02  0.31824101293E+02 -0.43528170517E+02  0.62445116552E+02  0.00000000000E+00 0. -1.
</event>
<event>
 4    1  0.9897231E-003  0.9118800E+02  0.7818608E-02  0.1130116E+00
         25   -1    0    0    0    0  0.00000000000E+00  0.00000000000E+00  0.99999998245E-14  0.12500000000E+03  0.12500000000E+03 0.  0.
        -13    1    1    0    0    0 -0.33651716537E+02  0.28027799278E+01 -0.32689633060E+02  0.46999115682E+02  0.10566000000E+00 0.  1.
         13    1    1    0    0    0  0.14049935808E+02  0.19538501532E+02 -0.99360848872E+01  0.26036333944E+02  0.10566000000E+00 0. -1.
         22    1    1    0    0    0  0.19601780729E+02 -0.22341281460E+02  0.42625717947E+02  0.51964550374E+02  0.00000000000E+00 0.  1.
</event>
<event>
 4    1  0.9897231E-003  0.9118800E+02  0.7818608E-02  0.1130116E+00
         25   -1    0    0    0    0  0.00000000000E+00  0.00000000000E+00  0.99999998245E-14  0.12500000000E+03  0.12500000000E+03 0.  0.
        -13    1    1    0    0    0 -0.12542344111E+02 -0.32663754963E+02 -0.47522816041E+01  0.35310432291E+02  0.10566000000E+00 0.  1.
         13    1    1    0    0    0 -0.10001003117E+02 -0.25183845420E+02 -0.23537819866E+01  0.27199220341E+02  0.10566000000E+00 0. -1.
         22    1    1    0    0    0  0.22543347228E+02  0.57847600383E+02  0.71060635907E+01  0.62490347368E+02  0.00000000000E+00 0.  1.
</event>
<event>
 4    1  0.9897231E-003  0.9118800E+02  0.7818608E-02  0.1130116E+00
         25   -1    0    0    0    0  0.00000000000E+00  0.00000000000E+00  0.99999998245E-14  0.12500000000E+03  0.12500000000E+03 0.  0.
        -13    1    1    0    0    0 -0.36455407093E-01 -0.22277305337E+00  0.57557921475E+00  0.62722587484E+00  0.10566000000E+00 0.  1.
         13    1    1    0    0    0 -0.45110235309E+02 -0.42608842860E+02  0.20487724752E+01  0.62085871600E+02  0.10566000000E+00 0. -1.
         22    1    1    0    0    0  0.45146690717E+02  0.42831615914E+02 -0.26243516899E+01  0.62286902526E+02  0.00000000000E+00 0. -1.
</event>
<event>
 4    1  0.9897231E-003  0.9118800E+02  0.7818608E-02  0.1130116E+00
         25   -1    0    0    0    0  0.00000000000E+00  0.00000000000E+00  0.99999998245E-14  0.12500000000E+03  0.12500000000E+03 0.  0.
        -13    1    1    0    0    0 -0.42143205616E+02  0.97693436748E+01 -0.19834886418E+02  0.47591214931E+02  0.10566000000E+00 0. -1.
         13    1    1    0    0    0 -0.12865448103E+02  0.32970452555E+01 -0.67873097806E+01  0.14915394745E+02  0.10566000000E+00 0.  1.
         22    1    1    0    0    0  0.55008653719E+02 -0.13066388930E+02  0.26622196198E+02  0.62493390323E+02  0.00000000000E+00 0. -1.
</event>
<event>
 4    1  0.9897231E-003  0.9118800E+02  0.7818608E-02  0.1130116E+00
         25   -1    0    0    0    0  0.00000000000E+00  0.00000000000E+00  0.99999998245E-14  0.12500000000E+03  0.12500000000E+03 0.  0.
        -13    1    1    0    0    0  0.33849184469E+02 -0.14825880501E+02 -0.20855314530E+02  0.42432644627E+02  0.10566000000E+00 0. -1.
         13    1    1    0    0    0 -0.67784213596E+01 -0.12574461691E+02 -0.21183958916E+02  0.25550643091E+02  0.10566000000E+00 0.  1.
         22    1    1    0    0    0 -0.27070763109E+02  0.27400342192E+02  0.42039273447E+02  0.57016712282E+02  0.00000000000E+00 0. -1.
</event>
<event>
 4    1  0.9897231E-003  0.9118800E+02  0.7818608E-02  0.1130116E+00
         25   -1    0    0    0    0  0.00000000000E+00  0.00000000000E+00  0.99999998245E-14  0.12500000000E+03  0.12500000000E+03 0.  0.
        -13    1    1    0    0    0 -0.35112372322E+01  0.36650477001E+01 -0.19266564539E+01  0.54299659918E+01  0.10566000000E+00 0.  1.
         13    1    1    0    0    0 -0.36887776488E+02  0.37642622014E+02 -0.21897907092E+02  0.57071924318E+02  0.10566000000E+00 0.  1.
         22    1    1    0    0    0  0.40399013720E+02 -0.41307669714E+02  0.23824563546E+02  0.62498109691E+02  0.00000000000E+00 0.  1.
</event>
<event>
 4    1  0.9897231E-003  0.9118800E+02  0.7818608E-02  0.1130116E+00
         25   -1    0    0    0    0  0.00000000000E+00  0.00000000000E+00  0.99999998245E-14  0.12500000000E+03  0.12500000000E+03 0.  0.
        -13    1    1    0    0    0  0.78886515935E+01  0.94526462844E+01  0.55972239457E+02  0.57310436219E+02  0.10566000000E+00 0.  1.
         13    1    1    0    0    0  0.12759466752E+01  0.12611297502E+00  0.50667706046E+01  0.52275494063E+01  0.10566000000E+00 0. -1.
         22    1    1    0    0    0 -0.91645982687E+01 -0.95787592594E+01 -0.61039010062E+02  0.62462014374E+02  0.00000000000E+00 0.  1.
</event>
<event>
 4    1  0.9897231E-003  0.9118800E+02  0.7818608E-02  0.1130116E+00
         25   -1    0    0    0    0  0.00000000000E+00  0.00000000000E+00  0.99999998245E-14  0.12500000000E+03  0.12500000000E+03 0.  0.
        -13    1    1    0    0    0  0.16769949093E+02 -0.37278498745E+02 -0.78685845020E+01  0.41627436234E+02  0.10566000000E+00 0. -1.
         13    1    1    0    0    0 -0.42322303458E+01  0.11170976725E+02 -0.31964242612E+02  0.34123693593E+02  0.10566000000E+00 0.  1.
         22    1    1    0    0    0 -0.12537718747E+02  0.26107522020E+02  0.39832827114E+02  0.49248870173E+02  0.00000000000E+00 0. -1.
</event>
<event>
 4    1  0.9897231E-003  0.9118800E+02  0.7818608E-02  0.1130116E+00
         25   -1    0    0    0    0  0.00000000000E+00  0.00000000000E+00  0.99999998245E-14  0.12500000000E+03  0.12500000000E+03 0.  0.
        -13    1    1    0    0    0 -0.32212810754E+01 -0.15149884338E+02  0.48659087643E+02  0.51064798262E+02  0.10566000000E+00 0.  1.
         13    1    1    0    0    0 -0.71374563617E+00 -0.33526586416E+01  0.10909193150E+02  0.11435532870E+02  0.10566000000E+00 0.  1.
         22    1    1    0    0    0  0.39350267116E+01  0.18502542980E+02 -0.59568280793E+02  0.62499668868E+02  0.00000000000E+00 0.  1.
</event>
<event>
 4    1  0.9897231E-003  0.9118800E+02  0.7818608E-02  0.1130116E+00
         25   -1    0    0    0    0  0.00000000000E+00  0.00000000000E+00  0.99999998245E-14  0.12500000000E+03  0.12500000000E+03 0.  0.
        -13    1    1    0    0    0 -0.51530000412E+02  0.62838674850E+01  0.64876360955E+01  0.52315662274E+02  0.10566000000E+00 0.  1.
         13    1    1    0    0    0 -0.10047344797E+02  0.12976334601E+01  0.10509436411E+01  0.10185707469E+02  0.10566000000E+00 0.  1.
         22    1    1    0    0    0  0.61577345209E+02 -0.75815009451E+01 -0.75385797366E+01  0.62498630257E+02  0.00000000000E+00 0.  1.
</event>
<event>
 4    1  0.9897231E-003  0.9118800E+02  0.7818608E-02  0.1130116E+00
         25   -1    0    0    0    0  0.00000000000E+00  0.00000000000E+00  0.99999998245E-14  0.12500000000E+03  0.12500000000E+03 0.  0.
        -13    1    1    0    0    0  0.15420414409E+02  0.13897547228E+02 -0.11710224576E+01  0.20792148930E+02  0.10566000000E+00 0.  1.
         13    1    1    0    0    0 -0.16654895688E+02  0.39084627527E+02 -0.20226812660E+02  0.47054529789E+02  0.10566000000E+00 0. -1.
         22    1    1    0    0    0  0.12344812789E+01 -0.52982174755E+02  0.21397835117E+02  0.57153321281E+02  0.00000000000E+00 0. -1.
</event>
<event>
 4    1  0.9897231E-003  0.9118800E+02  0.7818608E-02  0.1130116E+00
         25   -1    0    0    0    0  0.00000000000E+00  0.00000000000E+00  0.99999998245E-14  0.12500000000E+03  0.12500000000E+03 0.  0.
        -13    1    1    0    0    0  0.14858696624E+02  0.52378794921E+02  0.10812081624E+02  0.55508839799E+02  0.10566000000E+00 0.  1.
         13    1    1    0    0    0  0.18867467944E+01  0.66219314670E+01  0.12131919851E+01  0.69923378528E+01  0.10566000000E+00 0. -1.
         22    1    1    0    0    0 -0.16745443418E+02 -0.59000726388E+02 -0.12025273609E+02  0.62498822348E+02  0.00000000000E+00 0.  1.
</event>
<event>
 4    1  0.9897231E-003  0.9118800E+02  0.7818608E-02  0.1130116E+00
         25   -1    0    0    0    0  0.00000000000E+00  0.00000000000E+00  0.99999998245E-14  0.12500000000E+03  0.12500000000E+03 0.  0.
        -13    1    1    0    0    0  0.27476732081E+01 -0.18698676610E+02 -0.16620640409E+01  0.18972712930E+02  0.10566000000E+00 0. -1.
         13    1    1    0    0    0  0.62208648694E+01 -0.42428947841E+02 -0.76120106648E+01  0.43553055519E+02  0.10566000000E+00 0.  1.
         22    1    1    0    0    0 -0.89685380775E+01  0.61127624451E+02  0.92740747057E+01  0.62474231551E+02  0.00000000000E+00 0.  1.
</event>
<event>
 4    1  0.9897231E-003  0.9118800E+02  0.7818608E-02  0.1130116E+00
         25   -1    0    0    0    0  0.00000000000E+00  0.00000000000E+00  0.99999998245E-14  0.12500000000E+03  0.12500000000E+03 0.  0.
        -13    1    1    0    0    0 -0.92387065256E+00 -0.52196440449E+00 -0.25167204976E+02  0.25189786703E+02  0.10566000000E+00 0. -1.
         13    1    1    0    0    0 -0.59507824823E+01 -0.93136388275E+00 -0.36878809100E+02  0.37367592584E+02  0.10566000000E+00 0.  1.
         22    1    1    0    0    0  0.68746531349E+01  0.14533282872E+01  0.62046014076E+02  0.62442620713E+02  0.00000000000E+00 0.  1.
</event>
<event>
 4    1  0.9897231E-003  0.9118800E+02  0.7818608E-02  0.1130116E+00
         25   -1    0    0    0    0  0.00000000000E+00  0.00000000000E+00  0.99999998245E-14  0.12500000000E+03  0.12500000000E+03 0.  0.
        -13    1    1    0    0    0 -0.40413494609E+00 -0.87293236337E+01  0.15276251291E+02  0.17599415720E+02  0.10566000000E+00 0.  1.
         13    1    1    0    0    0  0.35834959106E+01 -0.23569585998E+02  0.38092655495E+02  0.44938050622E+02  0.10566000000E+00 0. -1.
         22    1    1    0    0    0 -0.31793609645E+01  0.32298909632E+02 -0.53368906785E+02  0.62462533658E+02  0.00000000000E+00 0. -1.
</event>
<event>
 4    1  0.9897231E-003  0.9118800E+02  0.7818608E-02  0.1130116E+00
         25   -1    0    0    0    0  0.00000000000E+00  0.00000000000E+00  0.99999998245E-14  0.12500000000E+03  0.12500000000E+03 0.  0.
        -13    1    1    0    0    0 -0.81957134335E+01 -0.10548395234E+02  0.39973896425E+02  0.42146908785E+02  0.10566000000E+00 0. -1.
         13    1    1    0    0    0 -0.34420347698E+01 -0.45945242685E+01  0.19531499158E+02  0.20357993025E+02  0.10566000000E+00 0.  1.
         22    1    1    0    0    0  0.11637748203E+02  0.15142919502E+02 -0.59505395583E+02  0.62495098190E+02  0.00000000000E+00 0. -1.
</event>
<event>
 4    1  0.9897231E-003  0.9118800E+02  0.7818608E-02  0.1130116E+00
         25   -1    0    0    0    0  0.00000000000E+00  0.00000000000E+00  0.99999998245E-14  0.12500000000E+03  0.12500000000E+03 0.  0.
        -13    1    1    0    0    0 -0.15607804322E+02 -0.51471055064E+02 -0.23780760432E+02  0.58808237483E+02  0.10566000000E+00 0. -1.
         13    1    1    0    0    0  0.12293934156E+01  0.19517626748E+01  0.13393937903E+02  0.13591523913E+02  0.10566000000E+00 0.  1.
         22    1    1    0    0    0  0.14378410906E+02  0.49519292389E+02  0.10386822530E+02  0.52600238603E+02  0.00000000000E+00 0. -1.
</event>
<event>
 4    1  0.9897231E-003  0.9118800E+02  0.7818608E-02  0.1130116E+00
         25   -1    0    0    0    0  0.00000000000E+00  0.00000000000E+00  0.99999998245E-14  0.12500000000E+03  0.12500000000E+03 0.  0.
        -13    1    1    0    0    0 -0.41373342787E+02 -0.48364712266E+01  0.74462761461E+01  0.42315518900E+02  0.10566000000E+00 0.  1.
         13    1    1    0    0    0 -0.19733867773E+02 -0.23769801782E+01  0.35124025641E+01  0.20184739480E+02  0.10566000000E+00 0.  1.
         22    1    1    0    0    0  0.61107210560E+02  0.72134514047E+01 -0.10958678710E+02  0.62499741621E+02  0.00000000000E+00 0.  1.
</event>
<event>
 4    1  0.9897231E-003  0.9118800E+02  0.7818608E-02  0.1130116E+00
         25   -1    0    0    0    0  0.00000000000E+00  0.00000000000E+00  0.99999998245E-14  0.12500000000E+03  0.12500000000E+03 0.  0.
        -13    1    1    0    0    0  0.39824239599E+01 -0.63144069337E+01 -0.41881397373E+02  0.42541674220E+02  0.10566000000E+00 0. -1.
         13    1    1    0    0    0  0.30400685206E+02  0.77007567186E+01  0.35661704944E+02  0.47489700763E+02  0.10566000000E+00 0.  1.
         22    1    1    0    0    0 -0.34383109166E+02 -0.13863497849E+01  0.62196924292E+01  0.34968625017E+02  0.00000000000E+00 0. -1.
</event>
<event>
 4    1  0.9897231E-003  0.9118800E+02  0.7818608E-02  0.1130116E+00
         25   -1    0    0    0    0  0.00000000000E+00  0.00000000000E+00  0.99999998245E-14  0.12500000000E+03  0.12500000000E+03 0.  0.
        -13    1    1    0    0    0 -0.16937710860E+02  0.25906225034E+01  0.29231915909E+02  0.33883822776E+02  0.10566000000E+00 0. -1.
         13    1    1    0    0    0  0.51363863650E+01  0.70615070583E+01  0.29329928516E+02  0.30602340068E+02  0.10566000000E+00 0.  1.
         22    1    1    0    0    0  0.11801324495E+02 -0.96521295617E+01 -0.58561844425E+02  0.60513837157E+02  0.00000000000E+00 0.  1.
</event>
<event>
 4    1  0.9897231E-003  0.9118800E+02  0.7818608E-02  0.1130116E+00
         25   -1    0    0    0    0  0.00000000000E+00  0.00000000000E+00  0.99999998245E-14  0.12500000000E+03  0.12500000000E+03 0.  0.
        -13    1    1    0    0    0 -0.28909744494E+02  0.22130577524E+02 -0.16020340951E+02  0.39776856040E+02  0.10566000000E+00 0. -1.
         13    1    1    0    0    0 -0.16270860358E+02  0.12864732234E+02 -0.92809840631E+01  0.22724217510E+02  0.10566000000E+00 0.  1.
         22    1    1    0    0    0  0.45180604852E+02 -0.34995309758E+02  0.25301325014E+02  0.62498926449E+02  0.00000000000E+00 0. -1.
</event>
<event>
 4    1  0.9897231E-003  0.9118800E+02  0.7818608E-02  0.1130116E+00
         25   -1    0    0    0    0  0.00000000000E+00  0.00000000000E+00  0.99999998245E-14  0.12500000000E+03  0.12500000000E+03 0.  0.
        -13    1    1    0    0    0  0.92935821328E+01  0.90102988956E+01  0.90356298080E-01  0.12945094953E+02  0.10566000000E+00 0. -1.
         13    1    1    0    0    0  0.24624863432E+02  0.42732937511E+02 -0.69449547377E+01  0.49806941360E+02  0.10566000000E+00 0.  1.
         22    1    1    0    0    0 -0.33918445565E+02 -0.51743236406E+02  0.68545984396E+01  0.62247963686E+02  0.00000000000E+00 0.  1.
</event>
<event>
 4    1  0.9897231E-003  0.9118800E+02  0.7818608E-02  0.1130116E+00
         25   -1    0    0    0    0  0.00000000000E+00  0.00000000000E+00  0.99999998245E-14  0.12500000000E+03  0.12500000000E+03 0.  0.
        -13    1    1    0    0    0 -0.30496668886E+02  0.35100208724E+02  0.25879163437E+02  0.53214788638E+02  0.10566000000E+00 0. -1.
         13    1    1    0    0    0 -0.92368741471E+01 -0.94694662568E+01 -0.20222342757E+02  0.24164952841E+02  0.10566000000E+00 0.  1.
         22    1    1    0    0    0  0.39733543033E+02 -0.25630742467E+02 -0.56568206798E+01  0.47620258520E+02  0.00000000000E+00 0. -1.
</event>
<event>
 4    1  0.9897231E-003  0.9118800E+02  0.7818608E-02  0.1130116E+00
         25   -1    0    0    0    0  0.00000000000E+00  0.00000000000E+00  0.99999998245E-14  0.12500000000E+03  0.12500000000E+03 0.  0.
        -13    1    1    0    0    0  0.10754794093E+02 -0.70719959558E+01 -0.15955814828E+02  0.20500680809E+02  0.10566000000E+00 0.  1.
         13    1    1    0    0    0  0.24135633144E+02 -0.16157230943E+02 -0.30371474666E+02  0.42024070917E+02  0.10566000000E+00 0. -1.
         22    1    1    0    0    0 -0.34890427237E+02  0.23229226898E+02  0.46327289494E+02  0.62475248274E+02  0.00000000000E+00 0. -1.
</event>
<event>
 4    1  0.9897231E-003  0.9118800E+02  0.7818608E-02  0.1130116E+00
         25   -1    0    0    0    0  0.00000000000E+00  0.00000000000E+00  0.99999998245E-14  0.12500000000E+03  0.12500000000E+03 0.  0.
        -13    1    1    0    0    0  0.28743885340E+01  0.38454671264E+01  0.22595180113E+02  0.23099849680E+02  0.10566000000E+00 0.  1.
         13    1    1    0    0    0 -0.36970006068E+02 -0.72385788128E+01  0.23548155650E+02  0.44426401727E+02  0.10566000000E+00 0. -1.
         22    1    1    0    0    0  0.34095617534E+02  0.33931116864E+01 -0.46143335763E+02  0.57473748593E+02  0.00000000000E+00 0.  1.
</event>
<event>
 4    1  0.9897231E-003  0.9118800E+02  0.7818608E-02  0.1130116E+00
         25   -1    0    0    0    0  0.00000000000E+00  0.00000000000E+00  0.99999998245E-14  0.12500000000E+03  0.12500000000E+03 0.  0.
        -13    1    1    0    0    0 -0.12568511290E+02  0.33225364317E+02 -0.23022471051E+02  0.42331284500E+02  0.10566000000E+00 0.  1.
         13    1    1    0    0    0 -0.16223224512E+02  0.12000306034E+02  0.20843928443E+02  0.29011736857E+02  0.10566000000E+00 0. -1.
         22    1    1    0    0    0  0.28791735803E+02 -0.45225670351E+02  0.21785426084E+01  0.53656978643E+02  0.00000000000E+00 0.  1.
</event>
<event>
 4    1  0.9897231E-003  0.9118800E+02  0.7818608E-02  0.1130116E+00
         25   -1    0    0    0    0  0.00000000000E+00  0.00000000000E+00  0.99999998245E-14  0.12500000000E+03  0.12500000000E+03 0.  0.
        -13    1    1    0    0    0  0.14617410311E+01 -0.45848826049E+01  0.17574869412E+02  0.18222102904E+02  0.10566000000E+00 0. -1.
         13    1    1    0    0    0  0.20122839301E+02  0.44450952190E+01  0.40160584947E+02  0.45139464777E+02  0.10566000000E+00 0.  1.
         22    1    1    0    0    0 -0.21584580332E+02  0.13978738590E+00 -0.57735454359E+02  0.61638432319E+02  0.00000000000E+00 0.  1.
</event>
<event>
 4    1  0.9897231E-003  0.9118800E+02  0.7818608E-02  0.1130116E+00
         25   -1    0    0    0    0  0.00000000000E+00  0.00000000000E+00  0.99999998245E-14  0.12500000000E+03  0.12500000000E+03 0.  0.
        -13    1    1    0    0    0 -0.24530374659E+02  0.28253711089E+02 -0.11184834248E+02  0.39052825152E+02  0.10566000000E+00 0.  1.
         13    1    1    0    0    0 -0.16115145417E+02  0.15779475406E+02 -0.64910115983E+01  0.23469856231E+02  0.10566000000E+00 0. -1.
         22    1    1    0    0    0  0.40645520076E+02 -0.44033186494E+02  0.17675845846E+02  0.62477318617E+02  0.00000000000E+00 0. -1.
</event>
<event>
 4    1  0.9897231E-003  0.9118800E+02  0.7818608E-02  0.1130116E+00
         25   -1    0    0    0    0  0.00000000000E+00  0.00000000000E+00  0.99999998245E-14  0.12500000000E+03  0.12500000000E+03 0.  0.
        -13    1    1    0    0    0 -0.98415747195E+01 -0.42652946311E+02  0.18323279313E+02  0.47454021439E+02  0.10566000000E+00 0. -1.
         13    1    1    0    0    0 -0.33065055817E+01 -0.13679812961E+02  0.53307478450E+01  0.15049860412E+02  0.10566000000E+00 0. -1.
         22    1    1    0    0    0  0.13148080301E+02  0.56332759272E+02 -0.23654027158E+02  0.62496118148E+02  0.00000000000E+00 0. -1.
</event>
<event>
 4    1  0.9897231E-003  0.9118800E+02  0.7818608E-02  0.1130116E+00
         25   -1    0    0    0    0  0.00000000000E+00  0.00000000000E+00  0.99999998245E-14  0.12500000000E+03  0.12500000000E+03 0.  0.
        -13    1    1    0    0    0  0.84747511468E+01 -0.10309285024E+02  0.95919209997E+01  0.16435293645E+02  0.10566000000E+00 0.  1.
         13    1    1    0    0    0  0.23264469176E+02 -0.28943580446E+02  0.27258962176E+02  0.46065481198E+02  0.10566000000E+00 0.  1.
         22    1    1    0    0    0 -0.31739220323E+02  0.39252865470E+02 -0.36850883176E+02  0.62499225156E+02  0.00000000000E+00 0.  1.
</event>
<event>
 4    1  0.9897231E-003  0.9118800E+02  0.7818608E-02  0.1130116E+00
         25   -1    0    0    0    0  0.00000000000E+00  0.00000000000E+00  0.99999998245E-14  0.12500000000E+03  0.12500000000E+03 0.  0.
        -13    1    1    0    0    0 -0.34010779614E+02 -0.15999321280E+02  0.61376799653E+01  0.38084034592E+02  0.10566000000E+00 0.  1.
         13    1    1    0    0    0 -0.24559353915E+02 -0.34313698266E+01  0.84869632217E+00  0.24812650263E+02  0.10566000000E+00 0. -1.
         22    1    1    0    0    0  0.58570133528E+02  0.19430691107E+02 -0.69863762875E+01  0.62103315146E+02  0.00000000000E+00 0.  1.
</event>
<event>
 4    1  0.9897231E-003  0.9118800E+02  0.7818608E-02  0.1130116E+00
         25   -1    0    0    0    0  0.00000000000E+00  0.00000000000E+00  0.99999998245E-14  0.12500000000E+03  0.12500000000E+03 0.  0.
        -13    1    1    0    0    0 -0.52694860080E+01  0.12825354248E+01 -0.86011309682E+00  0.54921160293E+01  0.10566000000E+00 0. -1.
         13    1    1    0    0    0 -0.55478154859E+02  0.97378008294E+01 -0.88255062147E+01  0.57013605004E+02  0.10566000000E+00 0.  1.
         22    1    1    0    0    0  0.60747640867E+02 -0.11020336254E+02  0.96856193115E+01  0.62494278967E+02  0.00000000000E+00 0.  1.
</event>
<event>
 4    1  0.9897231E-003  0.9118800E+02  0.7818608E-02  0.1130116E+00
         25   -1    0    0    0    0  0.00000000000E+00  0.00000000000E+00  0.99999998245E-14  0.12500000000E+03  0.12500000000E+03 0.  0.
        -13    1    1    0    0    0  0.25506533469E+02 -0.15578253440E+02  0.25665415322E+02  0.39395303496E+02  0.10566000000E+00 0.  1.
         13    1    1    0    0    0  0.16281574134E+02 -0.20669012228E+02 -0.94758446770E+01  0.27966060129E+02  0.10566000000E+00 0. -1.
         22    1    1    0    0    0 -0.41788107603E+02  0.36247265668E+02 -0.16189570645E+02  0.57638636375E+02  0.00000000000E+00 0.  1.
</event>
<event>
 4    1  0.9897231E-003  0.9118800E+02  0.7818608E-02  0.1130116E+00
         25   -1    0    0    0    0  0.00000000000E+00  0.00000000000E+00  0.99999998245E-14  0.12500000000E+03  0.12500000000E+03 0.  0.
        -13    1    1    0    0    0  0.21866929125E+02 -0.28810043008E+02  0.24669559933E+02  0.43781040632E+02  0.10566000000E+00 0.  1.
         13    1    1    0    0    0  0.11986239108E+02 -0.94139292584E+01  0.11118521109E+02  0.18865965857E+02  0.10566000000E+00 0. -1.
         22    1    1    0    0    0 -0.33853168232E+02  0.38223972267E+02 -0.35788081042E+02  0.62352993512E+02  0.00000000000E+00 0.  1.
</event>
<event>
 4    1  0.9897231E-003  0.9118800E+02  0.7818608E-02  0.1130116E+00
         25   -1    0    0    0    0  0.00000000000E+00  0.00000000000E+00  0.99999998245E-14  0.12500000000E+03  0.12500000000E+03 0.  0.
        -13    1    1    0    0    0 -0.44256741667E+01 -0.81385300564E+01 -0.59479468363E+00  0.92837065905E+01  0.10566000000E+00 0.  1.
         13    1    1    0    0    0  0.12481145846E+02 -0.45326515993E+02 -0.27828046154E+02  0.54632255770E+02  0.10566000000E+00 0. -1.
         22    1    1    0    0    0 -0.80554716788E+01  0.53465046050E+02  0.28422840838E+02  0.61084037640E+02  0.00000000000E+00 0.  1.
</event>
<event>
 4    1  0.9897231E-003  0.9118800E+02  0.7818608E-02  0.1130116E+00
         25   -1    0    0    0    0  0.00000000000E+00  0.00000000000E+00  0.99999998245E-14  0.12500000000E+03  0.12500000000E+03 0.  0.
        -13    1    1    0    0    0 -0.17451638917E+02 -0.43699164230E+01 -0.15461659228E+02  0.23721929529E+02  0.10566000000E+00 0.  1.
         13    1    1    0    0    0 -0.30062134293E+02 -0.36234986691E+01 -0.24287137098E+02  0.38816721311E+02  0.10566000000E+00 0. -1.
         22    1    1    0    0    0  0.47513773211E+02  0.79934150922E+01  0.39748796326E+02  0.62461349160E+02  0.00000000000E+00 0. -1.
</event>
<event>
 4    1  0.9897231E-003  0.9118800E+02  0.7818608E-02  0.1130116E+00
         25   -1    0    0    0    0  0.00000000000E+00  0.00000000000E+00  0.99999998245E-14  0.12500000000E+03  0.12500000000E+03 0.  0.
        -13    1    1    0    0    0  0.31169603898E+02 -0.26760693726E+02 -0.17130517116E+02  0.44510051860E+02  0.10566000000E+00 0. -1.
         13    1    1    0    0    0  0.10197343825E+02  0.64962721939E+01 -0.18605715166E+02  0.22189438351E+02  0.10566000000E+00 0.  1.
         22    1    1    0    0    0 -0.41366947723E+02  0.20264421532E+02  0.35736232282E+02  0.58300509789E+02  0.00000000000E+00 0. -1.
</event>
<event>
 4    1  0.9897231E-003  0.9118800E+02  0.7818608E-02  0.1130116E+00
         25   -1    0    0    0    0  0.00000000000E+00  0.00000000000E+00  0.99999998245E-14  0.12500000000E+03  0.12500000000E+03 0.  0.
        -13    1    1    0    0    0 -0.16104963985E+02  0.86068206107E+01 -0.28959791028E+02  0.34236353287E+02  0.10566000000E+00 0. -1.
         13    1    1    0    0    0 -0.28898505140E+02 -0.14732671782E+02 -0.65736457618E+01  0.33096815554E+02  0.10566000000E+00 0.  1.
         22    1    1    0    0    0  0.45003469125E+02  0.61258511710E+01  0.35533436790E+02  0.57666831159E+02  0.00000000000E+00 0. -1.
</event>
<event>
 4    1  0.9897231E-003  0.9118800E+02  0.7818608E-02  0.1130116E+00
         25   -1    0    0    0    0  0.00000000000E+00  0.00000000000E+00  0.99999998245E-14  0.12500000000E+03  0.12500000000E+03 0.  0.
        -13    1    1    0    0    0  0.18599035778E+01 -0.68748917936E+00  0.37869759438E+00  0.20214990958E+01  0.10566000000E+00 0.  1.
         13    1    1    0    0    0  0.57493627409E+02 -0.18358571076E+02  0.40313716281E+01  0.60488159551E+02  0.10566000000E+00 0. -1.
         22    1    1    0    0    0 -0.59353530987E+02  0.19046060255E+02 -0.44100692225E+01  0.62490341353E+02  0.00000000000E+00 0. -1.
</event>
<event>
 4    1  0.9897231E-003  0.9118800E+02  0.7818608E-02  0.1130116E+00
         25   -1    0    0    0    0  0.00000000000E+00  0.00000000000E+00  0.99999998245E-14  0.12500000000E+03  0.12500000000E+03 0.  0.
        -13    1    1    0    0    0  0.20854279179E+02  0.23679182071E+02 -0.71255299264E+01  0.32347936014E+02  0.10566000000E+00 0. -1.
         13    1    1    0    0    0  0.19695341163E+02  0.21948578409E+02 -0.62891334197E+01  0.30153124563E+02  0.10566000000E+00 0.  1.
         22    1    1    0    0    0 -0.40549620342E+02 -0.45627760480E+02  0.13414663346E+02  0.62498939423E+02  0.00000000000E+00 0. -1.
</event>
<event>
 4    1  0.9897231E-003  0.9118800E+02  0.7818608E-02  0.1130116E+00
         25   -1    0    0    0    0  0.00000000000E+00  0.00000000000E+00  0.99999998245E-14  0.12500000000E+03  0.12500000000E+03 0.  0.
        -13    1    1    0    0    0  0.19667087847E+01  0.22026632453E+02  0.21394166453E+02  0.30769497931E+02  0.10566000000E+00 0.  1.
         13    1    1    0    0    0  0.16354180860E+01  0.24205043743E+02  0.20480891517E+02  0.31749595530E+02  0.10566000000E+00 0. -1.
         22    1    1    0    0    0 -0.36021268707E+01 -0.46231676196E+02 -0.41875057971E+02  0.62480906539E+02  0.00000000000E+00 0.  1.
</event>
<event>
 4    1  0.9897231E-003  0.9118800E+02  0.7818608E-02  0.1130116E+00
         25   -1    0    0    0    0  0.00000000000E+00  0.00000000000E+00  0.99999998245E-14  0.12500000000E+03  0.12500000000E+03 0.  0.
        -13    1    1    0    0    0 -0.26500610071E+02  0.33361632046E+02 -0.24664969507E+02  0.49230607469E+02  0.10566000000E+00 0.  1.
         13    1    1    0    0    0 -0.69345142044E+01  0.88854287950E+01 -0.70076292395E+01  0.13272391032E+02  0.10566000000E+00 0.  1.
         22    1    1    0    0    0  0.33435124276E+02 -0.42247060841E+02  0.31672598746E+02  0.62497001499E+02  0.00000000000E+00 0.  1.
</event>
<event>
 4    1  0.9897231E-003  0.9118800E+02  0.7818608E-02  0.1130116E+00
         25   -1    0    0    0    0  0.00000000000E+00  0.00000000000E+00  0.99999998245E-14  0.12500000000E+03  0.12500000000E+03 0.  0.
        -13    1    1    0    0    0 -0.12372023437E+02 -0.61709964023E+01 -0.20073223576E+02  0.24374035966E+02  0.10566000000E+00 0. -1.
         13    1    1    0    0    0 -0.20641174149E+02 -0.65611389285E+01 -0.31411366442E+02  0.38154838750E+02  0.10566000000E+00 0.  1.
         22    1    1    0    0    0  0.33013197585E+02  0.12732135331E+02  0.51484590018E+02  0.62471125284E+02  0.00000000000E+00 0.  1.
</event>
<event>
 4    1  0.9897231E-003  0.9118800E+02  0.7818608E-02  0.1130116E+00
         25   -1    0    0    0    0  0.00000000000E+00  0.00000000000E+00  0.99999998245E-14  0.12500000000E+03  0.12500000000E+03 0.  0.
        -13    1    1    0    0    0  0.17021258827E+02 -0.42941950844E+01  0.34464028265E+02  0.38677432331E+02  0.10566000000E+00 0. -1.
         13    1    1    0    0    0  0.10481076828E+02 -0.25993968425E+01  0.21234486343E+02  0.23822770824E+02  0.10566000000E+00 0. -1.
         22    1    1    0    0    0 -0.27502335655E+02  0.68935919269E+01 -0.55698514608E+02  0.62499796845E+02  0.00000000000E+00 0. -1.
</event>
<event>
 4    1  0.9897231E-003  0.9118800E+02  0.7818608E-02  0.1130116E+00
         25   -1    0    0    0    0  0.00000000000E+00  0.00000000000E+00  0.99999998245E-14  0.12500000000E+03  0.12500000000E+03 0.  0.
        -13    1    1    0    0    0 -0.31062026817E+02  0.14638156942E+02  0.15271152826E+02  0.37581171100E+02  0.10566000000E+00 0.  1.
         13    1    1    0    0    0 -0.20613435370E+02  0.96677117002E+01  0.10127601815E+02  0.24919025861E+02  0.10566000000E+00 0.  1.
         22    1    1    0    0    0  0.51675462187E+02 -0.24305868642E+02 -0.25398754640E+02  0.62499803039E+02  0.00000000000E+00 0.  1.
</event>
<event>
 4    1  0.9897231E-003  0.9118800E+02  0.7818608E-02  0.1130116E+00
         25   -1    0    0    0    0  0.00000000000E+00  0.00000000000E+00  0.99999998245E-14  0.12500000000E+03  0.12500000000E+03 0.  0.
        -13    1    1    0    0    0 -0.55860589132E+01 -0.44418073146E+02 -0.22968324386E+02  0.50316243553E+02  0.10566000000E+00 0.  1.
         13    1    1    0    0    0 -0.19589674597E+01 -0.10866241993E+02 -0.51711947082E+01  0.12192833440E+02  0.10566000000E+00 0. -1.
         22    1    1    0    0    0  0.75450263728E+01  0.55284315139E+02  0.28139519094E+02  0.62490923006E+02  0.00000000000E+00 0.  1.
</event>
<event>
 4    1  0.9897231E-003  0.9118800E+02  0.7818608E-02  0.1130116E+00
         25   -1    0    0    0    0  0.00000000000E+00  0.00000000000E+00  0.99999998245E-14  0.12500000000E+03  0.12500000000E+03 0.  0.
        -13    1    1    0    0    0 -0.56163134411E+02 -0.26348438579E+01  0.12957185967E+01  0.56239933497E+02  0.10566000000E+00 0. -1.
         13    1    1    0    0    0 -0.62520575485E+01 -0.26889349156E+00  0.15245674172E+00  0.62605857867E+01  0.10566000000E+00 0. -1.
         22    1    1    0    0    0  0.62415191960E+02  0.29037373494E+01 -0.14481753384E+01  0.62499480716E+02  0.00000000000E+00 0. -1.
</event>
<event>
 4    1  0.9897231E-003  0.9118800E+02  0.7818608E-02  0.1130116E+00
         25   -1    0    0    0    0  0.00000000000E+00  0.00000000000E+00  0.99999998245E-14  0.12500000000E+03  0.12500000000E+03 0.  0.
        -13    1    1    0    0    0 -0.49176058520E+02 -0.22294559986E+02 -0.25172607383E+02  0.59573513100E+02  0.10566000000E+00 0.  1.
         13    1    1    0    0    0  0.19645358660E+01 -0.37005361632E+01 -0.24609319254E+01  0.48601151263E+01  0.10566000000E+00 0. -1.
         22    1    1    0    0    0  0.47211522654E+02  0.25995096149E+02  0.27633539309E+02  0.60566371774E+02  0.00000000000E+00 0.  1.
</event>
<event>
 4    1  0.9897231E-003  0.9118800E+02  0.7818608E-02  0.1130116E+00
         25   -1    0    0    0    0  0.00000000000E+00  0.00000000000E+00  0.99999998245E-14  0.12500000000E+03  0.12500000000E+03 0.  0.
        -13    1    1    0    0    0 -0.52897660378E+01  0.70371253442E+01  0.13875708239E+02  0.16433173796E+02  0.10566000000E+00 0.  1.
         13    1    1    0    0    0 -0.24164095039E+02 -0.35882402336E+01  0.40114908704E+02  0.46968031909E+02  0.10566000000E+00 0. -1.
         22    1    1    0    0    0  0.29453861077E+02 -0.34488851106E+01 -0.53990616942E+02  0.61598794296E+02  0.00000000000E+00 0.  1.
</event>
<event>
 4    1  0.9897231E-003  0.9118800E+02  0.7818608E-02  0.1130116E+00
         25   -1    0    0    0    0  0.00000000000E+00  0.00000000000E+00  0.99999998245E-14  0.12500000000E+03  0.12500000000E+03 0.  0.
        -13    1    1    0    0    0  0.22713272000E+02 -0.10948449189E+02 -0.17342766375E+01  0.25274100263E+02  0.10566000000E+00 0.  1.
         13    1    1    0    0    0  0.26920743252E+02 -0.26240880902E+02  0.27739555197E+01  0.37696369069E+02  0.10566000000E+00 0. -1.
         22    1    1    0    0    0 -0.49634015252E+02  0.37189330091E+02 -0.10396788823E+01  0.62029530668E+02  0.00000000000E+00 0. -1.
</event>
<event>
 4    1  0.9897231E-003  0.9118800E+02  0.7818608E-02  0.1130116E+00
         25   -1    0    0    0    0  0.00000000000E+00  0.00000000000E+00  0.99999998245E-14  0.12500000000E+03  0.12500000000E+03 0.  0.
        -13    1    1    0    0    0 -0.26300779803E+01  0.55112207434E+01  0.43781452062E+01  0.75146645798E+01  0.10566000000E+00 0.  1.
         13    1    1    0    0    0 -0.19048579987E+02  0.42345886485E+02  0.29462609556E+02  0.54991626886E+02  0.10566000000E+00 0. -1.
         22    1    1    0    0    0  0.21678657967E+02 -0.47857107228E+02 -0.33840754762E+02  0.62493708534E+02  0.00000000000E+00 0. -1.
</event>
<event>
 4    1  0.9897231E-003  0.9118800E+02  0.7818608E-02  0.1130116E+00
         25   -1    0    0    0    0  0.00000000000E+00  0.00000000000E+00  0.99999998245E-14  0.12500000000E+03  0.12500000000E+03 0.  0.
        -13    1    1    0    0    0  0.66964326931E+01  0.15909588940E+02  0.46822112942E+01  0.17885510831E+02  0.10566000000E+00 0. -1.
         13    1    1    0    0    0 -0.34602506593E+02  0.19277809932E+02 -0.35057981301E+02  0.52896508725E+02  0.10566000000E+00 0.  1.
         22    1    1    0    0    0  0.27906073900E+02 -0.35187398873E+02  0.30375770007E+02  0.54217980444E+02  0.00000000000E+00 0.  1.
</event>
<event>
 4    1  0.9897231E-003  0.9118800E+02  0.7818608E-02  0.1130116E+00
         25   -1    0    0    0    0  0.00000000000E+00  0.00000000000E+00  0.99999998245E-14  0.12500000000E+03  0.12500000000E+03 0.  0.
        -13    1    1    0    0    0 -0.10573023850E+02  0.48002199631E+02 -0.32879714416E+02  0.59136171561E+02  0.10566000000E+00 0. -1.
         13    1    1    0    0    0 -0.37033357641E+00  0.27200969209E+01 -0.19499575934E+01  0.33689127132E+01  0.10566000000E+00 0. -1.
         22    1    1    0    0    0  0.10943357426E+02 -0.50722296552E+02  0.34829672010E+02  0.62494915726E+02  0.00000000000E+00 0. -1.
</event>
<event>
 4    1  0.9897231E-003  0.9118800E+02  0.7818608E-02  0.1130116E+00
         25   -1    0    0    0    0  0.00000000000E+00  0.00000000000E+00  0.99999998245E-14  0.12500000000E+03  0.12500000000E+03 0.  0.
        -13    1    1    0    0    0  0.46661640812E+02 -0.17406766451E+02  0.13729476376E+01  0.49821685949E+02  0.10566000000E+00 0. -1.
         13    1    1    0    0    0 -0.35853636616E+02 -0.14609979319E+02 -0.10615807187E+02  0.40145252279E+02  0.10566000000E+00 0.  1.
         22    1    1    0    0    0 -0.10808004196E+02  0.32016745770E+02  0.92428595490E+01  0.35033061771E+02  0.00000000000E+00 0. -1.
</event>
<event>
 4    1  0.9897231E-003  0.9118800E+02  0.7818608E-02  0.1130116E+00
         25   -1    0    0    0    0  0.00000000000E+00  0.00000000000E+00  0.99999998245E-14  0.12500000000E+03  0.12500000000E+03 0.  0.
        -13    1    1    0    0    0 -0.96816748391E+01 -0.25989784305E+02  0.17195659131E+02  0.32632890968E+02  0.10566000000E+00 0.  1.
         13    1    1    0    0    0  0.17998889564E+02 -0.22326283428E+02  0.16303597889E+02  0.32988504444E+02  0.10566000000E+00 0. -1.
         22    1    1    0    0    0 -0.83172147253E+01  0.48316067734E+02 -0.33499257020E+02  0.59378604589E+02  0.00000000000E+00 0. -1.
</event>
<event>
 4    1  0.9897231E-003  0.9118800E+02  0.7818608E-02  0.1130116E+00
         25   -1    0    0    0    0  0.00000000000E+00  0.00000000000E+00  0.99999998245E-14  0.12500000000E+03  0.12500000000E+03 0.  0.
        -13    1    1    0    0    0 -0.54048686851E+01  0.45005075732E+01  0.45964812486E+01  0.84027363296E+01  0.10566000000E+00 0. -1.
         13    1    1    0    0    0  0.20703371663E+02  0.53040321149E+02 -0.94725254277E+00  0.56945708506E+02  0.10566000000E+00 0.  1.
         22    1    1    0    0    0 -0.15298502978E+02 -0.57540828722E+02 -0.36492287058E+01  0.59651555165E+02  0.00000000000E+00 0.  1.
</event>
<event>
 4    1  0.9897231E-003  0.9118800E+02  0.7818608E-02  0.1130116E+00
         25   -1    0    0    0    0  0.00000000000E+00  0.00000000000E+00  0.99999998245E-14  0.12500000000E+03  0.12500000000E+03 0.  0.
        -13    1    1    0    0    0  0.10195104203E+02  0.20764481426E+02 -0.22946583709E+02  0.32583135309E+02  0.10566000000E+00 0.  1.
         13    1    1    0    0    0  0.13519379902E+02  0.12659589312E+02 -0.23859473524E+02  0.30204709490E+02  0.10566000000E+00 0. -1.
         22    1    1    0    0    0 -0.23714484105E+02 -0.33424070738E+02  0.46806057233E+02  0.62212155201E+02  0.00000000000E+00 0. -1.
</event>
<event>
 4    1  0.9897231E-003  0.9118800E+02  0.7818608E-02  0.1130116E+00
         25   -1    0    0    0    0  0.00000000000E+00  0.00000000000E+00  0.99999998245E-14  0.12500000000E+03  0.12500000000E+03 0.  0.
        -13    1    1    0    0    0 -0.24533867589E+02  0.21315794712E+02  0.32529533461E+01  0.32662924434E+02  0.10566000000E+00 0.  1.
         13    1    1    0    0    0 -0.20752103512E+02  0.20169374418E+02  0.77158771456E+01  0.29949948059E+02  0.10566000000E+00 0. -1.
         22    1    1    0    0    0  0.45285971100E+02 -0.41485169130E+02 -0.10968830492E+02  0.62387127507E+02  0.00000000000E+00 0. -1.
</event>
<event>
 4    1  0.9897231E-003  0.9118800E+02  0.7818608E-02  0.1130116E+00
         25   -1    0    0    0    0  0.00000000000E+00  0.00000000000E+00  0.99999998245E-14  0.12500000000E+03  0.12500000000E+03 0.  0.
        -13    1    1    0    0    0  0.24356243003E+02  0.36365215084E+02  0.10225406589E+02  0.44946919197E+02  0.10566000000E+00 0. -1.
         13    1    1    0    0    0 -0.57855778116E+01  0.14756791926E+02  0.13397316498E+02  0.20754157943E+02  0.10566000000E+00 0.  1.
         22    1    1    0    0    0 -0.18570665192E+02 -0.51122007010E+02 -0.23622723086E+02  0.59298922860E+02  0.00000000000E+00 0. -1.
</event>
<event>
 4    1  0.9897231E-003  0.9118800E+02  0.7818608E-02  0.1130116E+00
         25   -1    0    0    0    0  0.00000000000E+00  0.00000000000E+00  0.99999998245E-14  0.12500000000E+03  0.12500000000E+03 0.  0.
        -13    1    1    0    0    0 -0.23338784815E+02  0.96805581907E+00 -0.20030189122E+02  0.30771019629E+02  0.10566000000E+00 0.  1.
         13    1    1    0    0    0 -0.28604971005E+02  0.37779632023E+01 -0.13876445195E+02  0.32016937197E+02  0.10566000000E+00 0. -1.
         22    1    1    0    0    0  0.51943755820E+02 -0.47460190213E+01  0.33906634317E+02  0.62212043175E+02  0.00000000000E+00 0. -1.
</event>
<event>
 4    1  0.9897231E-003  0.9118800E+02  0.7818608E-02  0.1130116E+00
         25   -1    0    0    0    0  0.00000000000E+00  0.00000000000E+00  0.99999998245E-14  0.12500000000E+03  0.12500000000E+03 0.  0.
        -13    1    1    0    0    0 -0.25088509085E+02  0.11098876980E+02 -0.22102132898E+02  0.35229728937E+02  0.10566000000E+00 0.  1.
         13    1    1    0    0    0 -0.19981866684E+02  0.18005042499E+02 -0.82436276668E+01  0.28132278840E+02  0.10566000000E+00 0. -1.
         22    1    1    0    0    0  0.45070375769E+02 -0.29103919479E+02  0.30345760565E+02  0.61637992223E+02  0.00000000000E+00 0.  1.
</event>
<event>
 4    1  0.9897231E-003  0.9118800E+02  0.7818608E-02  0.1130116E+00
         25   -1    0    0    0    0  0.00000000000E+00  0.00000000000E+00  0.99999998245E-14  0.12500000000E+03  0.12500000000E+03 0.  0.
        -13    1    1    0    0    0  0.81427916400E+01 -0.47127286304E+01 -0.17138207262E+02  0.19551065930E+02  0.10566000000E+00 0.  1.
         13    1    1    0    0    0  0.20540580826E+02 -0.30033886967E+02 -0.24688185595E+02  0.43971212162E+02  0.10566000000E+00 0. -1.
         22    1    1    0    0    0 -0.28683372466E+02  0.34746615598E+02  0.41826392857E+02  0.61477721907E+02  0.00000000000E+00 0. -1.
</event>
<event>
 4    1  0.9897231E-003  0.9118800E+02  0.7818608E-02  0.1130116E+00
         25   -1    0    0    0    0  0.00000000000E+00  0.00000000000E+00  0.99999998245E-14  0.12500000000E+03  0.12500000000E+03 0.  0.
        -13    1    1    0    0    0  0.25685110453E+02  0.18882292305E+02  0.39924798515E+02  0.51090767876E+02  0.10566000000E+00 0.  1.
         13    1    1    0    0    0  0.63618509309E+01  0.39121720014E+01  0.86381503302E+01  0.11419590282E+02  0.10566000000E+00 0. -1.
         22    1    1    0    0    0 -0.32046961384E+02 -0.22794464306E+02 -0.48562948846E+02  0.62489641842E+02  0.00000000000E+00 0.  1.
</event>
<event>
 4    1  0.9897231E-003  0.9118800E+02  0.7818608E-02  0.1130116E+00
         25   -1    0    0    0    0  0.00000000000E+00  0.00000000000E+00  0.99999998245E-14  0.12500000000E+03  0.12500000000E+03 0.  0.
        -13    1    1    0    0    0 -0.74829718163E+00  0.33102144069E+00 -0.10071975277E+01  0.13019734105E+01  0.10566000000E+00 0. -1.
         13    1    1    0    0    0 -0.54492149785E+02 -0.22595476856E+02 -0.17149517022E+02  0.61433436016E+02  0.10566000000E+00 0.  1.
         22    1    1    0    0    0  0.55240446967E+02  0.22264455415E+02  0.18156714550E+02  0.62264590574E+02  0.00000000000E+00 0.  1.
</event>
<event>
 4    1  0.9897231E-003  0.9118800E+02  0.7818608E-02  0.1130116E+00
         25   -1    0    0    0    0  0.00000000000E+00  0.00000000000E+00  0.99999998245E-14  0.12500000000E+03  0.12500000000E+03 0.  0.
        -13    1    1    0    0    0  0.21774870439E+01 -0.40928399000E+01 -0.81937027965E+00  0.47090678445E+01  0.10566000000E+00 0.  1.
         13    1    1    0    0    0  0.58385330578E+02  0.10414667870E+02  0.27204648107E+01  0.59369387957E+02  0.10566000000E+00 0. -1.
         22    1    1    0    0    0 -0.60562817622E+02 -0.63218279696E+01 -0.19010945310E+01  0.60921544199E+02  0.00000000000E+00 0. -1.
</event>
<event>
 4    1  0.9897231E-003  0.9118800E+02  0.7818608E-02  0.1130116E+00
         25   -1    0    0    0    0  0.00000000000E+00  0.00000000000E+00  0.99999998245E-14  0.12500000000E+03  0.12500000000E+03 0.  0.
        -13    1    1    0    0    0 -0.50561420380E+01 -0.37100171340E+02 -0.91986734589E+01  0.38556634231E+02  0.10566000000E+00 0.  1.
         13    1    1    0    0    0  0.32884080287E+01 -0.22817227009E+02  0.12842915378E+02  0.26389223467E+02  0.10566000000E+00 0. -1.
         22    1    1    0    0    0  0.17677340093E+01  0.59917398349E+02 -0.36442419192E+01  0.60054142302E+02  0.00000000000E+00 0.  1.
</event>
<event>
 4    1  0.9897231E-003  0.9118800E+02  0.7818608E-02  0.1130116E+00
         25   -1    0    0    0    0  0.00000000000E+00  0.00000000000E+00  0.99999998245E-14  0.12500000000E+03  0.12500000000E+03 0.  0.
        -13    1    1    0    0    0 -0.21752854172E+02 -0.30545479682E+02 -0.71639418686E+01  0.38177823678E+02  0.10566000000E+00 0.  1.
         13    1    1    0    0    0 -0.13829039272E+02 -0.19411753826E+02 -0.48511729167E+01  0.24322901893E+02  0.10566000000E+00 0.  1.
         22    1    1    0    0    0  0.35581893444E+02  0.49957233508E+02  0.12015114785E+02  0.62499274429E+02  0.00000000000E+00 0.  1.
</event>
<event>
 4    1  0.9897231E-003  0.9118800E+02  0.7818608E-02  0.1130116E+00
         25   -1    0    0    0    0  0.00000000000E+00  0.00000000000E+00  0.99999998245E-14  0.12500000000E+03  0.12500000000E+03 0.  0.
        -13    1    1    0    0    0  0.40508113528E+01  0.24379051697E+02 -0.16268640767E+01  0.24767016070E+02  0.10566000000E+00 0.  1.
         13    1    1    0    0    0  0.89997518522E+01  0.35904903832E+02 -0.78214869994E+01  0.37833113479E+02  0.10566000000E+00 0. -1.
         22    1    1    0    0    0 -0.13050563205E+02 -0.60283955529E+02  0.94483510761E+01  0.62399870451E+02  0.00000000000E+00 0. -1.
</event>
<event>
 4    1  0.9897231E-003  0.9118800E+02  0.7818608E-02  0.1130116E+00
         25   -1    0    0    0    0  0.00000000000E+00  0.00000000000E+00  0.99999998245E-14  0.12500000000E+03  0.12500000000E+03 0.  0.
        -13    1    1    0    0    0  0.87905414549E+01  0.84881154609E+01  0.33371379253E+01  0.12667650797E+02  0.10566000000E+00 0. -1.
         13    1    1    0    0    0  0.42171457369E+02  0.26905814658E+02 -0.49194958917E+01  0.50264970734E+02  0.10566000000E+00 0.  1.
         22    1    1    0    0    0 -0.50961998823E+02 -0.35393930119E+02  0.15823579664E+01  0.62067378469E+02  0.00000000000E+00 0.  1.
</event>
<event>
 4    1  0.9897231E-003  0.9118800E+02  0.7818608E-02  0.1130116E+00
         25   -1    0    0    0    0  0.00000000000E+00  0.00000000000E+00  0.99999998245E-14  0.12500000000E+03  0.12500000000E+03 0.  0.
        -13    1    1    0    0    0  0.27880687477E+02  0.18659084679E+02 -0.24320631251E+02  0.41436679931E+02  0.10566000000E+00 0.  1.
         13    1    1    0    0    0  0.13275523740E+02 -0.34099630825E+01 -0.17978555220E+02  0.22607675480E+02  0.10566000000E+00 0. -1.
         22    1    1    0    0    0 -0.41156211217E+02 -0.15249121597E+02  0.42299186470E+02  0.60955644589E+02  0.00000000000E+00 0.  1.
</event>
<event>
 4    1  0.9897231E-003  0.9118800E+02  0.7818608E-02  0.1130116E+00
         25   -1    0    0    0    0  0.00000000000E+00  0.00000000000E+00  0.99999998245E-14  0.12500000000E+03  0.12500000000E+03 0.  0.
        -13    1    1    0    0    0 -0.10571835088E+02  0.35663696402E+02  0.33477950091E+02  0.50044452685E+02  0.10566000000E+00 0. -1.
         13    1    1    0    0    0 -0.32698517863E+01  0.91025246838E+01  0.78651012481E+01  0.12466710392E+02  0.10566000000E+00 0.  1.
         22    1    1    0    0    0  0.13841686874E+02 -0.44766221086E+02 -0.41343051339E+02  0.62488836923E+02  0.00000000000E+00 0. -1.
</event>
<event>
 4    1  0.9897231E-003  0.9118800E+02  0.7818608E-02  0.1130116E+00
         25   -1    0    0    0    0  0.00000000000E+00  0.00000000000E+00  0.99999998245E-14  0.12500000000E+03  0.12500000000E+03 0.  0.
        -13    1    1    0    0    0 -0.22674866424E+02 -0.44411839217E+02  0.14582518449E+02  0.51954037748E+02  0.10566000000E+00 0.  1.
         13    1    1    0    0    0 -0.43893190221E+01 -0.91034163263E+01  0.30162971183E+01  0.10547394116E+02  0.10566000000E+00 0. -1.
         22    1    1    0    0    0  0.27064185447E+02  0.53515255543E+02 -0.17598815568E+02  0.62498568136E+02  0.00000000000E+00 0.  1.
</event>
<event>
 4    1  0.9897231E-003  0.9118800E+02  0.7818608E-02  0.1130116E+00
         25   -1    0    0    0    0  0.00000000000E+00  0.00000000000E+00  0.99999998245E-14  0.12500000000E+03  0.12500000000E+03 0.  0.
        -13    1    1    0    0    0 -0.12972579069E+02  0.11632984518E+02 -0.58924083343E+01  0.18394177788E+02  0.10566000000E+00 0.  1.
         13    1    1    0    0    0 -0.30522730941E+02  0.29481005618E+02 -0.12066942741E+02  0.44117899627E+02  0.10566000000E+00 0. -1.
         22    1    1    0    0    0  0.43495310011E+02 -0.41113990136E+02  0.17959351075E+02  0.62487922584E+02  0.00000000000E+00 0. -1.
</event>
<event>
 4    1  0.9897231E-003  0.9118800E+02  0.7818608E-02  0.1130116E+00
         25   -1    0    0    0    0  0.00000000000E+00  0.00000000000E+00  0.99999998245E-14  0.12500000000E+03  0.12500000000E+03 0.  0.
        -13    1    1    0    0    0  0.15063460598E+02 -0.60536439023E+02  0.13587016101E+00  0.62382673231E+02  0.10566000000E+00 0.  1.
         13    1    1    0    0    0 -0.34344211795E+00  0.10959265073E+01 -0.75441485813E+00  0.13781557284E+01  0.10566000000E+00 0. -1.
         22    1    1    0    0    0 -0.14720018480E+02  0.59440512515E+02  0.61854469712E+00  0.61239171040E+02  0.00000000000E+00 0.  1.
</event>
<event>
 4    1  0.9897231E-003  0.9118800E+02  0.7818608E-02  0.1130116E+00
         25   -1    0    0    0    0  0.00000000000E+00  0.00000000000E+00  0.99999998245E-14  0.12500000000E+03  0.12500000000E+03 0.  0.
        -13    1    1    0    0    0 -0.24657543403E+02 -0.22126424052E+02 -0.40256342682E+01  0.33373492226E+02  0.10566000000E+00 0. -1.
         13    1    1    0    0    0 -0.87522365966E+01 -0.24882067199E+02 -0.15675058270E+02  0.30682853996E+02  0.10566000000E+00 0.  1.
         22    1    1    0    0    0  0.33409780000E+02  0.47008491252E+02  0.19700692538E+02  0.60943653778E+02  0.00000000000E+00 0. -1.
</event>
<event>
 4    1  0.9897231E-003  0.9118800E+02  0.7818608E-02  0.1130116E+00
         25   -1    0    0    0    0  0.00000000000E+00  0.00000000000E+00  0.99999998245E-14  0.12500000000E+03  0.12500000000E+03 0.  0.
        -13    1    1    0    0    0 -0.12748676685E+02  0.17847651357E+02  0.64995901570E+01  0.22876259581E+02  0.10566000000E+00 0. -1.
         13    1    1    0    0    0 -0.21831965506E+02  0.31186377817E+02  0.10993535914E+02  0.39624410092E+02  0.10566000000E+00 0.  1.
         22    1    1    0    0    0  0.34580642191E+02 -0.49034029175E+02 -0.17493126071E+02  0.62499330326E+02  0.00000000000E+00 0.  1.
</event>
<event>
 4    1  0.9897231E-003  0.9118800E+02  0.7818608E-02  0.1130116E+00
         25   -1    0    0    0    0  0.00000000000E+00  0.00000000000E+00  0.99999998245E-14  0.12500000000E+03  0.12500000000E+03 0.  0.
        -13    1    1    0    0    0  0.21594158521E+02 -0.19885291045E+02 -0.49715424527E+01  0.29773476125E+02  0.10566000000E+00 0. -1.
         13    1    1    0    0    0  0.22875553520E+02 -0.23059289874E+02 -0.41178410314E+01  0.32741251918E+02  0.10566000000E+00 0.  1.
         22    1    1    0    0    0 -0.44469712041E+02  0.42944580919E+02  0.90893834842E+01  0.62485271957E+02  0.00000000000E+00 0. -1.
</event>
<event>
 4    1  0.9897231E-003  0.9118800E+02  0.7818608E-02  0.1130116E+00
         25   -1    0    0    0    0  0.00000000000E+00  0.00000000000E+00  0.99999998245E-14  0.12500000000E+03  0.12500000000E+03 0.  0.
        -13    1    1    0    0    0  0.36316206695E+02 -0.73334646652E+01 -0.44176377773E+02  0.57655963178E+02  0.10566000000E+00 0.  1.
         13    1    1    0    0    0  0.23492261602E+01 -0.57159262468E+01 -0.12220853824E+01  0.63004232499E+01  0.10566000000E+00 0. -1.
         22    1    1    0    0    0 -0.38665432855E+02  0.13049390912E+02  0.45398463156E+02  0.61043613572E+02  0.00000000000E+00 0.  1.
</event>
<event>
 4    1  0.9897231E-003  0.9118800E+02  0.7818608E-02  0.1130116E+00
         25   -1    0    0    0    0  0.00000000000E+00  0.00000000000E+00  0.99999998245E-14  0.12500000000E+03  0.12500000000E+03 0.  0.
        -13    1    1    0    0    0  0.15576029236E+02  0.33635490367E+02  0.30589931229E+01  0.37193110947E+02  0.10566000000E+00 0.  1.
         13    1    1    0    0    0 -0.14516610410E+02  0.21873556081E+02 -0.16074016369E+02  0.30782618467E+02  0.10566000000E+00 0. -1.
         22    1    1    0    0    0 -0.10594188260E+01 -0.55509046447E+02  0.13015023246E+02  0.57024270586E+02  0.00000000000E+00 0.  1.
</event>
<event>
 4    1  0.9897231E-003  0.9118800E+02  0.7818608E-02  0.1130116E+00
         25   -1    0    0    0    0  0.00000000000E+00  0.00000000000E+00  0.99999998245E-14  0.12500000000E+03  0.12500000000E+03 0.  0.
        -13    1    1    0    0    0 -0.97967775706E+01  0.52251277979E+00 -0.22855556712E+00  0.98139325480E+01  0.10566000000E+00 0.  1.
         13    1    1    0    0    0 -0.52464034555E+02  0.47556871533E+01 -0.10284712248E+01  0.52689281635E+02  0.10566000000E+00 0. -1.
         22    1    1    0    0    0  0.62260812126E+02 -0.52781999331E+01  0.12570267919E+01  0.62496785817E+02  0.00000000000E+00 0. -1.
</event>
<event>
 4    1  0.9897231E-003  0.9118800E+02  0.7818608E-02  0.1130116E+00
         25   -1    0    0    0    0  0.00000000000E+00  0.00000000000E+00  0.99999998245E-14  0.12500000000E+03  0.12500000000E+03 0.  0.
        -13    1    1    0    0    0 -0.15681578695E+01 -0.58109222270E+00  0.26850419327E+01  0.31650278815E+01  0.10566000000E+00 0. -1.
         13    1    1    0    0    0 -0.28570301786E+02 -0.86577525795E+01  0.51280460937E+02  0.59337304133E+02  0.10566000000E+00 0. -1.
         22    1    1    0    0    0  0.30138459655E+02  0.92388448022E+01 -0.53965502870E+02  0.62497667985E+02  0.00000000000E+00 0. -1.
</event>
<event>
 4    1  0.9897231E-003  0.9118800E+02  0.7818608E-02  0.1130116E+00
         25   -1    0    0    0    0  0.00000000000E+00  0.00000000000E+00  0.99999998245E-14  0.12500000000E+03  0.12500000000E+03 0.  0.
        -13    1    1    0    0    0 -0.99832589210E+01 -0.29047631210E+02 -0.32858861860E+02  0.44979398666E+02  0.10566000000E+00 0.  1.
         13    1    1    0    0    0  0.84139516402E+00 -0.96872493996E+01 -0.14937374272E+02  0.17823777965E+02  0.10566000000E+00 0. -1.
         22    1    1    0    0    0  0.91418637570E+01  0.38734880610E+02  0.47796236132E+02  0.62196823369E+02  0.00000000000E+00 0.  1.
</event>
<event>
 4    1  0.9897231E-003  0.9118800E+02  0.7818608E-02  0.1130116E+00
         25   -1    0    0    0    0  0.00000000000E+00  0.00000000000E+00  0.99999998245E-14  0.12500000000E+03  0.12500000000E+03 0.  0.
        -13    1    1    0    0    0 -0.34253562176E+02 -0.16274607307E+02  0.16804051784E+01  0.37960562303E+02  0.10566000000E+00 0. -1.
         13    1    1    0    0    0 -0.24598518657E+02  0.32164110658E+01 -0.88318934352E+01  0.26333361463E+02  0.10566000000E+00 0.  1.
         22    1    1    0    0    0  0.58852080833E+02  0.13058196241E+02  0.71514882568E+01  0.60706076234E+02  0.00000000000E+00 0. -1.
</event>
<event>
 4    1  0.9897231E-003  0.9118800E+02  0.7818608E-02  0.1130116E+00
         25   -1    0    0    0    0  0.00000000000E+00  0.00000000000E+00  0.99999998245E-14  0.12500000000E+03  0.12500000000E+03 0.  0.
        -13    1    1    0    0    0 -0.10103682182E+02  0.20988897418E+01  0.84198422278E+01  0.13318957878E+02  0.10566000000E+00 0.  1.
         13    1    1    0    0    0 -0.74539879359E+01  0.20534542123E+02  0.45585099262E+02  0.50549399552E+02  0.10566000000E+00 0. -1.
         22    1    1    0    0    0  0.17557670118E+02 -0.22633431865E+02 -0.54004941489E+02  0.61131642569E+02  0.00000000000E+00 0. -1.
</event>
<event>
 4    1  0.9897231E-003  0.9118800E+02  0.7818608E-02  0.1130116E+00
         25   -1    0    0    0    0  0.00000000000E+00  0.00000000000E+00  0.99999998245E-14  0.12500000000E+03  0.12500000000E+03 0.  0.
        -13    1    1    0    0    0 -0.46943403956E+02 -0.19919785698E+02  0.55326669466E+01  0.51294274581E+02  0.10566000000E+00 0. -1.
         13    1    1    0    0    0 -0.71067264741E+01 -0.84824436367E+01  0.42774784181E+01  0.11864459401E+02  0.10566000000E+00 0.  1.
         22    1    1    0    0    0  0.54050130430E+02  0.28402229335E+02 -0.98101453647E+01  0.61841266018E+02  0.00000000000E+00 0. -1.
</event>
<event>
 4    1  0.9897231E-003  0.9118800E+02  0.7818608E-02  0.1130116E+00
         25   -1    0    0    0    0  0.00000000000E+00  0.00000000000E+00  0.99999998245E-14  0.12500000000E+03  0.12500000000E+03 0.  0.
        -13    1    1    0    0    0 -0.51121100783E+02 -0.20116999420E+02 -0.16392728852E+02  0.57330561956E+02  0.10566000000E+00 0.  1.
         13    1    1    0    0    0 -0.45571713301E+01 -0.18948051495E+01 -0.15381234810E+01  0.51705981245E+01  0.10566000000E+00 0. -1.
         22    1    1    0    0    0  0.55678272113E+02  0.22011804570E+02  0.17930852333E+02  0.62498839920E+02  0.00000000000E+00 0.  1.
</event>
<event>
 4    1  0.9897231E-003  0.9118800E+02  0.7818608E-02  0.1130116E+00
         25   -1    0    0    0    0  0.00000000000E+00  0.00000000000E+00  0.99999998245E-14  0.12500000000E+03  0.12500000000E+03 0.  0.
        -13    1    1    0    0    0 -0.41900195433E+01  0.12439234852E+02 -0.20036275048E+02  0.23953169087E+02  0.10566000000E+00 0. -1.
         13    1    1    0    0    0  0.13381942332E+02  0.18939598900E+02 -0.32042738446E+02  0.39554178518E+02  0.10566000000E+00 0.  1.
         22    1    1    0    0    0 -0.91919227883E+01 -0.31378833752E+02  0.52079013494E+02  0.61492652396E+02  0.00000000000E+00 0. -1.
</event>
<event>
 4    1  0.9897231E-003  0.9118800E+02  0.7818608E-02  0.1130116E+00
         25   -1    0    0    0    0  0.00000000000E+00  0.00000000000E+00  0.99999998245E-14  0.12500000000E+03  0.12500000000E+03 0.  0.
        -13    1    1    0    0    0  0.25313826746E+02  0.53581103110E+01 -0.29899154964E+02  0.39540735985E+02  0.10566000000E+00 0.  1.
         13    1    1    0    0    0  0.24655119255E+02  0.54784249051E+01 -0.17649337802E+01  0.25318258238E+02  0.10566000000E+00 0. -1.
         22    1    1    0    0    0 -0.49968946001E+02 -0.10836535216E+02  0.31664088744E+02  0.60141005777E+02  0.00000000000E+00 0.  1.
</event>
<event>
 4    1  0.9897231E-003  0.9118800E+02  0.7818608E-02  0.1130116E+00
         25   -1    0    0    0    0  0.00000000000E+00  0.00000000000E+00  0.99999998245E-14  0.12500000000E+03  0.12500000000E+03 0.  0.
        -13    1    1    0    0    0 -0.13494587642E+02  0.47293857475E+01  0.12933780028E+02  0.19281203671E+02  0.10566000000E+00 0.  1.
         13    1    1    0    0    0 -0.18725394735E+02  0.29916937899E+02  0.26493514519E+02  0.44131406695E+02  0.10566000000E+00 0. -1.
         22    1    1    0    0    0  0.32219982377E+02 -0.34646323647E+02 -0.39427294547E+02  0.61587389634E+02  0.00000000000E+00 0. -1.
</event>
<event>
 4    1  0.9897231E-003  0.9118800E+02  0.7818608E-02  0.1130116E+00
         25   -1    0    0    0    0  0.00000000000E+00  0.00000000000E+00  0.99999998245E-14  0.12500000000E+03  0.12500000000E+03 0.  0.
        -13    1    1    0    0    0  0.13916541099E+02  0.12547222680E+02 -0.34274357067E+02  0.39062074055E+02  0.10566000000E+00 0.  1.
         13    1    1    0    0    0  0.80641664752E+01  0.77213631884E+01 -0.20608776813E+02  0.23438922249E+02  0.10566000000E+00 0. -1.
         22    1    1    0    0    0 -0.21980707574E+02 -0.20268585869E+02  0.54883133879E+02  0.62499003696E+02  0.00000000000E+00 0.  1.
</event>
<event>
 4    1  0.9897231E-003  0.9118800E+02  0.7818608E-02  0.1130116E+00
         25   -1    0    0    0    0  0.00000000000E+00  0.00000000000E+00  0.99999998245E-14  0.12500000000E+03  0.12500000000E+03 0.  0.
        -13    1    1    0    0    0 -0.77021754876E-01 -0.71288037885E+00 -0.17601217243E+01  0.19035029039E+01  0.10566000000E+00 0.  1.
         13    1    1    0    0    0 -0.10301755381E+02 -0.25168381445E+02 -0.54162892141E+02  0.60606960306E+02  0.10566000000E+00 0. -1.
         22    1    1    0    0    0  0.10378777135E+02  0.25881261824E+02  0.55923013865E+02  0.62489536790E+02  0.00000000000E+00 0. -1.
</event>
<event>
 4    1  0.9897231E-003  0.9118800E+02  0.7818608E-02  0.1130116E+00
         25   -1    0    0    0    0  0.00000000000E+00  0.00000000000E+00  0.99999998245E-14  0.12500000000E+03  0.12500000000E+03 0.  0.
        -13    1    1    0    0    0 -0.47733371157E+02 -0.28308645219E+02  0.26288824037E+02  0.61408204252E+02  0.10566000000E+00 0.  1.
         13    1    1    0    0    0 -0.79250323364E+00 -0.76924166146E+00  0.19817392441E+00  0.11270452737E+01  0.10566000000E+00 0. -1.
         22    1    1    0    0    0  0.48525874391E+02  0.29077886880E+02 -0.26486997962E+02  0.62464750474E+02  0.00000000000E+00 0.  1.
</event>
<event>
 4    1  0.9897231E-003  0.9118800E+02  0.7818608E-02  0.1130116E+00
         25   -1    0    0    0    0  0.00000000000E+00  0.00000000000E+00  0.99999998245E-14  0.12500000000E+03  0.12500000000E+03 0.  0.
        -13    1    1    0    0    0  0.13152976430E+02  0.50762470287E+00 -0.23168409411E+01  0.13365529836E+02  0.10566000000E+00 0. -1.
         13    1    1    0    0    0  0.47942684259E+02 -0.25954184759E+00 -0.10802899522E+02  0.49145520021E+02  0.10566000000E+00 0.  1.
         22    1    1    0    0    0 -0.61095660690E+02 -0.24808285529E+00  0.13119740464E+02  0.62488950143E+02  0.00000000000E+00 0.  1.
</event>
<event>
 4    1  0.9897231E-003  0.9118800E+02  0.7818608E-02  0.1130116E+00
         25   -1    0    0    0    0  0.00000000000E+00  0.00000000000E+00  0.99999998245E-14  0.12500000000E+03  0.12500000000E+03 0.  0.
        -13    1    1    0    0    0 -0.13341759917E+02  0.35554382887E+02 -0.39136668326E+01  0.38176493452E+02  0.10566000000E+00 0. -1.
         13    1    1    0    0    0 -0.80026723958E+01  0.22947541134E+02 -0.12532538703E+01  0.24335451894E+02  0.10566000000E+00 0. -1.
         22    1    1    0    0    0  0.21344432313E+02 -0.58501924021E+02  0.51669207029E+01  0.62488054654E+02  0.00000000000E+00 0. -1.
</event>
<event>
 4    1  0.9897231E-003  0.9118800E+02  0.7818608E-02  0.1130116E+00
         25   -1    0    0    0    0  0.00000000000E+00  0.00000000000E+00  0.99999998245E-14  0.12500000000E+03  0.12500000000E+03 0.  0.
        -13    1    1    0    0    0 -0.75581348420E+00 -0.23619378158E+02  0.54917048864E+01  0.24261415153E+02  0.10566000000E+00 0. -1.
         13    1    1    0    0    0 -0.12520670369E+02 -0.36532686864E+02 -0.63236708128E+01  0.39133162057E+02  0.10566000000E+00 0.  1.
         22    1    1    0    0    0  0.13276483853E+02  0.60152065022E+02  0.83196592642E+00  0.61605422791E+02  0.00000000000E+00 0.  1.
</event>
<event>
 4    1  0.9897231E-003  0.9118800E+02  0.7818608E-02  0.1130116E+00
         25   -1    0    0    0    0  0.00000000000E+00  0.00000000000E+00  0.99999998245E-14  0.12500000000E+03  0.12500000000E+03 0.  0.
        -13    1    1    0    0    0  0.17736898929E+02 -0.21442827613E+02 -0.70171062656E+01  0.28699187864E+02  0.10566000000E+00 0. -1.
         13    1    1    0    0    0  0.19804567590E+02 -0.25565600529E+02 -0.98775102808E+01  0.33814156817E+02  0.10566000000E+00 0.  1.
         22    1    1    0    0    0 -0.37541466519E+02  0.47008428142E+02  0.16894616546E+02  0.62486655320E+02  0.00000000000E+00 0.  1.
</event>
<event>
 4    1  0.9897231E-003  0.9118800E+02  0.7818608E-02  0.1130116E+00
         25   -1    0    0    0    0  0.00000000000E+00  0.00000000000E+00  0.99999998245E-14  0.12500000000E+03  0.12500000000E+03 0.  0.
        -13    1    1    0    0    0 -0.12460265478E+01 -0.89751982688E+01  0.91877880663E+01  0.12904781273E+02  0.10566000000E+00 0. -1.
         13    1    1    0    0    0 -0.54861461938E+01 -0.34694655145E+02  0.35013542986E+02  0.49596131423E+02  0.10566000000E+00 0.  1.
         22    1    1    0    0    0  0.67321727416E+01  0.43669853414E+02 -0.44201331052E+02  0.62499087304E+02  0.00000000000E+00 0.  1.
</event>
<event>
 4    1  0.9897231E-003  0.9118800E+02  0.7818608E-02  0.1130116E+00
         25   -1    0    0    0    0  0.00000000000E+00  0.00000000000E+00  0.99999998245E-14  0.12500000000E+03  0.12500000000E+03 0.  0.
        -13    1    1    0    0    0 -0.89513986642E+01  0.22395088521E+00  0.40507436827E+02  0.41485434726E+02  0.10566000000E+00 0.  1.
         13    1    1    0    0    0  0.19488432593E+01 -0.11322867520E+02  0.19203580955E+02  0.22378427211E+02  0.10566000000E+00 0. -1.
         22    1    1    0    0    0  0.70025554048E+01  0.11098916634E+02 -0.59711017782E+02  0.61136138063E+02  0.00000000000E+00 0.  1.
</event>
<event>
 4    1  0.9897231E-003  0.9118800E+02  0.7818608E-02  0.1130116E+00
         25   -1    0    0    0    0  0.00000000000E+00  0.00000000000E+00  0.99999998245E-14  0.12500000000E+03  0.12500000000E+03 0.  0.
        -13    1    1    0    0    0 -0.16305384940E+02 -0.27491806974E+01  0.30672669533E+02  0.34846052759E+02  0.10566000000E+00 0. -1.
         13    1    1    0    0    0 -0.29324338523E+02  0.17283167028E+02 -0.14839668669E+01  0.34071072981E+02  0.10566000000E+00 0.  1.
         22    1    1    0    0    0  0.45629723463E+02 -0.14533986331E+02 -0.29188702666E+02  0.56082874261E+02  0.00000000000E+00 0.  1.
</event>
<event>
 4    1  0.9897231E-003  0.9118800E+02  0.7818608E-02  0.1130116E+00
         25   -1    0    0    0    0  0.00000000000E+00  0.00000000000E+00  0.99999998245E-14  0.12500000000E+03  0.12500000000E+03 0.  0.
        -13    1    1    0    0    0 -0.43857000715E+00 -0.33519774778E+01  0.22955147660E+01  0.40876214037E+01  0.10566000000E+00 0. -1.
         13    1    1    0    0    0 -0.59682308769E+01 -0.48635191955E+02  0.31798303339E+02  0.58413568078E+02  0.10566000000E+00 0. -1.
         22    1    1    0    0    0  0.64068008840E+01  0.51987169433E+02 -0.34093818105E+02  0.62498810518E+02  0.00000000000E+00 0. -1.
</event>
<event>
 4    1  0.9897231E-003  0.9118800E+02  0.7818608E-02  0.1130116E+00
         25   -1    0    0    0    0  0.00000000000E+00  0.00000000000E+00  0.99999998245E-14  0.12500000000E+03  0.12500000000E+03 0.  0.
        -13    1    1    0    0    0  0.15201089661E+02 -0.27921412518E+02 -0.13853293111E+02  0.34678571163E+02  0.10566000000E+00 0.  1.
         13    1    1    0    0    0  0.12633888052E+02 -0.22070618937E+02 -0.11286951905E+02  0.27823259962E+02  0.10566000000E+00 0.  1.
         22    1    1    0    0    0 -0.27834977713E+02  0.49992031455E+02  0.25140245016E+02  0.62498168875E+02  0.00000000000E+00 0.  1.
</event>
<event>
 4    1  0.9897231E-003  0.9118800E+02  0.7818608E-02  0.1130116E+00
         25   -1    0    0    0    0  0.00000000000E+00  0.00000000000E+00  0.99999998245E-14  0.12500000000E+03  0.12500000000E+03 0.  0.
        -13    1    1    0    0    0 -0.29763291176E+02  0.96943819580E+01  0.33341901796E+02  0.45733227774E+02  0.10566000000E+00 0. -1.
         13    1    1    0    0    0 -0.97547914696E+01  0.17294504492E+01  0.13615965451E+02  0.16839021191E+02  0.10566000000E+00 0.  1.
         22    1    1    0    0    0  0.39518082646E+02 -0.11423832407E+02 -0.46957867248E+02  0.62427751035E+02  0.00000000000E+00 0. -1.
</event>
<event>
 4    1  0.9897231E-003  0.9118800E+02  0.7818608E-02  0.1130116E+00
         25   -1    0    0    0    0  0.00000000000E+00  0.00000000000E+00  0.99999998245E-14  0.12500000000E+03  0.12500000000E+03 0.  0.
        -13    1    1    0    0    0 -0.18480751927E+01 -0.58683652032E+01 -0.23009217311E+02  0.23817815546E+02  0.10566000000E+00 0. -1.
         13    1    1    0    0    0  0.53784169054E+01 -0.13392192301E+02 -0.36119145481E+02  0.38895784056E+02  0.10566000000E+00 0.  1.
         22    1    1    0    0    0 -0.35303417127E+01  0.19260557504E+02  0.59128362793E+02  0.62286400398E+02  0.00000000000E+00 0. -1.
</event>
<event>
 4    1  0.9897231E-003  0.9118800E+02  0.7818608E-02  0.1130116E+00
         25   -1    0    0    0    0  0.00000000000E+00  0.00000000000E+00  0.99999998245E-14  0.12500000000E+03  0.12500000000E+03 0.  0.
        -13    1    1    0    0    0  0.24626243041E+02  0.99958159714E+01 -0.18346371827E+02  0.32295026034E+02  0.10566000000E+00 0. -1.
         13    1    1    0    0    0  0.19042473788E+02  0.26343068290E+02  0.14990120117E+02  0.35795082345E+02  0.10566000000E+00 0.  1.
         22    1    1    0    0    0 -0.43668716829E+02 -0.36338884261E+02  0.33562517108E+01  0.56909891622E+02  0.00000000000E+00 0.  1.
</event>
<event>
 4    1  0.9897231E-003  0.9118800E+02  0.7818608E-02  0.1130116E+00
         25   -1    0    0    0    0  0.00000000000E+00  0.00000000000E+00  0.99999998245E-14  0.12500000000E+03  0.12500000000E+03 0.  0.
        -13    1    1    0    0    0 -0.21086759936E+02 -0.18802503574E+02  0.34806927399E+02  0.44829888961E+02  0.10566000000E+00 0.  1.
         13    1    1    0    0    0 -0.88524116272E+01 -0.74505226646E+01  0.13360600143E+02  0.17674622480E+02  0.10566000000E+00 0. -1.
         22    1    1    0    0    0  0.29939171564E+02  0.26253026238E+02 -0.48167527543E+02  0.62495488559E+02  0.00000000000E+00 0.  1.
</event>
<event>
 4    1  0.9897231E-003  0.9118800E+02  0.7818608E-02  0.1130116E+00
         25   -1    0    0    0    0  0.00000000000E+00  0.00000000000E+00  0.99999998245E-14  0.12500000000E+03  0.12500000000E+03 0.  0.
        -13    1    1    0    0    0  0.34107936113E+02  0.22441914138E+02 -0.34624312194E+02  0.53533587354E+02  0.10566000000E+00 0. -1.
         13    1    1    0    0    0  0.59437589902E+01  0.47902016119E+01 -0.47985791914E+01  0.90173071761E+01  0.10566000000E+00 0.  1.
         22    1    1    0    0    0 -0.40051695103E+02 -0.27232115750E+02  0.39422891385E+02  0.62449105470E+02  0.00000000000E+00 0. -1.
</event>
<event>
 4    1  0.9897231E-003  0.9118800E+02  0.7818608E-02  0.1130116E+00
         25   -1    0    0    0    0  0.00000000000E+00  0.00000000000E+00  0.99999998245E-14  0.12500000000E+03  0.12500000000E+03 0.  0.
        -13    1    1    0    0    0  0.59681492068E+00  0.14944120394E+00  0.26731766416E+01  0.27450971050E+01  0.10566000000E+00 0.  1.
         13    1    1    0    0    0  0.43522110811E+02  0.12071749125E+02  0.39506556577E+02  0.60005670007E+02  0.10566000000E+00 0. -1.
         22    1    1    0    0    0 -0.44118925731E+02 -0.12221190329E+02 -0.42179733219E+02  0.62249232888E+02  0.00000000000E+00 0. -1.
</event>
<event>
 4    1  0.9897231E-003  0.9118800E+02  0.7818608E-02  0.1130116E+00
         25   -1    0    0    0    0  0.00000000000E+00  0.00000000000E+00  0.99999998245E-14  0.12500000000E+03  0.12500000000E+03 0.  0.
        -13    1    1    0    0    0 -0.14732083275E+02  0.14710193197E+02 -0.17244333926E+02  0.27033354918E+02  0.10566000000E+00 0.  1.
         13    1    1    0    0    0 -0.27322554320E+02  0.17420535944E+02 -0.15302677366E+02  0.35835459335E+02  0.10566000000E+00 0. -1.
         22    1    1    0    0    0  0.42054637594E+02 -0.32130729142E+02  0.32547011292E+02  0.62131185748E+02  0.00000000000E+00 0. -1.
</event>
<event>
 4    1  0.9897231E-003  0.9118800E+02  0.7818608E-02  0.1130116E+00
         25   -1    0    0    0    0  0.00000000000E+00  0.00000000000E+00  0.99999998245E-14  0.12500000000E+03  0.12500000000E+03 0.  0.
        -13    1    1    0    0    0 -0.39648960904E+01  0.17230793673E+02 -0.56259526071E+01  0.18554868859E+02  0.10566000000E+00 0. -1.
         13    1    1    0    0    0 -0.49354913405E+01  0.40530486052E+02 -0.16384517368E+02  0.43994805919E+02  0.10566000000E+00 0.  1.
         22    1    1    0    0    0  0.89003874309E+01 -0.57761279725E+02  0.22010469975E+02  0.62450325223E+02  0.00000000000E+00 0.  1.
</event>
<event>
 4    1  0.9897231E-003  0.9118800E+02  0.7818608E-02  0.1130116E+00
         25   -1    0    0    0    0  0.00000000000E+00  0.00000000000E+00  0.99999998245E-14  0.12500000000E+03  0.12500000000E+03 0.  0.
        -13    1    1    0    0    0 -0.70653131157E+01 -0.24593429377E+02 -0.16277498008E+02  0.30326943852E+02  0.10566000000E+00 0.  1.
         13    1    1    0    0    0 -0.59612049950E+01 -0.26424494117E+02 -0.17375759425E+02  0.32182573452E+02  0.10566000000E+00 0. -1.
         22    1    1    0    0    0  0.13026518111E+02  0.51017923494E+02  0.33653257434E+02  0.62490482696E+02  0.00000000000E+00 0.  1.
</event>
<event>
 4    1  0.9897231E-003  0.9118800E+02  0.7818608E-02  0.1130116E+00
         25   -1    0    0    0    0  0.00000000000E+00  0.00000000000E+00  0.99999998245E-14  0.12500000000E+03  0.12500000000E+03 0.  0.
        -13    1    1    0    0    0  0.37014363395E+02 -0.17435935007E+02 -0.11556983062E+02  0.42516466794E+02  0.10566000000E+00 0. -1.
         13    1    1    0    0    0  0.10695494584E+02  0.14211847398E+02  0.26912970948E+02  0.32259717608E+02  0.10566000000E+00 0.  1.
         22    1    1    0    0    0 -0.47709857979E+02  0.32240876083E+01 -0.15355987886E+02  0.50223815598E+02  0.00000000000E+00 0. -1.
</event>
<event>
 4    1  0.9897231E-003  0.9118800E+02  0.7818608E-02  0.1130116E+00
         25   -1    0    0    0    0  0.00000000000E+00  0.00000000000E+00  0.99999998245E-14  0.12500000000E+03  0.12500000000E+03 0.  0.
        -13    1    1    0    0    0  0.16782313111E+01  0.23164538102E+01 -0.78528658653E+01  0.83582943788E+01  0.10566000000E+00 0.  1.
         13    1    1    0    0    0  0.11019440450E+02  0.15850381120E+02 -0.50584057281E+02  0.54142595657E+02  0.10566000000E+00 0. -1.
         22    1    1    0    0    0 -0.12697671761E+02 -0.18166834930E+02  0.58436923146E+02  0.62499109964E+02  0.00000000000E+00 0. -1.
</event>
<event>
 4    1  0.9897231E-003  0.9118800E+02  0.7818608E-02  0.1130116E+00
         25   -1    0    0    0    0  0.00000000000E+00  0.00000000000E+00  0.99999998245E-14  0.12500000000E+03  0.12500000000E+03 0.  0.
        -13    1    1    0    0    0  0.91827355403E+00 -0.37331218345E+01 -0.20195880987E+01  0.43438836397E+01  0.10566000000E+00 0. -1.
         13    1    1    0    0    0  0.93958872902E+01 -0.52976662858E+02 -0.22109769241E+02  0.58169257907E+02  0.10566000000E+00 0.  1.
         22    1    1    0    0    0 -0.10314160844E+02  0.56709784692E+02  0.24129357339E+02  0.62486858453E+02  0.00000000000E+00 0.  1.
</event>
<event>
 4    1  0.9897231E-003  0.9118800E+02  0.7818608E-02  0.1130116E+00
         25   -1    0    0    0    0  0.00000000000E+00  0.00000000000E+00  0.99999998245E-14  0.12500000000E+03  0.12500000000E+03 0.  0.
        -13    1    1    0    0    0 -0.49132749933E+02  0.26828018769E+01  0.24773114907E+02  0.55090316101E+02  0.10566000000E+00 0.  1.
         13    1    1    0    0    0 -0.65938429427E+01  0.42426276413E+00  0.33528911724E+01  0.74102501237E+01  0.10566000000E+00 0.  1.
         22    1    1    0    0    0  0.55726592876E+02 -0.31070646411E+01 -0.28126006080E+02  0.62499433775E+02  0.00000000000E+00 0.  1.
</event>
<event>
 4    1  0.9897231E-003  0.9118800E+02  0.7818608E-02  0.1130116E+00
         25   -1    0    0    0    0  0.00000000000E+00  0.00000000000E+00  0.99999998245E-14  0.12500000000E+03  0.12500000000E+03 0.  0.
        -13    1    1    0    0    0 -0.23410894842E+02  0.24441495190E+02 -0.51205342012E+02  0.61379596765E+02  0.10566000000E+00 0.  1.
         13    1    1    0    0    0  0.17188005761E+01  0.23155952596E+00 -0.95010364329E+00  0.19803424459E+01  0.10566000000E+00 0. -1.
         22    1    1    0    0    0  0.21692094266E+02 -0.24673054716E+02  0.52155445655E+02  0.61640060789E+02  0.00000000000E+00 0.  1.
</event>
<event>
 4    1  0.9897231E-003  0.9118800E+02  0.7818608E-02  0.1130116E+00
         25   -1    0    0    0    0  0.00000000000E+00  0.00000000000E+00  0.99999998245E-14  0.12500000000E+03  0.12500000000E+03 0.  0.
        -13    1    1    0    0    0 -0.32776779506E+02 -0.36386723934E+02  0.20496118697E+01  0.49015538621E+02  0.10566000000E+00 0. -1.
         13    1    1    0    0    0 -0.38658718777E+01 -0.13101490946E+02  0.36623664581E+01  0.14142776336E+02  0.10566000000E+00 0.  1.
         22    1    1    0    0    0  0.36642651384E+02  0.49488214881E+02 -0.57119783278E+01  0.61841685043E+02  0.00000000000E+00 0. -1.
</event>
<event>
 4    1  0.9897231E-003  0.9118800E+02  0.7818608E-02  0.1130116E+00
         25   -1    0    0    0    0  0.00000000000E+00  0.00000000000E+00  0.99999998245E-14  0.12500000000E+03  0.12500000000E+03 0.  0.
        -13    1    1    0    0    0  0.10030197116E+02  0.28867915667E+02  0.22772899442E+01  0.30645695010E+02  0.10566000000E+00 0. -1.
         13    1    1    0    0    0 -0.47701769558E+01  0.26482332080E+02  0.20945454149E+02  0.34099731877E+02  0.10566000000E+00 0.  1.
         22    1    1    0    0    0 -0.52600201598E+01 -0.55350247747E+02 -0.23222744093E+02  0.60254573112E+02  0.00000000000E+00 0. -1.
</event>
<event>
 4    1  0.9897231E-003  0.9118800E+02  0.7818608E-02  0.1130116E+00
         25   -1    0    0    0    0  0.00000000000E+00  0.00000000000E+00  0.99999998245E-14  0.12500000000E+03  0.12500000000E+03 0.  0.
        -13    1    1    0    0    0  0.50923619739E+01 -0.21765951028E+02 -0.45539427654E+01  0.22813117572E+02  0.10566000000E+00 0.  1.
         13    1    1    0    0    0 -0.16500882773E+02  0.58270719674E+02  0.15290470541E+02  0.62462513214E+02  0.10566000000E+00 0. -1.
         22    1    1    0    0    0  0.11408520800E+02 -0.36504768647E+02 -0.10736527775E+02  0.39724369214E+02  0.00000000000E+00 0. -1.
</event>
<event>
 4    1  0.9897231E-003  0.9118800E+02  0.7818608E-02  0.1130116E+00
         25   -1    0    0    0    0  0.00000000000E+00  0.00000000000E+00  0.99999998245E-14  0.12500000000E+03  0.12500000000E+03 0.  0.
        -13    1    1    0    0    0 -0.26590008847E+02  0.78444635017E+01 -0.35439992148E+02  0.44995204029E+02  0.10566000000E+00 0. -1.
         13    1    1    0    0    0 -0.10282188546E+02  0.28941699105E+01 -0.13868220447E+02  0.17505379835E+02  0.10566000000E+00 0. -1.
         22    1    1    0    0    0  0.36872197392E+02 -0.10738633412E+02  0.49308212595E+02  0.62499416137E+02  0.00000000000E+00 0. -1.
</event>
<event>
 4    1  0.9897231E-003  0.9118800E+02  0.7818608E-02  0.1130116E+00
         25   -1    0    0    0    0  0.00000000000E+00  0.00000000000E+00  0.99999998245E-14  0.12500000000E+03  0.12500000000E+03 0.  0.
        -13    1    1    0    0    0  0.54284892071E+02 -0.12507573129E+02 -0.71938514539E+01  0.56169845607E+02  0.10566000000E+00 0. -1.
         13    1    1    0    0    0  0.61001008478E+01 -0.14879506507E+01 -0.80225155828E+00  0.63308766447E+01  0.10566000000E+00 0. -1.
         22    1    1    0    0    0 -0.60384992919E+02  0.13995523779E+02  0.79961030122E+01  0.62499277748E+02  0.00000000000E+00 0. -1.
</event>
<event>
 4    1  0.9897231E-003  0.9118800E+02  0.7818608E-02  0.1130116E+00
         25   -1    0    0    0    0  0.00000000000E+00  0.00000000000E+00  0.99999998245E-14  0.12500000000E+03  0.12500000000E+03 0.  0.
        -13    1    1    0    0    0  0.96058333783E+01  0.48075618869E+01  0.10613510818E+02  0.15101074866E+02  0.10566000000E+00 0. -1.
         13    1    1    0    0    0  0.25275666773E+02  0.23754001860E+02  0.32489905865E+02  0.47525962192E+02  0.10566000000E+00 0.  1.
         22    1    1    0    0    0 -0.34881500151E+02 -0.28561563747E+02 -0.43103416683E+02  0.62372962942E+02  0.00000000000E+00 0.  1.
</event>
<event>
 4    1  0.9897231E-003  0.9118800E+02  0.7818608E-02  0.1130116E+00
         25   -1    0    0    0    0  0.00000000000E+00  0.00000000000E+00  0.99999998245E-14  0.12500000000E+03  0.12500000000E+03 0.  0.
        -13    1    1    0    0    0 -0.33669015252E+01  0.43799708367E+01  0.59740445988E+01  0.81376005871E+01  0.10566000000E+00 0. -1.
         13    1    1    0    0    0 -0.22436087167E+02  0.29422448781E+02  0.39827704341E+02  0.54362815387E+02  0.10566000000E+00 0. -1.
         22    1    1    0    0    0  0.25802988692E+02 -0.33802419617E+02 -0.45801748940E+02  0.62499584026E+02  0.00000000000E+00 0. -1.
</event>
<event>
 4    1  0.9897231E-003  0.9118800E+02  0.7818608E-02  0.1130116E+00
         25   -1    0    0    0    0  0.00000000000E+00  0.00000000000E+00  0.99999998245E-14  0.12500000000E+03  0.12500000000E+03 0.  0.
        -13    1    1    0    0    0  0.15155926640E+02  0.10335653200E+02 -0.10177590544E+01  0.18373209761E+02  0.10566000000E+00 0. -1.
         13    1    1    0    0    0  0.35534396218E+02  0.25941793862E+02 -0.34578197011E+01  0.44132048044E+02  0.10566000000E+00 0.  1.
         22    1    1    0    0    0 -0.50690322859E+02 -0.36277447062E+02  0.44755787555E+01  0.62494742195E+02  0.00000000000E+00 0.  1.
</event>
<event>
 4    1  0.9897231E-003  0.9118800E+02  0.7818608E-02  0.1130116E+00
         25   -1    0    0    0    0  0.00000000000E+00  0.00000000000E+00  0.99999998245E-14  0.12500000000E+03  0.12500000000E+03 0.  0.
        -13    1    1    0    0    0  0.14257985680E+01 -0.99679256913E+00  0.15842345597E+01  0.23553046848E+01  0.10566000000E+00 0. -1.
         13    1    1    0    0    0  0.23965742649E+02 -0.31957638347E+02  0.45010895083E+02  0.60180057408E+02  0.10566000000E+00 0. -1.
         22    1    1    0    0    0 -0.25391541217E+02  0.32954430916E+02 -0.46595129643E+02  0.62464637907E+02  0.00000000000E+00 0. -1.
</event>
<event>
 4    1  0.9897231E-003  0.9118800E+02  0.7818608E-02  0.1130116E+00
         25   -1    0    0    0    0  0.00000000000E+00  0.00000000000E+00  0.99999998245E-14  0.12500000000E+03  0.12500000000E+03 0.  0.
        -13    1    1    0    0    0 -0.13111993344E+02 -0.21976882906E+02  0.18355173268E+02  0.31493353291E+02  0.10566000000E+00 0.  1.
         13    1    1    0    0    0 -0.13074543055E+02 -0.20539608700E+02  0.19215437771E+02  0.31017147103E+02  0.10566000000E+00 0. -1.
         22    1    1    0    0    0  0.26186536400E+02  0.42516491606E+02 -0.37570611040E+02  0.62489499606E+02  0.00000000000E+00 0.  1.
</event>
<event>
 4    1  0.9897231E-003  0.9118800E+02  0.7818608E-02  0.1130116E+00
         25   -1    0    0    0    0  0.00000000000E+00  0.00000000000E+00  0.99999998245E-14  0.12500000000E+03  0.12500000000E+03 0.  0.
        -13    1    1    0    0    0 -0.46112556473E+01  0.41444216061E+02  0.18077302903E+02  0.45449826929E+02  0.10566000000E+00 0. -1.
         13    1    1    0    0    0 -0.28586416997E+01  0.16059544808E+02  0.51176830033E+01  0.17096276062E+02  0.10566000000E+00 0.  1.
         22    1    1    0    0    0  0.74698973470E+01 -0.57503760870E+02 -0.23194985906E+02  0.62453897010E+02  0.00000000000E+00 0.  1.
</event>
<event>
 4    1  0.9897231E-003  0.9118800E+02  0.7818608E-02  0.1130116E+00
         25   -1    0    0    0    0  0.00000000000E+00  0.00000000000E+00  0.99999998245E-14  0.12500000000E+03  0.12500000000E+03 0.  0.
        -13    1    1    0    0    0  0.18323319157E+02 -0.47172398367E+02  0.61562851121E+01  0.50979311520E+02  0.10566000000E+00 0. -1.
         13    1    1    0    0    0  0.56770698322E+01 -0.97971013002E+01  0.25075478774E+01  0.11597899644E+02  0.10566000000E+00 0.  1.
         22    1    1    0    0    0 -0.24000388990E+02  0.56969499667E+02 -0.86638329894E+01  0.62422788836E+02  0.00000000000E+00 0. -1.
</event>
<event>
 4    1  0.9897231E-003  0.9118800E+02  0.7818608E-02  0.1130116E+00
         25   -1    0    0    0    0  0.00000000000E+00  0.00000000000E+00  0.99999998245E-14  0.12500000000E+03  0.12500000000E+03 0.  0.
        -13    1    1    0    0    0 -0.90729796167E+01 -0.16573420135E+02 -0.53535369694E+01  0.19638450453E+02  0.10566000000E+00 0. -1.
         13    1    1    0    0    0 -0.24478940981E+02 -0.32690739976E+02 -0.13226254101E+02  0.42928405437E+02  0.10566000000E+00 0.  1.
         22    1    1    0    0    0  0.33551920598E+02  0.49264160111E+02  0.18579791071E+02  0.62433144110E+02  0.00000000000E+00 0.  1.
</event>
<event>
 4    1  0.9897231E-003  0.9118800E+02  0.7818608E-02  0.1130116E+00
         25   -1    0    0    0    0  0.00000000000E+00  0.00000000000E+00  0.99999998245E-14  0.12500000000E+03  0.12500000000E+03 0.  0.
        -13    1    1    0    0    0  0.47284371822E+02  0.39735933342E+01  0.84977219332E+01  0.48206054647E+02  0.10566000000E+00 0.  1.
         13    1    1    0    0    0  0.13975307729E+02  0.13888680352E+01  0.26647284395E+01  0.14295108332E+02  0.10566000000E+00 0. -1.
         22    1    1    0    0    0 -0.61259679551E+02 -0.53624613695E+01 -0.11162450373E+02  0.62498837021E+02  0.00000000000E+00 0. -1.
</event>
<event>
 4    1  0.9897231E-003  0.9118800E+02  0.7818608E-02  0.1130116E+00
         25   -1    0    0    0    0  0.00000000000E+00  0.00000000000E+00  0.99999998245E-14  0.12500000000E+03  0.12500000000E+03 0.  0.
        -13    1    1    0    0    0  0.40651214270E+02  0.41426327782E+02  0.74674619894E+01  0.58518680844E+02  0.10566000000E+00 0. -1.
         13    1    1    0    0    0 -0.61208837139E+01 -0.26437958119E+02 -0.95807973197E+01  0.28779049467E+02  0.10566000000E+00 0.  1.
         22    1    1    0    0    0 -0.34530330556E+02 -0.14988369663E+02  0.21133353303E+01  0.37702269689E+02  0.00000000000E+00 0. -1.
</event>
<event>
 4    1  0.9897231E-003  0.9118800E+02  0.7818608E-02  0.1130116E+00
         25   -1    0    0    0    0  0.00000000000E+00  0.00000000000E+00  0.99999998245E-14  0.12500000000E+03  0.12500000000E+03 0.  0.
        -13    1    1    0    0    0  0.35584653387E+02 -0.10329379691E+02  0.23789990644E+02  0.44033378934E+02  0.10566000000E+00 0. -1.
         13    1    1    0    0    0  0.14924168577E+02 -0.42294809658E+01  0.10019874233E+02  0.18466953204E+02  0.10566000000E+00 0. -1.
         22    1    1    0    0    0 -0.50508821964E+02  0.14558860656E+02 -0.33809864877E+02  0.62499667862E+02  0.00000000000E+00 0. -1.
</event>
<event>
 4    1  0.9897231E-003  0.9118800E+02  0.7818608E-02  0.1130116E+00
         25   -1    0    0    0    0  0.00000000000E+00  0.00000000000E+00  0.99999998245E-14  0.12500000000E+03  0.12500000000E+03 0.  0.
        -13    1    1    0    0    0  0.58894209152E+02  0.67780364184E+00  0.23465740487E+01  0.58944930767E+02  0.10566000000E+00 0. -1.
         13    1    1    0    0    0  0.35531356348E+01  0.18799975120E+00 -0.17547093851E+00  0.35639964691E+01  0.10566000000E+00 0.  1.
         22    1    1    0    0    0 -0.62447344787E+02 -0.86580339304E+00 -0.21711031102E+01  0.62491072763E+02  0.00000000000E+00 0. -1.
</event>
<event>
 4    1  0.9897231E-003  0.9118800E+02  0.7818608E-02  0.1130116E+00
         25   -1    0    0    0    0  0.00000000000E+00  0.00000000000E+00  0.99999998245E-14  0.12500000000E+03  0.12500000000E+03 0.  0.
        -13    1    1    0    0    0  0.32793752697E+02 -0.15701620207E+02  0.15623675930E+02  0.39573747696E+02  0.10566000000E+00 0.  1.
         13    1    1    0    0    0  0.19031476065E+02 -0.90213377041E+01  0.90571089847E+01  0.22926491280E+02  0.10566000000E+00 0.  1.
         22    1    1    0    0    0 -0.51825228762E+02  0.24722957912E+02 -0.24680784915E+02  0.62499761025E+02  0.00000000000E+00 0.  1.
</event>
<event>
 4    1  0.9897231E-003  0.9118800E+02  0.7818608E-02  0.1130116E+00
         25   -1    0    0    0    0  0.00000000000E+00  0.00000000000E+00  0.99999998245E-14  0.12500000000E+03  0.12500000000E+03 0.  0.
        -13    1    1    0    0    0  0.16959533718E+01  0.25612730635E+01 -0.51206215413E+00  0.31160470520E+01  0.10566000000E+00 0.  1.
         13    1    1    0    0    0  0.30806686391E+02  0.50226882339E+02 -0.74166598294E+01  0.59386948423E+02  0.10566000000E+00 0. -1.
         22    1    1    0    0    0 -0.32502639763E+02 -0.52788155403E+02  0.79287219835E+01  0.62497004525E+02  0.00000000000E+00 0. -1.
</event>
<event>
 4    1  0.9897231E-003  0.9118800E+02  0.7818608E-02  0.1130116E+00
         25   -1    0    0    0    0  0.00000000000E+00  0.00000000000E+00  0.99999998245E-14  0.12500000000E+03  0.12500000000E+03 0.  0.
        -13    1    1    0    0    0  0.14539638918E+02  0.71295453757E+01  0.30399332961E+01  0.16476767754E+02  0.10566000000E+00 0. -1.
         13    1    1    0    0    0 -0.43152733090E+02 -0.30115734741E+02  0.28752891219E+02  0.59965454802E+02  0.10566000000E+00 0.  1.
         22    1    1    0    0    0  0.28613094172E+02  0.22986189366E+02 -0.31792824515E+02  0.48557777444E+02  0.00000000000E+00 0.  1.
</event>
<event>
 4    1  0.9897231E-003  0.9118800E+02  0.7818608E-02  0.1130116E+00
         25   -1    0    0    0    0  0.00000000000E+00  0.00000000000E+00  0.99999998245E-14  0.12500000000E+03  0.12500000000E+03 0.  0.
        -13    1    1    0    0    0 -0.46954991101E+02  0.29981171161E+02  0.16903900947E+02  0.58218509469E+02  0.10566000000E+00 0. -1.
         13    1    1    0    0    0 -0.44471181051E+01 -0.64104624418E+01 -0.15384814086E+00  0.78042117761E+01  0.10566000000E+00 0.  1.
         22    1    1    0    0    0  0.51402109206E+02 -0.23570708720E+02 -0.16750052807E+02  0.58977278755E+02  0.00000000000E+00 0. -1.
</event>
<event>
 4    1  0.9897231E-003  0.9118800E+02  0.7818608E-02  0.1130116E+00
         25   -1    0    0    0    0  0.00000000000E+00  0.00000000000E+00  0.99999998245E-14  0.12500000000E+03  0.12500000000E+03 0.  0.
        -13    1    1    0    0    0 -0.25032661432E+02  0.32447968692E+02  0.18050043184E+02  0.44780799832E+02  0.10566000000E+00 0.  1.
         13    1    1    0    0    0 -0.10011995836E+02  0.13113954824E+02  0.64761761769E+01  0.17724781907E+02  0.10566000000E+00 0. -1.
         22    1    1    0    0    0  0.35044657268E+02 -0.45561923516E+02 -0.24526219361E+02  0.62494418260E+02  0.00000000000E+00 0. -1.
</event>
<event>
 4    1  0.9897231E-003  0.9118800E+02  0.7818608E-02  0.1130116E+00
         25   -1    0    0    0    0  0.00000000000E+00  0.00000000000E+00  0.99999998245E-14  0.12500000000E+03  0.12500000000E+03 0.  0.
        -13    1    1    0    0    0  0.14525831505E+02  0.38567655938E+02 -0.22004990391E+02  0.46719317543E+02  0.10566000000E+00 0. -1.
         13    1    1    0    0    0  0.67695315031E+01  0.14315774753E+02 -0.28459346173E+01  0.16089700787E+02  0.10566000000E+00 0.  1.
         22    1    1    0    0    0 -0.21295363008E+02 -0.52883430691E+02  0.24850925009E+02  0.62190981670E+02  0.00000000000E+00 0. -1.
</event>
<event>
 4    1  0.9897231E-003  0.9118800E+02  0.7818608E-02  0.1130116E+00
         25   -1    0    0    0    0  0.00000000000E+00  0.00000000000E+00  0.99999998245E-14  0.12500000000E+03  0.12500000000E+03 0.  0.
        -13    1    1    0    0    0  0.33226452813E+02 -0.40971750359E+02  0.22367337803E+02  0.57297386140E+02  0.10566000000E+00 0. -1.
         13    1    1    0    0    0  0.30992444201E+01 -0.36860928155E+01  0.19684884021E+01  0.52037204811E+01  0.10566000000E+00 0.  1.
         22    1    1    0    0    0 -0.36325697234E+02  0.44657843174E+02 -0.24335826206E+02  0.62498893379E+02  0.00000000000E+00 0. -1.
</event>
<event>
 4    1  0.9897231E-003  0.9118800E+02  0.7818608E-02  0.1130116E+00
         25   -1    0    0    0    0  0.00000000000E+00  0.00000000000E+00  0.99999998245E-14  0.12500000000E+03  0.12500000000E+03 0.  0.
        -13    1    1    0    0    0 -0.33760414421E+02 -0.41582956619E+02  0.28654805398E+02  0.60745509295E+02  0.10566000000E+00 0. -1.
         13    1    1    0    0    0 -0.15839904191E+01 -0.73138458932E+00  0.58982650240E+00  0.18447244791E+01  0.10566000000E+00 0.  1.
         22    1    1    0    0    0  0.35344404840E+02  0.42314341209E+02 -0.29244631900E+02  0.62409766226E+02  0.00000000000E+00 0. -1.
</event>
<event>
 4    1  0.9897231E-003  0.9118800E+02  0.7818608E-02  0.1130116E+00
         25   -1    0    0    0    0  0.00000000000E+00  0.00000000000E+00  0.99999998245E-14  0.12500000000E+03  0.12500000000E+03 0.  0.
        -13    1    1    0    0    0 -0.15090087743E+02  0.25706517079E+02  0.44668915763E+01  0.30141334622E+02  0.10566000000E+00 0.  1.
         13    1    1    0    0    0 -0.23943137742E+02  0.21899203859E+02 -0.71956068860E+01  0.33236078244E+02  0.10566000000E+00 0. -1.
         22    1    1    0    0    0  0.39033225485E+02 -0.47605720938E+02  0.27287153097E+01  0.61622587133E+02  0.00000000000E+00 0.  1.
</event>
<event>
 4    1  0.9897231E-003  0.9118800E+02  0.7818608E-02  0.1130116E+00
         25   -1    0    0    0    0  0.00000000000E+00  0.00000000000E+00  0.99999998245E-14  0.12500000000E+03  0.12500000000E+03 0.  0.
        -13    1    1    0    0    0 -0.21605570712E+02 -0.21199638535E+02 -0.10132532657E+02  0.31920287309E+02  0.10566000000E+00 0. -1.
         13    1    1    0    0    0  0.12755190435E+02  0.14850333903E+02 -0.38527320392E+02  0.43215655504E+02  0.10566000000E+00 0.  1.
         22    1    1    0    0    0  0.88503802769E+01  0.63493046327E+01  0.48659853049E+02  0.49864057187E+02  0.00000000000E+00 0.  1.
</event>
<event>
 4    1  0.9897231E-003  0.9118800E+02  0.7818608E-02  0.1130116E+00
         25   -1    0    0    0    0  0.00000000000E+00  0.00000000000E+00  0.99999998245E-14  0.12500000000E+03  0.12500000000E+03 0.  0.
        -13    1    1    0    0    0  0.12988199909E+02 -0.32929953084E+02 -0.37611671006E+02  0.51650015556E+02  0.10566000000E+00 0. -1.
         13    1    1    0    0    0  0.89852513644E+01 -0.10310608140E+02  0.37033692123E+01  0.14169315080E+02  0.10566000000E+00 0.  1.
         22    1    1    0    0    0 -0.21973451274E+02  0.43240561223E+02  0.33908301794E+02  0.59180669364E+02  0.00000000000E+00 0. -1.
</event>
<event>
 4    1  0.9897231E-003  0.9118800E+02  0.7818608E-02  0.1130116E+00
         25   -1    0    0    0    0  0.00000000000E+00  0.00000000000E+00  0.99999998245E-14  0.12500000000E+03  0.12500000000E+03 0.  0.
        -13    1    1    0    0    0  0.25640803309E+01  0.11859142518E+01  0.86268535306E-01  0.28283399463E+01  0.10566000000E+00 0. -1.
         13    1    1    0    0    0  0.56568631945E+02  0.18966263540E+02  0.14355860381E+01  0.59680828949E+02  0.10566000000E+00 0.  1.
         22    1    1    0    0    0 -0.59132712276E+02 -0.20152177792E+02 -0.15218545734E+01  0.62490831105E+02  0.00000000000E+00 0.  1.
</event>
<event>
 4    1  0.9897231E-003  0.9118800E+02  0.7818608E-02  0.1130116E+00
         25   -1    0    0    0    0  0.00000000000E+00  0.00000000000E+00  0.99999998245E-14  0.12500000000E+03  0.12500000000E+03 0.  0.
        -13    1    1    0    0    0  0.82640225978E+01  0.24264279961E+02  0.60229060982E+01  0.26331272537E+02  0.10566000000E+00 0.  1.
         13    1    1    0    0    0 -0.13005888658E+01  0.32132519259E+02  0.18137052879E+02  0.36920917872E+02  0.10566000000E+00 0. -1.
         22    1    1    0    0    0 -0.69634337319E+01 -0.56396799219E+02 -0.24159958978E+02  0.61747809591E+02  0.00000000000E+00 0. -1.
</event>
<event>
 4    1  0.9897231E-003  0.9118800E+02  0.7818608E-02  0.1130116E+00
         25   -1    0    0    0    0  0.00000000000E+00  0.00000000000E+00  0.99999998245E-14  0.12500000000E+03  0.12500000000E+03 0.  0.
        -13    1    1    0    0    0 -0.11627325733E+01 -0.21309870309E+01 -0.40134291310E+01  0.46916766926E+01  0.10566000000E+00 0. -1.
         13    1    1    0    0    0 -0.80693599046E+01 -0.26625972182E+02 -0.50688665124E+02  0.57822218048E+02  0.10566000000E+00 0. -1.
         22    1    1    0    0    0  0.92320924779E+01  0.28756959213E+02  0.54702094255E+02  0.62486105260E+02  0.00000000000E+00 0. -1.
</event>
<event>
 4    1  0.9897231E-003  0.9118800E+02  0.7818608E-02  0.1130116E+00
         25   -1    0    0    0    0  0.00000000000E+00  0.00000000000E+00  0.99999998245E-14  0.12500000000E+03  0.12500000000E+03 0.  0.
        -13    1    1    0    0    0 -0.35389226691E+02  0.37857714146E+02 -0.16828223011E+02  0.54486733614E+02  0.10566000000E+00 0.  1.
         13    1    1    0    0    0 -0.51822984393E+01  0.55666690535E+01 -0.25228707432E+01  0.80137420902E+01  0.10566000000E+00 0. -1.
         22    1    1    0    0    0  0.40571525131E+02 -0.43424383200E+02  0.19351093754E+02  0.62499524296E+02  0.00000000000E+00 0.  1.
</event>
<event>
 4    1  0.9897231E-003  0.9118800E+02  0.7818608E-02  0.1130116E+00
         25   -1    0    0    0    0  0.00000000000E+00  0.00000000000E+00  0.99999998245E-14  0.12500000000E+03  0.12500000000E+03 0.  0.
        -13    1    1    0    0    0 -0.24636359075E+02  0.35452426244E+02 -0.11103695296E+02  0.44577213107E+02  0.10566000000E+00 0. -1.
         13    1    1    0    0    0 -0.31424474679E+01  0.18591834668E+02  0.35897158200E+01  0.19194491817E+02  0.10566000000E+00 0.  1.
         22    1    1    0    0    0  0.27778806543E+02 -0.54044260912E+02  0.75139794757E+01  0.61228295077E+02  0.00000000000E+00 0. -1.
</event>
<event>
 4    1  0.9897231E-003  0.9118800E+02  0.7818608E-02  0.1130116E+00
         25   -1    0    0    0    0  0.00000000000E+00  0.00000000000E+00  0.99999998245E-14  0.12500000000E+03  0.12500000000E+03 0.  0.
        -13    1    1    0    0    0 -0.36804735499E+02  0.33460185021E+02  0.22755539903E+02  0.54699161759E+02  0.10566000000E+00 0. -1.
         13    1    1    0    0    0 -0.52219213671E+01  0.46621662680E+01  0.34448594042E+01  0.78027224367E+01  0.10566000000E+00 0.  1.
         22    1    1    0    0    0  0.42026656867E+02 -0.38122351289E+02 -0.26200399307E+02  0.62498115804E+02  0.00000000000E+00 0. -1.
</event>
<event>
 4    1  0.9897231E-003  0.9118800E+02  0.7818608E-02  0.1130116E+00
         25   -1    0    0    0    0  0.00000000000E+00  0.00000000000E+00  0.99999998245E-14  0.12500000000E+03  0.12500000000E+03 0.  0.
        -13    1    1    0    0    0  0.14800989003E+02  0.42737079811E-01 -0.12282274157E+02  0.19233734022E+02  0.10566000000E+00 0.  1.
         13    1    1    0    0    0  0.26410608826E+02  0.66804526208E+01 -0.33910284013E+02  0.43497899164E+02  0.10566000000E+00 0. -1.
         22    1    1    0    0    0 -0.41211597829E+02 -0.67231897006E+01  0.46192558170E+02  0.62268366814E+02  0.00000000000E+00 0. -1.
</event>
<event>
 4    1  0.9897231E-003  0.9118800E+02  0.7818608E-02  0.1130116E+00
         25   -1    0    0    0    0  0.00000000000E+00  0.00000000000E+00  0.99999998245E-14  0.12500000000E+03  0.12500000000E+03 0.  0.
        -13    1    1    0    0    0 -0.33718230148E+02 -0.14584964531E+02 -0.17633811385E+02  0.40750493282E+02  0.10566000000E+00 0. -1.
         13    1    1    0    0    0 -0.15597666611E+02 -0.11586402579E+02 -0.10112923155E+02  0.21904664051E+02  0.10566000000E+00 0.  1.
         22    1    1    0    0    0  0.49315896759E+02  0.26171367110E+02  0.27746734540E+02  0.62344842667E+02  0.00000000000E+00 0.  1.
</event>
<event>
 4    1  0.9897231E-003  0.9118800E+02  0.7818608E-02  0.1130116E+00
         25   -1    0    0    0    0  0.00000000000E+00  0.00000000000E+00  0.99999998245E-14  0.12500000000E+03  0.12500000000E+03 0.  0.
        -13    1    1    0    0    0  0.32197615179E+00 -0.19867464539E+02  0.10760677202E+02  0.22596972225E+02  0.10566000000E+00 0. -1.
         13    1    1    0    0    0 -0.31423883845E+01 -0.36671095561E+02  0.15578178724E+02  0.39966669498E+02  0.10566000000E+00 0.  1.
         22    1    1    0    0    0  0.28204122327E+01  0.56538560100E+02 -0.26338855926E+02  0.62436358277E+02  0.00000000000E+00 0.  1.
</event>
<event>
 4    1  0.9897231E-003  0.9118800E+02  0.7818608E-02  0.1130116E+00
         25   -1    0    0    0    0  0.00000000000E+00  0.00000000000E+00  0.99999998245E-14  0.12500000000E+03  0.12500000000E+03 0.  0.
        -13    1    1    0    0    0  0.82475781015E+01 -0.93506268731E+01  0.12678366286E+02  0.17782263725E+02  0.10566000000E+00 0. -1.
         13    1    1    0    0    0  0.19292575226E+02 -0.24206333466E+02  0.32278832734E+02  0.44722301433E+02  0.10566000000E+00 0. -1.
         22    1    1    0    0    0 -0.27540153327E+02  0.33556960339E+02 -0.44957199020E+02  0.62495434843E+02  0.00000000000E+00 0. -1.
</event>
<event>
 4    1  0.9897231E-003  0.9118800E+02  0.7818608E-02  0.1130116E+00
         25   -1    0    0    0    0  0.00000000000E+00  0.00000000000E+00  0.99999998245E-14  0.12500000000E+03  0.12500000000E+03 0.  0.
        -13    1    1    0    0    0  0.18726562105E+01 -0.60817783909E+01 -0.11793357406E+02  0.13401093709E+02  0.10566000000E+00 0.  1.
         13    1    1    0    0    0  0.77984990819E+01 -0.21875862249E+02 -0.43260371710E+02  0.49100314272E+02  0.10566000000E+00 0. -1.
         22    1    1    0    0    0 -0.96711552924E+01  0.27957640640E+02  0.55053729115E+02  0.62498592019E+02  0.00000000000E+00 0. -1.
</event>
<event>
 4    1  0.9897231E-003  0.9118800E+02  0.7818608E-02  0.1130116E+00
         25   -1    0    0    0    0  0.00000000000E+00  0.00000000000E+00  0.99999998245E-14  0.12500000000E+03  0.12500000000E+03 0.  0.
        -13    1    1    0    0    0  0.23360855529E+02  0.19055061651E+02  0.75266300306E+01  0.31072274928E+02  0.10566000000E+00 0.  1.
         13    1    1    0    0    0  0.23665701907E+02  0.19272023386E+02  0.74986148003E+01  0.31427960801E+02  0.10566000000E+00 0.  1.
         22    1    1    0    0    0 -0.47026557435E+02 -0.38327085037E+02 -0.15025244831E+02  0.62499764271E+02  0.00000000000E+00 0.  1.
</event>
<event>
 4    1  0.9897231E-003  0.9118800E+02  0.7818608E-02  0.1130116E+00
         25   -1    0    0    0    0  0.00000000000E+00  0.00000000000E+00  0.99999998245E-14  0.12500000000E+03  0.12500000000E+03 0.  0.
        -13    1    1    0    0    0  0.18472183673E+02  0.76308898819E+01  0.56829136928E+01  0.20778804636E+02  0.10566000000E+00 0. -1.
         13    1    1    0    0    0  0.19202457566E+02  0.39174579852E+02  0.18461815259E+01  0.43666939822E+02  0.10566000000E+00 0.  1.
         22    1    1    0    0    0 -0.37674641239E+02 -0.46805469733E+02 -0.75290952187E+01  0.60554255542E+02  0.00000000000E+00 0.  1.
</event>
<event>
 4    1  0.9897231E-003  0.9118800E+02  0.7818608E-02  0.1130116E+00
         25   -1    0    0    0    0  0.00000000000E+00  0.00000000000E+00  0.99999998245E-14  0.12500000000E+03  0.12500000000E+03 0.  0.
        -13    1    1    0    0    0 -0.11892047682E+02 -0.17492788447E+02  0.15617339255E+02  0.26293172025E+02  0.10566000000E+00 0.  1.
         13    1    1    0    0    0 -0.16651407577E+02 -0.23915794234E+02  0.21487768810E+02  0.36207319158E+02  0.10566000000E+00 0. -1.
         22    1    1    0    0    0  0.28543455259E+02  0.41408582681E+02 -0.37105108065E+02  0.62499508816E+02  0.00000000000E+00 0. -1.
</event>
<event>
 4    1  0.9897231E-003  0.9118800E+02  0.7818608E-02  0.1130116E+00
         25   -1    0    0    0    0  0.00000000000E+00  0.00000000000E+00  0.99999998245E-14  0.12500000000E+03  0.12500000000E+03 0.  0.
        -13    1    1    0    0    0 -0.37704235470E+02  0.14015675780E+02  0.23016806465E+02  0.46344720129E+02  0.10566000000E+00 0. -1.
         13    1    1    0    0    0 -0.17559236221E+02  0.94969973147E+00 -0.87925568774E+01  0.19660847558E+02  0.10566000000E+00 0.  1.
         22    1    1    0    0    0  0.55263471691E+02 -0.14965375511E+02 -0.14224249588E+02  0.58994432312E+02  0.00000000000E+00 0. -1.
</event>
<event>
 4    1  0.9897231E-003  0.9118800E+02  0.7818608E-02  0.1130116E+00
         25   -1    0    0    0    0  0.00000000000E+00  0.00000000000E+00  0.99999998245E-14  0.12500000000E+03  0.12500000000E+03 0.  0.
        -13    1    1    0    0    0  0.43670037393E+01  0.85418846092E+01  0.25119682825E+01  0.99174423631E+01  0.10566000000E+00 0.  1.
         13    1    1    0    0    0  0.24628254079E+02  0.42098116829E+02  0.19759049395E+02  0.52623507452E+02  0.10566000000E+00 0. -1.
         22    1    1    0    0    0 -0.28995257818E+02 -0.50640001438E+02 -0.22271017678E+02  0.62459050185E+02  0.00000000000E+00 0. -1.
</event>
<event>
 4    1  0.9897231E-003  0.9118800E+02  0.7818608E-02  0.1130116E+00
         25   -1    0    0    0    0  0.00000000000E+00  0.00000000000E+00  0.99999998245E-14  0.12500000000E+03  0.12500000000E+03 0.  0.
        -13    1    1    0    0    0  0.16341299814E+02 -0.70071623983E+01 -0.48807319030E+02  0.51945201506E+02  0.10566000000E+00 0. -1.
         13    1    1    0    0    0  0.33747557528E+01 -0.17743966355E+01 -0.98446111401E+01  0.10557698250E+02  0.10566000000E+00 0.  1.
         22    1    1    0    0    0 -0.19716055567E+02  0.87815590338E+01  0.58651930170E+02  0.62497100244E+02  0.00000000000E+00 0. -1.
</event>
<event>
 4    1  0.9897231E-003  0.9118800E+02  0.7818608E-02  0.1130116E+00
         25   -1    0    0    0    0  0.00000000000E+00  0.00000000000E+00  0.99999998245E-14  0.12500000000E+03  0.12500000000E+03 0.  0.
        -13    1    1    0    0    0 -0.71664093981E+01  0.19584918780E+02  0.40186238541E+01  0.21238808088E+02  0.10566000000E+00 0. -1.
         13    1    1    0    0    0 -0.14846970719E+02  0.37674151823E+02  0.79302310298E+01  0.41263470326E+02  0.10566000000E+00 0.  1.
         22    1    1    0    0    0  0.22013380117E+02 -0.57259070603E+02 -0.11948854884E+02  0.62497721586E+02  0.00000000000E+00 0.  1.
</event>
<event>
 4    1  0.9897231E-003  0.9118800E+02  0.7818608E-02  0.1130116E+00
         25   -1    0    0    0    0  0.00000000000E+00  0.00000000000E+00  0.99999998245E-14  0.12500000000E+03  0.12500000000E+03 0.  0.
        -13    1    1    0    0    0 -0.43511941437E+01 -0.51345781172E+02  0.65429031890E+01  0.51943651015E+02  0.10566000000E+00 0.  1.
         13    1    1    0    0    0 -0.19608666440E+01 -0.10301550987E+02  0.13987248852E+01  0.10579912385E+02  0.10566000000E+00 0. -1.
         22    1    1    0    0    0  0.63120607877E+01  0.61647332159E+02 -0.79416280742E+01  0.62476436600E+02  0.00000000000E+00 0.  1.
</event>
<event>
 4    1  0.9897231E-003  0.9118800E+02  0.7818608E-02  0.1130116E+00
         25   -1    0    0    0    0  0.00000000000E+00  0.00000000000E+00  0.99999998245E-14  0.12500000000E+03  0.12500000000E+03 0.  0.
        -13    1    1    0    0    0 -0.29032144523E+02  0.72257030993E+01 -0.40450886236E+01  0.30190231978E+02  0.10566000000E+00 0.  1.
         13    1    1    0    0    0 -0.31173837998E+02  0.73725320761E+01 -0.42185323435E+01  0.32310518162E+02  0.10566000000E+00 0. -1.
         22    1    1    0    0    0  0.60205982521E+02 -0.14598235175E+02  0.82636209671E+01  0.62499249860E+02  0.00000000000E+00 0. -1.
</event>
<event>
 4    1  0.9897231E-003  0.9118800E+02  0.7818608E-02  0.1130116E+00
         25   -1    0    0    0    0  0.00000000000E+00  0.00000000000E+00  0.99999998245E-14  0.12500000000E+03  0.12500000000E+03 0.  0.
        -13    1    1    0    0    0  0.44311818208E+01 -0.15106558639E+02 -0.12469379655E+02  0.20083328391E+02  0.10566000000E+00 0.  1.
         13    1    1    0    0    0  0.10264616013E+02 -0.31666421603E+02 -0.26290625380E+02  0.42418542478E+02  0.10566000000E+00 0. -1.
         22    1    1    0    0    0 -0.14695797834E+02  0.46772980242E+02  0.38760005034E+02  0.62498129132E+02  0.00000000000E+00 0.  1.
</event>
<event>
 4    1  0.9897231E-003  0.9118800E+02  0.7818608E-02  0.1130116E+00
         25   -1    0    0    0    0  0.00000000000E+00  0.00000000000E+00  0.99999998245E-14  0.12500000000E+03  0.12500000000E+03 0.  0.
        -13    1    1    0    0    0 -0.55585142636E+00  0.24106225073E+02 -0.20059942601E+02  0.31366088683E+02  0.10566000000E+00 0. -1.
         13    1    1    0    0    0  0.17652061563E+01  0.31984913114E+02 -0.45761960302E+01  0.32358976403E+02  0.10566000000E+00 0.  1.
         22    1    1    0    0    0 -0.12093547299E+01 -0.56091138188E+02  0.24636138631E+02  0.61274934914E+02  0.00000000000E+00 0. -1.
</event>
<event>
 4    1  0.9897231E-003  0.9118800E+02  0.7818608E-02  0.1130116E+00
         25   -1    0    0    0    0  0.00000000000E+00  0.00000000000E+00  0.99999998245E-14  0.12500000000E+03  0.12500000000E+03 0.  0.
        -13    1    1    0    0    0  0.21201026822E+02  0.18909532619E+02 -0.88623633263E+01  0.29759143300E+02  0.10566000000E+00 0. -1.
         13    1    1    0    0    0  0.23084203248E+02  0.21009834115E+02 -0.98842735374E+01  0.32741466011E+02  0.10566000000E+00 0.  1.
         22    1    1    0    0    0 -0.44285230071E+02 -0.39919366733E+02  0.18746636864E+02  0.62499390689E+02  0.00000000000E+00 0.  1.
</event>
<event>
 4    1  0.9897231E-003  0.9118800E+02  0.7818608E-02  0.1130116E+00
         25   -1    0    0    0    0  0.00000000000E+00  0.00000000000E+00  0.99999998245E-14  0.12500000000E+03  0.12500000000E+03 0.  0.
        -13    1    1    0    0    0  0.40756288311E+02 -0.13992707954E+02 -0.27752283818E+02  0.51254963993E+02  0.10566000000E+00 0.  1.
         13    1    1    0    0    0  0.91439918451E+01 -0.26473107081E+01 -0.59932790672E+01  0.11249506605E+02  0.10566000000E+00 0. -1.
         22    1    1    0    0    0 -0.49900280156E+02  0.16640018662E+02  0.33745562885E+02  0.62495529402E+02  0.00000000000E+00 0.  1.
</event>
<event>
 4    1  0.9897231E-003  0.9118800E+02  0.7818608E-02  0.1130116E+00
         25   -1    0    0    0    0  0.00000000000E+00  0.00000000000E+00  0.99999998245E-14  0.12500000000E+03  0.12500000000E+03 0.  0.
        -13    1    1    0    0    0  0.92821580814E+01 -0.17159218568E+02  0.12117105510E+02  0.22965901908E+02  0.10566000000E+00 0.  1.
         13    1    1    0    0    0  0.17814246245E+02 -0.16557485801E+02  0.32037070625E+02  0.40222913415E+02  0.10566000000E+00 0. -1.
         22    1    1    0    0    0 -0.27096404327E+02  0.33716704369E+02 -0.44154176135E+02  0.61811184676E+02  0.00000000000E+00 0. -1.
</event>
<event>
 4    1  0.9897231E-003  0.9118800E+02  0.7818608E-02  0.1130116E+00
         25   -1    0    0    0    0  0.00000000000E+00  0.00000000000E+00  0.99999998245E-14  0.12500000000E+03  0.12500000000E+03 0.  0.
        -13    1    1    0    0    0  0.14075721100E+02  0.78434079977E+01  0.21204121285E+02  0.26632140301E+02  0.10566000000E+00 0. -1.
         13    1    1    0    0    0  0.18337761112E+02  0.98178845494E+01  0.29225608710E+02  0.35872157840E+02  0.10566000000E+00 0.  1.
         22    1    1    0    0    0 -0.32413482212E+02 -0.17661292547E+02 -0.50429729995E+02  0.62495701859E+02  0.00000000000E+00 0.  1.
</event>
<event>
 4    1  0.9897231E-003  0.9118800E+02  0.7818608E-02  0.1130116E+00
         25   -1    0    0    0    0  0.00000000000E+00  0.00000000000E+00  0.99999998245E-14  0.12500000000E+03  0.12500000000E+03 0.  0.
        -13    1    1    0    0    0  0.32162553722E+02  0.99572971771E+01  0.98387284645E+01  0.35076906518E+02  0.10566000000E+00 0.  1.
         13    1    1    0    0    0  0.24412391720E+02  0.76321204320E+01  0.99712720599E+01  0.27452715026E+02  0.10566000000E+00 0. -1.
         22    1    1    0    0    0 -0.56574945443E+02 -0.17589417609E+02 -0.19810000524E+02  0.62470378456E+02  0.00000000000E+00 0.  1.
</event>
<event>
 4    1  0.9897231E-003  0.9118800E+02  0.7818608E-02  0.1130116E+00
         25   -1    0    0    0    0  0.00000000000E+00  0.00000000000E+00  0.99999998245E-14  0.12500000000E+03  0.12500000000E+03 0.  0.
        -13    1    1    0    0    0  0.61614075078E+01  0.90853643289E+01  0.14886010319E+02  0.18496249747E+02  0.10566000000E+00 0.  1.
         13    1    1    0    0    0 -0.10364406581E+02  0.17819114231E+02  0.40131332422E+02  0.45116258286E+02  0.10566000000E+00 0. -1.
         22    1    1    0    0    0  0.42029990734E+01 -0.26904478560E+02 -0.55017342740E+02  0.61387491967E+02  0.00000000000E+00 0. -1.
</event>
<event>
 4    1  0.9897231E-003  0.9118800E+02  0.7818608E-02  0.1130116E+00
         25   -1    0    0    0    0  0.00000000000E+00  0.00000000000E+00  0.99999998245E-14  0.12500000000E+03  0.12500000000E+03 0.  0.
        -13    1    1    0    0    0 -0.32640214802E+01  0.19251738721E+01  0.12029892845E+01  0.39772450158E+01  0.10566000000E+00 0.  1.
         13    1    1    0    0    0 -0.45497215783E+02  0.30155688090E+02  0.21126064469E+02  0.58529342489E+02  0.10566000000E+00 0. -1.
         22    1    1    0    0    0  0.48761237264E+02 -0.32080861962E+02 -0.22329053754E+02  0.62493412495E+02  0.00000000000E+00 0. -1.
</event>
<event>
 4    1  0.9897231E-003  0.9118800E+02  0.7818608E-02  0.1130116E+00
         25   -1    0    0    0    0  0.00000000000E+00  0.00000000000E+00  0.99999998245E-14  0.12500000000E+03  0.12500000000E+03 0.  0.
        -13    1    1    0    0    0 -0.37111027428E+01 -0.53587098347E+01 -0.14183901478E+01  0.66716601612E+01  0.10566000000E+00 0. -1.
         13    1    1    0    0    0 -0.32387102451E+02 -0.43788183891E+02 -0.12275097676E+02  0.55830266349E+02  0.10566000000E+00 0. -1.
         22    1    1    0    0    0  0.36098205193E+02  0.49146893726E+02  0.13693487824E+02  0.62498073489E+02  0.00000000000E+00 0. -1.
</event>
<event>
 4    1  0.9897231E-003  0.9118800E+02  0.7818608E-02  0.1130116E+00
         25   -1    0    0    0    0  0.00000000000E+00  0.00000000000E+00  0.99999998245E-14  0.12500000000E+03  0.12500000000E+03 0.  0.
        -13    1    1    0    0    0 -0.25300188969E+02  0.18708870506E+01 -0.31130814496E+02  0.40158916263E+02  0.10566000000E+00 0. -1.
         13    1    1    0    0    0 -0.13679138554E+02  0.11049049268E+01 -0.17631363398E+02  0.22343137331E+02  0.10566000000E+00 0.  1.
         22    1    1    0    0    0  0.38979327524E+02 -0.29757919773E+01  0.48762177893E+02  0.62497946406E+02  0.00000000000E+00 0. -1.
</event>
<event>
 4    1  0.9897231E-003  0.9118800E+02  0.7818608E-02  0.1130116E+00
         25   -1    0    0    0    0  0.00000000000E+00  0.00000000000E+00  0.99999998245E-14  0.12500000000E+03  0.12500000000E+03 0.  0.
        -13    1    1    0    0    0  0.18117645094E+01  0.17840630411E+02  0.13090723506E+02  0.22202450091E+02  0.10566000000E+00 0.  1.
         13    1    1    0    0    0 -0.43067117571E+01  0.39433721747E+02  0.10135335022E+02  0.40942671591E+02  0.10566000000E+00 0. -1.
         22    1    1    0    0    0  0.24949472478E+01 -0.57274352158E+02 -0.23226058529E+02  0.61854878317E+02  0.00000000000E+00 0. -1.
</event>
<event>
 4    1  0.9897231E-003  0.9118800E+02  0.7818608E-02  0.1130116E+00
         25   -1    0    0    0    0  0.00000000000E+00  0.00000000000E+00  0.99999998245E-14  0.12500000000E+03  0.12500000000E+03 0.  0.
        -13    1    1    0    0    0  0.10685628711E+00 -0.27621062330E+01 -0.39760262463E+01  0.48436141315E+01  0.10566000000E+00 0.  1.
         13    1    1    0    0    0  0.71313173925E-01 -0.32484549578E+02 -0.47635429850E+02  0.57657578755E+02  0.10566000000E+00 0. -1.
         22    1    1    0    0    0 -0.17816946103E+00  0.35246655811E+02  0.51611456096E+02  0.62498807113E+02  0.00000000000E+00 0. -1.
</event>
<event>
 4    1  0.9897231E-003  0.9118800E+02  0.7818608E-02  0.1130116E+00
         25   -1    0    0    0    0  0.00000000000E+00  0.00000000000E+00  0.99999998245E-14  0.12500000000E+03  0.12500000000E+03 0.  0.
        -13    1    1    0    0    0  0.12455156288E+02 -0.54146636540E+02 -0.11235530572E+02  0.56685425623E+02  0.10566000000E+00 0. -1.
         13    1    1    0    0    0  0.12189221734E+01 -0.55194231222E+01 -0.13704435971E+01  0.58171369723E+01  0.10566000000E+00 0.  1.
         22    1    1    0    0    0 -0.13674078461E+02  0.59666059662E+02  0.12605974169E+02  0.62497437405E+02  0.00000000000E+00 0. -1.
</event>
<event>
 4    1  0.9897231E-003  0.9118800E+02  0.7818608E-02  0.1130116E+00
         25   -1    0    0    0    0  0.00000000000E+00  0.00000000000E+00  0.99999998245E-14  0.12500000000E+03  0.12500000000E+03 0.  0.
        -13    1    1    0    0    0  0.79260742702E+01  0.29210328927E+00  0.12976525622E+02  0.15208857910E+02  0.10566000000E+00 0.  1.
         13    1    1    0    0    0  0.26161140223E+02  0.11441139261E+01  0.39384631440E+02  0.47295608804E+02  0.10566000000E+00 0. -1.
         22    1    1    0    0    0 -0.34087214493E+02 -0.14362172154E+01 -0.52361157062E+02  0.62495533286E+02  0.00000000000E+00 0. -1.
</event>
<event>
 4    1  0.9897231E-003  0.9118800E+02  0.7818608E-02  0.1130116E+00
         25   -1    0    0    0    0  0.00000000000E+00  0.00000000000E+00  0.99999998245E-14  0.12500000000E+03  0.12500000000E+03 0.  0.
        -13    1    1    0    0    0  0.45222119666E+02  0.96335159621E+01  0.41176103580E+02  0.61913870877E+02  0.10566000000E+00 0.  1.
         13    1    1    0    0    0  0.56320141076E+00  0.97552449015E-01  0.19761439171E+00  0.61394445416E+00  0.10566000000E+00 0. -1.
         22    1    1    0    0    0 -0.45785321076E+02 -0.97310684111E+01 -0.41373717972E+02  0.62472184669E+02  0.00000000000E+00 0.  1.
</event>
<event>
 4    1  0.9897231E-003  0.9118800E+02  0.7818608E-02  0.1130116E+00
         25   -1    0    0    0    0  0.00000000000E+00  0.00000000000E+00  0.99999998245E-14  0.12500000000E+03  0.12500000000E+03 0.  0.
        -13    1    1    0    0    0 -0.22651617273E+02  0.44901567485E+02  0.24909245212E+02  0.56122439262E+02  0.10566000000E+00 0. -1.
         13    1    1    0    0    0 -0.34120916153E+01  0.43581022722E+01  0.32687365562E+01  0.64289367173E+01  0.10566000000E+00 0.  1.
         22    1    1    0    0    0  0.26063708888E+02 -0.49259669757E+02 -0.28177981768E+02  0.62448624021E+02  0.00000000000E+00 0. -1.
</event>
<event>
 4    1  0.9897231E-003  0.9118800E+02  0.7818608E-02  0.1130116E+00
         25   -1    0    0    0    0  0.00000000000E+00  0.00000000000E+00  0.99999998245E-14  0.12500000000E+03  0.12500000000E+03 0.  0.
        -13    1    1    0    0    0 -0.12841650290E+02  0.20530851986E+00 -0.88036663123E+00  0.12873862792E+02  0.10566000000E+00 0.  1.
         13    1    1    0    0    0 -0.49324094181E+02 -0.59555861858E+01 -0.31945685991E+00  0.49683483074E+02  0.10566000000E+00 0. -1.
         22    1    1    0    0    0  0.62165744471E+02  0.57502776660E+01  0.11998234911E+01  0.62442654134E+02  0.00000000000E+00 0. -1.
</event>
<event>
 4    1  0.9897231E-003  0.9118800E+02  0.7818608E-02  0.1130116E+00
         25   -1    0    0    0    0  0.00000000000E+00  0.00000000000E+00  0.99999998245E-14  0.12500000000E+03  0.12500000000E+03 0.  0.
        -13    1    1    0    0    0 -0.53217982877E+01  0.49211093245E+01  0.11997015732E+01  0.73477412787E+01  0.10566000000E+00 0. -1.
         13    1    1    0    0    0  0.14049156036E+02 -0.43090820296E+02 -0.41507414213E+02  0.61457905739E+02  0.10566000000E+00 0.  1.
         22    1    1    0    0    0 -0.87273577486E+01  0.38169710971E+02  0.40307712640E+02  0.56194352983E+02  0.00000000000E+00 0.  1.
</event>
<event>
 4    1  0.9897231E-003  0.9118800E+02  0.7818608E-02  0.1130116E+00
         25   -1    0    0    0    0  0.00000000000E+00  0.00000000000E+00  0.99999998245E-14  0.12500000000E+03  0.12500000000E+03 0.  0.
        -13    1    1    0    0    0  0.37795707696E+02  0.37156238179E+02  0.22930299996E+02  0.57748691568E+02  0.10566000000E+00 0. -1.
         13    1    1    0    0    0  0.32277390466E+01  0.32955196384E+01  0.12333829620E+01  0.47761016118E+01  0.10566000000E+00 0. -1.
         22    1    1    0    0    0 -0.41023446743E+02 -0.40451757817E+02 -0.24163682958E+02  0.62475206820E+02  0.00000000000E+00 0. -1.
</event>
<event>
 4    1  0.9897231E-003  0.9118800E+02  0.7818608E-02  0.1130116E+00
         25   -1    0    0    0    0  0.00000000000E+00  0.00000000000E+00  0.99999998245E-14  0.12500000000E+03  0.12500000000E+03 0.  0.
        -13    1    1    0    0    0  0.24043747234E+02 -0.72682353031E+01 -0.26052111254E+02  0.36189123923E+02  0.10566000000E+00 0. -1.
         13    1    1    0    0    0  0.16375501987E+02 -0.31511984710E+01 -0.20407563627E+02  0.26354637815E+02  0.10566000000E+00 0.  1.
         22    1    1    0    0    0 -0.40419249222E+02  0.10419433774E+02  0.46459674881E+02  0.62456238262E+02  0.00000000000E+00 0. -1.
</event>
<event>
 4    1  0.9897231E-003  0.9118800E+02  0.7818608E-02  0.1130116E+00
         25   -1    0    0    0    0  0.00000000000E+00  0.00000000000E+00  0.99999998245E-14  0.12500000000E+03  0.12500000000E+03 0.  0.
        -13    1    1    0    0    0  0.23640841464E+02  0.61305077070E+01 -0.66878098497E+01  0.25322134082E+02  0.10566000000E+00 0. -1.
         13    1    1    0    0    0  0.54848896716E+01  0.33806579519E+02  0.29533687329E+02  0.45224094074E+02  0.10566000000E+00 0.  1.
         22    1    1    0    0    0 -0.29125731135E+02 -0.39937087226E+02 -0.22845877479E+02  0.54453771844E+02  0.00000000000E+00 0.  1.
</event>
<event>
 4    1  0.9897231E-003  0.9118800E+02  0.7818608E-02  0.1130116E+00
         25   -1    0    0    0    0  0.00000000000E+00  0.00000000000E+00  0.99999998245E-14  0.12500000000E+03  0.12500000000E+03 0.  0.
        -13    1    1    0    0    0 -0.30622924170E+02  0.22807941486E+02 -0.12922484643E+01  0.38205323578E+02  0.10566000000E+00 0.  1.
         13    1    1    0    0    0 -0.80913839825E+01 -0.54246193129E+01 -0.31622068401E+02  0.33088719580E+02  0.10566000000E+00 0. -1.
         22    1    1    0    0    0  0.38714308153E+02 -0.17383322173E+02  0.32914316866E+02  0.53705956842E+02  0.00000000000E+00 0.  1.
</event>
<event>
 4    1  0.9897231E-003  0.9118800E+02  0.7818608E-02  0.1130116E+00
         25   -1    0    0    0    0  0.00000000000E+00  0.00000000000E+00  0.99999998245E-14  0.12500000000E+03  0.12500000000E+03 0.  0.
        -13    1    1    0    0    0  0.22974502283E+01 -0.17632303832E+01 -0.25551686644E+01  0.38635876947E+01  0.10566000000E+00 0.  1.
         13    1    1    0    0    0  0.21807942916E+02 -0.41737536017E+02 -0.35118805332E+02  0.58744786483E+02  0.10566000000E+00 0. -1.
         22    1    1    0    0    0 -0.24105393144E+02  0.43500766400E+02  0.37673973997E+02  0.62391625822E+02  0.00000000000E+00 0. -1.
</event>
<event>
 4    1  0.9897231E-003  0.9118800E+02  0.7818608E-02  0.1130116E+00
         25   -1    0    0    0    0  0.00000000000E+00  0.00000000000E+00  0.99999998245E-14  0.12500000000E+03  0.12500000000E+03 0.  0.
        -13    1    1    0    0    0  0.36150586861E+02  0.40255231548E+02 -0.99759520420E+01  0.55017082624E+02  0.10566000000E+00 0.  1.
         13    1    1    0    0    0  0.52551398896E+01  0.50883109551E+01 -0.16213931785E+01  0.74931624505E+01  0.10566000000E+00 0. -1.
         22    1    1    0    0    0 -0.41405726750E+02 -0.45343542503E+02  0.11597345221E+02  0.62489754925E+02  0.00000000000E+00 0.  1.
</event>
<event>
 4    1  0.9897231E-003  0.9118800E+02  0.7818608E-02  0.1130116E+00
         25   -1    0    0    0    0  0.00000000000E+00  0.00000000000E+00  0.99999998245E-14  0.12500000000E+03  0.12500000000E+03 0.  0.
        -13    1    1    0    0    0  0.14839306144E+02  0.35266840010E+01 -0.16390183743E+02  0.22389546535E+02  0.10566000000E+00 0. -1.
         13    1    1    0    0    0  0.26184809736E+02  0.57512978236E+01 -0.29837185641E+02  0.40112223805E+02  0.10566000000E+00 0.  1.
         22    1    1    0    0    0 -0.41024115880E+02 -0.92779818245E+01  0.46227369384E+02  0.62498229660E+02  0.00000000000E+00 0.  1.
</event>
<event>
 4    1  0.9897231E-003  0.9118800E+02  0.7818608E-02  0.1130116E+00
         25   -1    0    0    0    0  0.00000000000E+00  0.00000000000E+00  0.99999998245E-14  0.12500000000E+03  0.12500000000E+03 0.  0.
        -13    1    1    0    0    0 -0.11274550866E+02  0.11756446256E+02 -0.14009282038E+02  0.21484894067E+02  0.10566000000E+00 0. -1.
         13    1    1    0    0    0 -0.38266379115E+01  0.18085037381E+02 -0.37667948193E+02  0.41959471158E+02  0.10566000000E+00 0.  1.
         22    1    1    0    0    0  0.15101188777E+02 -0.29841483637E+02  0.51677230231E+02  0.61555634775E+02  0.00000000000E+00 0.  1.
</event>
<event>
 4    1  0.9897231E-003  0.9118800E+02  0.7818608E-02  0.1130116E+00
         25   -1    0    0    0    0  0.00000000000E+00  0.00000000000E+00  0.99999998245E-14  0.12500000000E+03  0.12500000000E+03 0.  0.
        -13    1    1    0    0    0  0.21053571375E+02 -0.80859273532E+01 -0.61926154579E+01  0.23387918656E+02  0.10566000000E+00 0. -1.
         13    1    1    0    0    0  0.29634904822E+02 -0.26520857095E+02 -0.12372568665E+01  0.39788508560E+02  0.10566000000E+00 0.  1.
         22    1    1    0    0    0 -0.50688476197E+02  0.34606784448E+02  0.74298723245E+01  0.61823572784E+02  0.00000000000E+00 0.  1.
</event>
<event>
 4    1  0.9897231E-003  0.9118800E+02  0.7818608E-02  0.1130116E+00
         25   -1    0    0    0    0  0.00000000000E+00  0.00000000000E+00  0.99999998245E-14  0.12500000000E+03  0.12500000000E+03 0.  0.
        -13    1    1    0    0    0 -0.65329775161E+00  0.18545370078E+02  0.27317466462E+02  0.33024425615E+02  0.10566000000E+00 0. -1.
         13    1    1    0    0    0 -0.38642810158E+02  0.86649906102E+01 -0.16890991934E+02  0.43054217119E+02  0.10566000000E+00 0.  1.
         22    1    1    0    0    0  0.39296107910E+02 -0.27210360688E+02 -0.10426474528E+02  0.48921357266E+02  0.00000000000E+00 0.  1.
</event>
<event>
 4    1  0.9897231E-003  0.9118800E+02  0.7818608E-02  0.1130116E+00
         25   -1    0    0    0    0  0.00000000000E+00  0.00000000000E+00  0.99999998245E-14  0.12500000000E+03  0.12500000000E+03 0.  0.
        -13    1    1    0    0    0 -0.13510079625E+02  0.66385366808E+01  0.62847299213E+01  0.16312615209E+02  0.10566000000E+00 0.  1.
         13    1    1    0    0    0 -0.26631992090E+02 -0.14236003076E+01 -0.45234846783E+02  0.52511828839E+02  0.10566000000E+00 0. -1.
         22    1    1    0    0    0  0.40142071715E+02 -0.52149363732E+01  0.38950116861E+02  0.56175555952E+02  0.00000000000E+00 0. -1.
</event>
<event>
 4    1  0.9897231E-003  0.9118800E+02  0.7818608E-02  0.1130116E+00
         25   -1    0    0    0    0  0.00000000000E+00  0.00000000000E+00  0.99999998245E-14  0.12500000000E+03  0.12500000000E+03 0.  0.
        -13    1    1    0    0    0  0.11855438368E+01  0.74370832920E+00 -0.29111755752E+01  0.32318297500E+01  0.10566000000E+00 0. -1.
         13    1    1    0    0    0 -0.27821505349E+02  0.21920572485E+02 -0.48213537450E+02  0.59825613373E+02  0.10566000000E+00 0.  1.
         22    1    1    0    0    0  0.26635961512E+02 -0.22664280815E+02  0.51124713026E+02  0.61942556877E+02  0.00000000000E+00 0.  1.
</event>
<event>
 4    1  0.9897231E-003  0.9118800E+02  0.7818608E-02  0.1130116E+00
         25   -1    0    0    0    0  0.00000000000E+00  0.00000000000E+00  0.99999998245E-14  0.12500000000E+03  0.12500000000E+03 0.  0.
        -13    1    1    0    0    0 -0.17092350436E+01  0.24894520174E+01 -0.15752953648E+01  0.34075761625E+01  0.10566000000E+00 0. -1.
         13    1    1    0    0    0 -0.33292831131E+02  0.11664398413E+02  0.49373583271E+02  0.60681403116E+02  0.10566000000E+00 0.  1.
         22    1    1    0    0    0  0.35002066175E+02 -0.14153850431E+02 -0.47798287906E+02  0.60911020721E+02  0.00000000000E+00 0.  1.
</event>
<event>
 4    1  0.9897231E-003  0.9118800E+02  0.7818608E-02  0.1130116E+00
         25   -1    0    0    0    0  0.00000000000E+00  0.00000000000E+00  0.99999998245E-14  0.12500000000E+03  0.12500000000E+03 0.  0.
        -13    1    1    0    0    0 -0.21596737370E+02 -0.28486955542E+02 -0.24253659206E+02  0.43199269091E+02  0.10566000000E+00 0. -1.
         13    1    1    0    0    0 -0.12460496073E+02 -0.12190104120E+02 -0.85605455505E+01  0.19420522779E+02  0.10566000000E+00 0.  1.
         22    1    1    0    0    0  0.34057233443E+02  0.40677059662E+02  0.32814204757E+02  0.62380208130E+02  0.00000000000E+00 0.  1.
</event>
<event>
 4    1  0.9897231E-003  0.9118800E+02  0.7818608E-02  0.1130116E+00
         25   -1    0    0    0    0  0.00000000000E+00  0.00000000000E+00  0.99999998245E-14  0.12500000000E+03  0.12500000000E+03 0.  0.
        -13    1    1    0    0    0  0.15665958684E+02 -0.29283411317E+02  0.14064572793E+02  0.36066103362E+02  0.10566000000E+00 0. -1.
         13    1    1    0    0    0  0.11509115299E+02 -0.21382411860E+02  0.10444594569E+02  0.26434220088E+02  0.10566000000E+00 0. -1.
         22    1    1    0    0    0 -0.27175073983E+02  0.50665823177E+02 -0.24509167362E+02  0.62499676550E+02  0.00000000000E+00 0. -1.
</event>
<event>
 4    1  0.9897231E-003  0.9118800E+02  0.7818608E-02  0.1130116E+00
         25   -1    0    0    0    0  0.00000000000E+00  0.00000000000E+00  0.99999998245E-14  0.12500000000E+03  0.12500000000E+03 0.  0.
        -13    1    1    0    0    0 -0.24076472422E+01 -0.12026444588E+01  0.62455496522E+01  0.68015566917E+01  0.10566000000E+00 0. -1.
         13    1    1    0    0    0 -0.17365591886E+02 -0.25139229708E+02  0.46721672207E+02  0.55825356871E+02  0.10566000000E+00 0.  1.
         22    1    1    0    0    0  0.19773239128E+02  0.26341874167E+02 -0.52967221859E+02  0.62373086438E+02  0.00000000000E+00 0.  1.
</event>
<event>
 4    1  0.9897231E-003  0.9118800E+02  0.7818608E-02  0.1130116E+00
         25   -1    0    0    0    0  0.00000000000E+00  0.00000000000E+00  0.99999998245E-14  0.12500000000E+03  0.12500000000E+03 0.  0.
        -13    1    1    0    0    0  0.30151181520E+02  0.52496133269E+02 -0.49509475171E+01  0.60740931838E+02  0.10566000000E+00 0.  1.
         13    1    1    0    0    0  0.13571320102E+01  0.11327461284E+01 -0.44371042807E+00  0.18256407270E+01  0.10566000000E+00 0. -1.
         22    1    1    0    0    0 -0.31508313530E+02 -0.53628879397E+02  0.53946579452E+01  0.62433427435E+02  0.00000000000E+00 0.  1.
</event>
<event>
 4    1  0.9897231E-003  0.9118800E+02  0.7818608E-02  0.1130116E+00
         25   -1    0    0    0    0  0.00000000000E+00  0.00000000000E+00  0.99999998245E-14  0.12500000000E+03  0.12500000000E+03 0.  0.
        -13    1    1    0    0    0 -0.29093627094E+02 -0.13654166306E+02  0.18492270357E+02  0.37078978168E+02  0.10566000000E+00 0.  1.
         13    1    1    0    0    0 -0.19861546115E+02 -0.87392970927E+01  0.13250827108E+02  0.25425418597E+02  0.10566000000E+00 0. -1.
         22    1    1    0    0    0  0.48955173209E+02  0.22393463399E+02 -0.31743097466E+02  0.62495603234E+02  0.00000000000E+00 0. -1.
</event>
<event>
 4    1  0.9897231E-003  0.9118800E+02  0.7818608E-02  0.1130116E+00
         25   -1    0    0    0    0  0.00000000000E+00  0.00000000000E+00  0.99999998245E-14  0.12500000000E+03  0.12500000000E+03 0.  0.
        -13    1    1    0    0    0  0.76663115656E+00  0.12348688235E+00 -0.93025221949E+00  0.12163492787E+01  0.10566000000E+00 0. -1.
         13    1    1    0    0    0  0.53230452045E+02  0.14463951351E+02 -0.26831353271E+02  0.61340195597E+02  0.10566000000E+00 0.  1.
         22    1    1    0    0    0 -0.53997083201E+02 -0.14587438233E+02  0.27761605490E+02  0.62443455124E+02  0.00000000000E+00 0.  1.
</event>
<event>
 4    1  0.9897231E-003  0.9118800E+02  0.7818608E-02  0.1130116E+00
         25   -1    0    0    0    0  0.00000000000E+00  0.00000000000E+00  0.99999998245E-14  0.12500000000E+03  0.12500000000E+03 0.  0.
        -13    1    1    0    0    0  0.38389370704E+01 -0.10481081764E+01  0.94836974639E+01  0.10285312353E+02  0.10566000000E+00 0.  1.
         13    1    1    0    0    0  0.20504787215E+02 -0.47654155548E+01  0.47784536134E+02  0.52216171267E+02  0.10566000000E+00 0. -1.
         22    1    1    0    0    0 -0.24343724285E+02  0.58135237312E+01 -0.57268233598E+02  0.62498516380E+02  0.00000000000E+00 0. -1.
</event>
<event>
 4    1  0.9897231E-003  0.9118800E+02  0.7818608E-02  0.1130116E+00
         25   -1    0    0    0    0  0.00000000000E+00  0.00000000000E+00  0.99999998245E-14  0.12500000000E+03  0.12500000000E+03 0.  0.
        -13    1    1    0    0    0  0.13788533348E+02 -0.33550564933E+01 -0.34700105971E+01  0.14609318723E+02  0.10566000000E+00 0.  1.
         13    1    1    0    0    0  0.43285948438E+02 -0.54770508398E+01 -0.20067285460E+02  0.48024769941E+02  0.10566000000E+00 0. -1.
         22    1    1    0    0    0 -0.57074481786E+02  0.88321073331E+01  0.23537296057E+02  0.62365911336E+02  0.00000000000E+00 0. -1.
</event>
<event>
 4    1  0.9897231E-003  0.9118800E+02  0.7818608E-02  0.1130116E+00
         25   -1    0    0    0    0  0.00000000000E+00  0.00000000000E+00  0.99999998245E-14  0.12500000000E+03  0.12500000000E+03 0.  0.
        -13    1    1    0    0    0 -0.12154117117E+00 -0.88255730321E+01 -0.95812515256E+00  0.88788895390E+01  0.10566000000E+00 0. -1.
         13    1    1    0    0    0  0.38176867411E+02  0.20360206091E+02  0.41058337888E+02  0.59647376066E+02  0.10566000000E+00 0.  1.
         22    1    1    0    0    0 -0.38055326240E+02 -0.11534633059E+02 -0.40100212736E+02  0.56473734395E+02  0.00000000000E+00 0.  1.
</event>
<event>
 4    1  0.9897231E-003  0.9118800E+02  0.7818608E-02  0.1130116E+00
         25   -1    0    0    0    0  0.00000000000E+00  0.00000000000E+00  0.99999998245E-14  0.12500000000E+03  0.12500000000E+03 0.  0.
        -13    1    1    0    0    0  0.38011139768E+02  0.51052457201E+01 -0.48534781465E+01  0.38658475067E+02  0.10566000000E+00 0.  1.
         13    1    1    0    0    0  0.18265665837E+02  0.13172282989E+02 -0.11030100797E+02  0.25076241250E+02  0.10566000000E+00 0. -1.
         22    1    1    0    0    0 -0.56276805605E+02 -0.18277528709E+02  0.15883578943E+02  0.61265283684E+02  0.00000000000E+00 0.  1.
</event>
<event>
 4    1  0.9897231E-003  0.9118800E+02  0.7818608E-02  0.1130116E+00
         25   -1    0    0    0    0  0.00000000000E+00  0.00000000000E+00  0.99999998245E-14  0.12500000000E+03  0.12500000000E+03 0.  0.
        -13    1    1    0    0    0 -0.47859299152E+02  0.19049099967E+02 -0.16826316684E+02  0.54189637589E+02  0.10566000000E+00 0.  1.
         13    1    1    0    0    0 -0.69774698475E+01  0.42508550193E+01 -0.18353963268E+01  0.83746461167E+01  0.10566000000E+00 0. -1.
         22    1    1    0    0    0  0.54836768999E+02 -0.23299954986E+02  0.18661713011E+02  0.62435716294E+02  0.00000000000E+00 0.  1.
</event>
<event>
 4    1  0.9897231E-003  0.9118800E+02  0.7818608E-02  0.1130116E+00
         25   -1    0    0    0    0  0.00000000000E+00  0.00000000000E+00  0.99999998245E-14  0.12500000000E+03  0.12500000000E+03 0.  0.
        -13    1    1    0    0    0  0.31069629281E+01 -0.16791256397E+02  0.11787999577E+02  0.20750123086E+02  0.10566000000E+00 0.  1.
         13    1    1    0    0    0  0.60757896390E+01 -0.34054466595E+02  0.23376750788E+02  0.41750515641E+02  0.10566000000E+00 0. -1.
         22    1    1    0    0    0 -0.91827525671E+01  0.50845722992E+02 -0.35164750366E+02  0.62499361273E+02  0.00000000000E+00 0. -1.
</event>
<event>
 4    1  0.9897231E-003  0.9118800E+02  0.7818608E-02  0.1130116E+00
         25   -1    0    0    0    0  0.00000000000E+00  0.00000000000E+00  0.99999998245E-14  0.12500000000E+03  0.12500000000E+03 0.  0.
        -13    1    1    0    0    0  0.21568644138E+00  0.35352113585E+01  0.22884857707E+02  0.23157549877E+02  0.10566000000E+00 0.  1.
         13    1    1    0    0    0 -0.65774175404E+00  0.21443899654E+01  0.39316596997E+02  0.39380667796E+02  0.10566000000E+00 0. -1.
         22    1    1    0    0    0  0.44205531266E+00 -0.56796013238E+01 -0.62201454705E+02  0.62461782327E+02  0.00000000000E+00 0.  1.
</event>
<event>
 4    1  0.9897231E-003  0.9118800E+02  0.7818608E-02  0.1130116E+00
         25   -1    0    0    0    0  0.00000000000E+00  0.00000000000E+00  0.99999998245E-14  0.12500000000E+03  0.12500000000E+03 0.  0.
        -13    1    1    0    0    0 -0.80322789910E+00  0.55635274327E+01  0.71688440986E+01  0.91105160281E+01  0.10566000000E+00 0. -1.
         13    1    1    0    0    0  0.59822756967E+00  0.36396166019E+02  0.39104246847E+02  0.53424639096E+02  0.10566000000E+00 0.  1.
         22    1    1    0    0    0  0.20500032943E+00 -0.41959693452E+02 -0.46273090945E+02  0.62464844875E+02  0.00000000000E+00 0.  1.
</event>
<event>
 4    1  0.9897231E-003  0.9118800E+02  0.7818608E-02  0.1130116E+00
         25   -1    0    0    0    0  0.00000000000E+00  0.00000000000E+00  0.99999998245E-14  0.12500000000E+03  0.12500000000E+03 0.  0.
        -13    1    1    0    0    0 -0.23820276016E+01  0.14320683821E+01 -0.18228436392E+01  0.33254771559E+01  0.10566000000E+00 0.  1.
         13    1    1    0    0    0 -0.31700370383E+02 -0.21200642392E+01 -0.50240633359E+02  0.59443591405E+02  0.10566000000E+00 0. -1.
         22    1    1    0    0    0  0.34082397984E+02  0.68799585713E+00  0.52063476998E+02  0.62230931439E+02  0.00000000000E+00 0. -1.
</event>
<event>
 4    1  0.9897231E-003  0.9118800E+02  0.7818608E-02  0.1130116E+00
         25   -1    0    0    0    0  0.00000000000E+00  0.00000000000E+00  0.99999998245E-14  0.12500000000E+03  0.12500000000E+03 0.  0.
        -13    1    1    0    0    0 -0.86606230892E+01  0.19779873839E+02 -0.44888353887E+02  0.49811898981E+02  0.10566000000E+00 0.  1.
         13    1    1    0    0    0 -0.23277131581E+01  0.49138412957E+01 -0.11464384298E+02  0.12688867412E+02  0.10566000000E+00 0. -1.
         22    1    1    0    0    0  0.10988336247E+02 -0.24693715135E+02  0.56352738185E+02  0.62499233608E+02  0.00000000000E+00 0.  1.
</event>
<event>
 4    1  0.9897231E-003  0.9118800E+02  0.7818608E-02  0.1130116E+00
         25   -1    0    0    0    0  0.00000000000E+00  0.00000000000E+00  0.99999998245E-14  0.12500000000E+03  0.12500000000E+03 0.  0.
        -13    1    1    0    0    0 -0.36608335311E+00 -0.12110709752E+01 -0.24649583512E+01  0.27727051119E+01  0.10566000000E+00 0. -1.
         13    1    1    0    0    0  0.14207711440E+02 -0.67482671103E+01 -0.57790181786E+02  0.59892524143E+02  0.10566000000E+00 0.  1.
         22    1    1    0    0    0 -0.13841628087E+02  0.79593380856E+01  0.60255140137E+02  0.62334770745E+02  0.00000000000E+00 0.  1.
</event>
<event>
 4    1  0.9897231E-003  0.9118800E+02  0.7818608E-02  0.1130116E+00
         25   -1    0    0    0    0  0.00000000000E+00  0.00000000000E+00  0.99999998245E-14  0.12500000000E+03  0.12500000000E+03 0.  0.
        -13    1    1    0    0    0 -0.85693302601E+01  0.58061058210E+02 -0.20244296664E+01  0.58725031980E+02  0.10566000000E+00 0.  1.
         13    1    1    0    0    0 -0.86783154817E+01 -0.56409874530E+01 -0.32233684302E+01  0.10841363711E+02  0.10566000000E+00 0. -1.
         22    1    1    0    0    0  0.17247645742E+02 -0.52420070757E+02  0.52477980966E+01  0.55433604309E+02  0.00000000000E+00 0.  1.
</event>
<event>
 4    1  0.9897231E-003  0.9118800E+02  0.7818608E-02  0.1130116E+00
         25   -1    0    0    0    0  0.00000000000E+00  0.00000000000E+00  0.99999998245E-14  0.12500000000E+03  0.12500000000E+03 0.  0.
        -13    1    1    0    0    0  0.47298607052E+01 -0.21354598353E+02  0.45144232102E+01  0.22333419668E+02  0.10566000000E+00 0. -1.
         13    1    1    0    0    0  0.13041020592E+02 -0.13378903542E+02  0.39592770758E+02  0.43779697788E+02  0.10566000000E+00 0.  1.
         22    1    1    0    0    0 -0.17770881298E+02  0.34733501895E+02 -0.44107193968E+02  0.58886882544E+02  0.00000000000E+00 0.  1.
</event>
<event>
 4    1  0.9897231E-003  0.9118800E+02  0.7818608E-02  0.1130116E+00
         25   -1    0    0    0    0  0.00000000000E+00  0.00000000000E+00  0.99999998245E-14  0.12500000000E+03  0.12500000000E+03 0.  0.
        -13    1    1    0    0    0 -0.50725148745E+01 -0.12518509672E+02 -0.36934508336E+01  0.14003436530E+02  0.10566000000E+00 0. -1.
         13    1    1    0    0    0 -0.17617670585E+02 -0.44985701704E+02 -0.49947494670E+01  0.48570097394E+02  0.10566000000E+00 0.  1.
         22    1    1    0    0    0  0.22690185459E+02  0.57504211376E+02  0.86882003006E+01  0.62426466075E+02  0.00000000000E+00 0.  1.
</event>
<event>
 4    1  0.9897231E-003  0.9118800E+02  0.7818608E-02  0.1130116E+00
         25   -1    0    0    0    0  0.00000000000E+00  0.00000000000E+00  0.99999998245E-14  0.12500000000E+03  0.12500000000E+03 0.  0.
        -13    1    1    0    0    0 -0.10546662046E+02 -0.44099688364E+02 -0.13704037430E+02  0.47369044745E+02  0.10566000000E+00 0. -1.
         13    1    1    0    0    0 -0.29348705329E+01 -0.10800667485E+02  0.17717956861E+02  0.20957219342E+02  0.10566000000E+00 0.  1.
         22    1    1    0    0    0  0.13481532579E+02  0.54900355850E+02 -0.40139194317E+01  0.56673735913E+02  0.00000000000E+00 0. -1.
</event>
<event>
 4    1  0.9897231E-003  0.9118800E+02  0.7818608E-02  0.1130116E+00
         25   -1    0    0    0    0  0.00000000000E+00  0.00000000000E+00  0.99999998245E-14  0.12500000000E+03  0.12500000000E+03 0.  0.
        -13    1    1    0    0    0 -0.20942718022E+02  0.12305638013E+02  0.98505193093E+01  0.26212021284E+02  0.10566000000E+00 0. -1.
         13    1    1    0    0    0 -0.30907140105E+02  0.10474552914E+02  0.16219279769E+02  0.36442334839E+02  0.10566000000E+00 0.  1.
         22    1    1    0    0    0  0.51849858127E+02 -0.22780190927E+02 -0.26069799079E+02  0.62345643878E+02  0.00000000000E+00 0.  1.
</event>
<event>
 4    1  0.9897231E-003  0.9118800E+02  0.7818608E-02  0.1130116E+00
         25   -1    0    0    0    0  0.00000000000E+00  0.00000000000E+00  0.99999998245E-14  0.12500000000E+03  0.12500000000E+03 0.  0.
        -13    1    1    0    0    0 -0.13340399143E+01 -0.51310713588E+01 -0.28758918094E+01  0.60323688147E+01  0.10566000000E+00 0.  1.
         13    1    1    0    0    0 -0.11374840262E+02 -0.47911431546E+02 -0.27637529452E+02  0.56468898183E+02  0.10566000000E+00 0.  1.
         22    1    1    0    0    0  0.12708880176E+02  0.53042502905E+02  0.30513421261E+02  0.62498733002E+02  0.00000000000E+00 0.  1.
</event>
<event>
 4    1  0.9897231E-003  0.9118800E+02  0.7818608E-02  0.1130116E+00
         25   -1    0    0    0    0  0.00000000000E+00  0.00000000000E+00  0.99999998245E-14  0.12500000000E+03  0.12500000000E+03 0.  0.
        -13    1    1    0    0    0 -0.33813435033E+02  0.36734235267E+02  0.58590907918E+00  0.49931021249E+02  0.10566000000E+00 0. -1.
         13    1    1    0    0    0 -0.77205729640E+01  0.99208760267E+01  0.70799054560E+00  0.12591403523E+02  0.10566000000E+00 0.  1.
         22    1    1    0    0    0  0.41534007997E+02 -0.46655111294E+02 -0.12938996248E+01  0.62477575228E+02  0.00000000000E+00 0. -1.
</event>
<event>
 4    1  0.9897231E-003  0.9118800E+02  0.7818608E-02  0.1130116E+00
         25   -1    0    0    0    0  0.00000000000E+00  0.00000000000E+00  0.99999998245E-14  0.12500000000E+03  0.12500000000E+03 0.  0.
        -13    1    1    0    0    0  0.55501801923E+01  0.73256409428E+01  0.17890384924E+02  0.20113342640E+02  0.10566000000E+00 0. -1.
         13    1    1    0    0    0  0.83620852440E+01  0.15965416902E+02  0.38389138592E+02  0.42409387314E+02  0.10566000000E+00 0.  1.
         22    1    1    0    0    0 -0.13912265436E+02 -0.23291057845E+02 -0.56279523516E+02  0.62477270046E+02  0.00000000000E+00 0.  1.
</event>
<event>
 4    1  0.9897231E-003  0.9118800E+02  0.7818608E-02  0.1130116E+00
         25   -1    0    0    0    0  0.00000000000E+00  0.00000000000E+00  0.99999998245E-14  0.12500000000E+03  0.12500000000E+03 0.  0.
        -13    1    1    0    0    0  0.89327534995E+01  0.15602823605E+02 -0.44788563464E+02  0.48262498596E+02  0.10566000000E+00 0. -1.
         13    1    1    0    0    0  0.96391840751E+01 -0.84079059234E+01 -0.11393349290E+02  0.17129691291E+02  0.10566000000E+00 0.  1.
         22    1    1    0    0    0 -0.18571937575E+02 -0.71949176818E+01  0.56181912754E+02  0.59607810113E+02  0.00000000000E+00 0. -1.
</event>
<event>
 4    1  0.9897231E-003  0.9118800E+02  0.7818608E-02  0.1130116E+00
         25   -1    0    0    0    0  0.00000000000E+00  0.00000000000E+00  0.99999998245E-14  0.12500000000E+03  0.12500000000E+03 0.  0.
        -13    1    1    0    0    0  0.48577284903E+01  0.38097057690E+01 -0.98465184429E+01  0.11622240473E+02  0.10566000000E+00 0. -1.
         13    1    1    0    0    0  0.21335648562E+02  0.17704963146E+02 -0.42661534262E+02  0.50879202914E+02  0.10566000000E+00 0.  1.
         22    1    1    0    0    0 -0.26193377052E+02 -0.21514668915E+02  0.52508052704E+02  0.62498556613E+02  0.00000000000E+00 0.  1.
</event>
<event>
 4    1  0.9897231E-003  0.9118800E+02  0.7818608E-02  0.1130116E+00
         25   -1    0    0    0    0  0.00000000000E+00  0.00000000000E+00  0.99999998245E-14  0.12500000000E+03  0.12500000000E+03 0.  0.
        -13    1    1    0    0    0 -0.13987272106E+02  0.72663536992E+01 -0.18506006016E+02  0.24308992159E+02  0.10566000000E+00 0.  1.
         13    1    1    0    0    0 -0.22877161271E+02  0.10499578826E+02 -0.28727957292E+02  0.38195711246E+02  0.10566000000E+00 0. -1.
         22    1    1    0    0    0  0.36864433378E+02 -0.17765932525E+02  0.47233963309E+02  0.62495296596E+02  0.00000000000E+00 0. -1.
</event>
<event>
 4    1  0.9897231E-003  0.9118800E+02  0.7818608E-02  0.1130116E+00
         25   -1    0    0    0    0  0.00000000000E+00  0.00000000000E+00  0.99999998245E-14  0.12500000000E+03  0.12500000000E+03 0.  0.
        -13    1    1    0    0    0 -0.94551787336E+01 -0.12313602765E+02 -0.57121822615E+02  0.59194079103E+02  0.10566000000E+00 0.  1.
         13    1    1    0    0    0 -0.11112627702E+01 -0.75495765747E+01  0.52446782414E+01  0.92600661603E+01  0.10566000000E+00 0. -1.
         22    1    1    0    0    0  0.10566441504E+02  0.19863179339E+02  0.51877144374E+02  0.56545854737E+02  0.00000000000E+00 0.  1.
</event>
<event>
 4    1  0.9897231E-003  0.9118800E+02  0.7818608E-02  0.1130116E+00
         25   -1    0    0    0    0  0.00000000000E+00  0.00000000000E+00  0.99999998245E-14  0.12500000000E+03  0.12500000000E+03 0.  0.
        -13    1    1    0    0    0  0.19591015521E+02 -0.12328734325E+02 -0.16573626470E+02  0.28469313964E+02  0.10566000000E+00 0. -1.
         13    1    1    0    0    0  0.20907395787E+02 -0.28972482369E+01 -0.27568287063E+02  0.34720813089E+02  0.10566000000E+00 0.  1.
         22    1    1    0    0    0 -0.40498411307E+02  0.15225982562E+02  0.44141913533E+02  0.61809872947E+02  0.00000000000E+00 0.  1.
</event>
<event>
 4    1  0.9897231E-003  0.9118800E+02  0.7818608E-02  0.1130116E+00
         25   -1    0    0    0    0  0.00000000000E+00  0.00000000000E+00  0.99999998245E-14  0.12500000000E+03  0.12500000000E+03 0.  0.
        -13    1    1    0    0    0  0.24991467433E+02 -0.27303086813E+01  0.15194935088E+02  0.29375589293E+02  0.10566000000E+00 0.  1.
         13    1    1    0    0    0  0.34566720237E+02  0.89512947187E+00 -0.22741687436E+01  0.34653173191E+02  0.10566000000E+00 0. -1.
         22    1    1    0    0    0 -0.59558187670E+02  0.18351792094E+01 -0.12920766344E+02  0.60971237516E+02  0.00000000000E+00 0. -1.
</event>
<event>
 4    1  0.9897231E-003  0.9118800E+02  0.7818608E-02  0.1130116E+00
         25   -1    0    0    0    0  0.00000000000E+00  0.00000000000E+00  0.99999998245E-14  0.12500000000E+03  0.12500000000E+03 0.  0.
        -13    1    1    0    0    0  0.25658337375E+02 -0.49769079283E+02 -0.22073927509E+02  0.60187880585E+02  0.10566000000E+00 0.  1.
         13    1    1    0    0    0 -0.74004629753E-02 -0.26112444673E+01  0.96576427212E+00  0.27861294119E+01  0.10566000000E+00 0. -1.
         22    1    1    0    0    0 -0.25650936912E+02  0.52380323751E+02  0.21108163237E+02  0.62025990004E+02  0.00000000000E+00 0.  1.
</event>
<event>
 4    1  0.9897231E-003  0.9118800E+02  0.7818608E-02  0.1130116E+00
         25   -1    0    0    0    0  0.00000000000E+00  0.00000000000E+00  0.99999998245E-14  0.12500000000E+03  0.12500000000E+03 0.  0.
        -13    1    1    0    0    0  0.13958037478E+02  0.25336590734E+02  0.27155538572E+02  0.39676240742E+02  0.10566000000E+00 0. -1.
         13    1    1    0    0    0  0.92363825567E+01  0.13089013535E+02  0.16297158427E+02  0.22852605429E+02  0.10566000000E+00 0.  1.
         22    1    1    0    0    0 -0.23194420035E+02 -0.38425604268E+02 -0.43452697000E+02  0.62471153829E+02  0.00000000000E+00 0. -1.
</event>
<event>
 4    1  0.9897231E-003  0.9118800E+02  0.7818608E-02  0.1130116E+00
         25   -1    0    0    0    0  0.00000000000E+00  0.00000000000E+00  0.99999998245E-14  0.12500000000E+03  0.12500000000E+03 0.  0.
        -13    1    1    0    0    0  0.32788213528E+02  0.12161092275E+02 -0.21138967062E+02  0.40863506998E+02  0.10566000000E+00 0.  1.
         13    1    1    0    0    0  0.17211790342E+02  0.65451083556E+01 -0.11360951451E+02  0.21637156747E+02  0.10566000000E+00 0. -1.
         22    1    1    0    0    0 -0.50000003870E+02 -0.18706200630E+02  0.32499918513E+02  0.62499336256E+02  0.00000000000E+00 0.  1.
</event>
<event>
 4    1  0.9897231E-003  0.9118800E+02  0.7818608E-02  0.1130116E+00
         25   -1    0    0    0    0  0.00000000000E+00  0.00000000000E+00  0.99999998245E-14  0.12500000000E+03  0.12500000000E+03 0.  0.
        -13    1    1    0    0    0  0.40153057188E+01  0.45234786966E+02  0.96326489251E+01  0.46423137779E+02  0.10566000000E+00 0. -1.
         13    1    1    0    0    0  0.85936346287E+00  0.16225823402E+02 -0.55355964443E+00  0.16258334569E+02  0.10566000000E+00 0.  1.
         22    1    1    0    0    0 -0.48746691817E+01 -0.61460610369E+02 -0.90790892807E+01  0.62318527652E+02  0.00000000000E+00 0. -1.
</event>
<event>
 4    1  0.9897231E-003  0.9118800E+02  0.7818608E-02  0.1130116E+00
         25   -1    0    0    0    0  0.00000000000E+00  0.00000000000E+00  0.99999998245E-14  0.12500000000E+03  0.12500000000E+03 0.  0.
        -13    1    1    0    0    0 -0.15112298465E+02  0.14855866329E+02  0.34290000341E+01  0.21467359748E+02  0.10566000000E+00 0. -1.
         13    1    1    0    0    0 -0.40754832222E+02  0.79217875806E+01  0.75810158479E+01  0.42204194498E+02  0.10566000000E+00 0.  1.
         22    1    1    0    0    0  0.55867130687E+02 -0.22777653910E+02 -0.11010015882E+02  0.61328445754E+02  0.00000000000E+00 0.  1.
</event>
<event>
 4    1  0.9897231E-003  0.9118800E+02  0.7818608E-02  0.1130116E+00
         25   -1    0    0    0    0  0.00000000000E+00  0.00000000000E+00  0.99999998245E-14  0.12500000000E+03  0.12500000000E+03 0.  0.
        -13    1    1    0    0    0  0.19059629083E+02  0.29281047803E+02  0.14227210521E+02  0.37723651791E+02  0.10566000000E+00 0. -1.
         13    1    1    0    0    0  0.12583130045E+02  0.19410117208E+02  0.88799590674E+01  0.24778067899E+02  0.10566000000E+00 0.  1.
         22    1    1    0    0    0 -0.31642759128E+02 -0.48691165010E+02 -0.23107169588E+02  0.62498280310E+02  0.00000000000E+00 0. -1.
</event>
<event>
 4    1  0.9897231E-003  0.9118800E+02  0.7818608E-02  0.1130116E+00
         25   -1    0    0    0    0  0.00000000000E+00  0.00000000000E+00  0.99999998245E-14  0.12500000000E+03  0.12500000000E+03 0.  0.
        -13    1    1    0    0    0 -0.40972056529E+01  0.29613720842E+01 -0.19452316605E+00  0.50602195684E+01  0.10566000000E+00 0.  1.
         13    1    1    0    0    0 -0.32503384894E+02  0.45651224102E+02 -0.13331196235E+02  0.57604133955E+02  0.10566000000E+00 0. -1.
         22    1    1    0    0    0  0.36600590547E+02 -0.48612596186E+02  0.13525719401E+02  0.62335646477E+02  0.00000000000E+00 0. -1.
</event>
<event>
 4    1  0.9897231E-003  0.9118800E+02  0.7818608E-02  0.1130116E+00
         25   -1    0    0    0    0  0.00000000000E+00  0.00000000000E+00  0.99999998245E-14  0.12500000000E+03  0.12500000000E+03 0.  0.
        -13    1    1    0    0    0  0.10055719532E+02 -0.12012057098E+02  0.10433078894E+02  0.18821990072E+02  0.10566000000E+00 0.  1.
         13    1    1    0    0    0  0.17942373449E+02 -0.30927002077E+02  0.25205200805E+02  0.43746103074E+02  0.10566000000E+00 0. -1.
         22    1    1    0    0    0 -0.27998092981E+02  0.42939059176E+02 -0.35638279700E+02  0.62431906854E+02  0.00000000000E+00 0. -1.
</event>
<event>
 4    1  0.9897231E-003  0.9118800E+02  0.7818608E-02  0.1130116E+00
         25   -1    0    0    0    0  0.00000000000E+00  0.00000000000E+00  0.99999998245E-14  0.12500000000E+03  0.12500000000E+03 0.  0.
        -13    1    1    0    0    0  0.12055584091E+02 -0.32883750962E+02 -0.95746568142E+01  0.36309274328E+02  0.10566000000E+00 0. -1.
         13    1    1    0    0    0  0.10482348812E+02 -0.23980927833E+02  0.84839832531E+01  0.27512791065E+02  0.10566000000E+00 0.  1.
         22    1    1    0    0    0 -0.22537932903E+02  0.56864678794E+02  0.10906735611E+01  0.61177934607E+02  0.00000000000E+00 0. -1.
</event>
<event>
 4    1  0.9897231E-003  0.9118800E+02  0.7818608E-02  0.1130116E+00
         25   -1    0    0    0    0  0.00000000000E+00  0.00000000000E+00  0.99999998245E-14  0.12500000000E+03  0.12500000000E+03 0.  0.
        -13    1    1    0    0    0 -0.58001045023E+01  0.75328819531E+01 -0.28737900105E+02  0.30269846204E+02  0.10566000000E+00 0. -1.
         13    1    1    0    0    0  0.13936038960E+02 -0.47169936861E+02  0.21249852566E+02  0.53579693201E+02  0.10566000000E+00 0.  1.
         22    1    1    0    0    0 -0.81359344574E+01  0.39637054908E+02  0.74880475388E+01  0.41150460595E+02  0.00000000000E+00 0.  1.
</event>
<event>
 4    1  0.9897231E-003  0.9118800E+02  0.7818608E-02  0.1130116E+00
         25   -1    0    0    0    0  0.00000000000E+00  0.00000000000E+00  0.99999998245E-14  0.12500000000E+03  0.12500000000E+03 0.  0.
        -13    1    1    0    0    0  0.23981671174E+02 -0.10987126598E+02  0.48663610584E+02  0.55353370830E+02  0.10566000000E+00 0.  1.
         13    1    1    0    0    0  0.34488638874E+01 -0.90381276905E+00  0.62074873283E+01  0.71593018236E+01  0.10566000000E+00 0. -1.
         22    1    1    0    0    0 -0.27430535062E+02  0.11890939367E+02 -0.54871097912E+02  0.62487327346E+02  0.00000000000E+00 0.  1.
</event>
<event>
 4    1  0.9897231E-003  0.9118800E+02  0.7818608E-02  0.1130116E+00
         25   -1    0    0    0    0  0.00000000000E+00  0.00000000000E+00  0.99999998245E-14  0.12500000000E+03  0.12500000000E+03 0.  0.
        -13    1    1    0    0    0 -0.67979301880E+00 -0.24436894393E+01 -0.16618068340E+01  0.30342219124E+01  0.10566000000E+00 0.  1.
         13    1    1    0    0    0  0.41149694923E+02 -0.44056221864E+02 -0.41436635671E+00  0.60286241720E+02  0.10566000000E+00 0. -1.
         22    1    1    0    0    0 -0.40469901904E+02  0.46499911304E+02  0.20761731907E+01  0.61679536368E+02  0.00000000000E+00 0. -1.
</event>
<event>
 4    1  0.9897231E-003  0.9118800E+02  0.7818608E-02  0.1130116E+00
         25   -1    0    0    0    0  0.00000000000E+00  0.00000000000E+00  0.99999998245E-14  0.12500000000E+03  0.12500000000E+03 0.  0.
        -13    1    1    0    0    0 -0.19842780589E+01 -0.11395766541E+01  0.41489879218E+01  0.47393310895E+01  0.10566000000E+00 0. -1.
         13    1    1    0    0    0 -0.22816215068E+02 -0.15755016232E+02  0.50673074740E+02  0.57763066696E+02  0.10566000000E+00 0. -1.
         22    1    1    0    0    0  0.24800493127E+02  0.16894592886E+02 -0.54822062661E+02  0.62497602215E+02  0.00000000000E+00 0. -1.
</event>
<event>
 4    1  0.9897231E-003  0.9118800E+02  0.7818608E-02  0.1130116E+00
         25   -1    0    0    0    0  0.00000000000E+00  0.00000000000E+00  0.99999998245E-14  0.12500000000E+03  0.12500000000E+03 0.  0.
        -13    1    1    0    0    0  0.11816360891E+01  0.74668128488E+01 -0.53755625867E+01  0.92767125171E+01  0.10566000000E+00 0. -1.
         13    1    1    0    0    0  0.14022676043E+02  0.43321336556E+02 -0.27641340340E+02  0.53267518284E+02  0.10566000000E+00 0.  1.
         22    1    1    0    0    0 -0.15204312132E+02 -0.50788149404E+02  0.33016902926E+02  0.62455769199E+02  0.00000000000E+00 0. -1.
</event>
<event>
 4    1  0.9897231E-003  0.9118800E+02  0.7818608E-02  0.1130116E+00
         25   -1    0    0    0    0  0.00000000000E+00  0.00000000000E+00  0.99999998245E-14  0.12500000000E+03  0.12500000000E+03 0.  0.
        -13    1    1    0    0    0 -0.91783051911E+01  0.25150419256E+02 -0.24544614572E+01  0.26885319787E+02  0.10566000000E+00 0. -1.
         13    1    1    0    0    0 -0.18777918398E+02 -0.49836986966E+01  0.41625321831E+02  0.45936108386E+02  0.10566000000E+00 0.  1.
         22    1    1    0    0    0  0.27956223589E+02 -0.20166720560E+02 -0.39170860374E+02  0.52178571827E+02  0.00000000000E+00 0. -1.
</event>
<event>
 4    1  0.9897231E-003  0.9118800E+02  0.7818608E-02  0.1130116E+00
         25   -1    0    0    0    0  0.00000000000E+00  0.00000000000E+00  0.99999998245E-14  0.12500000000E+03  0.12500000000E+03 0.  0.
        -13    1    1    0    0    0 -0.10353311678E+02  0.69221253389E+01 -0.43776590552E+02  0.45513821267E+02  0.10566000000E+00 0.  1.
         13    1    1    0    0    0 -0.17266408222E+01  0.56709041185E+01 -0.16079784494E+02  0.17138000917E+02  0.10566000000E+00 0. -1.
         22    1    1    0    0    0  0.12079952500E+02 -0.12593029457E+02  0.59856375046E+02  0.62348177816E+02  0.00000000000E+00 0.  1.
</event>
<event>
 4    1  0.9897231E-003  0.9118800E+02  0.7818608E-02  0.1130116E+00
         25   -1    0    0    0    0  0.00000000000E+00  0.00000000000E+00  0.99999998245E-14  0.12500000000E+03  0.12500000000E+03 0.  0.
        -13    1    1    0    0    0  0.51357131151E+02 -0.86771333707E+01  0.26022673266E+02  0.58224034999E+02  0.10566000000E+00 0.  1.
         13    1    1    0    0    0  0.45212485759E+01 -0.12522716652E+01 -0.12863528848E+01  0.48657723732E+01  0.10566000000E+00 0. -1.
         22    1    1    0    0    0 -0.55878379727E+02  0.99294050359E+01 -0.24736320381E+02  0.61910192628E+02  0.00000000000E+00 0.  1.
</event>
<event>
 4    1  0.9897231E-003  0.9118800E+02  0.7818608E-02  0.1130116E+00
         25   -1    0    0    0    0  0.00000000000E+00  0.00000000000E+00  0.99999998245E-14  0.12500000000E+03  0.12500000000E+03 0.  0.
        -13    1    1    0    0    0  0.31350994383E+02 -0.43512023539E+02 -0.21337885244E+02  0.57719126397E+02  0.10566000000E+00 0.  1.
         13    1    1    0    0    0  0.55390083341E+01 -0.13333369253E+01  0.26038644040E+01  0.62649560694E+01  0.10566000000E+00 0. -1.
         22    1    1    0    0    0 -0.36890002718E+02  0.44845360464E+02  0.18734020840E+02  0.61015917534E+02  0.00000000000E+00 0.  1.
</event>
<event>
 4    1  0.9897231E-003  0.9118800E+02  0.7818608E-02  0.1130116E+00
         25   -1    0    0    0    0  0.00000000000E+00  0.00000000000E+00  0.99999998245E-14  0.12500000000E+03  0.12500000000E+03 0.  0.
        -13    1    1    0    0    0  0.96730285272E+01 -0.38675278421E+02 -0.33645173234E+02  0.52166593599E+02  0.10566000000E+00 0.  1.
         13    1    1    0    0    0  0.28598088911E+01 -0.84948236651E+01 -0.52817689869E+01  0.10404267570E+02  0.10566000000E+00 0. -1.
         22    1    1    0    0    0 -0.12532837418E+02  0.47170102086E+02  0.38926942221E+02  0.62429138831E+02  0.00000000000E+00 0.  1.
</event>
<event>
 4    1  0.9897231E-003  0.9118800E+02  0.7818608E-02  0.1130116E+00
         25   -1    0    0    0    0  0.00000000000E+00  0.00000000000E+00  0.99999998245E-14  0.12500000000E+03  0.12500000000E+03 0.  0.
        -13    1    1    0    0    0  0.11531577723E+02  0.16055660335E+02 -0.21396539729E+02  0.29130475279E+02  0.10566000000E+00 0. -1.
         13    1    1    0    0    0  0.18054872581E+02  0.11342647794E+02  0.44536639388E+02  0.49377702406E+02  0.10566000000E+00 0.  1.
         22    1    1    0    0    0 -0.29586450304E+02 -0.27398308129E+02 -0.23140099659E+02  0.46491822315E+02  0.00000000000E+00 0.  1.
</event>
<event>
 4    1  0.9897231E-003  0.9118800E+02  0.7818608E-02  0.1130116E+00
         25   -1    0    0    0    0  0.00000000000E+00  0.00000000000E+00  0.99999998245E-14  0.12500000000E+03  0.12500000000E+03 0.  0.
        -13    1    1    0    0    0  0.11473943464E+01 -0.29684232662E+00 -0.15201455492E+00  0.11995422516E+01  0.10566000000E+00 0.  1.
         13    1    1    0    0    0  0.40595188917E+02 -0.42889924760E+02 -0.16786817481E+02  0.61394815859E+02  0.10566000000E+00 0. -1.
         22    1    1    0    0    0 -0.41742583263E+02  0.43186767087E+02  0.16938832035E+02  0.62405641890E+02  0.00000000000E+00 0. -1.
</event>
<event>
 4    1  0.9897231E-003  0.9118800E+02  0.7818608E-02  0.1130116E+00
         25   -1    0    0    0    0  0.00000000000E+00  0.00000000000E+00  0.99999998245E-14  0.12500000000E+03  0.12500000000E+03 0.  0.
        -13    1    1    0    0    0  0.27877287148E+02 -0.70455325639E+01  0.29549584306E+02  0.41230713850E+02  0.10566000000E+00 0. -1.
         13    1    1    0    0    0 -0.54852905813E+01  0.22494460791E+02  0.17770164225E+02  0.29186967634E+02  0.10566000000E+00 0.  1.
         22    1    1    0    0    0 -0.22391996567E+02 -0.15448928227E+02 -0.47319748531E+02  0.54582318517E+02  0.00000000000E+00 0. -1.
</event>
<event>
 4    1  0.9897231E-003  0.9118800E+02  0.7818608E-02  0.1130116E+00
         25   -1    0    0    0    0  0.00000000000E+00  0.00000000000E+00  0.99999998245E-14  0.12500000000E+03  0.12500000000E+03 0.  0.
        -13    1    1    0    0    0  0.65197705138E+01  0.78327325206E+01  0.21422327916E+02  0.23723119602E+02  0.10566000000E+00 0. -1.
         13    1    1    0    0    0  0.10674820983E+02  0.13046920812E+02  0.34921184182E+02  0.38777238354E+02  0.10566000000E+00 0.  1.
         22    1    1    0    0    0 -0.17194591497E+02 -0.20879653333E+02 -0.56343512098E+02  0.62499642043E+02  0.00000000000E+00 0.  1.
</event>
<event>
 4    1  0.9897231E-003  0.9118800E+02  0.7818608E-02  0.1130116E+00
         25   -1    0    0    0    0  0.00000000000E+00  0.00000000000E+00  0.99999998245E-14  0.12500000000E+03  0.12500000000E+03 0.  0.
        -13    1    1    0    0    0  0.13834538738E+02 -0.54030753967E+02  0.23179095533E+02  0.60398662817E+02  0.10566000000E+00 0.  1.
         13    1    1    0    0    0 -0.58733190535E+00  0.20511112703E+01  0.39496161870E+01  0.44902837628E+01  0.10566000000E+00 0. -1.
         22    1    1    0    0    0 -0.13247206833E+02  0.51979642696E+02 -0.27128711720E+02  0.60111053420E+02  0.00000000000E+00 0.  1.
</event>
<event>
 4    1  0.9897231E-003  0.9118800E+02  0.7818608E-02  0.1130116E+00
         25   -1    0    0    0    0  0.00000000000E+00  0.00000000000E+00  0.99999998245E-14  0.12500000000E+03  0.12500000000E+03 0.  0.
        -13    1    1    0    0    0  0.52445561011E+01 -0.67586227735E+01 -0.22377967830E+01  0.88432600872E+01  0.10566000000E+00 0.  1.
         13    1    1    0    0    0  0.31313660728E+02 -0.41632892161E+02 -0.12857431670E+02  0.53657877064E+02  0.10566000000E+00 0. -1.
         22    1    1    0    0    0 -0.36558216829E+02  0.48391514934E+02  0.15095228453E+02  0.62498862849E+02  0.00000000000E+00 0. -1.
</event>
<event>
 4    1  0.9897231E-003  0.9118800E+02  0.7818608E-02  0.1130116E+00
         25   -1    0    0    0    0  0.00000000000E+00  0.00000000000E+00  0.99999998245E-14  0.12500000000E+03  0.12500000000E+03 0.  0.
        -13    1    1    0    0    0 -0.22301007776E+02  0.23498295297E+02  0.26744521036E+02  0.42009348949E+02  0.10566000000E+00 0. -1.
         13    1    1    0    0    0  0.15967476583E+02  0.89815636222E+01  0.19089954382E+02  0.26458766334E+02  0.10566000000E+00 0.  1.
         22    1    1    0    0    0  0.63335311926E+01 -0.32479858919E+02 -0.45834475418E+02  0.56531884717E+02  0.00000000000E+00 0. -1.
</event>
<event>
 4    1  0.9897231E-003  0.9118800E+02  0.7818608E-02  0.1130116E+00
         25   -1    0    0    0    0  0.00000000000E+00  0.00000000000E+00  0.99999998245E-14  0.12500000000E+03  0.12500000000E+03 0.  0.
        -13    1    1    0    0    0  0.60990707808E+01  0.21264871287E+02  0.10559448344E+02  0.24513394881E+02  0.10566000000E+00 0.  1.
         13    1    1    0    0    0  0.86286979222E+01  0.32480024676E+02  0.17723378779E+02  0.37993890959E+02  0.10566000000E+00 0. -1.
         22    1    1    0    0    0 -0.14727768703E+02 -0.53744895963E+02 -0.28282827123E+02  0.62492714160E+02  0.00000000000E+00 0.  1.
</event>
<event>
 4    1  0.9897231E-003  0.9118800E+02  0.7818608E-02  0.1130116E+00
         25   -1    0    0    0    0  0.00000000000E+00  0.00000000000E+00  0.99999998245E-14  0.12500000000E+03  0.12500000000E+03 0.  0.
        -13    1    1    0    0    0 -0.15875573360E+02  0.88953845857E+01  0.23112183438E+02  0.29416761952E+02  0.10566000000E+00 0. -1.
         13    1    1    0    0    0 -0.17820342635E+02  0.10357150586E+02  0.25878540079E+02  0.33083911204E+02  0.10566000000E+00 0.  1.
         22    1    1    0    0    0  0.33695915995E+02 -0.19252535171E+02 -0.48990723517E+02  0.62499326844E+02  0.00000000000E+00 0.  1.
</event>
<event>
 4    1  0.9897231E-003  0.9118800E+02  0.7818608E-02  0.1130116E+00
         25   -1    0    0    0    0  0.00000000000E+00  0.00000000000E+00  0.99999998245E-14  0.12500000000E+03  0.12500000000E+03 0.  0.
        -13    1    1    0    0    0 -0.76744119774E+01  0.38870089458E+02  0.43807942725E+02  0.59067143689E+02  0.10566000000E+00 0.  1.
         13    1    1    0    0    0 -0.22209808930E+00  0.22815765522E+01  0.25589740973E+01  0.34372127649E+01  0.10566000000E+00 0. -1.
         22    1    1    0    0    0  0.78965100667E+01 -0.41151666011E+02 -0.46366916822E+02  0.62495643546E+02  0.00000000000E+00 0.  1.
</event>
<event>
 4    1  0.9897231E-003  0.9118800E+02  0.7818608E-02  0.1130116E+00
         25   -1    0    0    0    0  0.00000000000E+00  0.00000000000E+00  0.99999998245E-14  0.12500000000E+03  0.12500000000E+03 0.  0.
        -13    1    1    0    0    0 -0.51046805947E+01  0.35565190999E+01 -0.10187540535E+02  0.11937492964E+02  0.10566000000E+00 0.  1.
         13    1    1    0    0    0 -0.22890500700E+02  0.15234996438E+02 -0.42434780012E+02  0.50564828265E+02  0.10566000000E+00 0. -1.
         22    1    1    0    0    0  0.27995181295E+02 -0.18791515538E+02  0.52622320547E+02  0.62497678771E+02  0.00000000000E+00 0. -1.
</event>
<event>
 4    1  0.9897231E-003  0.9118800E+02  0.7818608E-02  0.1130116E+00
         25   -1    0    0    0    0  0.00000000000E+00  0.00000000000E+00  0.99999998245E-14  0.12500000000E+03  0.12500000000E+03 0.  0.
        -13    1    1    0    0    0  0.81566545722E+01 -0.29365537535E+02 -0.37594232079E+01  0.30708471721E+02  0.10566000000E+00 0.  1.
         13    1    1    0    0    0 -0.17852471356E+02 -0.29230710338E+02 -0.36187106796E+01  0.34442000398E+02  0.10566000000E+00 0. -1.
         22    1    1    0    0    0  0.96958167842E+01  0.58596247873E+02  0.73781338876E+01  0.59849527881E+02  0.00000000000E+00 0. -1.
</event>
<event>
 4    1  0.9897231E-003  0.9118800E+02  0.7818608E-02  0.1130116E+00
         25   -1    0    0    0    0  0.00000000000E+00  0.00000000000E+00  0.99999998245E-14  0.12500000000E+03  0.12500000000E+03 0.  0.
        -13    1    1    0    0    0 -0.34745620111E+00  0.74896387437E+00 -0.18362586374E+01  0.20161057799E+01  0.10566000000E+00 0.  1.
         13    1    1    0    0    0 -0.17427902153E+01  0.26908396385E+02 -0.54156363926E+02  0.60498115933E+02  0.10566000000E+00 0. -1.
         22    1    1    0    0    0  0.20902464164E+01 -0.27657360259E+02  0.55992622563E+02  0.62485778287E+02  0.00000000000E+00 0. -1.
</event>
<event>
 4    1  0.9897231E-003  0.9118800E+02  0.7818608E-02  0.1130116E+00
         25   -1    0    0    0    0  0.00000000000E+00  0.00000000000E+00  0.99999998245E-14  0.12500000000E+03  0.12500000000E+03 0.  0.
        -13    1    1    0    0    0 -0.17175254511E+01  0.73890793089E+00  0.44225692846E+01  0.48027244058E+01  0.10566000000E+00 0.  1.
         13    1    1    0    0    0 -0.22075072007E+02  0.61137003464E+01  0.52959657176E+02  0.57701148934E+02  0.10566000000E+00 0. -1.
         22    1    1    0    0    0  0.23792597458E+02 -0.68526082773E+01 -0.57382226461E+02  0.62496126661E+02  0.00000000000E+00 0. -1.
</event>
<event>
 4    1  0.9897231E-003  0.9118800E+02  0.7818608E-02  0.1130116E+00
         25   -1    0    0    0    0  0.00000000000E+00  0.00000000000E+00  0.99999998245E-14  0.12500000000E+03  0.12500000000E+03 0.  0.
        -13    1    1    0    0    0  0.40966658949E+02 -0.40732140488E+02 -0.14975223076E+02  0.59679501375E+02  0.10566000000E+00 0. -1.
         13    1    1    0    0    0  0.21991703281E+01 -0.17319039429E+01 -0.44496785011E+00  0.28363712420E+01  0.10566000000E+00 0.  1.
         22    1    1    0    0    0 -0.43165829277E+02  0.42464044431E+02  0.15420190927E+02  0.62484127383E+02  0.00000000000E+00 0. -1.
</event>
<event>
 4    1  0.9897231E-003  0.9118800E+02  0.7818608E-02  0.1130116E+00
         25   -1    0    0    0    0  0.00000000000E+00  0.00000000000E+00  0.99999998245E-14  0.12500000000E+03  0.12500000000E+03 0.  0.
        -13    1    1    0    0    0 -0.24233137383E+01  0.32701868358E+00  0.78547709263E+00  0.25705114262E+01  0.10566000000E+00 0.  1.
         13    1    1    0    0    0 -0.41808767007E+02  0.30913842220E+02  0.30108226948E+02  0.60084566516E+02  0.10566000000E+00 0. -1.
         22    1    1    0    0    0  0.44232080745E+02 -0.31240860904E+02 -0.30893704041E+02  0.62344922058E+02  0.00000000000E+00 0. -1.
</event>
<event>
 4    1  0.9897231E-003  0.9118800E+02  0.7818608E-02  0.1130116E+00
         25   -1    0    0    0    0  0.00000000000E+00  0.00000000000E+00  0.99999998245E-14  0.12500000000E+03  0.12500000000E+03 0.  0.
        -13    1    1    0    0    0  0.20392837414E+02  0.53986476505E+02 -0.17668813875E+02  0.60354002444E+02  0.10566000000E+00 0.  1.
         13    1    1    0    0    0  0.12478396412E+01  0.18880055017E+01  0.62759663066E+00  0.23508955977E+01  0.10566000000E+00 0. -1.
         22    1    1    0    0    0 -0.21640677055E+02 -0.55874482006E+02  0.17041217245E+02  0.62295101959E+02  0.00000000000E+00 0.  1.
</event>
<event>
 4    1  0.9897231E-003  0.9118800E+02  0.7818608E-02  0.1130116E+00
         25   -1    0    0    0    0  0.00000000000E+00  0.00000000000E+00  0.99999998245E-14  0.12500000000E+03  0.12500000000E+03 0.  0.
        -13    1    1    0    0    0  0.17948873162E+02 -0.34102300705E+02 -0.23527763584E+02  0.45151918945E+02  0.10566000000E+00 0.  1.
         13    1    1    0    0    0  0.69100495982E+01 -0.12718534771E+02 -0.95706721973E+01  0.17352776219E+02  0.10566000000E+00 0. -1.
         22    1    1    0    0    0 -0.24858922760E+02  0.46820835476E+02  0.33098435781E+02  0.62495304836E+02  0.00000000000E+00 0.  1.
</event>
<event>
 4    1  0.9897231E-003  0.9118800E+02  0.7818608E-02  0.1130116E+00
         25   -1    0    0    0    0  0.00000000000E+00  0.00000000000E+00  0.99999998245E-14  0.12500000000E+03  0.12500000000E+03 0.  0.
        -13    1    1    0    0    0  0.12885503741E+01  0.70030538252E+01 -0.20832486618E+02  0.22016057496E+02  0.10566000000E+00 0. -1.
         13    1    1    0    0    0 -0.53686133387E+01  0.14932184295E+02 -0.37398048108E+02  0.40625328347E+02  0.10566000000E+00 0.  1.
         22    1    1    0    0    0  0.40800629646E+01 -0.21935238120E+02  0.58230534726E+02  0.62358614157E+02  0.00000000000E+00 0. -1.
</event>
<event>
 4    1  0.9897231E-003  0.9118800E+02  0.7818608E-02  0.1130116E+00
         25   -1    0    0    0    0  0.00000000000E+00  0.00000000000E+00  0.99999998245E-14  0.12500000000E+03  0.12500000000E+03 0.  0.
        -13    1    1    0    0    0  0.32375923204E+02  0.18021341086E+02 -0.40875443410E+02  0.55170482831E+02  0.10566000000E+00 0.  1.
         13    1    1    0    0    0  0.21426741411E+01  0.88885744329E+01 -0.10709273296E+01  0.92062944394E+01  0.10566000000E+00 0. -1.
         22    1    1    0    0    0 -0.34518597345E+02 -0.26909915519E+02  0.41946370739E+02  0.60623222729E+02  0.00000000000E+00 0.  1.
</event>
<event>
 4    1  0.9897231E-003  0.9118800E+02  0.7818608E-02  0.1130116E+00
         25   -1    0    0    0    0  0.00000000000E+00  0.00000000000E+00  0.99999998245E-14  0.12500000000E+03  0.12500000000E+03 0.  0.
        -13    1    1    0    0    0  0.14653709497E+02  0.12584953367E+02 -0.72043636362E+01  0.20616165325E+02  0.10566000000E+00 0. -1.
         13    1    1    0    0    0  0.20017932909E+02  0.31774631665E+02 -0.19222483931E+02  0.42188385937E+02  0.10566000000E+00 0.  1.
         22    1    1    0    0    0 -0.34671642406E+02 -0.44359585033E+02  0.26426847567E+02  0.62195448738E+02  0.00000000000E+00 0.  1.
</event>
<event>
 4    1  0.9897231E-003  0.9118800E+02  0.7818608E-02  0.1130116E+00
         25   -1    0    0    0    0  0.00000000000E+00  0.00000000000E+00  0.99999998245E-14  0.12500000000E+03  0.12500000000E+03 0.  0.
        -13    1    1    0    0    0 -0.27594218358E+02  0.10530404003E+02 -0.38938291524E+02  0.48872609978E+02  0.10566000000E+00 0.  1.
         13    1    1    0    0    0 -0.72431386544E+01  0.33090968051E+01 -0.11065233049E+02  0.13633184723E+02  0.10566000000E+00 0. -1.
         22    1    1    0    0    0  0.34837357012E+02 -0.13839500808E+02  0.50003524573E+02  0.62494205299E+02  0.00000000000E+00 0.  1.
</event>
<event>
 4    1  0.9897231E-003  0.9118800E+02  0.7818608E-02  0.1130116E+00
         25   -1    0    0    0    0  0.00000000000E+00  0.00000000000E+00  0.99999998245E-14  0.12500000000E+03  0.12500000000E+03 0.  0.
        -13    1    1    0    0    0 -0.90814258406E+01 -0.84929619332E+01 -0.10691926627E+02  0.16399120609E+02  0.10566000000E+00 0. -1.
         13    1    1    0    0    0 -0.25521788152E+02 -0.23804749351E+02 -0.30120999767E+02  0.46101123122E+02  0.10566000000E+00 0. -1.
         22    1    1    0    0    0  0.34603213993E+02  0.32297711284E+02  0.40812926394E+02  0.62499756269E+02  0.00000000000E+00 0. -1.
</event>
<event>
 4    1  0.9897231E-003  0.9118800E+02  0.7818608E-02  0.1130116E+00
         25   -1    0    0    0    0  0.00000000000E+00  0.00000000000E+00  0.99999998245E-14  0.12500000000E+03  0.12500000000E+03 0.  0.
        -13    1    1    0    0    0 -0.46488633850E+01 -0.30713532887E+02  0.15276380297E+01  0.31101091221E+02  0.10566000000E+00 0.  1.
         13    1    1    0    0    0 -0.79908070807E+01 -0.30423013787E+02 -0.22967332874E+00  0.31455948238E+02  0.10566000000E+00 0. -1.
         22    1    1    0    0    0  0.12639670466E+02  0.61136546674E+02 -0.12979647010E+01  0.62442960541E+02  0.00000000000E+00 0. -1.
</event>
<event>
 4    1  0.9897231E-003  0.9118800E+02  0.7818608E-02  0.1130116E+00
         25   -1    0    0    0    0  0.00000000000E+00  0.00000000000E+00  0.99999998245E-14  0.12500000000E+03  0.12500000000E+03 0.  0.
        -13    1    1    0    0    0  0.28775680446E+02 -0.22048434661E+02 -0.21882756120E+00  0.36252342071E+02  0.10566000000E+00 0. -1.
         13    1    1    0    0    0  0.20727329611E+02 -0.16101455305E+02 -0.26680729017E+00  0.26248074328E+02  0.10566000000E+00 0. -1.
         22    1    1    0    0    0 -0.49503010057E+02  0.38149889966E+02  0.48563485137E+00  0.62499583601E+02  0.00000000000E+00 0. -1.
</event>
<event>
 4    1  0.9897231E-003  0.9118800E+02  0.7818608E-02  0.1130116E+00
         25   -1    0    0    0    0  0.00000000000E+00  0.00000000000E+00  0.99999998245E-14  0.12500000000E+03  0.12500000000E+03 0.  0.
        -13    1    1    0    0    0  0.43658635798E+02  0.21942777221E+01  0.20344814574E+02  0.48216324814E+02  0.10566000000E+00 0. -1.
         13    1    1    0    0    0  0.13459537280E+02  0.71592144816E+00  0.47997388930E+01  0.14308051747E+02  0.10566000000E+00 0.  1.
         22    1    1    0    0    0 -0.57118173079E+02 -0.29101991703E+01 -0.25144553467E+02  0.62475623439E+02  0.00000000000E+00 0. -1.
</event>
<event>
 4    1  0.9897231E-003  0.9118800E+02  0.7818608E-02  0.1130116E+00
         25   -1    0    0    0    0  0.00000000000E+00  0.00000000000E+00  0.99999998245E-14  0.12500000000E+03  0.12500000000E+03 0.  0.
        -13    1    1    0    0    0  0.14831958367E+02 -0.96157252462E+01  0.79570394430E+01  0.19384911703E+02  0.10566000000E+00 0.  1.
         13    1    1    0    0    0  0.35438507407E+02 -0.25020961492E+02  0.34211568568E+01  0.43516109655E+02  0.10566000000E+00 0. -1.
         22    1    1    0    0    0 -0.50270465774E+02  0.34636686739E+02 -0.11378196300E+02  0.62098978642E+02  0.00000000000E+00 0. -1.
</event>
<event>
 4    1  0.9897231E-003  0.9118800E+02  0.7818608E-02  0.1130116E+00
         25   -1    0    0    0    0  0.00000000000E+00  0.00000000000E+00  0.99999998245E-14  0.12500000000E+03  0.12500000000E+03 0.  0.
        -13    1    1    0    0    0 -0.11006035275E+02  0.46763734023E+02 -0.44962644291E+01  0.48251499356E+02  0.10566000000E+00 0.  1.
         13    1    1    0    0    0 -0.30882676077E+01  0.13826596269E+02 -0.15261361338E+01  0.14249646197E+02  0.10566000000E+00 0. -1.
         22    1    1    0    0    0  0.14094302883E+02 -0.60590330292E+02  0.60224005629E+01  0.62498854447E+02  0.00000000000E+00 0.  1.
</event>
<event>
 4    1  0.9897231E-003  0.9118800E+02  0.7818608E-02  0.1130116E+00
         25   -1    0    0    0    0  0.00000000000E+00  0.00000000000E+00  0.99999998245E-14  0.12500000000E+03  0.12500000000E+03 0.  0.
        -13    1    1    0    0    0 -0.28534113264E+02 -0.35261830216E+02  0.23826967854E+02  0.51237953229E+02  0.10566000000E+00 0. -1.
         13    1    1    0    0    0 -0.63457704027E+01 -0.77454069308E+01  0.51550200673E+01  0.11262571929E+02  0.10566000000E+00 0. -1.
         22    1    1    0    0    0  0.34879883667E+02  0.43007237147E+02 -0.28981987922E+02  0.62499474842E+02  0.00000000000E+00 0. -1.
</event>
<event>
 4    1  0.9897231E-003  0.9118800E+02  0.7818608E-02  0.1130116E+00
         25   -1    0    0    0    0  0.00000000000E+00  0.00000000000E+00  0.99999998245E-14  0.12500000000E+03  0.12500000000E+03 0.  0.
        -13    1    1    0    0    0  0.45255195479E+02  0.29605800191E+02  0.20678051204E+02  0.57897574115E+02  0.10566000000E+00 0. -1.
         13    1    1    0    0    0  0.30273132750E+01  0.28959264833E+01  0.19925240565E+01  0.46402943886E+01  0.10566000000E+00 0.  1.
         22    1    1    0    0    0 -0.48282508754E+02 -0.32501726674E+02 -0.22670575261E+02  0.62462131496E+02  0.00000000000E+00 0. -1.
</event>
<event>
 4    1  0.9897231E-003  0.9118800E+02  0.7818608E-02  0.1130116E+00
         25   -1    0    0    0    0  0.00000000000E+00  0.00000000000E+00  0.99999998245E-14  0.12500000000E+03  0.12500000000E+03 0.  0.
        -13    1    1    0    0    0 -0.28431956235E+02  0.28811515378E+02  0.32648708138E+02  0.52004123498E+02  0.10566000000E+00 0.  1.
         13    1    1    0    0    0 -0.58902250648E+01  0.81691638250E+01  0.37881335190E+01  0.10760627700E+02  0.10566000000E+00 0. -1.
         22    1    1    0    0    0  0.34322181300E+02 -0.36980679203E+02 -0.36436841657E+02  0.62235248801E+02  0.00000000000E+00 0.  1.
</event>
<event>
 4    1  0.9897231E-003  0.9118800E+02  0.7818608E-02  0.1130116E+00
         25   -1    0    0    0    0  0.00000000000E+00  0.00000000000E+00  0.99999998245E-14  0.12500000000E+03  0.12500000000E+03 0.  0.
        -13    1    1    0    0    0 -0.13205033136E+02 -0.12121246184E+02  0.34630120076E+02  0.38994280217E+02  0.10566000000E+00 0. -1.
         13    1    1    0    0    0 -0.71008651570E+01 -0.69008412270E+01  0.21326462355E+02  0.23513252779E+02  0.10566000000E+00 0.  1.
         22    1    1    0    0    0  0.20305898293E+02  0.19022087411E+02 -0.55956582430E+02  0.62492467004E+02  0.00000000000E+00 0. -1.
</event>
<event>
 4    1  0.9897231E-003  0.9118800E+02  0.7818608E-02  0.1130116E+00
         25   -1    0    0    0    0  0.00000000000E+00  0.00000000000E+00  0.99999998245E-14  0.12500000000E+03  0.12500000000E+03 0.  0.
        -13    1    1    0    0    0 -0.36538190470E+02 -0.59834884865E+01 -0.36994121314E+02  0.52339446626E+02  0.10566000000E+00 0.  1.
         13    1    1    0    0    0 -0.60543439697E+01 -0.22552000836E+01 -0.79165703855E+01  0.10218818866E+02  0.10566000000E+00 0. -1.
         22    1    1    0    0    0  0.42592534440E+02  0.82386885701E+01  0.44910691700E+02  0.62441734507E+02  0.00000000000E+00 0.  1.
</event>
<event>
 4    1  0.9897231E-003  0.9118800E+02  0.7818608E-02  0.1130116E+00
         25   -1    0    0    0    0  0.00000000000E+00  0.00000000000E+00  0.99999998245E-14  0.12500000000E+03  0.12500000000E+03 0.  0.
        -13    1    1    0    0    0 -0.34585273840E+02  0.28945302101E+02  0.12856775389E+02  0.46896476603E+02  0.10566000000E+00 0. -1.
         13    1    1    0    0    0 -0.81076802301E+01  0.12329703412E+02  0.58046590797E+01  0.15857531208E+02  0.10566000000E+00 0.  1.
         22    1    1    0    0    0  0.42692954070E+02 -0.41275005512E+02 -0.18661434469E+02  0.62245992190E+02  0.00000000000E+00 0. -1.
</event>
<event>
 4    1  0.9897231E-003  0.9118800E+02  0.7818608E-02  0.1130116E+00
         25   -1    0    0    0    0  0.00000000000E+00  0.00000000000E+00  0.99999998245E-14  0.12500000000E+03  0.12500000000E+03 0.  0.
        -13    1    1    0    0    0 -0.11659271599E+01 -0.15305616148E+02  0.31499651597E+02  0.35040840267E+02  0.10566000000E+00 0. -1.
         13    1    1    0    0    0 -0.54152619357E+00 -0.12891153482E+02  0.24245567981E+02  0.27465138257E+02  0.10566000000E+00 0.  1.
         22    1    1    0    0    0  0.17074533535E+01  0.28196769630E+02 -0.55745219578E+02  0.62494021477E+02  0.00000000000E+00 0. -1.
</event>
<event>
 4    1  0.9897231E-003  0.9118800E+02  0.7818608E-02  0.1130116E+00
         25   -1    0    0    0    0  0.00000000000E+00  0.00000000000E+00  0.99999998245E-14  0.12500000000E+03  0.12500000000E+03 0.  0.
        -13    1    1    0    0    0 -0.33454402499E+01  0.46633219748E+02  0.39922692205E+02  0.61479115734E+02  0.10566000000E+00 0. -1.
         13    1    1    0    0    0 -0.27606056026E+00  0.68592629730E+00  0.72081131629E+00  0.10379967763E+01  0.10566000000E+00 0.  1.
         22    1    1    0    0    0  0.36215008101E+01 -0.47319146045E+02 -0.40643503522E+02  0.62482887490E+02  0.00000000000E+00 0. -1.
</event>
<event>
 4    1  0.9897231E-003  0.9118800E+02  0.7818608E-02  0.1130116E+00
         25   -1    0    0    0    0  0.00000000000E+00  0.00000000000E+00  0.99999998245E-14  0.12500000000E+03  0.12500000000E+03 0.  0.
        -13    1    1    0    0    0  0.27553611842E+02  0.42840545447E+01 -0.22576401002E+02  0.35878401513E+02  0.10566000000E+00 0.  1.
         13    1    1    0    0    0  0.19888805913E+02  0.24341183099E+01 -0.17539804408E+02  0.26629784740E+02  0.10566000000E+00 0. -1.
         22    1    1    0    0    0 -0.47442417755E+02 -0.67181728546E+01  0.40116205410E+02  0.62491813747E+02  0.00000000000E+00 0.  1.
</event>
<event>
 4    1  0.9897231E-003  0.9118800E+02  0.7818608E-02  0.1130116E+00
         25   -1    0    0    0    0  0.00000000000E+00  0.00000000000E+00  0.99999998245E-14  0.12500000000E+03  0.12500000000E+03 0.  0.
        -13    1    1    0    0    0 -0.86929289188E+01  0.69527200776E+01 -0.56100733542E+02  0.57194499715E+02  0.10566000000E+00 0. -1.
         13    1    1    0    0    0  0.18910927186E+00  0.79486058952E+00 -0.52861687863E+01  0.53499822566E+01  0.10566000000E+00 0.  1.
         22    1    1    0    0    0  0.85038196470E+01 -0.77475806671E+01  0.61386902328E+02  0.62455518029E+02  0.00000000000E+00 0. -1.
</event>
<event>
 4    1  0.9897231E-003  0.9118800E+02  0.7818608E-02  0.1130116E+00
         25   -1    0    0    0    0  0.00000000000E+00  0.00000000000E+00  0.99999998245E-14  0.12500000000E+03  0.12500000000E+03 0.  0.
        -13    1    1    0    0    0 -0.56001541944E+01 -0.35613742371E+02  0.23446919297E+02  0.43005459668E+02  0.10566000000E+00 0.  1.
         13    1    1    0    0    0 -0.22981846018E+01 -0.16312074411E+02  0.10426518711E+02  0.19495868293E+02  0.10566000000E+00 0. -1.
         22    1    1    0    0    0  0.78983387961E+01  0.51925816782E+02 -0.33873438008E+02  0.62498672039E+02  0.00000000000E+00 0.  1.
</event>
<event>
 4    1  0.9897231E-003  0.9118800E+02  0.7818608E-02  0.1130116E+00
         25   -1    0    0    0    0  0.00000000000E+00  0.00000000000E+00  0.99999998245E-14  0.12500000000E+03  0.12500000000E+03 0.  0.
        -13    1    1    0    0    0  0.16002213637E+02 -0.28487135440E+02  0.11153368469E+02  0.34525302592E+02  0.10566000000E+00 0. -1.
         13    1    1    0    0    0  0.29726936069E+02  0.31887180477E+02 -0.15364180436E+01  0.43621723387E+02  0.10566000000E+00 0.  1.
         22    1    1    0    0    0 -0.45729149706E+02 -0.34000450367E+01 -0.96169504250E+01  0.46852974021E+02  0.00000000000E+00 0.  1.
</event>
<event>
 4    1  0.9897231E-003  0.9118800E+02  0.7818608E-02  0.1130116E+00
         25   -1    0    0    0    0  0.00000000000E+00  0.00000000000E+00  0.99999998245E-14  0.12500000000E+03  0.12500000000E+03 0.  0.
        -13    1    1    0    0    0 -0.67189254087E-01 -0.50006429254E+01  0.23252952820E+02  0.23784909564E+02  0.10566000000E+00 0. -1.
         13    1    1    0    0    0  0.30427490142E+01 -0.12333061309E+02  0.36647164820E+02  0.38786448358E+02  0.10566000000E+00 0.  1.
         22    1    1    0    0    0 -0.29755597601E+01  0.17333704234E+02 -0.59900117641E+02  0.62428642078E+02  0.00000000000E+00 0.  1.
</event>
<event>
 4    1  0.9897231E-003  0.9118800E+02  0.7818608E-02  0.1130116E+00
         25   -1    0    0    0    0  0.00000000000E+00  0.00000000000E+00  0.99999998245E-14  0.12500000000E+03  0.12500000000E+03 0.  0.
        -13    1    1    0    0    0 -0.34580136099E+01  0.41671848897E+02  0.34240860354E+02  0.54045800303E+02  0.10566000000E+00 0. -1.
         13    1    1    0    0    0 -0.34808278845E+01  0.72155589380E+01  0.35614402597E+01  0.87678660065E+01  0.10566000000E+00 0.  1.
         22    1    1    0    0    0  0.69388414944E+01 -0.48887407835E+02 -0.37802300614E+02  0.62186333690E+02  0.00000000000E+00 0. -1.
</event>
<event>
 4    1  0.9897231E-003  0.9118800E+02  0.7818608E-02  0.1130116E+00
         25   -1    0    0    0    0  0.00000000000E+00  0.00000000000E+00  0.99999998245E-14  0.12500000000E+03  0.12500000000E+03 0.  0.
        -13    1    1    0    0    0  0.13574465020E+02 -0.27287787784E+02 -0.27732684621E+01  0.30603784810E+02  0.10566000000E+00 0. -1.
         13    1    1    0    0    0  0.12556624658E+02 -0.29295032731E+02 -0.16382505780E+01  0.31914930589E+02  0.10566000000E+00 0.  1.
         22    1    1    0    0    0 -0.26131089678E+02  0.56582820515E+02  0.44115190401E+01  0.62481284601E+02  0.00000000000E+00 0.  1.
</event>
<event>
 4    1  0.9897231E-003  0.9118800E+02  0.7818608E-02  0.1130116E+00
         25   -1    0    0    0    0  0.00000000000E+00  0.00000000000E+00  0.99999998245E-14  0.12500000000E+03  0.12500000000E+03 0.  0.
        -13    1    1    0    0    0 -0.50549613977E+02 -0.97638474586E+01  0.12295750988E+01  0.51498730173E+02  0.10566000000E+00 0. -1.
         13    1    1    0    0    0 -0.10614867176E+02 -0.27200278756E+01  0.12313428332E+01  0.11027299126E+02  0.10566000000E+00 0.  1.
         22    1    1    0    0    0  0.61164481153E+02  0.12483875334E+02 -0.24609179320E+01  0.62473970701E+02  0.00000000000E+00 0. -1.
</event>
<event>
 4    1  0.9897231E-003  0.9118800E+02  0.7818608E-02  0.1130116E+00
         25   -1    0    0    0    0  0.00000000000E+00  0.00000000000E+00  0.99999998245E-14  0.12500000000E+03  0.12500000000E+03 0.  0.
        -13    1    1    0    0    0  0.19973110559E+01  0.27275242129E+00 -0.53400195958E+01  0.57088193750E+01  0.10566000000E+00 0.  1.
         13    1    1    0    0    0 -0.10069305911E+02 -0.31480067142E+02 -0.47217673061E+02  0.57635972813E+02  0.10566000000E+00 0. -1.
         22    1    1    0    0    0  0.80719948547E+01  0.31207314720E+02  0.52557692657E+02  0.61655207812E+02  0.00000000000E+00 0. -1.
</event>
<event>
 4    1  0.9897231E-003  0.9118800E+02  0.7818608E-02  0.1130116E+00
         25   -1    0    0    0    0  0.00000000000E+00  0.00000000000E+00  0.99999998245E-14  0.12500000000E+03  0.12500000000E+03 0.  0.
        -13    1    1    0    0    0  0.26086809004E+00 -0.58910045275E+00 -0.60050534749E+00  0.88705254173E+00  0.10566000000E+00 0.  1.
         13    1    1    0    0    0  0.40772484835E+02 -0.10619228481E+02  0.45672642711E+02  0.62138273145E+02  0.10566000000E+00 0. -1.
         22    1    1    0    0    0 -0.41033352925E+02  0.11208328934E+02 -0.45072137364E+02  0.61974674314E+02  0.00000000000E+00 0. -1.
</event>
<event>
 4    1  0.9897231E-003  0.9118800E+02  0.7818608E-02  0.1130116E+00
         25   -1    0    0    0    0  0.00000000000E+00  0.00000000000E+00  0.99999998245E-14  0.12500000000E+03  0.12500000000E+03 0.  0.
        -13    1    1    0    0    0 -0.49276085936E+01 -0.84445543102E+01 -0.60130229210E+01  0.11478651168E+02  0.10566000000E+00 0.  1.
         13    1    1    0    0    0 -0.10603043842E+02 -0.36790835421E+02 -0.33967947442E+02  0.51184203883E+02  0.10566000000E+00 0. -1.
         22    1    1    0    0    0  0.15530652436E+02  0.45235389731E+02  0.39980970363E+02  0.62337144949E+02  0.00000000000E+00 0. -1.
</event>
<event>
 4    1  0.9897231E-003  0.9118800E+02  0.7818608E-02  0.1130116E+00
         25   -1    0    0    0    0  0.00000000000E+00  0.00000000000E+00  0.99999998245E-14  0.12500000000E+03  0.12500000000E+03 0.  0.
        -13    1    1    0    0    0 -0.42382690032E+02  0.19848328578E+02  0.23893041926E+02  0.52546523940E+02  0.10566000000E+00 0.  1.
         13    1    1    0    0    0 -0.57025474464E+01  0.44050757912E+00  0.90713242627E+01  0.10724419901E+02  0.10566000000E+00 0. -1.
         22    1    1    0    0    0  0.48085237478E+02 -0.20288836157E+02 -0.32964366189E+02  0.61729056158E+02  0.00000000000E+00 0.  1.
</event>
<event>
 4    1  0.9897231E-003  0.9118800E+02  0.7818608E-02  0.1130116E+00
         25   -1    0    0    0    0  0.00000000000E+00  0.00000000000E+00  0.99999998245E-14  0.12500000000E+03  0.12500000000E+03 0.  0.
        -13    1    1    0    0    0  0.27719748431E+01  0.15306361817E+02  0.56409702022E+01  0.16546911055E+02  0.10566000000E+00 0. -1.
         13    1    1    0    0    0  0.45781377241E+00  0.31827422436E+02  0.34150183909E+02  0.46684479620E+02  0.10566000000E+00 0.  1.
         22    1    1    0    0    0 -0.32297886155E+01 -0.47133784253E+02 -0.39791154111E+02  0.61768609325E+02  0.00000000000E+00 0.  1.
</event>
<event>
 4    1  0.9897231E-003  0.9118800E+02  0.7818608E-02  0.1130116E+00
         25   -1    0    0    0    0  0.00000000000E+00  0.00000000000E+00  0.99999998245E-14  0.12500000000E+03  0.12500000000E+03 0.  0.
        -13    1    1    0    0    0  0.20376151239E+02 -0.86810589496E+01 -0.55809413525E+01  0.22840893025E+02  0.10566000000E+00 0. -1.
         13    1    1    0    0    0  0.35082007228E+02 -0.15501735436E+02 -0.10093427889E+02  0.39660301099E+02  0.10566000000E+00 0.  1.
         22    1    1    0    0    0 -0.55458158467E+02  0.24182794385E+02  0.15674369241E+02  0.62498805876E+02  0.00000000000E+00 0.  1.
</event>
<event>
 4    1  0.9897231E-003  0.9118800E+02  0.7818608E-02  0.1130116E+00
         25   -1    0    0    0    0  0.00000000000E+00  0.00000000000E+00  0.99999998245E-14  0.12500000000E+03  0.12500000000E+03 0.  0.
        -13    1    1    0    0    0  0.14647704790E+02  0.29150997896E+02 -0.94262633358E+01  0.33958821217E+02  0.10566000000E+00 0.  1.
         13    1    1    0    0    0  0.10842581220E+02  0.26275170003E+02 -0.36228330468E+01  0.28654532094E+02  0.10566000000E+00 0. -1.
         22    1    1    0    0    0 -0.25490286010E+02 -0.55426167898E+02  0.13049096383E+02  0.62386646690E+02  0.00000000000E+00 0.  1.
</event>
<event>
 4    1  0.9897231E-003  0.9118800E+02  0.7818608E-02  0.1130116E+00
         25   -1    0    0    0    0  0.00000000000E+00  0.00000000000E+00  0.99999998245E-14  0.12500000000E+03  0.12500000000E+03 0.  0.
        -13    1    1    0    0    0  0.13993505547E+01 -0.13008066632E+02 -0.13861062540E+02  0.19060645273E+02  0.10566000000E+00 0. -1.
         13    1    1    0    0    0  0.29247422830E+01 -0.29366465618E+02 -0.31875951805E+02  0.43439968782E+02  0.10566000000E+00 0.  1.
         22    1    1    0    0    0 -0.43240928377E+01  0.42374532250E+02  0.45737014345E+02  0.62499385944E+02  0.00000000000E+00 0.  1.
</event>
<event>
 4    1  0.9897231E-003  0.9118800E+02  0.7818608E-02  0.1130116E+00
         25   -1    0    0    0    0  0.00000000000E+00  0.00000000000E+00  0.99999998245E-14  0.12500000000E+03  0.12500000000E+03 0.  0.
        -13    1    1    0    0    0 -0.22065849967E+02  0.49557669093E+02 -0.12435149472E+02  0.55655263966E+02  0.10566000000E+00 0.  1.
         13    1    1    0    0    0  0.28670676243E+01  0.70190001573E+01 -0.20771264315E+01  0.78620645010E+01  0.10566000000E+00 0. -1.
         22    1    1    0    0    0  0.19198782343E+02 -0.56576669251E+02  0.14512275903E+02  0.61482671533E+02  0.00000000000E+00 0.  1.
</event>
<event>
 4    1  0.9897231E-003  0.9118800E+02  0.7818608E-02  0.1130116E+00
         25   -1    0    0    0    0  0.00000000000E+00  0.00000000000E+00  0.99999998245E-14  0.12500000000E+03  0.12500000000E+03 0.  0.
        -13    1    1    0    0    0 -0.18576276905E+02 -0.30887766611E+02 -0.32596868357E+02  0.48597316599E+02  0.10566000000E+00 0.  1.
         13    1    1    0    0    0 -0.51482141907E+01 -0.94021416594E+01 -0.88653099115E+01  0.13910760619E+02  0.10566000000E+00 0. -1.
         22    1    1    0    0    0  0.23724491096E+02  0.40289908271E+02  0.41462178269E+02  0.62491922782E+02  0.00000000000E+00 0.  1.
</event>
<event>
 4    1  0.9897231E-003  0.9118800E+02  0.7818608E-02  0.1130116E+00
         25   -1    0    0    0    0  0.00000000000E+00  0.00000000000E+00  0.99999998245E-14  0.12500000000E+03  0.12500000000E+03 0.  0.
        -13    1    1    0    0    0  0.30714300633E+02 -0.25201799563E+01  0.63807731658E+01  0.31471336175E+02  0.10566000000E+00 0. -1.
         13    1    1    0    0    0  0.30244760869E+02 -0.17839203639E+01  0.67095517429E+01  0.31031551372E+02  0.10566000000E+00 0.  1.
         22    1    1    0    0    0 -0.60959061502E+02  0.43041003202E+01 -0.13090324909E+02  0.62497112454E+02  0.00000000000E+00 0. -1.
</event>
<event>
 4    1  0.9897231E-003  0.9118800E+02  0.7818608E-02  0.1130116E+00
         25   -1    0    0    0    0  0.00000000000E+00  0.00000000000E+00  0.99999998245E-14  0.12500000000E+03  0.12500000000E+03 0.  0.
        -13    1    1    0    0    0  0.10704210943E+02 -0.14077969906E+02  0.52987589137E+02  0.55861123648E+02  0.10566000000E+00 0.  1.
         13    1    1    0    0    0  0.68996640271E+00  0.33344300656E+01  0.66540710642E+01  0.74754466931E+01  0.10566000000E+00 0. -1.
         22    1    1    0    0    0 -0.11394177346E+02  0.10743539841E+02 -0.59641660201E+02  0.61663429659E+02  0.00000000000E+00 0.  1.
</event>
<event>
 4    1  0.9897231E-003  0.9118800E+02  0.7818608E-02  0.1130116E+00
         25   -1    0    0    0    0  0.00000000000E+00  0.00000000000E+00  0.99999998245E-14  0.12500000000E+03  0.12500000000E+03 0.  0.
        -13    1    1    0    0    0 -0.18841629735E+02  0.51647707599E+01 -0.38296625345E+02  0.42992145153E+02  0.10566000000E+00 0. -1.
         13    1    1    0    0    0 -0.86456398761E+01  0.23707724242E+01 -0.17325993213E+02  0.19508174072E+02  0.10566000000E+00 0. -1.
         22    1    1    0    0    0  0.27487269611E+02 -0.75355431841E+01  0.55622618558E+02  0.62499680775E+02  0.00000000000E+00 0. -1.
</event>
<event>
 4    1  0.9897231E-003  0.9118800E+02  0.7818608E-02  0.1130116E+00
         25   -1    0    0    0    0  0.00000000000E+00  0.00000000000E+00  0.99999998245E-14  0.12500000000E+03  0.12500000000E+03 0.  0.
        -13    1    1    0    0    0 -0.33172197004E+02 -0.11230099344E-01 -0.35852496718E+02  0.48844728120E+02  0.10566000000E+00 0.  1.
         13    1    1    0    0    0 -0.95884539732E+01 -0.49757801775E+00 -0.97183807695E+01  0.13661775957E+02  0.10566000000E+00 0. -1.
         22    1    1    0    0    0  0.42760650977E+02  0.50880811709E+00  0.45570877487E+02  0.62493495923E+02  0.00000000000E+00 0.  1.
</event>
<event>
 4    1  0.9897231E-003  0.9118800E+02  0.7818608E-02  0.1130116E+00
         25   -1    0    0    0    0  0.00000000000E+00  0.00000000000E+00  0.99999998245E-14  0.12500000000E+03  0.12500000000E+03 0.  0.
        -13    1    1    0    0    0 -0.89737942697E+01 -0.66483478099E+00  0.46357676145E+02  0.47223048297E+02  0.10566000000E+00 0.  1.
         13    1    1    0    0    0 -0.17689755042E+01 -0.64735143561E+00  0.15179010870E+02  0.15295812278E+02  0.10566000000E+00 0. -1.
         22    1    1    0    0    0  0.10742769774E+02  0.13121862166E+01 -0.61536687015E+02  0.62481139425E+02  0.00000000000E+00 0.  1.
</event>
<event>
 4    1  0.9897231E-003  0.9118800E+02  0.7818608E-02  0.1130116E+00
         25   -1    0    0    0    0  0.00000000000E+00  0.00000000000E+00  0.99999998245E-14  0.12500000000E+03  0.12500000000E+03 0.  0.
        -13    1    1    0    0    0  0.10980307581E+02  0.18492270132E+02 -0.58068270530E+02  0.61923068526E+02  0.10566000000E+00 0.  1.
         13    1    1    0    0    0  0.19181107230E+00 -0.57281289618E-03 -0.55645480591E+00  0.59799481786E+00  0.10566000000E+00 0. -1.
         22    1    1    0    0    0 -0.11172118653E+02 -0.18491697319E+02  0.58624725336E+02  0.62478936656E+02  0.00000000000E+00 0.  1.
</event>
<event>
 4    1  0.9897231E-003  0.9118800E+02  0.7818608E-02  0.1130116E+00
         25   -1    0    0    0    0  0.00000000000E+00  0.00000000000E+00  0.99999998245E-14  0.12500000000E+03  0.12500000000E+03 0.  0.
        -13    1    1    0    0    0 -0.32601856401E+02 -0.27586425611E+02  0.42564189844E+01  0.42918762626E+02  0.10566000000E+00 0. -1.
         13    1    1    0    0    0 -0.83908643934E+01 -0.18478404008E+02 -0.42654731194E+00  0.20299042504E+02  0.10566000000E+00 0.  1.
         22    1    1    0    0    0  0.40992720794E+02  0.46064829618E+02 -0.38298716724E+01  0.61782194870E+02  0.00000000000E+00 0.  1.
</event>
<event>
 4    1  0.9897231E-003  0.9118800E+02  0.7818608E-02  0.1130116E+00
         25   -1    0    0    0    0  0.00000000000E+00  0.00000000000E+00  0.99999998245E-14  0.12500000000E+03  0.12500000000E+03 0.  0.
        -13    1    1    0    0    0 -0.52916142632E+01 -0.18933305277E+02  0.20097366840E+02  0.28113814187E+02  0.10566000000E+00 0.  1.
         13    1    1    0    0    0 -0.14635802572E+02 -0.29189399579E+02  0.13031465777E+02  0.35157616941E+02  0.10566000000E+00 0. -1.
         22    1    1    0    0    0  0.19927416835E+02  0.48122704856E+02 -0.33128832617E+02  0.61728568871E+02  0.00000000000E+00 0. -1.
</event>
<event>
 4    1  0.9897231E-003  0.9118800E+02  0.7818608E-02  0.1130116E+00
         25   -1    0    0    0    0  0.00000000000E+00  0.00000000000E+00  0.99999998245E-14  0.12500000000E+03  0.12500000000E+03 0.  0.
        -13    1    1    0    0    0  0.17197450491E+02  0.10036823088E+02 -0.58669129108E+02  0.61956178025E+02  0.10566000000E+00 0. -1.
         13    1    1    0    0    0  0.95966867671E+00 -0.35554386380E+01  0.73228383159E+01  0.81973918361E+01  0.10566000000E+00 0.  1.
         22    1    1    0    0    0 -0.18157119168E+02 -0.64813844497E+01  0.51346290792E+02  0.54846430139E+02  0.00000000000E+00 0. -1.
</event>
<event>
 4    1  0.9897231E-003  0.9118800E+02  0.7818608E-02  0.1130116E+00
         25   -1    0    0    0    0  0.00000000000E+00  0.00000000000E+00  0.99999998245E-14  0.12500000000E+03  0.12500000000E+03 0.  0.
        -13    1    1    0    0    0  0.16512014057E+01 -0.83091876231E+01  0.11191345714E+02  0.14036610985E+02  0.10566000000E+00 0.  1.
         13    1    1    0    0    0  0.13173702121E+02 -0.30902189851E+02  0.35049912260E+02  0.48548936946E+02  0.10566000000E+00 0. -1.
         22    1    1    0    0    0 -0.14824903527E+02  0.39211377474E+02 -0.46241257973E+02  0.62414452068E+02  0.00000000000E+00 0. -1.
</event>
<event>
 4    1  0.9897231E-003  0.9118800E+02  0.7818608E-02  0.1130116E+00
         25   -1    0    0    0    0  0.00000000000E+00  0.00000000000E+00  0.99999998245E-14  0.12500000000E+03  0.12500000000E+03 0.  0.
        -13    1    1    0    0    0  0.98972511493E+01  0.28723066202E+02  0.10820854174E+02  0.32250149789E+02  0.10566000000E+00 0. -1.
         13    1    1    0    0    0  0.80881026169E+01  0.27864359778E+02  0.86256044141E+01  0.30269657503E+02  0.10566000000E+00 0.  1.
         22    1    1    0    0    0 -0.17985353766E+02 -0.56587425980E+02 -0.19446458588E+02  0.62480192708E+02  0.00000000000E+00 0.  1.
</event>
<event>
 4    1  0.9897231E-003  0.9118800E+02  0.7818608E-02  0.1130116E+00
         25   -1    0    0    0    0  0.00000000000E+00  0.00000000000E+00  0.99999998245E-14  0.12500000000E+03  0.12500000000E+03 0.  0.
        -13    1    1    0    0    0  0.25465912244E+02  0.89034134857E+01  0.18298149821E+02  0.32597805279E+02  0.10566000000E+00 0.  1.
         13    1    1    0    0    0  0.14018042307E+02  0.11564356399E+02  0.24617624650E+02  0.30598667561E+02  0.10566000000E+00 0. -1.
         22    1    1    0    0    0 -0.39483954551E+02 -0.20467769885E+02 -0.42915774471E+02  0.61803527160E+02  0.00000000000E+00 0.  1.
</event>
<event>
 4    1  0.9897231E-003  0.9118800E+02  0.7818608E-02  0.1130116E+00
         25   -1    0    0    0    0  0.00000000000E+00  0.00000000000E+00  0.99999998245E-14  0.12500000000E+03  0.12500000000E+03 0.  0.
        -13    1    1    0    0    0 -0.48293144371E+02 -0.27985343764E+02  0.10909856867E+02  0.56872167180E+02  0.10566000000E+00 0.  1.
         13    1    1    0    0    0 -0.48211048412E+01 -0.20448884388E+01  0.22635134854E+01  0.57060737773E+01  0.10566000000E+00 0. -1.
         22    1    1    0    0    0  0.53114249213E+02  0.30030232203E+02 -0.13173370353E+02  0.62421759043E+02  0.00000000000E+00 0.  1.
</event>
<event>
 4    1  0.9897231E-003  0.9118800E+02  0.7818608E-02  0.1130116E+00
         25   -1    0    0    0    0  0.00000000000E+00  0.00000000000E+00  0.99999998245E-14  0.12500000000E+03  0.12500000000E+03 0.  0.
        -13    1    1    0    0    0 -0.69520082044E-01 -0.10696184624E+02  0.35644058952E+01  0.11275165274E+02  0.10566000000E+00 0.  1.
         13    1    1    0    0    0  0.12641832739E+02 -0.50036440981E+02 -0.11992613344E+00  0.51608980879E+02  0.10566000000E+00 0. -1.
         22    1    1    0    0    0 -0.12572312657E+02  0.60732625604E+02 -0.34444797618E+01  0.62115853847E+02  0.00000000000E+00 0. -1.
</event>
<event>
 4    1  0.9897231E-003  0.9118800E+02  0.7818608E-02  0.1130116E+00
         25   -1    0    0    0    0  0.00000000000E+00  0.00000000000E+00  0.99999998245E-14  0.12500000000E+03  0.12500000000E+03 0.  0.
        -13    1    1    0    0    0 -0.31755795440E+01  0.13457516426E+02 -0.65207703378E+01  0.15287925420E+02  0.10566000000E+00 0. -1.
         13    1    1    0    0    0 -0.26207671520E+02  0.39247477774E+02 -0.74389360170E+01  0.47776097489E+02  0.10566000000E+00 0.  1.
         22    1    1    0    0    0  0.29383251064E+02 -0.52704994201E+02  0.13959706355E+02  0.61935977092E+02  0.00000000000E+00 0.  1.
</event>
<event>
 4    1  0.9897231E-003  0.9118800E+02  0.7818608E-02  0.1130116E+00
         25   -1    0    0    0    0  0.00000000000E+00  0.00000000000E+00  0.99999998245E-14  0.12500000000E+03  0.12500000000E+03 0.  0.
        -13    1    1    0    0    0 -0.30196777522E+02 -0.60451491086E+01  0.50834831918E+02  0.59435515482E+02  0.10566000000E+00 0. -1.
         13    1    1    0    0    0 -0.15228074368E+01 -0.86545006457E+00  0.25431102471E+01  0.30897443370E+01  0.10566000000E+00 0.  1.
         22    1    1    0    0    0  0.31719584959E+02  0.69105991731E+01 -0.53377942165E+02  0.62474740181E+02  0.00000000000E+00 0. -1.
</event>
<event>
 4    1  0.9897231E-003  0.9118800E+02  0.7818608E-02  0.1130116E+00
         25   -1    0    0    0    0  0.00000000000E+00  0.00000000000E+00  0.99999998245E-14  0.12500000000E+03  0.12500000000E+03 0.  0.
        -13    1    1    0    0    0  0.31541076592E+02 -0.85375239511E+01 -0.12654690666E+02  0.35041135650E+02  0.10566000000E+00 0. -1.
         13    1    1    0    0    0  0.21777683145E+02 -0.12754857539E+02 -0.11421148951E+02  0.27702124131E+02  0.10566000000E+00 0.  1.
         22    1    1    0    0    0 -0.53318759737E+02  0.21292381490E+02  0.24075839617E+02  0.62256740218E+02  0.00000000000E+00 0.  1.
</event>
<event>
 4    1  0.9897231E-003  0.9118800E+02  0.7818608E-02  0.1130116E+00
         25   -1    0    0    0    0  0.00000000000E+00  0.00000000000E+00  0.99999998245E-14  0.12500000000E+03  0.12500000000E+03 0.  0.
        -13    1    1    0    0    0 -0.12145801497E+02  0.55984885055E+01  0.24384970085E+02  0.27811894895E+02  0.10566000000E+00 0. -1.
         13    1    1    0    0    0 -0.18989257110E+02 -0.48208549842E+00  0.29299130526E+02  0.34918111427E+02  0.10566000000E+00 0.  1.
         22    1    1    0    0    0  0.31135058608E+02 -0.51164030071E+01 -0.53684100611E+02  0.62269993678E+02  0.00000000000E+00 0.  1.
</event>
<event>
 4    1  0.9897231E-003  0.9118800E+02  0.7818608E-02  0.1130116E+00
         25   -1    0    0    0    0  0.00000000000E+00  0.00000000000E+00  0.99999998245E-14  0.12500000000E+03  0.12500000000E+03 0.  0.
        -13    1    1    0    0    0 -0.20923306706E+01 -0.44106782648E+01 -0.37910158480E+01  0.61818197633E+01  0.10566000000E+00 0.  1.
         13    1    1    0    0    0 -0.12237809129E+02 -0.41165179377E+02 -0.36468924031E+02  0.56341188747E+02  0.10566000000E+00 0. -1.
         22    1    1    0    0    0  0.14330139800E+02  0.45575857642E+02  0.40259939879E+02  0.62476991489E+02  0.00000000000E+00 0. -1.
</event>
<event>
 4    1  0.9897231E-003  0.9118800E+02  0.7818608E-02  0.1130116E+00
         25   -1    0    0    0    0  0.00000000000E+00  0.00000000000E+00  0.99999998245E-14  0.12500000000E+03  0.12500000000E+03 0.  0.
        -13    1    1    0    0    0  0.66737532490E+01  0.12677752268E+02 -0.15578781033E+01  0.14411888607E+02  0.10566000000E+00 0.  1.
         13    1    1    0    0    0  0.19724845654E+02  0.43704658062E+02 -0.38089671143E+01  0.48100790710E+02  0.10566000000E+00 0. -1.
         22    1    1    0    0    0 -0.26398598903E+02 -0.56382410330E+02  0.53668452177E+01  0.62487320684E+02  0.00000000000E+00 0. -1.
</event>
<event>
 4    1  0.9897231E-003  0.9118800E+02  0.7818608E-02  0.1130116E+00
         25   -1    0    0    0    0  0.00000000000E+00  0.00000000000E+00  0.99999998245E-14  0.12500000000E+03  0.12500000000E+03 0.  0.
        -13    1    1    0    0    0 -0.41326505210E+02 -0.41520428381E+02 -0.30725818357E+01  0.58662406437E+02  0.10566000000E+00 0.  1.
         13    1    1    0    0    0 -0.42607463271E+01  0.90029907799E+00  0.29812668180E+01  0.52785995841E+01  0.10566000000E+00 0. -1.
         22    1    1    0    0    0  0.45587251537E+02  0.40620129303E+02  0.91315017764E-01  0.61058993979E+02  0.00000000000E+00 0.  1.
</event>
<event>
 4    1  0.9897231E-003  0.9118800E+02  0.7818608E-02  0.1130116E+00
         25   -1    0    0    0    0  0.00000000000E+00  0.00000000000E+00  0.99999998245E-14  0.12500000000E+03  0.12500000000E+03 0.  0.
        -13    1    1    0    0    0 -0.13953641200E+02  0.51394471810E+02 -0.24904127487E+02  0.58790497236E+02  0.10566000000E+00 0. -1.
         13    1    1    0    0    0 -0.34033747560E+01  0.17855259248E+01 -0.17723377203E+01  0.42336045621E+01  0.10566000000E+00 0.  1.
         22    1    1    0    0    0  0.17357015956E+02 -0.53179997735E+02  0.26676465207E+02  0.61975898202E+02  0.00000000000E+00 0. -1.
</event>
<event>
 4    1  0.9897231E-003  0.9118800E+02  0.7818608E-02  0.1130116E+00
         25   -1    0    0    0    0  0.00000000000E+00  0.00000000000E+00  0.99999998245E-14  0.12500000000E+03  0.12500000000E+03 0.  0.
        -13    1    1    0    0    0  0.31629088736E+02  0.38299601328E+02 -0.23024379291E+02  0.54748442187E+02  0.10566000000E+00 0. -1.
         13    1    1    0    0    0  0.83496629379E+01  0.16225297406E+01 -0.15387207922E+01  0.86445531780E+01  0.10566000000E+00 0.  1.
         22    1    1    0    0    0 -0.39978751674E+02 -0.39922131068E+02  0.24563100083E+02  0.61607004635E+02  0.00000000000E+00 0. -1.
</event>
<event>
 4    1  0.9897231E-003  0.9118800E+02  0.7818608E-02  0.1130116E+00
         25   -1    0    0    0    0  0.00000000000E+00  0.00000000000E+00  0.99999998245E-14  0.12500000000E+03  0.12500000000E+03 0.  0.
        -13    1    1    0    0    0 -0.19479158781E+01 -0.11421334200E+02  0.39285261590E+01  0.12234612090E+02  0.10566000000E+00 0.  1.
         13    1    1    0    0    0 -0.10089214216E+02 -0.48063428746E+02  0.10863710479E+02  0.50298278258E+02  0.10566000000E+00 0. -1.
         22    1    1    0    0    0  0.12037130094E+02  0.59484762946E+02 -0.14792236638E+02  0.62467109652E+02  0.00000000000E+00 0. -1.
</event>
<event>
 4    1  0.9897231E-003  0.9118800E+02  0.7818608E-02  0.1130116E+00
         25   -1    0    0    0    0  0.00000000000E+00  0.00000000000E+00  0.99999998245E-14  0.12500000000E+03  0.12500000000E+03 0.  0.
        -13    1    1    0    0    0 -0.13483822854E+01 -0.97689853840E+00  0.29276192520E+01  0.33696563715E+01  0.10566000000E+00 0. -1.
         13    1    1    0    0    0  0.67623285589E+01 -0.23268678817E+02  0.54180744531E+02  0.59352546225E+02  0.10566000000E+00 0.  1.
         22    1    1    0    0    0 -0.54139462735E+01  0.24245577355E+02 -0.57108363783E+02  0.62277797404E+02  0.00000000000E+00 0.  1.
</event>
<event>
 4    1  0.9897231E-003  0.9118800E+02  0.7818608E-02  0.1130116E+00
         25   -1    0    0    0    0  0.00000000000E+00  0.00000000000E+00  0.99999998245E-14  0.12500000000E+03  0.12500000000E+03 0.  0.
        -13    1    1    0    0    0  0.75885433904E+01 -0.90866471832E+00 -0.37690531185E+01  0.85222407736E+01  0.10566000000E+00 0.  1.
         13    1    1    0    0    0  0.24171802916E+02 -0.16781030301E+02 -0.46144340272E+02  0.54728332127E+02  0.10566000000E+00 0. -1.
         22    1    1    0    0    0 -0.31760346306E+02  0.17689695019E+02  0.49913393391E+02  0.61749427100E+02  0.00000000000E+00 0. -1.
</event>
<event>
 4    1  0.9897231E-003  0.9118800E+02  0.7818608E-02  0.1130116E+00
         25   -1    0    0    0    0  0.00000000000E+00  0.00000000000E+00  0.99999998245E-14  0.12500000000E+03  0.12500000000E+03 0.  0.
        -13    1    1    0    0    0 -0.15737605108E+02  0.44084432282E+01  0.10789260188E+01  0.16379311085E+02  0.10566000000E+00 0.  1.
         13    1    1    0    0    0 -0.44376496312E+02  0.12015583177E+02  0.36818431474E+01  0.46121738876E+02  0.10566000000E+00 0.  1.
         22    1    1    0    0    0  0.60114101420E+02 -0.16424026405E+02 -0.47607691662E+01  0.62498950038E+02  0.00000000000E+00 0.  1.
</event>
<event>
 4    1  0.9897231E-003  0.9118800E+02  0.7818608E-02  0.1130116E+00
         25   -1    0    0    0    0  0.00000000000E+00  0.00000000000E+00  0.99999998245E-14  0.12500000000E+03  0.12500000000E+03 0.  0.
        -13    1    1    0    0    0 -0.17633345609E+02  0.78018770398E+01  0.33138853112E+02  0.38340564841E+02  0.10566000000E+00 0. -1.
         13    1    1    0    0    0 -0.28300494911E+02 -0.77736132149E+01  0.10988692840E+01  0.29369469732E+02  0.10566000000E+00 0.  1.
         22    1    1    0    0    0  0.45933840520E+02 -0.28263824951E-01 -0.34237722396E+02  0.57289965427E+02  0.00000000000E+00 0.  1.
</event>
<event>
 4    1  0.9897231E-003  0.9118800E+02  0.7818608E-02  0.1130116E+00
         25   -1    0    0    0    0  0.00000000000E+00  0.00000000000E+00  0.99999998245E-14  0.12500000000E+03  0.12500000000E+03 0.  0.
        -13    1    1    0    0    0  0.11771313695E+02  0.10902367076E+02 -0.11976445857E+02  0.20021784470E+02  0.10566000000E+00 0.  1.
         13    1    1    0    0    0  0.22721019257E+02  0.29734722869E+02 -0.20392483659E+02  0.42617637359E+02  0.10566000000E+00 0. -1.
         22    1    1    0    0    0 -0.34492332952E+02 -0.40637089946E+02  0.32368929517E+02  0.62360578171E+02  0.00000000000E+00 0. -1.
</event>
<event>
 4    1  0.9897231E-003  0.9118800E+02  0.7818608E-02  0.1130116E+00
         25   -1    0    0    0    0  0.00000000000E+00  0.00000000000E+00  0.99999998245E-14  0.12500000000E+03  0.12500000000E+03 0.  0.
        -13    1    1    0    0    0  0.57864555211E+01 -0.66300082309E+01 -0.10682306789E+01  0.88652330741E+01  0.10566000000E+00 0.  1.
         13    1    1    0    0    0  0.35880474214E+02 -0.39262727672E+02 -0.69185265122E+01  0.53636250682E+02  0.10566000000E+00 0.  1.
         22    1    1    0    0    0 -0.41666929735E+02  0.45892735903E+02  0.79867571911E+01  0.62498516244E+02  0.00000000000E+00 0.  1.
</event>
<event>
 4    1  0.9897231E-003  0.9118800E+02  0.7818608E-02  0.1130116E+00
         25   -1    0    0    0    0  0.00000000000E+00  0.00000000000E+00  0.99999998245E-14  0.12500000000E+03  0.12500000000E+03 0.  0.
        -13    1    1    0    0    0  0.21950767114E+02  0.29673545935E+02  0.26960955892E+02  0.45708421674E+02  0.10566000000E+00 0. -1.
         13    1    1    0    0    0 -0.26577994312E+01  0.14413682652E+02  0.10729762685E+02  0.18164721763E+02  0.10566000000E+00 0.  1.
         22    1    1    0    0    0 -0.19292967683E+02 -0.44087228587E+02 -0.37690718577E+02  0.61126856564E+02  0.00000000000E+00 0. -1.
</event>
<event>
 4    1  0.9897231E-003  0.9118800E+02  0.7818608E-02  0.1130116E+00
         25   -1    0    0    0    0  0.00000000000E+00  0.00000000000E+00  0.99999998245E-14  0.12500000000E+03  0.12500000000E+03 0.  0.
        -13    1    1    0    0    0  0.11033613967E+02 -0.61640154569E+01 -0.19213339524E+01  0.12784303341E+02  0.10566000000E+00 0. -1.
         13    1    1    0    0    0 -0.13401379901E+02  0.50148453717E+01 -0.54187586289E+02  0.56045083007E+02  0.10566000000E+00 0.  1.
         22    1    1    0    0    0  0.23677659347E+01  0.11491700851E+01  0.56108920242E+02  0.56170613652E+02  0.00000000000E+00 0.  1.
</event>
<event>
 4    1  0.9897231E-003  0.9118800E+02  0.7818608E-02  0.1130116E+00
         25   -1    0    0    0    0  0.00000000000E+00  0.00000000000E+00  0.99999998245E-14  0.12500000000E+03  0.12500000000E+03 0.  0.
        -13    1    1    0    0    0 -0.53447474413E+02  0.43099321143E+01 -0.25503024171E+02  0.59376960531E+02  0.10566000000E+00 0.  1.
         13    1    1    0    0    0 -0.13252006997E+01  0.34248767950E+01 -0.16199931206E+01  0.40151562487E+01  0.10566000000E+00 0. -1.
         22    1    1    0    0    0  0.54772675113E+02 -0.77348089093E+01  0.27123017292E+02  0.61607883220E+02  0.00000000000E+00 0.  1.
</event>
<event>
 4    1  0.9897231E-003  0.9118800E+02  0.7818608E-02  0.1130116E+00
         25   -1    0    0    0    0  0.00000000000E+00  0.00000000000E+00  0.99999998245E-14  0.12500000000E+03  0.12500000000E+03 0.  0.
        -13    1    1    0    0    0  0.60087857550E+01  0.21106079723E+02  0.73547173498E+01  0.23144656810E+02  0.10566000000E+00 0.  1.
         13    1    1    0    0    0  0.11365251822E+02  0.35339130764E+02  0.13083791398E+02  0.39360130506E+02  0.10566000000E+00 0. -1.
         22    1    1    0    0    0 -0.17374037577E+02 -0.56445210486E+02 -0.20438508748E+02  0.62495212684E+02  0.00000000000E+00 0. -1.
</event>
<event>
 4    1  0.9897231E-003  0.9118800E+02  0.7818608E-02  0.1130116E+00
         25   -1    0    0    0    0  0.00000000000E+00  0.00000000000E+00  0.99999998245E-14  0.12500000000E+03  0.12500000000E+03 0.  0.
        -13    1    1    0    0    0 -0.10016565681E+01  0.12661246917E+01 -0.23119172028E+01  0.28217924806E+01  0.10566000000E+00 0. -1.
         13    1    1    0    0    0 -0.20715626531E+02  0.15099826968E+02 -0.53926939992E+02  0.59709864997E+02  0.10566000000E+00 0.  1.
         22    1    1    0    0    0  0.21717283099E+02 -0.16365951660E+02  0.56238857195E+02  0.62468342522E+02  0.00000000000E+00 0.  1.
</event>
<event>
 4    1  0.9897231E-003  0.9118800E+02  0.7818608E-02  0.1130116E+00
         25   -1    0    0    0    0  0.00000000000E+00  0.00000000000E+00  0.99999998245E-14  0.12500000000E+03  0.12500000000E+03 0.  0.
        -13    1    1    0    0    0 -0.79065156642E+01 -0.87320160704E+00 -0.83577342151E+01  0.11538559539E+02  0.10566000000E+00 0. -1.
         13    1    1    0    0    0 -0.42141105548E+02  0.15331117180E+02 -0.25253684289E+02  0.51465286019E+02  0.10566000000E+00 0.  1.
         22    1    1    0    0    0  0.50047621213E+02 -0.14457915573E+02  0.33611418504E+02  0.61996154442E+02  0.00000000000E+00 0.  1.
</event>
<event>
 4    1  0.9897231E-003  0.9118800E+02  0.7818608E-02  0.1130116E+00
         25   -1    0    0    0    0  0.00000000000E+00  0.00000000000E+00  0.99999998245E-14  0.12500000000E+03  0.12500000000E+03 0.  0.
        -13    1    1    0    0    0 -0.22157077524E+02 -0.25048425483E+02  0.84267070781E+01  0.34487392766E+02  0.10566000000E+00 0.  1.
         13    1    1    0    0    0 -0.16328382919E+02 -0.20745612709E+02  0.95124382728E+01  0.28062326727E+02  0.10566000000E+00 0. -1.
         22    1    1    0    0    0  0.38485460443E+02  0.45794038192E+02 -0.17939145351E+02  0.62450280507E+02  0.00000000000E+00 0.  1.
</event>
<event>
 4    1  0.9897231E-003  0.9118800E+02  0.7818608E-02  0.1130116E+00
         25   -1    0    0    0    0  0.00000000000E+00  0.00000000000E+00  0.99999998245E-14  0.12500000000E+03  0.12500000000E+03 0.  0.
        -13    1    1    0    0    0 -0.41621906060E+02  0.49299655384E+01  0.19296684256E+02  0.46141746950E+02  0.10566000000E+00 0. -1.
         13    1    1    0    0    0 -0.15127376001E+02  0.15183993343E+01  0.60614044172E+01  0.16367493051E+02  0.10566000000E+00 0.  1.
         22    1    1    0    0    0  0.56749282062E+02 -0.64483648727E+01 -0.25358088673E+02  0.62490759999E+02  0.00000000000E+00 0. -1.
</event>
<event>
 4    1  0.9897231E-003  0.9118800E+02  0.7818608E-02  0.1130116E+00
         25   -1    0    0    0    0  0.00000000000E+00  0.00000000000E+00  0.99999998245E-14  0.12500000000E+03  0.12500000000E+03 0.  0.
        -13    1    1    0    0    0 -0.14738030103E+02  0.62121151355E+01 -0.25422056983E+02  0.30034847279E+02  0.10566000000E+00 0. -1.
         13    1    1    0    0    0 -0.29334947258E+02  0.23875971619E+02  0.67003906130E+01  0.38412335906E+02  0.10566000000E+00 0.  1.
         22    1    1    0    0    0  0.44072977361E+02 -0.30088086754E+02  0.18721666370E+02  0.56552816815E+02  0.00000000000E+00 0. -1.
</event>
<event>
 4    1  0.9897231E-003  0.9118800E+02  0.7818608E-02  0.1130116E+00
         25   -1    0    0    0    0  0.00000000000E+00  0.00000000000E+00  0.99999998245E-14  0.12500000000E+03  0.12500000000E+03 0.  0.
        -13    1    1    0    0    0 -0.33195207890E+02 -0.27848810125E+02  0.19281100425E+01  0.43372881211E+02  0.10566000000E+00 0. -1.
         13    1    1    0    0    0 -0.14602592681E+02 -0.12360809154E+02  0.10859071571E+00  0.19132388035E+02  0.10566000000E+00 0.  1.
         22    1    1    0    0    0  0.47797800571E+02  0.40209619279E+02 -0.20367007583E+01  0.62494730753E+02  0.00000000000E+00 0. -1.
</event>
<event>
 4    1  0.9897231E-003  0.9118800E+02  0.7818608E-02  0.1130116E+00
         25   -1    0    0    0    0  0.00000000000E+00  0.00000000000E+00  0.99999998245E-14  0.12500000000E+03  0.12500000000E+03 0.  0.
        -13    1    1    0    0    0  0.12267173216E+02 -0.16195993208E+01  0.11861659480E+01  0.12430800231E+02  0.10566000000E+00 0.  1.
         13    1    1    0    0    0  0.49566791088E+02 -0.28390185856E+01 -0.76678538827E+01  0.50236778882E+02  0.10566000000E+00 0. -1.
         22    1    1    0    0    0 -0.61833964304E+02  0.44586179063E+01  0.64816879348E+01  0.62332420887E+02  0.00000000000E+00 0. -1.
</event>
<event>
 4    1  0.9897231E-003  0.9118800E+02  0.7818608E-02  0.1130116E+00
         25   -1    0    0    0    0  0.00000000000E+00  0.00000000000E+00  0.99999998245E-14  0.12500000000E+03  0.12500000000E+03 0.  0.
        -13    1    1    0    0    0 -0.34611652970E+01 -0.34532850625E+02  0.37044350198E+02  0.50762116614E+02  0.10566000000E+00 0.  1.
         13    1    1    0    0    0 -0.22993551128E+00 -0.76341260408E+01  0.89261297271E+01  0.11748178867E+02  0.10566000000E+00 0. -1.
         22    1    1    0    0    0  0.36911008083E+01  0.42166976666E+02 -0.45970479925E+02  0.62489704519E+02  0.00000000000E+00 0.  1.
</event>
<event>
 4    1  0.9897231E-003  0.9118800E+02  0.7818608E-02  0.1130116E+00
         25   -1    0    0    0    0  0.00000000000E+00  0.00000000000E+00  0.99999998245E-14  0.12500000000E+03  0.12500000000E+03 0.  0.
        -13    1    1    0    0    0  0.25447104676E+02  0.16153127117E+02 -0.21410429047E+01  0.30217112384E+02  0.10566000000E+00 0. -1.
         13    1    1    0    0    0  0.28204463618E+02  0.15008400274E+02 -0.49647967394E+01  0.32332711260E+02  0.10566000000E+00 0.  1.
         22    1    1    0    0    0 -0.53651568294E+02 -0.31161527391E+02  0.71058396441E+01  0.62450176355E+02  0.00000000000E+00 0. -1.
</event>
<event>
 4    1  0.9897231E-003  0.9118800E+02  0.7818608E-02  0.1130116E+00
         25   -1    0    0    0    0  0.00000000000E+00  0.00000000000E+00  0.99999998245E-14  0.12500000000E+03  0.12500000000E+03 0.  0.
        -13    1    1    0    0    0  0.35712689215E+02 -0.77243143853E+01  0.89606319622E+01  0.37621340924E+02  0.10566000000E+00 0.  1.
         13    1    1    0    0    0  0.24053685347E+02  0.13410670237E+01  0.71882214038E+01  0.25140802106E+02  0.10566000000E+00 0. -1.
         22    1    1    0    0    0 -0.59766374562E+02  0.63832473617E+01 -0.16148853366E+02  0.62237856970E+02  0.00000000000E+00 0.  1.
</event>
<event>
 4    1  0.9897231E-003  0.9118800E+02  0.7818608E-02  0.1130116E+00
         25   -1    0    0    0    0  0.00000000000E+00  0.00000000000E+00  0.99999998245E-14  0.12500000000E+03  0.12500000000E+03 0.  0.
        -13    1    1    0    0    0  0.16474784927E+02 -0.44850088038E+01 -0.41027212202E+02  0.44438464729E+02  0.10566000000E+00 0.  1.
         13    1    1    0    0    0  0.59271082721E+01 -0.96743918741E+00 -0.17049028559E+02  0.18076146987E+02  0.10566000000E+00 0. -1.
         22    1    1    0    0    0 -0.22401893199E+02  0.54524479912E+01  0.58076240761E+02  0.62485388284E+02  0.00000000000E+00 0. -1.
</event>
<event>
 4    1  0.9897231E-003  0.9118800E+02  0.7818608E-02  0.1130116E+00
         25   -1    0    0    0    0  0.00000000000E+00  0.00000000000E+00  0.99999998245E-14  0.12500000000E+03  0.12500000000E+03 0.  0.
        -13    1    1    0    0    0 -0.11034424889E+02 -0.26899629389E+02 -0.45877678161E+02  0.54315017365E+02  0.10566000000E+00 0. -1.
         13    1    1    0    0    0 -0.18019275314E+01 -0.40895430739E+01 -0.68577121675E+01  0.81860054721E+01  0.10566000000E+00 0. -1.
         22    1    1    0    0    0  0.12836352420E+02  0.30989172462E+02  0.52735390328E+02  0.62498977163E+02  0.00000000000E+00 0. -1.
</event>
<event>
 4    1  0.9897231E-003  0.9118800E+02  0.7818608E-02  0.1130116E+00
         25   -1    0    0    0    0  0.00000000000E+00  0.00000000000E+00  0.99999998245E-14  0.12500000000E+03  0.12500000000E+03 0.  0.
        -13    1    1    0    0    0  0.29531407690E+02  0.82221954967E+01 -0.48890856263E+02  0.57706460030E+02  0.10566000000E+00 0.  1.
         13    1    1    0    0    0  0.20037272632E+01  0.64344064551E+00 -0.43207767446E+01  0.48072044393E+01  0.10566000000E+00 0. -1.
         22    1    1    0    0    0 -0.31535134953E+02 -0.88656361422E+01  0.53211633008E+02  0.62486335531E+02  0.00000000000E+00 0.  1.
</event>
<event>
 4    1  0.9897231E-003  0.9118800E+02  0.7818608E-02  0.1130116E+00
         25   -1    0    0    0    0  0.00000000000E+00  0.00000000000E+00  0.99999998245E-14  0.12500000000E+03  0.12500000000E+03 0.  0.
        -13    1    1    0    0    0 -0.43747489360E+02 -0.24103182237E+02 -0.15977639032E+02  0.52441418100E+02  0.10566000000E+00 0. -1.
         13    1    1    0    0    0 -0.11359870551E+02  0.35994821169E+01  0.15604970744E+01  0.12018703990E+02  0.10566000000E+00 0.  1.
         22    1    1    0    0    0  0.55107359912E+02  0.20503700120E+02  0.14417141958E+02  0.60539877909E+02  0.00000000000E+00 0. -1.
</event>
<event>
 4    1  0.9897231E-003  0.9118800E+02  0.7818608E-02  0.1130116E+00
         25   -1    0    0    0    0  0.00000000000E+00  0.00000000000E+00  0.99999998245E-14  0.12500000000E+03  0.12500000000E+03 0.  0.
        -13    1    1    0    0    0  0.17386628552E+02 -0.65432350482E+01  0.50551384638E+01  0.19252905397E+02  0.10566000000E+00 0. -1.
         13    1    1    0    0    0  0.38984128950E+02 -0.14795749517E+02  0.11473711175E+02  0.43247355132E+02  0.10566000000E+00 0. -1.
         22    1    1    0    0    0 -0.56370757502E+02  0.21338984565E+02 -0.16528849639E+02  0.62499739471E+02  0.00000000000E+00 0. -1.
</event>
<event>
 4    1  0.9897231E-003  0.9118800E+02  0.7818608E-02  0.1130116E+00
         25   -1    0    0    0    0  0.00000000000E+00  0.00000000000E+00  0.99999998245E-14  0.12500000000E+03  0.12500000000E+03 0.  0.
        -13    1    1    0    0    0 -0.12333299977E+02  0.38826831263E+02  0.27519077065E+02  0.49162423464E+02  0.10566000000E+00 0. -1.
         13    1    1    0    0    0 -0.36265009485E+01  0.10362426095E+02  0.75764624843E+01  0.13339615119E+02  0.10566000000E+00 0.  1.
         22    1    1    0    0    0  0.15959800925E+02 -0.49189257359E+02 -0.35095539549E+02  0.62497961417E+02  0.00000000000E+00 0. -1.
</event>
<event>
 4    1  0.9897231E-003  0.9118800E+02  0.7818608E-02  0.1130116E+00
         25   -1    0    0    0    0  0.00000000000E+00  0.00000000000E+00  0.99999998245E-14  0.12500000000E+03  0.12500000000E+03 0.  0.
        -13    1    1    0    0    0  0.80734036396E+01  0.49778389678E+01  0.11211573828E+02  0.14685682784E+02  0.10566000000E+00 0.  1.
         13    1    1    0    0    0  0.26839043084E+02  0.16680419521E+02  0.35885345572E+02  0.47815685919E+02  0.10566000000E+00 0. -1.
         22    1    1    0    0    0 -0.34912446724E+02 -0.21658258488E+02 -0.47096919400E+02  0.62498631296E+02  0.00000000000E+00 0. -1.
</event>
<event>
 4    1  0.9897231E-003  0.9118800E+02  0.7818608E-02  0.1130116E+00
         25   -1    0    0    0    0  0.00000000000E+00  0.00000000000E+00  0.99999998245E-14  0.12500000000E+03  0.12500000000E+03 0.  0.
        -13    1    1    0    0    0 -0.78207733075E+01  0.14553114455E+02 -0.12040625036E+02  0.20443714212E+02  0.10566000000E+00 0. -1.
         13    1    1    0    0    0 -0.16032236763E+02  0.30239604430E+02 -0.24439802566E+02  0.42056882971E+02  0.10566000000E+00 0. -1.
         22    1    1    0    0    0  0.23853010070E+02 -0.44792718886E+02  0.36480427602E+02  0.62499402818E+02  0.00000000000E+00 0. -1.
</event>
<event>
 4    1  0.9897231E-003  0.9118800E+02  0.7818608E-02  0.1130116E+00
         25   -1    0    0    0    0  0.00000000000E+00  0.00000000000E+00  0.99999998245E-14  0.12500000000E+03  0.12500000000E+03 0.  0.
        -13    1    1    0    0    0 -0.28821070269E+02  0.82920950710E+01  0.21938793327E+02  0.37158239313E+02  0.10566000000E+00 0.  1.
         13    1    1    0    0    0 -0.24112422269E+02  0.12177128369E+02 -0.48423300412E-01  0.27013050029E+02  0.10566000000E+00 0. -1.
         22    1    1    0    0    0  0.52933492538E+02 -0.20469223440E+02 -0.21890370027E+02  0.60828710659E+02  0.00000000000E+00 0. -1.
</event>
<event>
 4    1  0.9897231E-003  0.9118800E+02  0.7818608E-02  0.1130116E+00
         25   -1    0    0    0    0  0.00000000000E+00  0.00000000000E+00  0.99999998245E-14  0.12500000000E+03  0.12500000000E+03 0.  0.
        -13    1    1    0    0    0  0.68703878993E+01 -0.63384938959E+01  0.17805358462E+01  0.95163126625E+01  0.10566000000E+00 0. -1.
         13    1    1    0    0    0  0.10800182287E+02  0.34626387839E+02 -0.46953353937E+02  0.59331772956E+02  0.10566000000E+00 0.  1.
         22    1    1    0    0    0 -0.17670570186E+02 -0.28287893943E+02  0.45172818091E+02  0.56151914381E+02  0.00000000000E+00 0.  1.
</event>
<event>
 4    1  0.9897231E-003  0.9118800E+02  0.7818608E-02  0.1130116E+00
         25   -1    0    0    0    0  0.00000000000E+00  0.00000000000E+00  0.99999998245E-14  0.12500000000E+03  0.12500000000E+03 0.  0.
        -13    1    1    0    0    0  0.30026388925E+02 -0.36736624393E+01  0.42636791757E+02  0.52277978184E+02  0.10566000000E+00 0. -1.
         13    1    1    0    0    0  0.62552440134E+01  0.13087892623E+01  0.80903926909E+01  0.10310510411E+02  0.10566000000E+00 0.  1.
         22    1    1    0    0    0 -0.36281632939E+02  0.23648731770E+01 -0.50727184448E+02  0.62411511405E+02  0.00000000000E+00 0. -1.
</event>
<event>
 4    1  0.9897231E-003  0.9118800E+02  0.7818608E-02  0.1130116E+00
         25   -1    0    0    0    0  0.00000000000E+00  0.00000000000E+00  0.99999998245E-14  0.12500000000E+03  0.12500000000E+03 0.  0.
        -13    1    1    0    0    0  0.14225298061E+02  0.37085191096E+02 -0.41008553387E+02  0.57091007335E+02  0.10566000000E+00 0.  1.
         13    1    1    0    0    0  0.13797430291E+01  0.34606284808E+01 -0.39210765489E+01  0.54097731603E+01  0.10566000000E+00 0.  1.
         22    1    1    0    0    0 -0.15605041090E+02 -0.40545819577E+02  0.44929629936E+02  0.62499219505E+02  0.00000000000E+00 0.  1.
</event>
<event>
 4    1  0.9897231E-003  0.9118800E+02  0.7818608E-02  0.1130116E+00
         25   -1    0    0    0    0  0.00000000000E+00  0.00000000000E+00  0.99999998245E-14  0.12500000000E+03  0.12500000000E+03 0.  0.
        -13    1    1    0    0    0  0.50970626521E+01 -0.67156662467E+00 -0.10285389763E+02  0.11499193712E+02  0.10566000000E+00 0.  1.
         13    1    1    0    0    0  0.31814885220E+02 -0.20240545419E+02 -0.34999992914E+02  0.51447811114E+02  0.10566000000E+00 0. -1.
         22    1    1    0    0    0 -0.36911947873E+02  0.20912112043E+02  0.45285382677E+02  0.62052995174E+02  0.00000000000E+00 0. -1.
</event>
<event>
 4    1  0.9897231E-003  0.9118800E+02  0.7818608E-02  0.1130116E+00
         25   -1    0    0    0    0  0.00000000000E+00  0.00000000000E+00  0.99999998245E-14  0.12500000000E+03  0.12500000000E+03 0.  0.
        -13    1    1    0    0    0 -0.17030028910E+01  0.33148734498E+02  0.21087068108E+02  0.39324476133E+02  0.10566000000E+00 0.  1.
         13    1    1    0    0    0 -0.14451539323E+01  0.20083432999E+02  0.11493476252E+02  0.23184993235E+02  0.10566000000E+00 0. -1.
         22    1    1    0    0    0  0.31481568233E+01 -0.53232167497E+02 -0.32580544360E+02  0.62490530632E+02  0.00000000000E+00 0.  1.
</event>
<event>
 4    1  0.9897231E-003  0.9118800E+02  0.7818608E-02  0.1130116E+00
         25   -1    0    0    0    0  0.00000000000E+00  0.00000000000E+00  0.99999998245E-14  0.12500000000E+03  0.12500000000E+03 0.  0.
        -13    1    1    0    0    0 -0.42711781980E+02  0.26645872392E+02 -0.75641714584E+01  0.50907039683E+02  0.10566000000E+00 0. -1.
         13    1    1    0    0    0 -0.98536467055E+01  0.59153646800E+01 -0.15290006261E+01  0.11594606489E+02  0.10566000000E+00 0.  1.
         22    1    1    0    0    0  0.52565428686E+02 -0.32561237072E+02  0.90931720845E+01  0.62498353827E+02  0.00000000000E+00 0. -1.
</event>
<event>
 4    1  0.9897231E-003  0.9118800E+02  0.7818608E-02  0.1130116E+00
         25   -1    0    0    0    0  0.00000000000E+00  0.00000000000E+00  0.99999998245E-14  0.12500000000E+03  0.12500000000E+03 0.  0.
        -13    1    1    0    0    0 -0.14079907777E+00  0.11146350123E+02  0.40260164941E+01  0.11852464650E+02  0.10566000000E+00 0.  1.
         13    1    1    0    0    0  0.15873653567E+01  0.48906314000E+02  0.13153278392E+02  0.50669193543E+02  0.10566000000E+00 0. -1.
         22    1    1    0    0    0 -0.14465662789E+01 -0.60052664122E+02 -0.17179294886E+02  0.62478341807E+02  0.00000000000E+00 0. -1.
</event>
<event>
 4    1  0.9897231E-003  0.9118800E+02  0.7818608E-02  0.1130116E+00
         25   -1    0    0    0    0  0.00000000000E+00  0.00000000000E+00  0.99999998245E-14  0.12500000000E+03  0.12500000000E+03 0.  0.
        -13    1    1    0    0    0 -0.27388597875E+01 -0.91966371893E+01 -0.99520041814E+01  0.13825087334E+02  0.10566000000E+00 0.  1.
         13    1    1    0    0    0 -0.97543531669E+01 -0.29369035281E+02 -0.37593875850E+02  0.48692897886E+02  0.10566000000E+00 0. -1.
         22    1    1    0    0    0  0.12493212954E+02  0.38565672471E+02  0.47545880031E+02  0.62482014780E+02  0.00000000000E+00 0. -1.
</event>
<event>
 4    1  0.9897231E-003  0.9118800E+02  0.7818608E-02  0.1130116E+00
         25   -1    0    0    0    0  0.00000000000E+00  0.00000000000E+00  0.99999998245E-14  0.12500000000E+03  0.12500000000E+03 0.  0.
        -13    1    1    0    0    0 -0.80712858798E+01  0.56296261130E+01 -0.44725135612E+02  0.45795057217E+02  0.10566000000E+00 0. -1.
         13    1    1    0    0    0 -0.27696151996E+01  0.22954031073E+01 -0.16313936435E+02  0.16706146469E+02  0.10566000000E+00 0.  1.
         22    1    1    0    0    0  0.10840901079E+02 -0.79250292204E+01  0.61039072047E+02  0.62498796315E+02  0.00000000000E+00 0. -1.
</event>
<event>
 4    1  0.9897231E-003  0.9118800E+02  0.7818608E-02  0.1130116E+00
         25   -1    0    0    0    0  0.00000000000E+00  0.00000000000E+00  0.99999998245E-14  0.12500000000E+03  0.12500000000E+03 0.  0.
        -13    1    1    0    0    0  0.46084736195E+02 -0.48944869026E+01 -0.15695005443E+02  0.48929574616E+02  0.10566000000E+00 0.  1.
         13    1    1    0    0    0  0.13081733236E+02 -0.15676910728E+01 -0.33214841771E+01  0.13587966033E+02  0.10566000000E+00 0. -1.
         22    1    1    0    0    0 -0.59166469430E+02  0.64621779754E+01  0.19016489621E+02  0.62482459351E+02  0.00000000000E+00 0. -1.
</event>
<event>
 4    1  0.9897231E-003  0.9118800E+02  0.7818608E-02  0.1130116E+00
         25   -1    0    0    0    0  0.00000000000E+00  0.00000000000E+00  0.99999998245E-14  0.12500000000E+03  0.12500000000E+03 0.  0.
        -13    1    1    0    0    0  0.63260130167E+01 -0.18989280958E+02 -0.21870251791E+02  0.29646758835E+02  0.10566000000E+00 0.  1.
         13    1    1    0    0    0  0.59281325193E+01 -0.27276649733E+02 -0.17870245554E+02  0.33143856384E+02  0.10566000000E+00 0. -1.
         22    1    1    0    0    0 -0.12254145536E+02  0.46265930691E+02  0.39740497346E+02  0.62209384781E+02  0.00000000000E+00 0. -1.
</event>
<event>
 4    1  0.9897231E-003  0.9118800E+02  0.7818608E-02  0.1130116E+00
         25   -1    0    0    0    0  0.00000000000E+00  0.00000000000E+00  0.99999998245E-14  0.12500000000E+03  0.12500000000E+03 0.  0.
        -13    1    1    0    0    0  0.90049111173E+01  0.48994860143E+01 -0.10686906719E+02  0.14809271646E+02  0.10566000000E+00 0.  1.
         13    1    1    0    0    0  0.28619765667E+02  0.16160102145E+02 -0.34557412923E+02  0.47691360225E+02  0.10566000000E+00 0.  1.
         22    1    1    0    0    0 -0.37624676784E+02 -0.21059588159E+02  0.45244319642E+02  0.62499368128E+02  0.00000000000E+00 0.  1.
</event>
<event>
 4    1  0.9897231E-003  0.9118800E+02  0.7818608E-02  0.1130116E+00
         25   -1    0    0    0    0  0.00000000000E+00  0.00000000000E+00  0.99999998245E-14  0.12500000000E+03  0.12500000000E+03 0.  0.
        -13    1    1    0    0    0  0.67686696673E+01 -0.27298881778E+02 -0.43414324907E+02  0.51728701961E+02  0.10566000000E+00 0. -1.
         13    1    1    0    0    0  0.25902115871E+01 -0.78257414613E+00 -0.10999329157E+02  0.11327754601E+02  0.10566000000E+00 0.  1.
         22    1    1    0    0    0 -0.93588812545E+01  0.28081455924E+02  0.54413654064E+02  0.61943543438E+02  0.00000000000E+00 0. -1.
</event>
<event>
 4    1  0.9897231E-003  0.9118800E+02  0.7818608E-02  0.1130116E+00
         25   -1    0    0    0    0  0.00000000000E+00  0.00000000000E+00  0.99999998245E-14  0.12500000000E+03  0.12500000000E+03 0.  0.
        -13    1    1    0    0    0 -0.41417940325E+02  0.85456492014E+01  0.45551736750E+02  0.62156623026E+02  0.10566000000E+00 0.  1.
         13    1    1    0    0    0 -0.27115705795E+00  0.18370170696E-01  0.20263660855E+00  0.35509047294E+00  0.10566000000E+00 0.  1.
         22    1    1    0    0    0  0.41689097383E+02 -0.85640193721E+01 -0.45754373358E+02  0.62488286501E+02  0.00000000000E+00 0.  1.
</event>
<event>
 4    1  0.9897231E-003  0.9118800E+02  0.7818608E-02  0.1130116E+00
         25   -1    0    0    0    0  0.00000000000E+00  0.00000000000E+00  0.99999998245E-14  0.12500000000E+03  0.12500000000E+03 0.  0.
        -13    1    1    0    0    0  0.19314365433E+01 -0.18900640391E+02  0.19543942091E+02  0.27256953073E+02  0.10566000000E+00 0. -1.
         13    1    1    0    0    0  0.23812485324E+01 -0.24202331034E+02  0.25508396350E+02  0.35243618152E+02  0.10566000000E+00 0.  1.
         22    1    1    0    0    0 -0.43126850757E+01  0.43102971425E+02 -0.45052338441E+02  0.62499428775E+02  0.00000000000E+00 0.  1.
</event>
<event>
 4    1  0.9897231E-003  0.9118800E+02  0.7818608E-02  0.1130116E+00
         25   -1    0    0    0    0  0.00000000000E+00  0.00000000000E+00  0.99999998245E-14  0.12500000000E+03  0.12500000000E+03 0.  0.
        -13    1    1    0    0    0  0.51779367913E+02  0.13206945582E+02  0.11350217971E+02  0.54629341613E+02  0.10566000000E+00 0. -1.
         13    1    1    0    0    0  0.75762536498E+01 -0.11559859978E+00  0.25938936328E+01  0.80095212476E+01  0.10566000000E+00 0.  1.
         22    1    1    0    0    0 -0.59355621563E+02 -0.13091346983E+02 -0.13944111603E+02  0.62361137139E+02  0.00000000000E+00 0. -1.
</event>
<event>
 4    1  0.9897231E-003  0.9118800E+02  0.7818608E-02  0.1130116E+00
         25   -1    0    0    0    0  0.00000000000E+00  0.00000000000E+00  0.99999998245E-14  0.12500000000E+03  0.12500000000E+03 0.  0.
        -13    1    1    0    0    0  0.25773146136E+01 -0.84009465057E+01  0.16888891449E+02  0.19038494457E+02  0.10566000000E+00 0.  1.
         13    1    1    0    0    0  0.51585163462E+01 -0.22456202300E+02  0.36880382504E+02  0.43486378216E+02  0.10566000000E+00 0. -1.
         22    1    1    0    0    0 -0.77358309598E+01  0.30857148806E+02 -0.53769273953E+02  0.62475127327E+02  0.00000000000E+00 0. -1.
</event>
<event>
 4    1  0.9897231E-003  0.9118800E+02  0.7818608E-02  0.1130116E+00
         25   -1    0    0    0    0  0.00000000000E+00  0.00000000000E+00  0.99999998245E-14  0.12500000000E+03  0.12500000000E+03 0.  0.
        -13    1    1    0    0    0 -0.66069707840E+01  0.21696321715E+01 -0.15928119522E+02  0.17380319970E+02  0.10566000000E+00 0. -1.
         13    1    1    0    0    0 -0.17789830622E+02  0.57446164680E+01 -0.41065622041E+02  0.45120673417E+02  0.10566000000E+00 0.  1.
         22    1    1    0    0    0  0.24396801407E+02 -0.79142486395E+01  0.56993741563E+02  0.62499006614E+02  0.00000000000E+00 0.  1.
</event>
<event>
 4    1  0.9897231E-003  0.9118800E+02  0.7818608E-02  0.1130116E+00
         25   -1    0    0    0    0  0.00000000000E+00  0.00000000000E+00  0.99999998245E-14  0.12500000000E+03  0.12500000000E+03 0.  0.
        -13    1    1    0    0    0 -0.31899156867E+01  0.71878000752E+01  0.93421008578E+01  0.12211717507E+02  0.10566000000E+00 0.  1.
         13    1    1    0    0    0 -0.23276676493E+02  0.11771496083E+02  0.43500511327E+02  0.50721567782E+02  0.10566000000E+00 0. -1.
         22    1    1    0    0    0  0.26466592180E+02 -0.18959296158E+02 -0.52842612185E+02  0.62066714710E+02  0.00000000000E+00 0. -1.
</event>
<event>
 4    1  0.9897231E-003  0.9118800E+02  0.7818608E-02  0.1130116E+00
         25   -1    0    0    0    0  0.00000000000E+00  0.00000000000E+00  0.99999998245E-14  0.12500000000E+03  0.12500000000E+03 0.  0.
        -13    1    1    0    0    0 -0.95585177462E+01  0.70246001828E+01 -0.58484730364E+02  0.59675666054E+02  0.10566000000E+00 0. -1.
         13    1    1    0    0    0  0.49204239119E+01  0.78144255120E+01  0.71281258428E+01  0.11666068730E+02  0.10566000000E+00 0.  1.
         22    1    1    0    0    0  0.46380938343E+01 -0.14839025695E+02  0.51356604521E+02  0.53658265215E+02  0.00000000000E+00 0. -1.
</event>
<event>
 4    1  0.9897231E-003  0.9118800E+02  0.7818608E-02  0.1130116E+00
         25   -1    0    0    0    0  0.00000000000E+00  0.00000000000E+00  0.99999998245E-14  0.12500000000E+03  0.12500000000E+03 0.  0.
        -13    1    1    0    0    0 -0.49179173035E+02  0.22408447480E+02 -0.29070311513E+02  0.61366307974E+02  0.10566000000E+00 0. -1.
         13    1    1    0    0    0 -0.92949755969E+00  0.29261068561E+00 -0.58193436960E+00  0.11399115636E+01  0.10566000000E+00 0.  1.
         22    1    1    0    0    0  0.50108670595E+02 -0.22701058165E+02  0.29652245882E+02  0.62493780462E+02  0.00000000000E+00 0. -1.
</event>
<event>
 4    1  0.9897231E-003  0.9118800E+02  0.7818608E-02  0.1130116E+00
         25   -1    0    0    0    0  0.00000000000E+00  0.00000000000E+00  0.99999998245E-14  0.12500000000E+03  0.12500000000E+03 0.  0.
        -13    1    1    0    0    0 -0.38009843330E+02  0.11076233980E+02 -0.47531311783E+02  0.61860067192E+02  0.10566000000E+00 0. -1.
         13    1    1    0    0    0  0.81052776187E+01 -0.63906481557E+01  0.66751031274E+01  0.12292439747E+02  0.10566000000E+00 0.  1.
         22    1    1    0    0    0  0.29904565711E+02 -0.46855858244E+01  0.40856208656E+02  0.50847493061E+02  0.00000000000E+00 0. -1.
</event>
<event>
 4    1  0.9897231E-003  0.9118800E+02  0.7818608E-02  0.1130116E+00
         25   -1    0    0    0    0  0.00000000000E+00  0.00000000000E+00  0.99999998245E-14  0.12500000000E+03  0.12500000000E+03 0.  0.
        -13    1    1    0    0    0 -0.92642130217E+01  0.34375055364E+00  0.19137877047E+01  0.94666548880E+01  0.10566000000E+00 0. -1.
         13    1    1    0    0    0 -0.50996763608E+02 -0.78687898013E+01  0.12552261534E+02  0.53105161568E+02  0.10566000000E+00 0.  1.
         22    1    1    0    0    0  0.60260976630E+02  0.75250392476E+01 -0.14466049239E+02  0.62428183544E+02  0.00000000000E+00 0.  1.
</event>
<event>
 4    1  0.9897231E-003  0.9118800E+02  0.7818608E-02  0.1130116E+00
         25   -1    0    0    0    0  0.00000000000E+00  0.00000000000E+00  0.99999998245E-14  0.12500000000E+03  0.12500000000E+03 0.  0.
        -13    1    1    0    0    0  0.86078644611E+01 -0.22014388091E+02 -0.27524941631E+02  0.36281705989E+02  0.10566000000E+00 0.  1.
         13    1    1    0    0    0  0.58582643807E+01 -0.17033107117E+02 -0.19067079327E+02  0.26229957638E+02  0.10566000000E+00 0. -1.
         22    1    1    0    0    0 -0.14466128842E+02  0.39047495208E+02  0.46592020958E+02  0.62488336373E+02  0.00000000000E+00 0.  1.
</event>
<event>
 4    1  0.9897231E-003  0.9118800E+02  0.7818608E-02  0.1130116E+00
         25   -1    0    0    0    0  0.00000000000E+00  0.00000000000E+00  0.99999998245E-14  0.12500000000E+03  0.12500000000E+03 0.  0.
        -13    1    1    0    0    0  0.73377010778E+01  0.24606955600E+02 -0.15799223720E+02  0.30149141865E+02  0.10566000000E+00 0. -1.
         13    1    1    0    0    0  0.81651991282E+01  0.27419088651E+02 -0.15138202642E+02  0.32367471982E+02  0.10566000000E+00 0.  1.
         22    1    1    0    0    0 -0.15502900206E+02 -0.52026044251E+02  0.30937426362E+02  0.62483386153E+02  0.00000000000E+00 0.  1.
</event>
<event>
 4    1  0.9897231E-003  0.9118800E+02  0.7818608E-02  0.1130116E+00
         25   -1    0    0    0    0  0.00000000000E+00  0.00000000000E+00  0.99999998245E-14  0.12500000000E+03  0.12500000000E+03 0.  0.
        -13    1    1    0    0    0  0.25007009067E+01  0.47955836245E+01  0.86472675554E+01  0.10199878800E+02  0.10566000000E+00 0. -1.
         13    1    1    0    0    0  0.14453627204E+02  0.23713670906E+02  0.44321100385E+02  0.52303122570E+02  0.10566000000E+00 0.  1.
         22    1    1    0    0    0 -0.16954328111E+02 -0.28509254530E+02 -0.52968367940E+02  0.62496998630E+02  0.00000000000E+00 0.  1.
</event>
<event>
 4    1  0.9897231E-003  0.9118800E+02  0.7818608E-02  0.1130116E+00
         25   -1    0    0    0    0  0.00000000000E+00  0.00000000000E+00  0.99999998245E-14  0.12500000000E+03  0.12500000000E+03 0.  0.
        -13    1    1    0    0    0 -0.35717285714E+01  0.23303031591E+01  0.67431583676E+01  0.79792798301E+01  0.10566000000E+00 0.  1.
         13    1    1    0    0    0 -0.20699978639E+02  0.11983042078E+02  0.49019178774E+02  0.54543317325E+02  0.10566000000E+00 0. -1.
         22    1    1    0    0    0  0.24271707210E+02 -0.14313345237E+02 -0.55762337142E+02  0.62477402845E+02  0.00000000000E+00 0. -1.
</event>
<event>
 4    1  0.9897231E-003  0.9118800E+02  0.7818608E-02  0.1130116E+00
         25   -1    0    0    0    0  0.00000000000E+00  0.00000000000E+00  0.99999998245E-14  0.12500000000E+03  0.12500000000E+03 0.  0.
        -13    1    1    0    0    0 -0.48561104408E+01  0.23028137278E+02 -0.24387618046E+01  0.23660846102E+02  0.10566000000E+00 0. -1.
         13    1    1    0    0    0 -0.75924042795E+01  0.37633921049E+02 -0.59387246850E+01  0.38848889703E+02  0.10566000000E+00 0.  1.
         22    1    1    0    0    0  0.12448514720E+02 -0.60662058327E+02  0.83774864896E+01  0.62490264194E+02  0.00000000000E+00 0.  1.
</event>
<event>
 4    1  0.9897231E-003  0.9118800E+02  0.7818608E-02  0.1130116E+00
         25   -1    0    0    0    0  0.00000000000E+00  0.00000000000E+00  0.99999998245E-14  0.12500000000E+03  0.12500000000E+03 0.  0.
        -13    1    1    0    0    0  0.40693030337E+01  0.32399945933E+02 -0.23929318151E+02  0.40483813492E+02  0.10566000000E+00 0. -1.
         13    1    1    0    0    0  0.19383436969E+01  0.17914073028E+02 -0.12654364216E+02  0.22018521441E+02  0.10566000000E+00 0.  1.
         22    1    1    0    0    0 -0.60076467305E+01 -0.50314018961E+02  0.36583682367E+02  0.62497665066E+02  0.00000000000E+00 0. -1.
</event>
<event>
 4    1  0.9897231E-003  0.9118800E+02  0.7818608E-02  0.1130116E+00
         25   -1    0    0    0    0  0.00000000000E+00  0.00000000000E+00  0.99999998245E-14  0.12500000000E+03  0.12500000000E+03 0.  0.
        -13    1    1    0    0    0  0.98663248974E-01  0.24505420790E+01 -0.40600813075E+02  0.40674956390E+02  0.10566000000E+00 0. -1.
         13    1    1    0    0    0 -0.27892558968E+01  0.24935598181E+01 -0.21573844614E+02  0.21896112086E+02  0.10566000000E+00 0.  1.
         22    1    1    0    0    0  0.26905926478E+01 -0.49441018971E+01  0.62174657690E+02  0.62428931524E+02  0.00000000000E+00 0. -1.
</event>
<event>
 4    1  0.9897231E-003  0.9118800E+02  0.7818608E-02  0.1130116E+00
         25   -1    0    0    0    0  0.00000000000E+00  0.00000000000E+00  0.99999998245E-14  0.12500000000E+03  0.12500000000E+03 0.  0.
        -13    1    1    0    0    0 -0.12265744677E+02 -0.10123600368E+02  0.32432391848E+01  0.16231621649E+02  0.10566000000E+00 0. -1.
         13    1    1    0    0    0 -0.12564431870E+02 -0.43441867952E+02  0.13862812574E+02  0.47299572682E+02  0.10566000000E+00 0.  1.
         22    1    1    0    0    0  0.24830176547E+02  0.53565468320E+02 -0.17106051759E+02  0.61468805670E+02  0.00000000000E+00 0.  1.
</event>
<event>
 4    1  0.9897231E-003  0.9118800E+02  0.7818608E-02  0.1130116E+00
         25   -1    0    0    0    0  0.00000000000E+00  0.00000000000E+00  0.99999998245E-14  0.12500000000E+03  0.12500000000E+03 0.  0.
        -13    1    1    0    0    0 -0.20976131770E+02 -0.18321179514E+00  0.90593557003E+01  0.22849830641E+02  0.10566000000E+00 0. -1.
         13    1    1    0    0    0  0.22057567729E+02 -0.38790431550E+02 -0.33795560603E+02  0.55976646510E+02  0.10566000000E+00 0.  1.
         22    1    1    0    0    0 -0.10814359595E+01  0.38973643345E+02  0.24736204902E+02  0.46173522849E+02  0.00000000000E+00 0.  1.
</event>
<event>
 4    1  0.9897231E-003  0.9118800E+02  0.7818608E-02  0.1130116E+00
         25   -1    0    0    0    0  0.00000000000E+00  0.00000000000E+00  0.99999998245E-14  0.12500000000E+03  0.12500000000E+03 0.  0.
        -13    1    1    0    0    0 -0.94123585181E+01 -0.55025632299E+01 -0.75021016546E-01  0.10903553878E+02  0.10566000000E+00 0.  1.
         13    1    1    0    0    0 -0.28358657480E+02 -0.23850869894E+02 -0.37911174453E+02  0.53012694340E+02  0.10566000000E+00 0. -1.
         22    1    1    0    0    0  0.37771015998E+02  0.29353433124E+02  0.37986195469E+02  0.61083751783E+02  0.00000000000E+00 0. -1.
</event>
<event>
 4    1  0.9897231E-003  0.9118800E+02  0.7818608E-02  0.1130116E+00
         25   -1    0    0    0    0  0.00000000000E+00  0.00000000000E+00  0.99999998245E-14  0.12500000000E+03  0.12500000000E+03 0.  0.
        -13    1    1    0    0    0 -0.28222600461E+02  0.89506592550E+01 -0.95124568158E+01  0.31098673229E+02  0.10566000000E+00 0. -1.
         13    1    1    0    0    0 -0.28380833809E+02  0.92965650646E+01 -0.97040198445E+01  0.31401863239E+02  0.10566000000E+00 0. -1.
         22    1    1    0    0    0  0.56603434270E+02 -0.18247224320E+02  0.19216476660E+02  0.62499463532E+02  0.00000000000E+00 0. -1.
</event>
<event>
 4    1  0.9897231E-003  0.9118800E+02  0.7818608E-02  0.1130116E+00
         25   -1    0    0    0    0  0.00000000000E+00  0.00000000000E+00  0.99999998245E-14  0.12500000000E+03  0.12500000000E+03 0.  0.
        -13    1    1    0    0    0  0.15393845659E+02  0.14691188962E+02  0.54315401709E+02  0.58335028449E+02  0.10566000000E+00 0. -1.
         13    1    1    0    0    0 -0.11202952090E+02  0.55723485623E+01 -0.55448031877E+01  0.13686241648E+02  0.10566000000E+00 0.  1.
         22    1    1    0    0    0 -0.41908935693E+01 -0.20263537524E+02 -0.48770598522E+02  0.52978729902E+02  0.00000000000E+00 0. -1.
</event>
<event>
 4    1  0.9897231E-003  0.9118800E+02  0.7818608E-02  0.1130116E+00
         25   -1    0    0    0    0  0.00000000000E+00  0.00000000000E+00  0.99999998245E-14  0.12500000000E+03  0.12500000000E+03 0.  0.
        -13    1    1    0    0    0  0.11379244004E+02 -0.20132144531E+01 -0.57440174529E+00  0.11570709915E+02  0.10566000000E+00 0.  1.
         13    1    1    0    0    0  0.49971375941E+02 -0.98190176650E+01 -0.79094265341E+00  0.50933174608E+02  0.10566000000E+00 0. -1.
         22    1    1    0    0    0 -0.61350619944E+02  0.11832232118E+02  0.13653443987E+01  0.62496115478E+02  0.00000000000E+00 0. -1.
</event>
<event>
 4    1  0.9897231E-003  0.9118800E+02  0.7818608E-02  0.1130116E+00
         25   -1    0    0    0    0  0.00000000000E+00  0.00000000000E+00  0.99999998245E-14  0.12500000000E+03  0.12500000000E+03 0.  0.
        -13    1    1    0    0    0 -0.13491446458E+02 -0.10370788307E+02  0.16284600158E+02  0.23553593016E+02  0.10566000000E+00 0. -1.
         13    1    1    0    0    0 -0.22476071055E+02 -0.18544226061E+02  0.25852547071E+02  0.38954171078E+02  0.10566000000E+00 0.  1.
         22    1    1    0    0    0  0.35967517512E+02  0.28915014368E+02 -0.42137147229E+02  0.62492235906E+02  0.00000000000E+00 0.  1.
</event>
<event>
 4    1  0.9897231E-003  0.9118800E+02  0.7818608E-02  0.1130116E+00
         25   -1    0    0    0    0  0.00000000000E+00  0.00000000000E+00  0.99999998245E-14  0.12500000000E+03  0.12500000000E+03 0.  0.
        -13    1    1    0    0    0  0.20523451308E+02  0.23744497961E+02  0.48824797445E+02  0.58042098916E+02  0.10566000000E+00 0. -1.
         13    1    1    0    0    0  0.16146770999E+01  0.17752569090E+01  0.37564348101E+01  0.44587762613E+01  0.10566000000E+00 0. -1.
         22    1    1    0    0    0 -0.22138128408E+02 -0.25519754870E+02 -0.52581232256E+02  0.62499124822E+02  0.00000000000E+00 0. -1.
</event>
<event>
 4    1  0.9897231E-003  0.9118800E+02  0.7818608E-02  0.1130116E+00
         25   -1    0    0    0    0  0.00000000000E+00  0.00000000000E+00  0.99999998245E-14  0.12500000000E+03  0.12500000000E+03 0.  0.
        -13    1    1    0    0    0 -0.82501766486E+01 -0.14338801810E+02 -0.26252238796E+02  0.31029950981E+02  0.10566000000E+00 0.  1.
         13    1    1    0    0    0  0.11161993021E+02 -0.82152848227E+01 -0.30135136022E+02  0.33169542958E+02  0.10566000000E+00 0. -1.
         22    1    1    0    0    0 -0.29118163721E+01  0.22554086632E+02  0.56387374818E+02  0.60800506061E+02  0.00000000000E+00 0. -1.
</event>
<event>
 4    1  0.9897231E-003  0.9118800E+02  0.7818608E-02  0.1130116E+00
         25   -1    0    0    0    0  0.00000000000E+00  0.00000000000E+00  0.99999998245E-14  0.12500000000E+03  0.12500000000E+03 0.  0.
        -13    1    1    0    0    0  0.20065112006E+01 -0.51069355593E+02 -0.19685311702E+02  0.54768858202E+02  0.10566000000E+00 0. -1.
         13    1    1    0    0    0 -0.11436270018E+01 -0.77597815290E+01 -0.90597120030E+00  0.78964574303E+01  0.10566000000E+00 0.  1.
         22    1    1    0    0    0 -0.86288419880E+00  0.58829137122E+02  0.20591282903E+02  0.62334684368E+02  0.00000000000E+00 0. -1.
</event>
<event>
 4    1  0.9897231E-003  0.9118800E+02  0.7818608E-02  0.1130116E+00
         25   -1    0    0    0    0  0.00000000000E+00  0.00000000000E+00  0.99999998245E-14  0.12500000000E+03  0.12500000000E+03 0.  0.
        -13    1    1    0    0    0 -0.29990656101E+02 -0.44735372962E+01 -0.36754708962E+02  0.47648418486E+02  0.10566000000E+00 0. -1.
         13    1    1    0    0    0 -0.59828037912E+01  0.11014073620E+02 -0.11362918451E+02  0.16918358037E+02  0.10566000000E+00 0.  1.
         22    1    1    0    0    0  0.35973459892E+02 -0.65405363240E+01  0.48117627412E+02  0.60433223477E+02  0.00000000000E+00 0. -1.
</event>
<event>
 4    1  0.9897231E-003  0.9118800E+02  0.7818608E-02  0.1130116E+00
         25   -1    0    0    0    0  0.00000000000E+00  0.00000000000E+00  0.99999998245E-14  0.12500000000E+03  0.12500000000E+03 0.  0.
        -13    1    1    0    0    0 -0.44882850211E+00  0.69688998738E+00  0.65644413735E+00  0.10626314601E+01  0.10566000000E+00 0. -1.
         13    1    1    0    0    0 -0.44902853829E+02  0.23338284608E+02  0.34921385155E+02  0.61485413845E+02  0.10566000000E+00 0.  1.
         22    1    1    0    0    0  0.45351682331E+02 -0.24035174595E+02 -0.35577829292E+02  0.62451954695E+02  0.00000000000E+00 0.  1.
</event>
<event>
 4    1  0.9897231E-003  0.9118800E+02  0.7818608E-02  0.1130116E+00
         25   -1    0    0    0    0  0.00000000000E+00  0.00000000000E+00  0.99999998245E-14  0.12500000000E+03  0.12500000000E+03 0.  0.
        -13    1    1    0    0    0  0.19511818092E+02  0.79724045939E+01 -0.23385650509E+02  0.31482853969E+02  0.10566000000E+00 0. -1.
         13    1    1    0    0    0  0.19033949020E+02  0.77080046749E+01 -0.23246158197E+02  0.31017730193E+02  0.10566000000E+00 0.  1.
         22    1    1    0    0    0 -0.38545767112E+02 -0.15680409269E+02  0.46631808705E+02  0.62499415839E+02  0.00000000000E+00 0.  1.
</event>
<event>
 4    1  0.9897231E-003  0.9118800E+02  0.7818608E-02  0.1130116E+00
         25   -1    0    0    0    0  0.00000000000E+00  0.00000000000E+00  0.99999998245E-14  0.12500000000E+03  0.12500000000E+03 0.  0.
        -13    1    1    0    0    0  0.11447108697E+02 -0.44159541313E+02 -0.41842005266E+02  0.61902067455E+02  0.10566000000E+00 0.  1.
         13    1    1    0    0    0  0.31029035385E+00 -0.49019091087E+00 -0.22988302333E+00  0.63291189972E+00  0.10566000000E+00 0. -1.
         22    1    1    0    0    0 -0.11757399050E+02  0.44649732223E+02  0.42071888289E+02  0.62465020646E+02  0.00000000000E+00 0.  1.
</event>
<event>
 4    1  0.9897231E-003  0.9118800E+02  0.7818608E-02  0.1130116E+00
         25   -1    0    0    0    0  0.00000000000E+00  0.00000000000E+00  0.99999998245E-14  0.12500000000E+03  0.12500000000E+03 0.  0.
        -13    1    1    0    0    0  0.13321418655E+02 -0.50939757518E+02  0.29777429276E+02  0.60489879727E+02  0.10566000000E+00 0. -1.
         13    1    1    0    0    0 -0.66181251652E+01  0.89955526562E+01 -0.16654868446E+02  0.20052814148E+02  0.10566000000E+00 0.  1.
         22    1    1    0    0    0 -0.67032934898E+01  0.41944204862E+02 -0.13122560831E+02  0.44457306125E+02  0.00000000000E+00 0. -1.
</event>
<event>
 4    1  0.9897231E-003  0.9118800E+02  0.7818608E-02  0.1130116E+00
         25   -1    0    0    0    0  0.00000000000E+00  0.00000000000E+00  0.99999998245E-14  0.12500000000E+03  0.12500000000E+03 0.  0.
        -13    1    1    0    0    0  0.54068801807E+02  0.13013660955E+02 -0.32080956097E+01  0.55705419322E+02  0.10566000000E+00 0.  1.
         13    1    1    0    0    0  0.65834268603E+01  0.16399408560E+01 -0.36352098658E+00  0.67951620127E+01  0.10566000000E+00 0.  1.
         22    1    1    0    0    0 -0.60652228668E+02 -0.14653601811E+02  0.35716165963E+01  0.62499418665E+02  0.00000000000E+00 0.  1.
</event>
<event>
 4    1  0.9897231E-003  0.9118800E+02  0.7818608E-02  0.1130116E+00
         25   -1    0    0    0    0  0.00000000000E+00  0.00000000000E+00  0.99999998245E-14  0.12500000000E+03  0.12500000000E+03 0.  0.
        -13    1    1    0    0    0 -0.14338387846E+02 -0.73975356475E+01  0.30052179541E+02  0.34109493676E+02  0.10566000000E+00 0.  1.
         13    1    1    0    0    0 -0.11088158512E+02 -0.51885736097E+01  0.25626262277E+02  0.28400440800E+02  0.10566000000E+00 0. -1.
         22    1    1    0    0    0  0.25426546358E+02  0.12586109257E+02 -0.55678441818E+02  0.62490065524E+02  0.00000000000E+00 0.  1.
</event>
<event>
 4    1  0.9897231E-003  0.9118800E+02  0.7818608E-02  0.1130116E+00
         25   -1    0    0    0    0  0.00000000000E+00  0.00000000000E+00  0.99999998245E-14  0.12500000000E+03  0.12500000000E+03 0.  0.
        -13    1    1    0    0    0 -0.18398987321E+02  0.36686901383E+02  0.44849666044E+02  0.60794367962E+02  0.10566000000E+00 0.  1.
         13    1    1    0    0    0  0.85496513383E+00  0.25556204369E+01 -0.12279480202E+01  0.29633058521E+01  0.10566000000E+00 0. -1.
         22    1    1    0    0    0  0.17544022188E+02 -0.39242521820E+02 -0.43621718024E+02  0.61242326186E+02  0.00000000000E+00 0.  1.
</event>
<event>
 4    1  0.9897231E-003  0.9118800E+02  0.7818608E-02  0.1130116E+00
         25   -1    0    0    0    0  0.00000000000E+00  0.00000000000E+00  0.99999998245E-14  0.12500000000E+03  0.12500000000E+03 0.  0.
        -13    1    1    0    0    0 -0.35568914620E+02  0.43947813263E+02  0.18128970020E+02  0.59373636370E+02  0.10566000000E+00 0.  1.
         13    1    1    0    0    0 -0.14995570452E+01  0.26201380480E+01  0.87682678352E+00  0.31454385968E+01  0.10566000000E+00 0. -1.
         22    1    1    0    0    0  0.37068471665E+02 -0.46567951311E+02 -0.19005796803E+02  0.62480925033E+02  0.00000000000E+00 0.  1.
</event>
<event>
 4    1  0.9897231E-003  0.9118800E+02  0.7818608E-02  0.1130116E+00
         25   -1    0    0    0    0  0.00000000000E+00  0.00000000000E+00  0.99999998245E-14  0.12500000000E+03  0.12500000000E+03 0.  0.
        -13    1    1    0    0    0 -0.38733888278E+02  0.14897766395E+02 -0.21214045293E+02  0.46607986724E+02  0.10566000000E+00 0.  1.
         13    1    1    0    0    0 -0.12900919345E+02  0.51317370565E+01 -0.77405329445E+01  0.15896397688E+02  0.10566000000E+00 0. -1.
         22    1    1    0    0    0  0.51634807623E+02 -0.20029503452E+02  0.28954578238E+02  0.62495615588E+02  0.00000000000E+00 0. -1.
</event>
<event>
 4    1  0.9897231E-003  0.9118800E+02  0.7818608E-02  0.1130116E+00
         25   -1    0    0    0    0  0.00000000000E+00  0.00000000000E+00  0.99999998245E-14  0.12500000000E+03  0.12500000000E+03 0.  0.
        -13    1    1    0    0    0  0.53528621594E+02  0.93374372994E+01 -0.15585483832E+02  0.56528042027E+02  0.10566000000E+00 0.  1.
         13    1    1    0    0    0  0.48061584256E+01 -0.19742685811E+01 -0.39350452142E+01  0.65186379034E+01  0.10566000000E+00 0. -1.
         22    1    1    0    0    0 -0.58334780019E+02 -0.73631687183E+01  0.19520529046E+02  0.61953320070E+02  0.00000000000E+00 0.  1.
</event>
<event>
 4    1  0.9897231E-003  0.9118800E+02  0.7818608E-02  0.1130116E+00
         25   -1    0    0    0    0  0.00000000000E+00  0.00000000000E+00  0.99999998245E-14  0.12500000000E+03  0.12500000000E+03 0.  0.
        -13    1    1    0    0    0 -0.15085104748E+02  0.75888145201E+01 -0.10373326079E+02  0.19818363935E+02  0.10566000000E+00 0.  1.
         13    1    1    0    0    0  0.36539485195E+02 -0.46052027303E+02 -0.38140573298E+01  0.58910791833E+02  0.10566000000E+00 0. -1.
         22    1    1    0    0    0 -0.21454380448E+02  0.38463212783E+02  0.14187383409E+02  0.46270844232E+02  0.00000000000E+00 0. -1.
</event>
<event>
 4    1  0.9897231E-003  0.9118800E+02  0.7818608E-02  0.1130116E+00
         25   -1    0    0    0    0  0.00000000000E+00  0.00000000000E+00  0.99999998245E-14  0.12500000000E+03  0.12500000000E+03 0.  0.
        -13    1    1    0    0    0 -0.35953221785E+02  0.14140205599E+01  0.29625516266E+00  0.35982392111E+02  0.10566000000E+00 0. -1.
         13    1    1    0    0    0 -0.25971856881E+02  0.44153493835E+01  0.41077706953E+01  0.26663038165E+02  0.10566000000E+00 0.  1.
         22    1    1    0    0    0  0.61925078666E+02 -0.58293699434E+01 -0.44040258580E+01  0.62354569725E+02  0.00000000000E+00 0. -1.
</event>
<event>
 4    1  0.9897231E-003  0.9118800E+02  0.7818608E-02  0.1130116E+00
         25   -1    0    0    0    0  0.00000000000E+00  0.00000000000E+00  0.99999998245E-14  0.12500000000E+03  0.12500000000E+03 0.  0.
        -13    1    1    0    0    0 -0.13678185480E+02  0.12666298183E+02 -0.53752925616E+02  0.56893901642E+02  0.10566000000E+00 0. -1.
         13    1    1    0    0    0 -0.16007075857E+01  0.12849065943E+00 -0.54271127696E+01  0.56606971014E+01  0.10566000000E+00 0.  1.
         22    1    1    0    0    0  0.15278893065E+02 -0.12794788842E+02  0.59180038386E+02  0.62445401257E+02  0.00000000000E+00 0. -1.
</event>
<event>
 4    1  0.9897231E-003  0.9118800E+02  0.7818608E-02  0.1130116E+00
         25   -1    0    0    0    0  0.00000000000E+00  0.00000000000E+00  0.99999998245E-14  0.12500000000E+03  0.12500000000E+03 0.  0.
        -13    1    1    0    0    0 -0.10351823595E+02  0.69865803275E+01  0.16460049420E+02  0.20661968622E+02  0.10566000000E+00 0.  1.
         13    1    1    0    0    0 -0.20260939262E+02  0.16752525406E+02  0.32566447850E+02  0.41853762756E+02  0.10566000000E+00 0. -1.
         22    1    1    0    0    0  0.30612762856E+02 -0.23739105733E+02 -0.49026497269E+02  0.62484268622E+02  0.00000000000E+00 0. -1.
</event>
<event>
 4    1  0.9897231E-003  0.9118800E+02  0.7818608E-02  0.1130116E+00
         25   -1    0    0    0    0  0.00000000000E+00  0.00000000000E+00  0.99999998245E-14  0.12500000000E+03  0.12500000000E+03 0.  0.
        -13    1    1    0    0    0  0.25060012918E+02 -0.41788174246E+02 -0.34456705024E+02  0.59678567672E+02  0.10566000000E+00 0.  1.
         13    1    1    0    0    0  0.12636013306E+01 -0.19774177704E+01 -0.15662516495E+01  0.28233274033E+01  0.10566000000E+00 0.  1.
         22    1    1    0    0    0 -0.26323614249E+02  0.43765592016E+02  0.36022956673E+02  0.62498104924E+02  0.00000000000E+00 0.  1.
</event>
<event>
 4    1  0.9897231E-003  0.9118800E+02  0.7818608E-02  0.1130116E+00
         25   -1    0    0    0    0  0.00000000000E+00  0.00000000000E+00  0.99999998245E-14  0.12500000000E+03  0.12500000000E+03 0.  0.
        -13    1    1    0    0    0  0.38229702595E+02 -0.13736618364E+02 -0.27072765750E+02  0.48817524046E+02  0.10566000000E+00 0.  1.
         13    1    1    0    0    0  0.10708280165E+02 -0.33873591805E+01 -0.78210961809E+01  0.13686569176E+02  0.10566000000E+00 0. -1.
         22    1    1    0    0    0 -0.48937982760E+02  0.17123977544E+02  0.34893861931E+02  0.62495906778E+02  0.00000000000E+00 0. -1.
</event>
<event>
 4    1  0.9897231E-003  0.9118800E+02  0.7818608E-02  0.1130116E+00
         25   -1    0    0    0    0  0.00000000000E+00  0.00000000000E+00  0.99999998245E-14  0.12500000000E+03  0.12500000000E+03 0.  0.
        -13    1    1    0    0    0 -0.17759500039E+02 -0.22211718124E+02  0.41670391865E+02  0.50449905707E+02  0.10566000000E+00 0. -1.
         13    1    1    0    0    0 -0.76898510972E+01  0.15135998959E+01  0.10391048070E+02  0.13015753477E+02  0.10566000000E+00 0.  1.
         22    1    1    0    0    0  0.25449351136E+02  0.20698118228E+02 -0.52061439935E+02  0.61534340815E+02  0.00000000000E+00 0. -1.
</event>
<event>
 4    1  0.9897231E-003  0.9118800E+02  0.7818608E-02  0.1130116E+00
         25   -1    0    0    0    0  0.00000000000E+00  0.00000000000E+00  0.99999998245E-14  0.12500000000E+03  0.12500000000E+03 0.  0.
        -13    1    1    0    0    0  0.11280495805E+01 -0.59861694661E+01  0.23140648512E+01  0.65171144615E+01  0.10566000000E+00 0. -1.
         13    1    1    0    0    0  0.96418306342E+01 -0.48104736481E+02  0.27024668906E+02  0.56012270650E+02  0.10566000000E+00 0.  1.
         22    1    1    0    0    0 -0.10769880215E+02  0.54090905947E+02 -0.29338733757E+02  0.62470614888E+02  0.00000000000E+00 0.  1.
</event>
<event>
 4    1  0.9897231E-003  0.9118800E+02  0.7818608E-02  0.1130116E+00
         25   -1    0    0    0    0  0.00000000000E+00  0.00000000000E+00  0.99999998245E-14  0.12500000000E+03  0.12500000000E+03 0.  0.
        -13    1    1    0    0    0 -0.91014339565E+01 -0.82420801078E+01  0.31000415170E+02  0.33343738382E+02  0.10566000000E+00 0. -1.
         13    1    1    0    0    0 -0.78832394047E+01 -0.65146238892E+01  0.27306429202E+02  0.29158841330E+02  0.10566000000E+00 0.  1.
         22    1    1    0    0    0  0.16984673361E+02  0.14756703997E+02 -0.58306844372E+02  0.62497420288E+02  0.00000000000E+00 0. -1.
</event>
<event>
 4    1  0.9897231E-003  0.9118800E+02  0.7818608E-02  0.1130116E+00
         25   -1    0    0    0    0  0.00000000000E+00  0.00000000000E+00  0.99999998245E-14  0.12500000000E+03  0.12500000000E+03 0.  0.
        -13    1    1    0    0    0  0.28008190086E+01  0.41782481837E+02  0.20019271213E+02  0.46415544374E+02  0.10566000000E+00 0. -1.
         13    1    1    0    0    0  0.12239604897E+01  0.14195157376E+02  0.74743804843E+01  0.16089689241E+02  0.10566000000E+00 0.  1.
         22    1    1    0    0    0 -0.40247794983E+01 -0.55977639213E+02 -0.27493651697E+02  0.62494766385E+02  0.00000000000E+00 0. -1.
</event>
<event>
 4    1  0.9897231E-003  0.9118800E+02  0.7818608E-02  0.1130116E+00
         25   -1    0    0    0    0  0.00000000000E+00  0.00000000000E+00  0.99999998245E-14  0.12500000000E+03  0.12500000000E+03 0.  0.
        -13    1    1    0    0    0  0.75867921265E+01 -0.89054911887E+01  0.50505279145E+02  0.51842661714E+02  0.10566000000E+00 0. -1.
         13    1    1    0    0    0  0.25504225813E+01 -0.16852255056E+01  0.10230130284E+02  0.10677610689E+02  0.10566000000E+00 0.  1.
         22    1    1    0    0    0 -0.10137214708E+02  0.10590716694E+02 -0.60735409429E+02  0.62479727597E+02  0.00000000000E+00 0. -1.
</event>
<event>
 4    1  0.9897231E-003  0.9118800E+02  0.7818608E-02  0.1130116E+00
         25   -1    0    0    0    0  0.00000000000E+00  0.00000000000E+00  0.99999998245E-14  0.12500000000E+03  0.12500000000E+03 0.  0.
        -13    1    1    0    0    0 -0.16794463779E+00 -0.11635473691E+02  0.39319248679E+02  0.41005206183E+02  0.10566000000E+00 0.  1.
         13    1    1    0    0    0 -0.12388007088E+02  0.24454494994E+01  0.19456108124E+02  0.23194703064E+02  0.10566000000E+00 0. -1.
         22    1    1    0    0    0  0.12555951726E+02  0.91900241912E+01 -0.58775356802E+02  0.60800090753E+02  0.00000000000E+00 0.  1.
</event>
<event>
 4    1  0.9897231E-003  0.9118800E+02  0.7818608E-02  0.1130116E+00
         25   -1    0    0    0    0  0.00000000000E+00  0.00000000000E+00  0.99999998245E-14  0.12500000000E+03  0.12500000000E+03 0.  0.
        -13    1    1    0    0    0 -0.57194641963E+02 -0.37518877027E+01 -0.18490089367E+02  0.60226226011E+02  0.10566000000E+00 0. -1.
         13    1    1    0    0    0 -0.16486848730E+01 -0.17597270215E+01 -0.89595806552E+00  0.25746273306E+01  0.10566000000E+00 0.  1.
         22    1    1    0    0    0  0.58843326836E+02  0.55116147242E+01  0.19386047433E+02  0.62199146659E+02  0.00000000000E+00 0. -1.
</event>
<event>
 4    1  0.9897231E-003  0.9118800E+02  0.7818608E-02  0.1130116E+00
         25   -1    0    0    0    0  0.00000000000E+00  0.00000000000E+00  0.99999998245E-14  0.12500000000E+03  0.12500000000E+03 0.  0.
        -13    1    1    0    0    0  0.14366210397E+02  0.34072711360E+02 -0.31703096302E+01  0.37113335713E+02  0.10566000000E+00 0. -1.
         13    1    1    0    0    0  0.99757800793E+01  0.23250063397E+02 -0.20995882857E+01  0.25387025646E+02  0.10566000000E+00 0.  1.
         22    1    1    0    0    0 -0.24341990476E+02 -0.57322774757E+02  0.52698979159E+01  0.62499638641E+02  0.00000000000E+00 0. -1.
</event>
<event>
 4    1  0.9897231E-003  0.9118800E+02  0.7818608E-02  0.1130116E+00
         25   -1    0    0    0    0  0.00000000000E+00  0.00000000000E+00  0.99999998245E-14  0.12500000000E+03  0.12500000000E+03 0.  0.
        -13    1    1    0    0    0  0.22795673066E+02 -0.12488826454E+01  0.88347339308E+01  0.24479912297E+02  0.10566000000E+00 0. -1.
         13    1    1    0    0    0  0.35323716899E+02 -0.19795953558E+01  0.13923216120E+02  0.38020400899E+02  0.10566000000E+00 0. -1.
         22    1    1    0    0    0 -0.58119389965E+02  0.32284780012E+01 -0.22757950051E+02  0.62499686804E+02  0.00000000000E+00 0. -1.
</event>
<event>
 4    1  0.9897231E-003  0.9118800E+02  0.7818608E-02  0.1130116E+00
         25   -1    0    0    0    0  0.00000000000E+00  0.00000000000E+00  0.99999998245E-14  0.12500000000E+03  0.12500000000E+03 0.  0.
        -13    1    1    0    0    0 -0.82706756438E+01 -0.73043476409E+01 -0.10980547021E+02  0.15567310203E+02  0.10566000000E+00 0.  1.
         13    1    1    0    0    0 -0.22032730958E+02 -0.21996368636E+02 -0.35142187879E+02  0.46949611282E+02  0.10566000000E+00 0. -1.
         22    1    1    0    0    0  0.30303406602E+02  0.29300716276E+02  0.46122734899E+02  0.62483078514E+02  0.00000000000E+00 0. -1.
</event>
<event>
 4    1  0.9897231E-003  0.9118800E+02  0.7818608E-02  0.1130116E+00
         25   -1    0    0    0    0  0.00000000000E+00  0.00000000000E+00  0.99999998245E-14  0.12500000000E+03  0.12500000000E+03 0.  0.
        -13    1    1    0    0    0 -0.28861702775E+02  0.39027955526E+02  0.29936370031E+01  0.48632830744E+02  0.10566000000E+00 0.  1.
         13    1    1    0    0    0 -0.37181793114E+01  0.13754393298E+02 -0.14270964841E+01  0.14319775166E+02  0.10566000000E+00 0. -1.
         22    1    1    0    0    0  0.32579882086E+02 -0.52782348824E+02 -0.15665405190E+01  0.62047394090E+02  0.00000000000E+00 0. -1.
</event>
<event>
 4    1  0.9897231E-003  0.9118800E+02  0.7818608E-02  0.1130116E+00
         25   -1    0    0    0    0  0.00000000000E+00  0.00000000000E+00  0.99999998245E-14  0.12500000000E+03  0.12500000000E+03 0.  0.
        -13    1    1    0    0    0 -0.10157143720E+02  0.22858292805E+02  0.16608064154E+02  0.30025124104E+02  0.10566000000E+00 0. -1.
         13    1    1    0    0    0 -0.85073866636E+01  0.19760873616E+02  0.24700277101E+02  0.32756413217E+02  0.10566000000E+00 0.  1.
         22    1    1    0    0    0  0.18664530383E+02 -0.42619166421E+02 -0.41308341255E+02  0.62218462679E+02  0.00000000000E+00 0.  1.
</event>
<event>
 4    1  0.9897231E-003  0.9118800E+02  0.7818608E-02  0.1130116E+00
         25   -1    0    0    0    0  0.00000000000E+00  0.00000000000E+00  0.99999998245E-14  0.12500000000E+03  0.12500000000E+03 0.  0.
        -13    1    1    0    0    0  0.69080944768E+00  0.72497710980E+01  0.61866864617E+00  0.73096042024E+01  0.10566000000E+00 0. -1.
         13    1    1    0    0    0  0.51396445566E+01  0.54859684089E+02  0.31852451292E+01  0.55192008798E+02  0.10566000000E+00 0.  1.
         22    1    1    0    0    0 -0.58304540042E+01 -0.62109455187E+02 -0.38039137754E+01  0.62498387000E+02  0.00000000000E+00 0.  1.
</event>
<event>
 4    1  0.9897231E-003  0.9118800E+02  0.7818608E-02  0.1130116E+00
         25   -1    0    0    0    0  0.00000000000E+00  0.00000000000E+00  0.99999998245E-14  0.12500000000E+03  0.12500000000E+03 0.  0.
        -13    1    1    0    0    0  0.11083122863E+02 -0.34363270845E+02 -0.37169530875E+02  0.51819447942E+02  0.10566000000E+00 0.  1.
         13    1    1    0    0    0  0.24385327852E+01 -0.69577400095E+01 -0.77286084071E+01  0.10681719905E+02  0.10566000000E+00 0. -1.
         22    1    1    0    0    0 -0.13521655648E+02  0.41321010854E+02  0.44898139282E+02  0.62498832153E+02  0.00000000000E+00 0.  1.
</event>
<event>
 4    1  0.9897231E-003  0.9118800E+02  0.7818608E-02  0.1130116E+00
         25   -1    0    0    0    0  0.00000000000E+00  0.00000000000E+00  0.99999998245E-14  0.12500000000E+03  0.12500000000E+03 0.  0.
        -13    1    1    0    0    0  0.26276186227E+01  0.47383498773E+01 -0.52969623544E+01  0.75779491556E+01  0.10566000000E+00 0.  1.
         13    1    1    0    0    0 -0.54978359749E+01  0.39982332920E+02 -0.37765525393E+02  0.55272590118E+02  0.10566000000E+00 0. -1.
         22    1    1    0    0    0  0.28702173521E+01 -0.44720682797E+02  0.43062487748E+02  0.62149460726E+02  0.00000000000E+00 0. -1.
</event>
<event>
 4    1  0.9897231E-003  0.9118800E+02  0.7818608E-02  0.1130116E+00
         25   -1    0    0    0    0  0.00000000000E+00  0.00000000000E+00  0.99999998245E-14  0.12500000000E+03  0.12500000000E+03 0.  0.
        -13    1    1    0    0    0 -0.22127089588E+02 -0.91406938341E+01  0.21609345917E+02  0.32251129785E+02  0.10566000000E+00 0. -1.
         13    1    1    0    0    0 -0.20215196602E+02 -0.79947513544E+01  0.21041365645E+02  0.30254263421E+02  0.10566000000E+00 0. -1.
         22    1    1    0    0    0  0.42342286190E+02  0.17135445188E+02 -0.42650711562E+02  0.62494606794E+02  0.00000000000E+00 0. -1.
</event>
<event>
 4    1  0.9897231E-003  0.9118800E+02  0.7818608E-02  0.1130116E+00
         25   -1    0    0    0    0  0.00000000000E+00  0.00000000000E+00  0.99999998245E-14  0.12500000000E+03  0.12500000000E+03 0.  0.
        -13    1    1    0    0    0 -0.11528698990E+02 -0.15164807619E+02  0.79167720220E+01  0.20629317337E+02  0.10566000000E+00 0.  1.
         13    1    1    0    0    0  0.37727177480E+02 -0.27029773049E+02 -0.23890518295E+02  0.52198817804E+02  0.10566000000E+00 0. -1.
         22    1    1    0    0    0 -0.26198478491E+02  0.42194580667E+02  0.15973746273E+02  0.52171864859E+02  0.00000000000E+00 0. -1.
</event>
<event>
 4    1  0.9897231E-003  0.9118800E+02  0.7818608E-02  0.1130116E+00
         25   -1    0    0    0    0  0.00000000000E+00  0.00000000000E+00  0.99999998245E-14  0.12500000000E+03  0.12500000000E+03 0.  0.
        -13    1    1    0    0    0  0.23220693005E+02  0.21411474917E+02 -0.52349843408E+01  0.32016684195E+02  0.10566000000E+00 0.  1.
         13    1    1    0    0    0  0.22344529382E+02  0.20029267074E+02 -0.53729220249E+01  0.30484897703E+02  0.10566000000E+00 0.  1.
         22    1    1    0    0    0 -0.45565222387E+02 -0.41440741991E+02  0.10607906366E+02  0.62498418103E+02  0.00000000000E+00 0.  1.
</event>
<event>
 4    1  0.9897231E-003  0.9118800E+02  0.7818608E-02  0.1130116E+00
         25   -1    0    0    0    0  0.00000000000E+00  0.00000000000E+00  0.99999998245E-14  0.12500000000E+03  0.12500000000E+03 0.  0.
        -13    1    1    0    0    0 -0.24369984449E+02 -0.10275679774E+02  0.22892130049E+02  0.34979229824E+02  0.10566000000E+00 0. -1.
         13    1    1    0    0    0  0.10974270661E+02 -0.12805068491E+02  0.27925128799E+02  0.32622513362E+02  0.10566000000E+00 0.  1.
         22    1    1    0    0    0  0.13395713788E+02  0.23080748265E+02 -0.50817258848E+02  0.57398256813E+02  0.00000000000E+00 0. -1.
</event>
<event>
 4    1  0.9897231E-003  0.9118800E+02  0.7818608E-02  0.1130116E+00
         25   -1    0    0    0    0  0.00000000000E+00  0.00000000000E+00  0.99999998245E-14  0.12500000000E+03  0.12500000000E+03 0.  0.
        -13    1    1    0    0    0 -0.48610134487E+01  0.94856892729E+00  0.60252234293E+01  0.78002382122E+01  0.10566000000E+00 0. -1.
         13    1    1    0    0    0 -0.40112565344E+02 -0.14622234436E+01  0.37267549840E+02  0.54772597446E+02  0.10566000000E+00 0.  1.
         22    1    1    0    0    0  0.44973578793E+02  0.51365451632E+00 -0.43292773269E+02  0.62427164342E+02  0.00000000000E+00 0.  1.
</event>
<event>
 4    1  0.9897231E-003  0.9118800E+02  0.7818608E-02  0.1130116E+00
         25   -1    0    0    0    0  0.00000000000E+00  0.00000000000E+00  0.99999998245E-14  0.12500000000E+03  0.12500000000E+03 0.  0.
        -13    1    1    0    0    0 -0.51351011347E+01  0.58979466090E+01 -0.41337518535E+02  0.42070852624E+02  0.10566000000E+00 0.  1.
         13    1    1    0    0    0  0.54275290031E+00  0.71691412066E+01 -0.19370057480E+02  0.20661593771E+02  0.10566000000E+00 0. -1.
         22    1    1    0    0    0  0.45923482344E+01 -0.13067087816E+02  0.60707576015E+02  0.62267553605E+02  0.00000000000E+00 0. -1.
</event>
<event>
 4    1  0.9897231E-003  0.9118800E+02  0.7818608E-02  0.1130116E+00
         25   -1    0    0    0    0  0.00000000000E+00  0.00000000000E+00  0.99999998245E-14  0.12500000000E+03  0.12500000000E+03 0.  0.
        -13    1    1    0    0    0 -0.37012052128E+00  0.78886594217E+01 -0.58613057082E+01  0.98353446972E+01  0.10566000000E+00 0.  1.
         13    1    1    0    0    0 -0.10632693139E+02  0.48076190480E+02  0.24715432764E+02  0.55092994430E+02  0.10566000000E+00 0. -1.
         22    1    1    0    0    0  0.11002813660E+02 -0.55964849902E+02 -0.18854127056E+02  0.60071660873E+02  0.00000000000E+00 0. -1.
</event>
<event>
 4    1  0.9897231E-003  0.9118800E+02  0.7818608E-02  0.1130116E+00
         25   -1    0    0    0    0  0.00000000000E+00  0.00000000000E+00  0.99999998245E-14  0.12500000000E+03  0.12500000000E+03 0.  0.
        -13    1    1    0    0    0 -0.16578009144E+01  0.11678134607E+02 -0.47692647677E+02  0.49129695076E+02  0.10566000000E+00 0.  1.
         13    1    1    0    0    0 -0.81891238177E-01  0.22853672720E+01 -0.13187700467E+02  0.13384925005E+02  0.10566000000E+00 0. -1.
         22    1    1    0    0    0  0.17396921526E+01 -0.13963501879E+02  0.60880348144E+02  0.62485379919E+02  0.00000000000E+00 0.  1.
</event>
<event>
 4    1  0.9897231E-003  0.9118800E+02  0.7818608E-02  0.1130116E+00
         25   -1    0    0    0    0  0.00000000000E+00  0.00000000000E+00  0.99999998245E-14  0.12500000000E+03  0.12500000000E+03 0.  0.
        -13    1    1    0    0    0  0.23178380218E+02  0.12669083467E+02  0.11605394625E+02  0.28852024779E+02  0.10566000000E+00 0.  1.
         13    1    1    0    0    0  0.27190008807E+02  0.14571868762E+02  0.13437586808E+02  0.33648415140E+02  0.10566000000E+00 0.  1.
         22    1    1    0    0    0 -0.50368389025E+02 -0.27240952229E+02 -0.25042981432E+02  0.62499560081E+02  0.00000000000E+00 0.  1.
</event>
<event>
 4    1  0.9897231E-003  0.9118800E+02  0.7818608E-02  0.1130116E+00
         25   -1    0    0    0    0  0.00000000000E+00  0.00000000000E+00  0.99999998245E-14  0.12500000000E+03  0.12500000000E+03 0.  0.
        -13    1    1    0    0    0  0.71253395457E+01  0.46196664768E+02  0.15334294647E+02  0.49194044920E+02  0.10566000000E+00 0.  1.
         13    1    1    0    0    0 -0.20948444386E+01  0.12853895704E+02 -0.97694909413E+01  0.16280820780E+02  0.10566000000E+00 0. -1.
         22    1    1    0    0    0 -0.50304951071E+01 -0.59050560472E+02 -0.55648037053E+01  0.59525134299E+02  0.00000000000E+00 0.  1.
</event>
<event>
 4    1  0.9897231E-003  0.9118800E+02  0.7818608E-02  0.1130116E+00
         25   -1    0    0    0    0  0.00000000000E+00  0.00000000000E+00  0.99999998245E-14  0.12500000000E+03  0.12500000000E+03 0.  0.
        -13    1    1    0    0    0  0.33722525881E+01  0.19965777551E+02 -0.26349757849E+02  0.33231389731E+02  0.10566000000E+00 0.  1.
         13    1    1    0    0    0  0.31487584366E+01  0.17472140548E+02 -0.23269580826E+02  0.29269009735E+02  0.10566000000E+00 0.  1.
         22    1    1    0    0    0 -0.65210110247E+01 -0.37437918099E+02  0.49619338675E+02  0.62499600534E+02  0.00000000000E+00 0.  1.
</event>
<event>
 4    1  0.9897231E-003  0.9118800E+02  0.7818608E-02  0.1130116E+00
         25   -1    0    0    0    0  0.00000000000E+00  0.00000000000E+00  0.99999998245E-14  0.12500000000E+03  0.12500000000E+03 0.  0.
        -13    1    1    0    0    0 -0.57094596096E+01  0.59677550228E+01 -0.10913345026E+02  0.13686646512E+02  0.10566000000E+00 0.  1.
         13    1    1    0    0    0 -0.20878086304E+02  0.16432041761E+02 -0.40986895155E+02  0.48845094151E+02  0.10566000000E+00 0. -1.
         22    1    1    0    0    0  0.26587545913E+02 -0.22399796784E+02  0.51900240181E+02  0.62468259337E+02  0.00000000000E+00 0. -1.
</event>
<event>
 4    1  0.9897231E-003  0.9118800E+02  0.7818608E-02  0.1130116E+00
         25   -1    0    0    0    0  0.00000000000E+00  0.00000000000E+00  0.99999998245E-14  0.12500000000E+03  0.12500000000E+03 0.  0.
        -13    1    1    0    0    0  0.56937242810E+01 -0.24186926135E+02 -0.44389172414E+02  0.50870774357E+02  0.10566000000E+00 0.  1.
         13    1    1    0    0    0  0.10739050892E+01 -0.53181978509E+01 -0.10288117041E+02  0.11631552640E+02  0.10566000000E+00 0. -1.
         22    1    1    0    0    0 -0.67676293702E+01  0.29505123986E+02  0.54677289455E+02  0.62497673003E+02  0.00000000000E+00 0.  1.
</event>
<event>
 4    1  0.9897231E-003  0.9118800E+02  0.7818608E-02  0.1130116E+00
         25   -1    0    0    0    0  0.00000000000E+00  0.00000000000E+00  0.99999998245E-14  0.12500000000E+03  0.12500000000E+03 0.  0.
        -13    1    1    0    0    0  0.22868090235E+02  0.18135991365E+01 -0.40891145550E+02  0.46886412118E+02  0.10566000000E+00 0.  1.
         13    1    1    0    0    0  0.76882138485E+01  0.70268188073E+00 -0.13571456945E+02  0.15614032204E+02  0.10566000000E+00 0.  1.
         22    1    1    0    0    0 -0.30556304083E+02 -0.25162810173E+01  0.54462602496E+02  0.62499555678E+02  0.00000000000E+00 0.  1.
</event>
<event>
 4    1  0.9897231E-003  0.9118800E+02  0.7818608E-02  0.1130116E+00
         25   -1    0    0    0    0  0.00000000000E+00  0.00000000000E+00  0.99999998245E-14  0.12500000000E+03  0.12500000000E+03 0.  0.
        -13    1    1    0    0    0  0.35380994648E+00 -0.43395537089E+01  0.70614125395E+00  0.44121091755E+01  0.10566000000E+00 0.  1.
         13    1    1    0    0    0  0.12011951615E+02 -0.34765290291E+02 -0.46384828438E+02  0.59198613699E+02  0.10566000000E+00 0. -1.
         22    1    1    0    0    0 -0.12365761561E+02  0.39104844000E+02  0.45678687184E+02  0.61389277126E+02  0.00000000000E+00 0. -1.
</event>
<event>
 4    1  0.9897231E-003  0.9118800E+02  0.7818608E-02  0.1130116E+00
         25   -1    0    0    0    0  0.00000000000E+00  0.00000000000E+00  0.99999998245E-14  0.12500000000E+03  0.12500000000E+03 0.  0.
        -13    1    1    0    0    0  0.16114612863E+01  0.52106024390E+01 -0.44525422473E+00  0.54732623374E+01  0.10566000000E+00 0.  1.
         13    1    1    0    0    0  0.17922724575E+02  0.54050913880E+02 -0.30886863191E+01  0.57028733939E+02  0.10566000000E+00 0. -1.
         22    1    1    0    0    0 -0.19534185861E+02 -0.59261516319E+02  0.35339405438E+01  0.62498003724E+02  0.00000000000E+00 0. -1.
</event>
<event>
 4    1  0.9897231E-003  0.9118800E+02  0.7818608E-02  0.1130116E+00
         25   -1    0    0    0    0  0.00000000000E+00  0.00000000000E+00  0.99999998245E-14  0.12500000000E+03  0.12500000000E+03 0.  0.
        -13    1    1    0    0    0 -0.23106782621E+02 -0.38356976751E+02 -0.13251914808E+02  0.46699095052E+02  0.10566000000E+00 0. -1.
         13    1    1    0    0    0 -0.68457868349E+01 -0.13421324067E+02 -0.48098523585E+01  0.15815896460E+02  0.10566000000E+00 0.  1.
         22    1    1    0    0    0  0.29952569456E+02  0.51778300818E+02  0.18061767167E+02  0.62485008488E+02  0.00000000000E+00 0. -1.
</event>
<event>
 4    1  0.9897231E-003  0.9118800E+02  0.7818608E-02  0.1130116E+00
         25   -1    0    0    0    0  0.00000000000E+00  0.00000000000E+00  0.99999998245E-14  0.12500000000E+03  0.12500000000E+03 0.  0.
        -13    1    1    0    0    0  0.17332440454E+01 -0.93256696659E-01 -0.84579849933E+00  0.19337452959E+01  0.10566000000E+00 0.  1.
         13    1    1    0    0    0  0.44161190990E+02 -0.41883342703E+02 -0.34616704748E-01  0.60864090792E+02  0.10566000000E+00 0. -1.
         22    1    1    0    0    0 -0.45894435035E+02  0.41976599400E+02  0.88041520408E+00  0.62202163912E+02  0.00000000000E+00 0. -1.
</event>
<event>
 4    1  0.9897231E-003  0.9118800E+02  0.7818608E-02  0.1130116E+00
         25   -1    0    0    0    0  0.00000000000E+00  0.00000000000E+00  0.99999998245E-14  0.12500000000E+03  0.12500000000E+03 0.  0.
        -13    1    1    0    0    0 -0.16421842801E+01  0.51068400088E+01  0.44351362986E+01  0.69611911415E+01  0.10566000000E+00 0.  1.
         13    1    1    0    0    0 -0.19620498739E+02  0.40431915935E+02  0.32675308062E+02  0.55564293552E+02  0.10566000000E+00 0. -1.
         22    1    1    0    0    0  0.21262683019E+02 -0.45538755944E+02 -0.37110444361E+02  0.62474515306E+02  0.00000000000E+00 0. -1.
</event>
<event>
 4    1  0.9897231E-003  0.9118800E+02  0.7818608E-02  0.1130116E+00
         25   -1    0    0    0    0  0.00000000000E+00  0.00000000000E+00  0.99999998245E-14  0.12500000000E+03  0.12500000000E+03 0.  0.
        -13    1    1    0    0    0 -0.19636213172E+02 -0.52551831389E+02 -0.87805461678E+01  0.56783668472E+02  0.10566000000E+00 0.  1.
         13    1    1    0    0    0 -0.33336833325E+01 -0.47893700200E+01  0.88468775853E-01  0.58369941331E+01  0.10566000000E+00 0. -1.
         22    1    1    0    0    0  0.22969896505E+02  0.57341201409E+02  0.86920773919E+01  0.62379337395E+02  0.00000000000E+00 0.  1.
</event>
<event>
 4    1  0.9897231E-003  0.9118800E+02  0.7818608E-02  0.1130116E+00
         25   -1    0    0    0    0  0.00000000000E+00  0.00000000000E+00  0.99999998245E-14  0.12500000000E+03  0.12500000000E+03 0.  0.
        -13    1    1    0    0    0 -0.59008869338E+00 -0.80906149148E+01 -0.13990386565E+02  0.16172456048E+02  0.10566000000E+00 0.  1.
         13    1    1    0    0    0  0.36748823408E+00 -0.24633524688E+02 -0.39245614259E+02  0.46337619584E+02  0.10566000000E+00 0. -1.
         22    1    1    0    0    0  0.22260045930E+00  0.32724139602E+02  0.53236000824E+02  0.62489924367E+02  0.00000000000E+00 0. -1.
</event>
<event>
 4    1  0.9897231E-003  0.9118800E+02  0.7818608E-02  0.1130116E+00
         25   -1    0    0    0    0  0.00000000000E+00  0.00000000000E+00  0.99999998245E-14  0.12500000000E+03  0.12500000000E+03 0.  0.
        -13    1    1    0    0    0  0.56295226300E-01  0.33398085915E+00  0.63576885073E+01  0.63675803535E+01  0.10566000000E+00 0.  1.
         13    1    1    0    0    0 -0.15710136686E+02  0.44323542629E+02  0.32697393803E+02  0.57275785035E+02  0.10566000000E+00 0. -1.
         22    1    1    0    0    0  0.15653841460E+02 -0.44657523488E+02 -0.39055082310E+02  0.61356634611E+02  0.00000000000E+00 0. -1.
</event>
<event>
 4    1  0.9897231E-003  0.9118800E+02  0.7818608E-02  0.1130116E+00
         25   -1    0    0    0    0  0.00000000000E+00  0.00000000000E+00  0.99999998245E-14  0.12500000000E+03  0.12500000000E+03 0.  0.
        -13    1    1    0    0    0 -0.67218813366E+01 -0.83691926470E+01 -0.36728294673E-01  0.10734970297E+02  0.10566000000E+00 0.  1.
         13    1    1    0    0    0 -0.32769641065E+02 -0.38344642126E+02 -0.12174234620E+02  0.51888188520E+02  0.10566000000E+00 0. -1.
         22    1    1    0    0    0  0.39491522401E+02  0.46713834773E+02  0.12210962915E+02  0.62376841184E+02  0.00000000000E+00 0. -1.
</event>
<event>
 4    1  0.9897231E-003  0.9118800E+02  0.7818608E-02  0.1130116E+00
         25   -1    0    0    0    0  0.00000000000E+00  0.00000000000E+00  0.99999998245E-14  0.12500000000E+03  0.12500000000E+03 0.  0.
        -13    1    1    0    0    0  0.39255499637E+01  0.18315927033E+01 -0.11415462635E+02  0.12210185320E+02  0.10566000000E+00 0.  1.
         13    1    1    0    0    0  0.17320636575E+02  0.77111225874E+01 -0.46580769219E+02  0.50291600571E+02  0.10566000000E+00 0. -1.
         22    1    1    0    0    0 -0.21246186539E+02 -0.95427152907E+01  0.57996231854E+02  0.62498214109E+02  0.00000000000E+00 0. -1.
</event>
<event>
 4    1  0.9897231E-003  0.9118800E+02  0.7818608E-02  0.1130116E+00
         25   -1    0    0    0    0  0.00000000000E+00  0.00000000000E+00  0.99999998245E-14  0.12500000000E+03  0.12500000000E+03 0.  0.
        -13    1    1    0    0    0  0.19630262122E+02 -0.93222424823E+01  0.20692212283E+02  0.30007169295E+02  0.10566000000E+00 0. -1.
         13    1    1    0    0    0 -0.50233830139E+01 -0.14127424251E+02  0.32088484906E+02  0.35418928844E+02  0.10566000000E+00 0.  1.
         22    1    1    0    0    0 -0.14606879108E+02  0.23449666734E+02 -0.52780697189E+02  0.59573901861E+02  0.00000000000E+00 0. -1.
</event>
<event>
 4    1  0.9897231E-003  0.9118800E+02  0.7818608E-02  0.1130116E+00
         25   -1    0    0    0    0  0.00000000000E+00  0.00000000000E+00  0.99999998245E-14  0.12500000000E+03  0.12500000000E+03 0.  0.
        -13    1    1    0    0    0 -0.75459054021E+01  0.25662936656E+02 -0.31497881189E+02  0.41323778743E+02  0.10566000000E+00 0. -1.
         13    1    1    0    0    0 -0.37719079946E+01  0.13234559919E+02 -0.16095177810E+02  0.21176562019E+02  0.10566000000E+00 0.  1.
         22    1    1    0    0    0  0.11317813397E+02 -0.38897496575E+02  0.47593059000E+02  0.62499659238E+02  0.00000000000E+00 0. -1.
</event>
<event>
 4    1  0.9897231E-003  0.9118800E+02  0.7818608E-02  0.1130116E+00
         25   -1    0    0    0    0  0.00000000000E+00  0.00000000000E+00  0.99999998245E-14  0.12500000000E+03  0.12500000000E+03 0.  0.
        -13    1    1    0    0    0 -0.10372330639E+01 -0.68684939186E+01  0.91908601820E+01  0.11521073564E+02  0.10566000000E+00 0. -1.
         13    1    1    0    0    0 -0.45640867589E+01 -0.33779180761E+02  0.37930916779E+02  0.50996368033E+02  0.10566000000E+00 0.  1.
         22    1    1    0    0    0  0.56013198228E+01  0.40647674679E+02 -0.47121776961E+02  0.62482558403E+02  0.00000000000E+00 0.  1.
</event>
<event>
 4    1  0.9897231E-003  0.9118800E+02  0.7818608E-02  0.1130116E+00
         25   -1    0    0    0    0  0.00000000000E+00  0.00000000000E+00  0.99999998245E-14  0.12500000000E+03  0.12500000000E+03 0.  0.
        -13    1    1    0    0    0 -0.54777230675E+01 -0.50558711750E+02  0.53979636926E+01  0.51140375046E+02  0.10566000000E+00 0. -1.
         13    1    1    0    0    0 -0.15984145389E+01 -0.11170302721E+02  0.13320927781E+01  0.11362932153E+02  0.10566000000E+00 0.  1.
         22    1    1    0    0    0  0.70761376064E+01  0.61729014471E+02 -0.67300564707E+01  0.62496692801E+02  0.00000000000E+00 0. -1.
</event>
<event>
 4    1  0.9897231E-003  0.9118800E+02  0.7818608E-02  0.1130116E+00
         25   -1    0    0    0    0  0.00000000000E+00  0.00000000000E+00  0.99999998245E-14  0.12500000000E+03  0.12500000000E+03 0.  0.
        -13    1    1    0    0    0 -0.14033353501E+02  0.53271644583E+02 -0.26777661667E+02  0.61252407753E+02  0.10566000000E+00 0. -1.
         13    1    1    0    0    0  0.16162355449E+00  0.10222432938E+01 -0.77995266103E+00  0.13002283316E+01  0.10566000000E+00 0.  1.
         22    1    1    0    0    0  0.13871729947E+02 -0.54293887877E+02  0.27557614328E+02  0.62447363916E+02  0.00000000000E+00 0. -1.
</event>
<event>
 4    1  0.9897231E-003  0.9118800E+02  0.7818608E-02  0.1130116E+00
         25   -1    0    0    0    0  0.00000000000E+00  0.00000000000E+00  0.99999998245E-14  0.12500000000E+03  0.12500000000E+03 0.  0.
        -13    1    1    0    0    0 -0.21862562448E+02  0.23503991511E+02  0.35354737292E+02  0.47753302156E+02  0.10566000000E+00 0. -1.
         13    1    1    0    0    0 -0.31236414433E+01 -0.20294846782E+02  0.11873587527E+02  0.23719847946E+02  0.10566000000E+00 0.  1.
         22    1    1    0    0    0  0.24986203891E+02 -0.32091447283E+01 -0.47228324819E+02  0.53526849898E+02  0.00000000000E+00 0. -1.
</event>
<event>
 4    1  0.9897231E-003  0.9118800E+02  0.7818608E-02  0.1130116E+00
         25   -1    0    0    0    0  0.00000000000E+00  0.00000000000E+00  0.99999998245E-14  0.12500000000E+03  0.12500000000E+03 0.  0.
        -13    1    1    0    0    0 -0.43139791052E+02  0.28546708080E+02 -0.11016768305E+02  0.52889852166E+02  0.10566000000E+00 0.  1.
         13    1    1    0    0    0 -0.77145512683E+01  0.51657598945E+01 -0.25027842880E+01  0.96163646867E+01  0.10566000000E+00 0. -1.
         22    1    1    0    0    0  0.50854342320E+02 -0.33712467975E+02  0.13519552593E+02  0.62493783147E+02  0.00000000000E+00 0.  1.
</event>
<event>
 4    1  0.9897231E-003  0.9118800E+02  0.7818608E-02  0.1130116E+00
         25   -1    0    0    0    0  0.00000000000E+00  0.00000000000E+00  0.99999998245E-14  0.12500000000E+03  0.12500000000E+03 0.  0.
        -13    1    1    0    0    0  0.16385675085E+01 -0.10700343725E+02  0.46553080901E+02  0.47795216965E+02  0.10566000000E+00 0. -1.
         13    1    1    0    0    0  0.55317483232E+00 -0.29479752268E+01  0.14397171385E+02  0.14706674276E+02  0.10566000000E+00 0. -1.
         22    1    1    0    0    0 -0.21917423408E+01  0.13648318951E+02 -0.60950252286E+02  0.62498108759E+02  0.00000000000E+00 0. -1.
</event>
<event>
 4    1  0.9897231E-003  0.9118800E+02  0.7818608E-02  0.1130116E+00
         25   -1    0    0    0    0  0.00000000000E+00  0.00000000000E+00  0.99999998245E-14  0.12500000000E+03  0.12500000000E+03 0.  0.
        -13    1    1    0    0    0 -0.10422880442E+01  0.70313685782E+01 -0.18604718744E+02  0.19916657150E+02  0.10566000000E+00 0.  1.
         13    1    1    0    0    0 -0.68970681841E+00  0.15246915015E+02 -0.39759123910E+02  0.42588064186E+02  0.10566000000E+00 0. -1.
         22    1    1    0    0    0  0.17319948626E+01 -0.22278283593E+02  0.58363842654E+02  0.62495278665E+02  0.00000000000E+00 0.  1.
</event>
<event>
 4    1  0.9897231E-003  0.9118800E+02  0.7818608E-02  0.1130116E+00
         25   -1    0    0    0    0  0.00000000000E+00  0.00000000000E+00  0.99999998245E-14  0.12500000000E+03  0.12500000000E+03 0.  0.
        -13    1    1    0    0    0  0.39943453688E+02  0.52847000836E+01  0.38881125329E+01  0.40478835588E+02  0.10566000000E+00 0.  1.
         13    1    1    0    0    0  0.19372771970E+02 -0.14598265929E+02  0.10121296601E+01  0.24278575584E+02  0.10566000000E+00 0. -1.
         22    1    1    0    0    0 -0.59316225658E+02  0.93135658455E+01 -0.49002421930E+01  0.60242588827E+02  0.00000000000E+00 0.  1.
</event>
<event>
 4    1  0.9897231E-003  0.9118800E+02  0.7818608E-02  0.1130116E+00
         25   -1    0    0    0    0  0.00000000000E+00  0.00000000000E+00  0.99999998245E-14  0.12500000000E+03  0.12500000000E+03 0.  0.
        -13    1    1    0    0    0  0.45651435183E+02  0.18947397884E+02  0.18850320073E+02  0.52899935271E+02  0.10566000000E+00 0. -1.
         13    1    1    0    0    0  0.34087185482E+01  0.72543603823E+01  0.71157978703E+01  0.10718714945E+02  0.10566000000E+00 0.  1.
         22    1    1    0    0    0 -0.49060153731E+02 -0.26201758266E+02 -0.25966117943E+02  0.61381349784E+02  0.00000000000E+00 0. -1.
</event>
<event>
 4    1  0.9897231E-003  0.9118800E+02  0.7818608E-02  0.1130116E+00
         25   -1    0    0    0    0  0.00000000000E+00  0.00000000000E+00  0.99999998245E-14  0.12500000000E+03  0.12500000000E+03 0.  0.
        -13    1    1    0    0    0  0.37196118291E+01 -0.19094518553E+02 -0.37622502885E+02  0.42354457124E+02  0.10566000000E+00 0. -1.
         13    1    1    0    0    0  0.25473964265E+01 -0.10357401428E+02 -0.17118291797E+02  0.20169582816E+02  0.10566000000E+00 0.  1.
         22    1    1    0    0    0 -0.62670082556E+01  0.29451919981E+02  0.54740794681E+02  0.62475960060E+02  0.00000000000E+00 0. -1.
</event>
<event>
 4    1  0.9897231E-003  0.9118800E+02  0.7818608E-02  0.1130116E+00
         25   -1    0    0    0    0  0.00000000000E+00  0.00000000000E+00  0.99999998245E-14  0.12500000000E+03  0.12500000000E+03 0.  0.
        -13    1    1    0    0    0 -0.35313078596E+02 -0.24523903821E+02 -0.32774339553E+02  0.54061112417E+02  0.10566000000E+00 0.  1.
         13    1    1    0    0    0 -0.49392430177E+01 -0.39665675068E+01 -0.55974110265E+01  0.84541086821E+01  0.10566000000E+00 0. -1.
         22    1    1    0    0    0  0.40252321614E+02  0.28490471328E+02  0.38371750580E+02  0.62484778901E+02  0.00000000000E+00 0.  1.
</event>
<event>
 4    1  0.9897231E-003  0.9118800E+02  0.7818608E-02  0.1130116E+00
         25   -1    0    0    0    0  0.00000000000E+00  0.00000000000E+00  0.99999998245E-14  0.12500000000E+03  0.12500000000E+03 0.  0.
        -13    1    1    0    0    0  0.41591021124E+01  0.92355855637E+01 -0.50732416366E+02  0.51733774320E+02  0.10566000000E+00 0.  1.
         13    1    1    0    0    0  0.29748343490E+01  0.33428515958E+01 -0.99362888078E+01  0.10897949142E+02  0.10566000000E+00 0. -1.
         22    1    1    0    0    0 -0.71339364614E+01 -0.12578437159E+02  0.60668705174E+02  0.62368276537E+02  0.00000000000E+00 0.  1.
</event>
<event>
 4    1  0.9897231E-003  0.9118800E+02  0.7818608E-02  0.1130116E+00
         25   -1    0    0    0    0  0.00000000000E+00  0.00000000000E+00  0.99999998245E-14  0.12500000000E+03  0.12500000000E+03 0.  0.
        -13    1    1    0    0    0  0.92772119757E+01 -0.42400711860E+01 -0.13155853645E+02  0.16647297525E+02  0.10566000000E+00 0. -1.
         13    1    1    0    0    0  0.25874188719E+02 -0.14007302461E+02 -0.35180765153E+02  0.45862572593E+02  0.10566000000E+00 0.  1.
         22    1    1    0    0    0 -0.35151400695E+02  0.18247373647E+02  0.48336618798E+02  0.62490129882E+02  0.00000000000E+00 0.  1.
</event>
<event>
 4    1  0.9897231E-003  0.9118800E+02  0.7818608E-02  0.1130116E+00
         25   -1    0    0    0    0  0.00000000000E+00  0.00000000000E+00  0.99999998245E-14  0.12500000000E+03  0.12500000000E+03 0.  0.
        -13    1    1    0    0    0  0.52389364854E+02 -0.16198161824E+02 -0.27745348739E+02  0.61456013025E+02  0.10566000000E+00 0. -1.
         13    1    1    0    0    0  0.93287621709E+00 -0.37515073037E+00 -0.30486399555E+00  0.10559839953E+01  0.10566000000E+00 0.  1.
         22    1    1    0    0    0 -0.53322241071E+02  0.16573312554E+02  0.28050212734E+02  0.62488002979E+02  0.00000000000E+00 0. -1.
</event>
<event>
 4    1  0.9897231E-003  0.9118800E+02  0.7818608E-02  0.1130116E+00
         25   -1    0    0    0    0  0.00000000000E+00  0.00000000000E+00  0.99999998245E-14  0.12500000000E+03  0.12500000000E+03 0.  0.
        -13    1    1    0    0    0  0.74967294238E+01 -0.45307614737E+01 -0.51177159779E+02  0.51921494573E+02  0.10566000000E+00 0.  1.
         13    1    1    0    0    0  0.17734624239E+02 -0.29304991953E+01  0.41179244330E+02  0.44931570750E+02  0.10566000000E+00 0. -1.
         22    1    1    0    0    0 -0.25231353663E+02  0.74612606689E+01  0.99979154488E+01  0.28146934677E+02  0.00000000000E+00 0. -1.
</event>
<event>
 4    1  0.9897231E-003  0.9118800E+02  0.7818608E-02  0.1130116E+00
         25   -1    0    0    0    0  0.00000000000E+00  0.00000000000E+00  0.99999998245E-14  0.12500000000E+03  0.12500000000E+03 0.  0.
        -13    1    1    0    0    0  0.11709073892E+02  0.32529953617E+02 -0.24224077310E+01  0.34658036831E+02  0.10566000000E+00 0. -1.
         13    1    1    0    0    0  0.12226832345E+02  0.24769278301E+02 -0.40080825838E+01  0.27912156255E+02  0.10566000000E+00 0.  1.
         22    1    1    0    0    0 -0.23935906237E+02 -0.57299231918E+02  0.64304903148E+01  0.62429806915E+02  0.00000000000E+00 0.  1.
</event>
<event>
 4    1  0.9897231E-003  0.9118800E+02  0.7818608E-02  0.1130116E+00
         25   -1    0    0    0    0  0.00000000000E+00  0.00000000000E+00  0.99999998245E-14  0.12500000000E+03  0.12500000000E+03 0.  0.
        -13    1    1    0    0    0 -0.33818896258E+01 -0.16073411556E+02 -0.39201448612E+02  0.42503605421E+02  0.10566000000E+00 0. -1.
         13    1    1    0    0    0 -0.89731346219E+00 -0.75163886603E+01 -0.18512633337E+02  0.20000750663E+02  0.10566000000E+00 0.  1.
         22    1    1    0    0    0  0.42792030880E+01  0.23589800216E+02  0.57714081949E+02  0.62495643917E+02  0.00000000000E+00 0. -1.
</event>
<event>
 4    1  0.9897231E-003  0.9118800E+02  0.7818608E-02  0.1130116E+00
         25   -1    0    0    0    0  0.00000000000E+00  0.00000000000E+00  0.99999998245E-14  0.12500000000E+03  0.12500000000E+03 0.  0.
        -13    1    1    0    0    0 -0.16818887676E+01 -0.21288454889E+01 -0.65181648587E+00  0.27922682015E+01  0.10566000000E+00 0. -1.
         13    1    1    0    0    0 -0.41334776408E+02 -0.42647255861E+02  0.69542650578E+01  0.59797367331E+02  0.10566000000E+00 0.  1.
         22    1    1    0    0    0  0.43016665176E+02  0.44776101350E+02 -0.63024485719E+01  0.62410364467E+02  0.00000000000E+00 0.  1.
</event>
<event>
 4    1  0.9897231E-003  0.9118800E+02  0.7818608E-02  0.1130116E+00
         25   -1    0    0    0    0  0.00000000000E+00  0.00000000000E+00  0.99999998245E-14  0.12500000000E+03  0.12500000000E+03 0.  0.
        -13    1    1    0    0    0 -0.13287064860E+02  0.91747956670E+01  0.13010196287E+02  0.20736425429E+02  0.10566000000E+00 0. -1.
         13    1    1    0    0    0 -0.26722037367E+02  0.18685890510E+02  0.26095619177E+02  0.41763887384E+02  0.10566000000E+00 0. -1.
         22    1    1    0    0    0  0.40009102227E+02 -0.27860686177E+02 -0.39105815464E+02  0.62499687186E+02  0.00000000000E+00 0. -1.
</event>
<event>
 4    1  0.9897231E-003  0.9118800E+02  0.7818608E-02  0.1130116E+00
         25   -1    0    0    0    0  0.00000000000E+00  0.00000000000E+00  0.99999998245E-14  0.12500000000E+03  0.12500000000E+03 0.  0.
        -13    1    1    0    0    0  0.21775283819E+01  0.30999005074E+02  0.22551416924E+02  0.38396061188E+02  0.10566000000E+00 0. -1.
         13    1    1    0    0    0 -0.15797021063E+01  0.15284418721E+02  0.18976715005E+02  0.24417939938E+02  0.10566000000E+00 0.  1.
         22    1    1    0    0    0 -0.59782627559E+00 -0.46283423795E+02 -0.41528131929E+02  0.62185998874E+02  0.00000000000E+00 0. -1.
</event>
<event>
 4    1  0.9897231E-003  0.9118800E+02  0.7818608E-02  0.1130116E+00
         25   -1    0    0    0    0  0.00000000000E+00  0.00000000000E+00  0.99999998245E-14  0.12500000000E+03  0.12500000000E+03 0.  0.
        -13    1    1    0    0    0 -0.17300617184E+02 -0.22872025645E+02 -0.20275940919E+02  0.35122156202E+02  0.10566000000E+00 0. -1.
         13    1    1    0    0    0 -0.13134879080E+02 -0.22249514148E+02 -0.98718444563E+01  0.27659183019E+02  0.10566000000E+00 0.  1.
         22    1    1    0    0    0  0.30435496264E+02  0.45121539793E+02  0.30147785376E+02  0.62218660779E+02  0.00000000000E+00 0. -1.
</event>
<event>
 4    1  0.9897231E-003  0.9118800E+02  0.7818608E-02  0.1130116E+00
         25   -1    0    0    0    0  0.00000000000E+00  0.00000000000E+00  0.99999998245E-14  0.12500000000E+03  0.12500000000E+03 0.  0.
        -13    1    1    0    0    0  0.29338583677E+00 -0.18271864946E+01  0.45721397769E+01  0.49335901644E+01  0.10566000000E+00 0. -1.
         13    1    1    0    0    0 -0.98585029408E+01 -0.21843481992E+02  0.52408350464E+02  0.57627893838E+02  0.10566000000E+00 0.  1.
         22    1    1    0    0    0  0.95651171041E+01  0.23670668487E+02 -0.56980490241E+02  0.62438515997E+02  0.00000000000E+00 0.  1.
</event>
<event>
 4    1  0.9897231E-003  0.9118800E+02  0.7818608E-02  0.1130116E+00
         25   -1    0    0    0    0  0.00000000000E+00  0.00000000000E+00  0.99999998245E-14  0.12500000000E+03  0.12500000000E+03 0.  0.
        -13    1    1    0    0    0  0.25962442176E+02 -0.30941969179E+02  0.30840103808E+02  0.50819061653E+02  0.10566000000E+00 0. -1.
         13    1    1    0    0    0 -0.46150806713E+01 -0.15021499498E+02 -0.13189484967E+02  0.20516288516E+02  0.10566000000E+00 0.  1.
         22    1    1    0    0    0 -0.21347361505E+02  0.45963468676E+02 -0.17650618840E+02  0.53664649830E+02  0.00000000000E+00 0. -1.
</event>
<event>
 4    1  0.9897231E-003  0.9118800E+02  0.7818608E-02  0.1130116E+00
         25   -1    0    0    0    0  0.00000000000E+00  0.00000000000E+00  0.99999998245E-14  0.12500000000E+03  0.12500000000E+03 0.  0.
        -13    1    1    0    0    0 -0.17047104795E+01 -0.98053497692E+00 -0.20578424351E+01  0.28483971252E+01  0.10566000000E+00 0. -1.
         13    1    1    0    0    0 -0.32075866008E+02 -0.23501386146E+02 -0.44472371856E+02  0.59657181910E+02  0.10566000000E+00 0.  1.
         22    1    1    0    0    0  0.33780576488E+02  0.24481921123E+02  0.46530214291E+02  0.62494420964E+02  0.00000000000E+00 0.  1.
</event>
<event>
 4    1  0.9897231E-003  0.9118800E+02  0.7818608E-02  0.1130116E+00
         25   -1    0    0    0    0  0.00000000000E+00  0.00000000000E+00  0.99999998245E-14  0.12500000000E+03  0.12500000000E+03 0.  0.
        -13    1    1    0    0    0  0.11328423681E+02  0.32204089673E+02  0.21223359439E+02  0.40197994038E+02  0.10566000000E+00 0. -1.
         13    1    1    0    0    0  0.48225359941E+01  0.17832493647E+02  0.12529727726E+02  0.22321736581E+02  0.10566000000E+00 0.  1.
         22    1    1    0    0    0 -0.16150959675E+02 -0.50036583320E+02 -0.33753087165E+02  0.62480269381E+02  0.00000000000E+00 0. -1.
</event>
<event>
 4    1  0.9897231E-003  0.9118800E+02  0.7818608E-02  0.1130116E+00
         25   -1    0    0    0    0  0.00000000000E+00  0.00000000000E+00  0.99999998245E-14  0.12500000000E+03  0.12500000000E+03 0.  0.
        -13    1    1    0    0    0 -0.37196782158E+01  0.23032940470E+01 -0.12918413864E+02  0.13639565619E+02  0.10566000000E+00 0. -1.
         13    1    1    0    0    0  0.25896001676E+02  0.44642021151E+02 -0.13157963038E+02  0.53260267654E+02  0.10566000000E+00 0.  1.
         22    1    1    0    0    0 -0.22176323461E+02 -0.46945315198E+02  0.26076376902E+02  0.58100166726E+02  0.00000000000E+00 0.  1.
</event>
<event>
 4    1  0.9897231E-003  0.9118800E+02  0.7818608E-02  0.1130116E+00
         25   -1    0    0    0    0  0.00000000000E+00  0.00000000000E+00  0.99999998245E-14  0.12500000000E+03  0.12500000000E+03 0.  0.
        -13    1    1    0    0    0 -0.26593948698E+01 -0.11713735315E+00 -0.70690089976E+01  0.75543467273E+01  0.10566000000E+00 0.  1.
         13    1    1    0    0    0 -0.16901482342E+02 -0.27013160139E+01 -0.52217893787E+02  0.54951586047E+02  0.10566000000E+00 0. -1.
         22    1    1    0    0    0  0.19560877211E+02  0.28184533671E+01  0.59286902784E+02  0.62494067226E+02  0.00000000000E+00 0. -1.
</event>
<event>
 4    1  0.9897231E-003  0.9118800E+02  0.7818608E-02  0.1130116E+00
         25   -1    0    0    0    0  0.00000000000E+00  0.00000000000E+00  0.99999998245E-14  0.12500000000E+03  0.12500000000E+03 0.  0.
        -13    1    1    0    0    0  0.16786653033E-01 -0.12122251252E+00 -0.15178224651E+01  0.15264094341E+01  0.10566000000E+00 0.  1.
         13    1    1    0    0    0  0.51914761649E+02  0.30955700314E+02 -0.11903773429E+02  0.61604454749E+02  0.10566000000E+00 0. -1.
         22    1    1    0    0    0 -0.51931548303E+02 -0.30834477801E+02  0.13421595894E+02  0.61869135817E+02  0.00000000000E+00 0. -1.
</event>
<event>
 4    1  0.9897231E-003  0.9118800E+02  0.7818608E-02  0.1130116E+00
         25   -1    0    0    0    0  0.00000000000E+00  0.00000000000E+00  0.99999998245E-14  0.12500000000E+03  0.12500000000E+03 0.  0.
        -13    1    1    0    0    0 -0.23293760399E+02 -0.24223904409E+01  0.25433564265E+02  0.34573756004E+02  0.10566000000E+00 0. -1.
         13    1    1    0    0    0 -0.29009846242E+02  0.13410459349E+02 -0.17373166480E+02  0.36376498959E+02  0.10566000000E+00 0.  1.
         22    1    1    0    0    0  0.52303606642E+02 -0.10988068908E+02 -0.80603977856E+01  0.54049745037E+02  0.00000000000E+00 0. -1.
</event>
<event>
 4    1  0.9897231E-003  0.9118800E+02  0.7818608E-02  0.1130116E+00
         25   -1    0    0    0    0  0.00000000000E+00  0.00000000000E+00  0.99999998245E-14  0.12500000000E+03  0.12500000000E+03 0.  0.
        -13    1    1    0    0    0 -0.28635522993E+02  0.17936461703E+02  0.33017278285E+02  0.47242583173E+02  0.10566000000E+00 0.  1.
         13    1    1    0    0    0 -0.93920892831E+01  0.55505024210E+01  0.10667501672E+02  0.15258642606E+02  0.10566000000E+00 0. -1.
         22    1    1    0    0    0  0.38027612276E+02 -0.23486964124E+02 -0.43684779957E+02  0.62498774220E+02  0.00000000000E+00 0.  1.
</event>
<event>
 4    1  0.9897231E-003  0.9118800E+02  0.7818608E-02  0.1130116E+00
         25   -1    0    0    0    0  0.00000000000E+00  0.00000000000E+00  0.99999998245E-14  0.12500000000E+03  0.12500000000E+03 0.  0.
        -13    1    1    0    0    0  0.31912090273E+01 -0.47899913828E+02  0.25553619853E+02  0.54383675965E+02  0.10566000000E+00 0.  1.
         13    1    1    0    0    0  0.92949847486E+01 -0.17210446706E+01  0.53280149068E+01  0.10851619378E+02  0.10566000000E+00 0. -1.
         22    1    1    0    0    0 -0.12486193776E+02  0.49620958499E+02 -0.30881634760E+02  0.59764704658E+02  0.00000000000E+00 0.  1.
</event>
<event>
 4    1  0.9897231E-003  0.9118800E+02  0.7818608E-02  0.1130116E+00
         25   -1    0    0    0    0  0.00000000000E+00  0.00000000000E+00  0.99999998245E-14  0.12500000000E+03  0.12500000000E+03 0.  0.
        -13    1    1    0    0    0 -0.28862417204E+02 -0.30186411662E+02 -0.30349306619E+01  0.41874581121E+02  0.10566000000E+00 0.  1.
         13    1    1    0    0    0 -0.13879363696E+02 -0.15048798163E+02 -0.26000354575E+01  0.20636724817E+02  0.10566000000E+00 0. -1.
         22    1    1    0    0    0  0.42741780900E+02  0.45235209825E+02  0.56349661194E+01  0.62488694062E+02  0.00000000000E+00 0. -1.
</event>
<event>
 4    1  0.9897231E-003  0.9118800E+02  0.7818608E-02  0.1130116E+00
         25   -1    0    0    0    0  0.00000000000E+00  0.00000000000E+00  0.99999998245E-14  0.12500000000E+03  0.12500000000E+03 0.  0.
        -13    1    1    0    0    0 -0.34048434798E+01  0.47871337323E+01  0.38907062057E+02  0.39348192468E+02  0.10566000000E+00 0. -1.
         13    1    1    0    0    0 -0.18043609712E+01  0.27511049607E+01  0.22917102995E+02  0.23152301630E+02  0.10566000000E+00 0.  1.
         22    1    1    0    0    0  0.52092044510E+01 -0.75382386930E+01 -0.61824165053E+02  0.62499505903E+02  0.00000000000E+00 0.  1.
</event>
<event>
 4    1  0.9897231E-003  0.9118800E+02  0.7818608E-02  0.1130116E+00
         25   -1    0    0    0    0  0.00000000000E+00  0.00000000000E+00  0.99999998245E-14  0.12500000000E+03  0.12500000000E+03 0.  0.
        -13    1    1    0    0    0  0.86054226465E+00  0.11940743546E+02 -0.16180389961E+01  0.12081022459E+02  0.10566000000E+00 0. -1.
         13    1    1    0    0    0  0.33078967145E+01  0.49558065779E+02 -0.86905106769E+01  0.50423012646E+02  0.10566000000E+00 0.  1.
         22    1    1    0    0    0 -0.41684389792E+01 -0.61498809325E+02  0.10308549673E+02  0.62495964896E+02  0.00000000000E+00 0.  1.
</event>
<event>
 4    1  0.9897231E-003  0.9118800E+02  0.7818608E-02  0.1130116E+00
         25   -1    0    0    0    0  0.00000000000E+00  0.00000000000E+00  0.99999998245E-14  0.12500000000E+03  0.12500000000E+03 0.  0.
        -13    1    1    0    0    0 -0.33481199675E+02  0.54830103621E+01 -0.22439958960E+02  0.40676984358E+02  0.10566000000E+00 0.  1.
         13    1    1    0    0    0 -0.18298598517E+02  0.26367054762E+01 -0.11600860673E+02  0.21826178223E+02  0.10566000000E+00 0. -1.
         22    1    1    0    0    0  0.51779798192E+02 -0.81197158383E+01  0.34040819632E+02  0.62496837419E+02  0.00000000000E+00 0. -1.
</event>
<event>
 4    1  0.9897231E-003  0.9118800E+02  0.7818608E-02  0.1130116E+00
         25   -1    0    0    0    0  0.00000000000E+00  0.00000000000E+00  0.99999998245E-14  0.12500000000E+03  0.12500000000E+03 0.  0.
        -13    1    1    0    0    0  0.57439729800E+02  0.13106294652E+02 -0.69995218384E+01  0.59330447403E+02  0.10566000000E+00 0. -1.
         13    1    1    0    0    0  0.30589748800E+01  0.78600778360E+00 -0.27221129083E+00  0.31718131368E+01  0.10566000000E+00 0.  1.
         22    1    1    0    0    0 -0.60498704680E+02 -0.13892302435E+02  0.72717331292E+01  0.62497739460E+02  0.00000000000E+00 0. -1.
</event>
<event>
 4    1  0.9897231E-003  0.9118800E+02  0.7818608E-02  0.1130116E+00
         25   -1    0    0    0    0  0.00000000000E+00  0.00000000000E+00  0.99999998245E-14  0.12500000000E+03  0.12500000000E+03 0.  0.
        -13    1    1    0    0    0  0.15624391890E+02  0.42963819695E+01  0.57383106076E+01  0.17190692034E+02  0.10566000000E+00 0.  1.
         13    1    1    0    0    0  0.36710668857E+02  0.17243162979E+02  0.20480953196E+02  0.45436554505E+02  0.10566000000E+00 0. -1.
         22    1    1    0    0    0 -0.52335060746E+02 -0.21539544948E+02 -0.26219263803E+02  0.62372753461E+02  0.00000000000E+00 0. -1.
</event>
<event>
 4    1  0.9897231E-003  0.9118800E+02  0.7818608E-02  0.1130116E+00
         25   -1    0    0    0    0  0.00000000000E+00  0.00000000000E+00  0.99999998245E-14  0.12500000000E+03  0.12500000000E+03 0.  0.
        -13    1    1    0    0    0  0.98461850938E+01  0.11159272372E+02 -0.14097932263E+02  0.20499745825E+02  0.10566000000E+00 0. -1.
         13    1    1    0    0    0  0.20465689827E+02  0.22057689686E+02 -0.29305129788E+02  0.42002237206E+02  0.10566000000E+00 0.  1.
         22    1    1    0    0    0 -0.30311874921E+02 -0.33216962058E+02  0.43403062051E+02  0.62498016969E+02  0.00000000000E+00 0. -1.
</event>
<event>
 4    1  0.9897231E-003  0.9118800E+02  0.7818608E-02  0.1130116E+00
         25   -1    0    0    0    0  0.00000000000E+00  0.00000000000E+00  0.99999998245E-14  0.12500000000E+03  0.12500000000E+03 0.  0.
        -13    1    1    0    0    0  0.35337155533E+01  0.19462792779E+02 -0.27147373593E+02  0.33589857181E+02  0.10566000000E+00 0. -1.
         13    1    1    0    0    0 -0.11162936981E+01  0.10754286658E+02 -0.27150054370E+02  0.29223918448E+02  0.10566000000E+00 0.  1.
         22    1    1    0    0    0 -0.24174218552E+01 -0.30217079438E+02  0.54297427963E+02  0.62186224371E+02  0.00000000000E+00 0.  1.
</event>
<event>
 4    1  0.9897231E-003  0.9118800E+02  0.7818608E-02  0.1130116E+00
         25   -1    0    0    0    0  0.00000000000E+00  0.00000000000E+00  0.99999998245E-14  0.12500000000E+03  0.12500000000E+03 0.  0.
        -13    1    1    0    0    0  0.10005313168E+01 -0.43576955569E+02 -0.24390771366E+02  0.49948703801E+02  0.10566000000E+00 0.  1.
         13    1    1    0    0    0 -0.59099139897E+01 -0.92729319660E+01 -0.73316845418E+01  0.13216622597E+02  0.10566000000E+00 0. -1.
         22    1    1    0    0    0  0.49093826729E+01  0.52849887535E+02  0.31722455908E+02  0.61834673602E+02  0.00000000000E+00 0.  1.
</event>
<event>
 4    1  0.9897231E-003  0.9118800E+02  0.7818608E-02  0.1130116E+00
         25   -1    0    0    0    0  0.00000000000E+00  0.00000000000E+00  0.99999998245E-14  0.12500000000E+03  0.12500000000E+03 0.  0.
        -13    1    1    0    0    0 -0.57324809302E+00  0.46102382823E+01  0.13046020600E+01  0.48265993170E+01  0.10566000000E+00 0.  1.
         13    1    1    0    0    0 -0.73239117746E+01  0.54785233047E+02  0.16470064712E+02  0.57674393273E+02  0.10566000000E+00 0. -1.
         22    1    1    0    0    0  0.78971598676E+01 -0.59395471330E+02 -0.17774666772E+02  0.62499007410E+02  0.00000000000E+00 0. -1.
</event>
<event>
 4    1  0.9897231E-003  0.9118800E+02  0.7818608E-02  0.1130116E+00
         25   -1    0    0    0    0  0.00000000000E+00  0.00000000000E+00  0.99999998245E-14  0.12500000000E+03  0.12500000000E+03 0.  0.
        -13    1    1    0    0    0  0.43683254162E+01  0.52379026631E+01  0.55555919162E+02  0.55973111484E+02  0.10566000000E+00 0.  1.
         13    1    1    0    0    0  0.14078627843E+01 -0.73323270587E+00  0.64227587913E+01  0.66168498810E+01  0.10566000000E+00 0. -1.
         22    1    1    0    0    0 -0.57761882005E+01 -0.45046699572E+01 -0.61978677953E+02  0.62410038635E+02  0.00000000000E+00 0.  1.
</event>
<event>
 4    1  0.9897231E-003  0.9118800E+02  0.7818608E-02  0.1130116E+00
         25   -1    0    0    0    0  0.00000000000E+00  0.00000000000E+00  0.99999998245E-14  0.12500000000E+03  0.12500000000E+03 0.  0.
        -13    1    1    0    0    0  0.24103064890E+02  0.38223887402E+02  0.18960105158E+01  0.45228633908E+02  0.10566000000E+00 0.  1.
         13    1    1    0    0    0  0.87645927116E+01  0.14841497632E+02  0.11715972361E+01  0.17276340512E+02  0.10566000000E+00 0. -1.
         22    1    1    0    0    0 -0.32867657602E+02 -0.53065385034E+02 -0.30676077519E+01  0.62495025581E+02  0.00000000000E+00 0.  1.
</event>
<event>
 4    1  0.9897231E-003  0.9118800E+02  0.7818608E-02  0.1130116E+00
         25   -1    0    0    0    0  0.00000000000E+00  0.00000000000E+00  0.99999998245E-14  0.12500000000E+03  0.12500000000E+03 0.  0.
        -13    1    1    0    0    0  0.69286307929E+01  0.34318238375E+02 -0.39708140908E+02  0.52938596772E+02  0.10566000000E+00 0.  1.
         13    1    1    0    0    0  0.13403171302E+02 -0.23106290874E+01 -0.40191505923E+01  0.14182691678E+02  0.10566000000E+00 0. -1.
         22    1    1    0    0    0 -0.20331802095E+02 -0.32007609288E+02  0.43727291500E+02  0.57878711550E+02  0.00000000000E+00 0.  1.
</event>
<event>
 4    1  0.9897231E-003  0.9118800E+02  0.7818608E-02  0.1130116E+00
         25   -1    0    0    0    0  0.00000000000E+00  0.00000000000E+00  0.99999998245E-14  0.12500000000E+03  0.12500000000E+03 0.  0.
        -13    1    1    0    0    0 -0.20545927935E+02  0.55468663193E+00  0.25109136151E+02  0.32448770612E+02  0.10566000000E+00 0.  1.
         13    1    1    0    0    0 -0.19152166321E+02  0.29391910812E+01  0.23003903080E+02  0.30077151460E+02  0.10566000000E+00 0. -1.
         22    1    1    0    0    0  0.39698094256E+02 -0.34938777131E+01 -0.48113039230E+02  0.62474077928E+02  0.00000000000E+00 0.  1.
</event>
<event>
 4    1  0.9897231E-003  0.9118800E+02  0.7818608E-02  0.1130116E+00
         25   -1    0    0    0    0  0.00000000000E+00  0.00000000000E+00  0.99999998245E-14  0.12500000000E+03  0.12500000000E+03 0.  0.
        -13    1    1    0    0    0  0.22380455714E+02  0.91421663639E+01 -0.21794199004E+00  0.24176903576E+02  0.10566000000E+00 0.  1.
         13    1    1    0    0    0  0.34850457484E+02  0.15196221259E+02 -0.53018789190E+01  0.38387505929E+02  0.10566000000E+00 0. -1.
         22    1    1    0    0    0 -0.57230913198E+02 -0.24338387623E+02  0.55198209091E+01  0.62435590494E+02  0.00000000000E+00 0. -1.
</event>
<event>
 4    1  0.9897231E-003  0.9118800E+02  0.7818608E-02  0.1130116E+00
         25   -1    0    0    0    0  0.00000000000E+00  0.00000000000E+00  0.99999998245E-14  0.12500000000E+03  0.12500000000E+03 0.  0.
        -13    1    1    0    0    0 -0.45932995981E+02  0.31868779817E+02 -0.25354199866E+02  0.61386528340E+02  0.10566000000E+00 0. -1.
         13    1    1    0    0    0 -0.89611508233E+00  0.56401338661E+00 -0.34838699911E+00  0.11196744517E+01  0.10566000000E+00 0.  1.
         22    1    1    0    0    0  0.46829111063E+02 -0.32432793203E+02  0.25702586866E+02  0.62493797208E+02  0.00000000000E+00 0. -1.
</event>
<event>
 4    1  0.9897231E-003  0.9118800E+02  0.7818608E-02  0.1130116E+00
         25   -1    0    0    0    0  0.00000000000E+00  0.00000000000E+00  0.99999998245E-14  0.12500000000E+03  0.12500000000E+03 0.  0.
        -13    1    1    0    0    0  0.38436395197E+02  0.17010252592E+02 -0.23520894239E+00  0.42032982957E+02  0.10566000000E+00 0.  1.
         13    1    1    0    0    0  0.18236799552E+02  0.91952013928E+01 -0.17324008248E+01  0.20497437967E+02  0.10566000000E+00 0. -1.
         22    1    1    0    0    0 -0.56673194750E+02 -0.26205453985E+02  0.19676097671E+01  0.62469579076E+02  0.00000000000E+00 0. -1.
</event>
<event>
 4    1  0.9897231E-003  0.9118800E+02  0.7818608E-02  0.1130116E+00
         25   -1    0    0    0    0  0.00000000000E+00  0.00000000000E+00  0.99999998245E-14  0.12500000000E+03  0.12500000000E+03 0.  0.
        -13    1    1    0    0    0  0.37941805724E+00  0.78101434634E+00 -0.19039285994E+01  0.20952445247E+01  0.10566000000E+00 0.  1.
         13    1    1    0    0    0  0.86311036150E+01  0.48387403149E+02 -0.35366250447E+02  0.60552618175E+02  0.10566000000E+00 0. -1.
         22    1    1    0    0    0 -0.90105216723E+01 -0.49168417495E+02  0.37270179046E+02  0.62352137300E+02  0.00000000000E+00 0. -1.
</event>
<event>
 4    1  0.9897231E-003  0.9118800E+02  0.7818608E-02  0.1130116E+00
         25   -1    0    0    0    0  0.00000000000E+00  0.00000000000E+00  0.99999998245E-14  0.12500000000E+03  0.12500000000E+03 0.  0.
        -13    1    1    0    0    0  0.23054887243E+01  0.36806080621E+02  0.71173449632E+01  0.37558895248E+02  0.10566000000E+00 0. -1.
         13    1    1    0    0    0  0.12909746483E+01  0.24651927962E+02  0.36157862746E+01  0.24949333502E+02  0.10566000000E+00 0.  1.
         22    1    1    0    0    0 -0.35964633726E+01 -0.61458008583E+02 -0.10733131238E+02  0.62491771250E+02  0.00000000000E+00 0. -1.
</event>
<event>
 4    1  0.9897231E-003  0.9118800E+02  0.7818608E-02  0.1130116E+00
         25   -1    0    0    0    0  0.00000000000E+00  0.00000000000E+00  0.99999998245E-14  0.12500000000E+03  0.12500000000E+03 0.  0.
        -13    1    1    0    0    0  0.30721433843E+02 -0.12133334137E+02  0.17176920715E+02  0.37230123072E+02  0.10566000000E+00 0.  1.
         13    1    1    0    0    0  0.20586678862E+02 -0.76611334037E+01  0.12505737987E+02  0.25276648477E+02  0.10566000000E+00 0. -1.
         22    1    1    0    0    0 -0.51308112705E+02  0.19794467541E+02 -0.29682658702E+02  0.62493228451E+02  0.00000000000E+00 0.  1.
</event>
<event>
 4    1  0.9897231E-003  0.9118800E+02  0.7818608E-02  0.1130116E+00
         25   -1    0    0    0    0  0.00000000000E+00  0.00000000000E+00  0.99999998245E-14  0.12500000000E+03  0.12500000000E+03 0.  0.
        -13    1    1    0    0    0 -0.24946895424E+02  0.44605508507E+02  0.61371111079E+01  0.51474986909E+02  0.10566000000E+00 0.  1.
         13    1    1    0    0    0 -0.40970926798E+01  0.10209721830E+02  0.11614863993E+01  0.11062766515E+02  0.10566000000E+00 0. -1.
         22    1    1    0    0    0  0.29043988104E+02 -0.54815230337E+02 -0.72985975072E+01  0.62462246577E+02  0.00000000000E+00 0.  1.
</event>
<event>
 4    1  0.9897231E-003  0.9118800E+02  0.7818608E-02  0.1130116E+00
         25   -1    0    0    0    0  0.00000000000E+00  0.00000000000E+00  0.99999998245E-14  0.12500000000E+03  0.12500000000E+03 0.  0.
        -13    1    1    0    0    0 -0.51068316198E+02  0.13646817571E+02 -0.86832986402E+01  0.53568828515E+02  0.10566000000E+00 0. -1.
         13    1    1    0    0    0 -0.85126611020E+01  0.22788619199E+01 -0.14500245361E+01  0.89315365911E+01  0.10566000000E+00 0. -1.
         22    1    1    0    0    0  0.59580977300E+02 -0.15925679491E+02  0.10133323176E+02  0.62499634894E+02  0.00000000000E+00 0. -1.
</event>
<event>
 4    1  0.9897231E-003  0.9118800E+02  0.7818608E-02  0.1130116E+00
         25   -1    0    0    0    0  0.00000000000E+00  0.00000000000E+00  0.99999998245E-14  0.12500000000E+03  0.12500000000E+03 0.  0.
        -13    1    1    0    0    0  0.63807250752E+01  0.70333103981E+01  0.74007087359E+01  0.12040048234E+02  0.10566000000E+00 0.  1.
         13    1    1    0    0    0  0.26498724061E+02  0.28707679843E+02  0.31938312264E+02  0.50461670733E+02  0.10566000000E+00 0. -1.
         22    1    1    0    0    0 -0.32879449136E+02 -0.35740990241E+02 -0.39339021000E+02  0.62498281034E+02  0.00000000000E+00 0. -1.
</event>
<event>
 4    1  0.9897231E-003  0.9118800E+02  0.7818608E-02  0.1130116E+00
         25   -1    0    0    0    0  0.00000000000E+00  0.00000000000E+00  0.99999998245E-14  0.12500000000E+03  0.12500000000E+03 0.  0.
        -13    1    1    0    0    0 -0.20201611919E+02 -0.44243023749E+01  0.25634559116E+02  0.32936626433E+02  0.10566000000E+00 0. -1.
         13    1    1    0    0    0 -0.18184942836E+02 -0.80681653270E+01  0.21975324315E+02  0.29643101735E+02  0.10566000000E+00 0.  1.
         22    1    1    0    0    0  0.38386554755E+02  0.12492467702E+02 -0.47609883432E+02  0.62420271832E+02  0.00000000000E+00 0. -1.
</event>
<event>
 4    1  0.9897231E-003  0.9118800E+02  0.7818608E-02  0.1130116E+00
         25   -1    0    0    0    0  0.00000000000E+00  0.00000000000E+00  0.99999998245E-14  0.12500000000E+03  0.12500000000E+03 0.  0.
        -13    1    1    0    0    0 -0.56183703747E+00  0.69837426416E+00  0.87268207376E+00  0.12554383724E+01  0.10566000000E+00 0.  1.
         13    1    1    0    0    0 -0.42375056196E+01  0.36231596184E+02  0.49258183950E+02  0.61294900816E+02  0.10566000000E+00 0. -1.
         22    1    1    0    0    0  0.47993426571E+01 -0.36929970448E+02 -0.50130866024E+02  0.62449660812E+02  0.00000000000E+00 0. -1.
</event>
<event>
 4    1  0.9897231E-003  0.9118800E+02  0.7818608E-02  0.1130116E+00
         25   -1    0    0    0    0  0.00000000000E+00  0.00000000000E+00  0.99999998245E-14  0.12500000000E+03  0.12500000000E+03 0.  0.
        -13    1    1    0    0    0  0.32329619715E+01  0.11314530808E+02 -0.14748841837E+01  0.11859894515E+02  0.10566000000E+00 0. -1.
         13    1    1    0    0    0  0.15204803937E+02  0.47683679863E+02 -0.77421349679E+01  0.50644557515E+02  0.10566000000E+00 0.  1.
         22    1    1    0    0    0 -0.18437765908E+02 -0.58998210671E+02  0.92170191515E+01  0.62495547970E+02  0.00000000000E+00 0.  1.
</event>
<event>
 4    1  0.9897231E-003  0.9118800E+02  0.7818608E-02  0.1130116E+00
         25   -1    0    0    0    0  0.00000000000E+00  0.00000000000E+00  0.99999998245E-14  0.12500000000E+03  0.12500000000E+03 0.  0.
        -13    1    1    0    0    0  0.17231395390E+02  0.75303846531E+01 -0.41907457994E+02  0.45933363470E+02  0.10566000000E+00 0.  1.
         13    1    1    0    0    0  0.75911594411E+01  0.33453287150E+01 -0.14376217421E+02  0.16598304650E+02  0.10566000000E+00 0. -1.
         22    1    1    0    0    0 -0.24822554831E+02 -0.10875713368E+02  0.56283675416E+02  0.62468331880E+02  0.00000000000E+00 0.  1.
</event>
<event>
 4    1  0.9897231E-003  0.9118800E+02  0.7818608E-02  0.1130116E+00
         25   -1    0    0    0    0  0.00000000000E+00  0.00000000000E+00  0.99999998245E-14  0.12500000000E+03  0.12500000000E+03 0.  0.
        -13    1    1    0    0    0 -0.43526014476E+02  0.27449568689E+02 -0.33342867519E+02  0.61316806308E+02  0.10566000000E+00 0. -1.
         13    1    1    0    0    0 -0.14829870406E+01  0.22709163284E-01  0.53993640046E+00  0.15819170714E+01  0.10566000000E+00 0.  1.
         22    1    1    0    0    0  0.45009001516E+02 -0.27472277853E+02  0.32802931119E+02  0.62101276621E+02  0.00000000000E+00 0. -1.
</event>
<event>
 4    1  0.9897231E-003  0.9118800E+02  0.7818608E-02  0.1130116E+00
         25   -1    0    0    0    0  0.00000000000E+00  0.00000000000E+00  0.99999998245E-14  0.12500000000E+03  0.12500000000E+03 0.  0.
        -13    1    1    0    0    0  0.32998656780E+01  0.11511211303E+02  0.15842872118E+02  0.19859628902E+02  0.10566000000E+00 0. -1.
         13    1    1    0    0    0  0.74366004848E+01  0.25101082516E+02  0.33658636567E+02  0.42641322093E+02  0.10566000000E+00 0.  1.
         22    1    1    0    0    0 -0.10736466163E+02 -0.36612293819E+02 -0.49501508685E+02  0.62499049005E+02  0.00000000000E+00 0.  1.
</event>
<event>
 4    1  0.9897231E-003  0.9118800E+02  0.7818608E-02  0.1130116E+00
         25   -1    0    0    0    0  0.00000000000E+00  0.00000000000E+00  0.99999998245E-14  0.12500000000E+03  0.12500000000E+03 0.  0.
        -13    1    1    0    0    0  0.15637257987E+02  0.28173946985E+02 -0.83571719568E+01  0.33288866205E+02  0.10566000000E+00 0.  1.
         13    1    1    0    0    0  0.13875848491E+02  0.24697505808E+02 -0.71275154723E+01  0.29211617643E+02  0.10566000000E+00 0. -1.
         22    1    1    0    0    0 -0.29513106478E+02 -0.52871452793E+02  0.15484687429E+02  0.62499516152E+02  0.00000000000E+00 0. -1.
</event>
<event>
 4    1  0.9897231E-003  0.9118800E+02  0.7818608E-02  0.1130116E+00
         25   -1    0    0    0    0  0.00000000000E+00  0.00000000000E+00  0.99999998245E-14  0.12500000000E+03  0.12500000000E+03 0.  0.
        -13    1    1    0    0    0 -0.36036552004E+02  0.12144295620E+02  0.11825932345E+02  0.39824374902E+02  0.10566000000E+00 0.  1.
         13    1    1    0    0    0 -0.19791569961E+02  0.12276778886E+02 -0.12070119061E+01  0.23321526175E+02  0.10566000000E+00 0. -1.
         22    1    1    0    0    0  0.55828121966E+02 -0.24421074507E+02 -0.10618920439E+02  0.61854098923E+02  0.00000000000E+00 0.  1.
</event>
<event>
 4    1  0.9897231E-003  0.9118800E+02  0.7818608E-02  0.1130116E+00
         25   -1    0    0    0    0  0.00000000000E+00  0.00000000000E+00  0.99999998245E-14  0.12500000000E+03  0.12500000000E+03 0.  0.
        -13    1    1    0    0    0 -0.31144492276E+02  0.14798577032E+02  0.50416383454E+01  0.34848336582E+02  0.10566000000E+00 0. -1.
         13    1    1    0    0    0 -0.24508314787E+02  0.12203228885E+02  0.38873452477E+01  0.27653189799E+02  0.10566000000E+00 0.  1.
         22    1    1    0    0    0  0.55652807063E+02 -0.27001805917E+02 -0.89289835931E+01  0.62498473619E+02  0.00000000000E+00 0.  1.
</event>
<event>
 4    1  0.9897231E-003  0.9118800E+02  0.7818608E-02  0.1130116E+00
         25   -1    0    0    0    0  0.00000000000E+00  0.00000000000E+00  0.99999998245E-14  0.12500000000E+03  0.12500000000E+03 0.  0.
        -13    1    1    0    0    0  0.15314591380E+02 -0.58092139681E+01 -0.30208900519E+01  0.16655948391E+02  0.10566000000E+00 0. -1.
         13    1    1    0    0    0  0.42168828771E+02 -0.15527041433E+02 -0.90826654106E+01  0.45845448090E+02  0.10566000000E+00 0.  1.
         22    1    1    0    0    0 -0.57483420152E+02  0.21336255401E+02  0.12103555463E+02  0.62498603518E+02  0.00000000000E+00 0.  1.
</event>
<event>
 4    1  0.9897231E-003  0.9118800E+02  0.7818608E-02  0.1130116E+00
         25   -1    0    0    0    0  0.00000000000E+00  0.00000000000E+00  0.99999998245E-14  0.12500000000E+03  0.12500000000E+03 0.  0.
        -13    1    1    0    0    0  0.23089619970E+02 -0.10298024199E+02  0.18128307217E+02  0.31109910629E+02  0.10566000000E+00 0. -1.
         13    1    1    0    0    0  0.19130968770E+02 -0.18362046682E+02  0.17395185695E+02  0.31713756855E+02  0.10566000000E+00 0.  1.
         22    1    1    0    0    0 -0.42220588740E+02  0.28660070880E+02 -0.35523492913E+02  0.62176332516E+02  0.00000000000E+00 0. -1.
</event>
<event>
 4    1  0.9897231E-003  0.9118800E+02  0.7818608E-02  0.1130116E+00
         25   -1    0    0    0    0  0.00000000000E+00  0.00000000000E+00  0.99999998245E-14  0.12500000000E+03  0.12500000000E+03 0.  0.
        -13    1    1    0    0    0  0.93272709646E+00  0.57445606347E+02  0.12826670221E+02  0.58867667709E+02  0.10566000000E+00 0.  1.
         13    1    1    0    0    0 -0.88621211968E+00  0.35188580960E+01  0.67037758898E+00  0.36916533381E+01  0.10566000000E+00 0. -1.
         22    1    1    0    0    0 -0.46514976782E-01 -0.60964464444E+02 -0.13497047810E+02  0.62440678953E+02  0.00000000000E+00 0.  1.
</event>
<event>
 4    1  0.9897231E-003  0.9118800E+02  0.7818608E-02  0.1130116E+00
         25   -1    0    0    0    0  0.00000000000E+00  0.00000000000E+00  0.99999998245E-14  0.12500000000E+03  0.12500000000E+03 0.  0.
        -13    1    1    0    0    0 -0.73459061586E+01 -0.43462669619E+02  0.80053153475E+00  0.44086483218E+02  0.10566000000E+00 0.  1.
         13    1    1    0    0    0 -0.26671078787E+01 -0.18204588377E+02  0.82177515357E+00  0.18417572611E+02  0.10566000000E+00 0. -1.
         22    1    1    0    0    0  0.10013014037E+02  0.61667257997E+02 -0.16223066883E+01  0.62495944172E+02  0.00000000000E+00 0.  1.
</event>
<event>
 4    1  0.9897231E-003  0.9118800E+02  0.7818608E-02  0.1130116E+00
         25   -1    0    0    0    0  0.00000000000E+00  0.00000000000E+00  0.99999998245E-14  0.12500000000E+03  0.12500000000E+03 0.  0.
        -13    1    1    0    0    0  0.45009163953E+01 -0.19458083777E+01 -0.54256833732E+00  0.49345681752E+01  0.10566000000E+00 0. -1.
         13    1    1    0    0    0  0.44500145895E+02 -0.32206942995E+02  0.18053268562E+02  0.57822848698E+02  0.10566000000E+00 0.  1.
         22    1    1    0    0    0 -0.49001062290E+02  0.34152751372E+02 -0.17510700225E+02  0.62242583127E+02  0.00000000000E+00 0.  1.
</event>
<event>
 4    1  0.9897231E-003  0.9118800E+02  0.7818608E-02  0.1130116E+00
         25   -1    0    0    0    0  0.00000000000E+00  0.00000000000E+00  0.99999998245E-14  0.12500000000E+03  0.12500000000E+03 0.  0.
        -13    1    1    0    0    0 -0.53786518201E+02  0.22762665753E+02  0.28520081231E+01  0.58474555208E+02  0.10566000000E+00 0.  1.
         13    1    1    0    0    0 -0.37536450092E+01  0.10839279407E+01  0.12531726969E+01  0.41044313223E+01  0.10566000000E+00 0. -1.
         22    1    1    0    0    0  0.57540163210E+02 -0.23846593694E+02 -0.41051808200E+01  0.62421013470E+02  0.00000000000E+00 0.  1.
</event>
<event>
 4    1  0.9897231E-003  0.9118800E+02  0.7818608E-02  0.1130116E+00
         25   -1    0    0    0    0  0.00000000000E+00  0.00000000000E+00  0.99999998245E-14  0.12500000000E+03  0.12500000000E+03 0.  0.
        -13    1    1    0    0    0  0.47626624425E+01  0.10521048375E+01  0.13203533941E+02  0.14076020414E+02  0.10566000000E+00 0.  1.
         13    1    1    0    0    0  0.27831695993E+02  0.16537509605E+02  0.36596346209E+02  0.48860988996E+02  0.10566000000E+00 0. -1.
         22    1    1    0    0    0 -0.32594358436E+02 -0.17589614442E+02 -0.49799880150E+02  0.62062990590E+02  0.00000000000E+00 0. -1.
</event>
<event>
 4    1  0.9897231E-003  0.9118800E+02  0.7818608E-02  0.1130116E+00
         25   -1    0    0    0    0  0.00000000000E+00  0.00000000000E+00  0.99999998245E-14  0.12500000000E+03  0.12500000000E+03 0.  0.
        -13    1    1    0    0    0  0.60561890176E+01  0.83636392430E+01  0.25895812025E+01  0.10646360018E+02  0.10566000000E+00 0. -1.
         13    1    1    0    0    0 -0.65302618636E+01 -0.79313513001E+01  0.55407987189E+02  0.56352523119E+02  0.10566000000E+00 0.  1.
         22    1    1    0    0    0  0.47407284602E+00 -0.43228794284E+00 -0.57997568392E+02  0.58001116863E+02  0.00000000000E+00 0.  1.
</event>
<event>
 4    1  0.9897231E-003  0.9118800E+02  0.7818608E-02  0.1130116E+00
         25   -1    0    0    0    0  0.00000000000E+00  0.00000000000E+00  0.99999998245E-14  0.12500000000E+03  0.12500000000E+03 0.  0.
        -13    1    1    0    0    0  0.10270764590E+02  0.51995437936E+02  0.16622020403E+02  0.55545628970E+02  0.10566000000E+00 0. -1.
         13    1    1    0    0    0  0.12083454511E+01  0.65624032567E+01  0.19604901078E+01  0.69555676067E+01  0.10566000000E+00 0.  1.
         22    1    1    0    0    0 -0.11479110041E+02 -0.58557841192E+02 -0.18582510511E+02  0.62498803423E+02  0.00000000000E+00 0. -1.
</event>
<event>
 4    1  0.9897231E-003  0.9118800E+02  0.7818608E-02  0.1130116E+00
         25   -1    0    0    0    0  0.00000000000E+00  0.00000000000E+00  0.99999998245E-14  0.12500000000E+03  0.12500000000E+03 0.  0.
        -13    1    1    0    0    0 -0.41817440476E+01 -0.19647368082E+02  0.23040357321E+02  0.30567552820E+02  0.10566000000E+00 0.  1.
         13    1    1    0    0    0 -0.27481175938E+01 -0.19724935095E+02  0.24981157933E+02  0.31948311857E+02  0.10566000000E+00 0. -1.
         22    1    1    0    0    0  0.69298616414E+01  0.39372303177E+02 -0.48021515254E+02  0.62484135324E+02  0.00000000000E+00 0. -1.
</event>
<event>
 4    1  0.9897231E-003  0.9118800E+02  0.7818608E-02  0.1130116E+00
         25   -1    0    0    0    0  0.00000000000E+00  0.00000000000E+00  0.99999998245E-14  0.12500000000E+03  0.12500000000E+03 0.  0.
        -13    1    1    0    0    0  0.34241914801E+02 -0.26816069706E+01 -0.10368959575E+02  0.35877935168E+02  0.10566000000E+00 0.  1.
         13    1    1    0    0    0  0.25607449874E+02 -0.26930036525E+01 -0.67916276728E+01  0.26629516109E+02  0.10566000000E+00 0. -1.
         22    1    1    0    0    0 -0.59849364675E+02  0.53746106231E+01  0.17160587248E+02  0.62492548724E+02  0.00000000000E+00 0. -1.
</event>
<event>
 4    1  0.9897231E-003  0.9118800E+02  0.7818608E-02  0.1130116E+00
         25   -1    0    0    0    0  0.00000000000E+00  0.00000000000E+00  0.99999998245E-14  0.12500000000E+03  0.12500000000E+03 0.  0.
        -13    1    1    0    0    0  0.11373464536E+02 -0.54654993677E+02  0.15056443862E+02  0.57820685703E+02  0.10566000000E+00 0. -1.
         13    1    1    0    0    0  0.92465775243E+00 -0.44093516993E+01  0.12627268800E+01  0.46800659799E+01  0.10566000000E+00 0. -1.
         22    1    1    0    0    0 -0.12298122288E+02  0.59064345376E+02 -0.16319170742E+02  0.62499248317E+02  0.00000000000E+00 0. -1.
</event>
<event>
 4    1  0.9897231E-003  0.9118800E+02  0.7818608E-02  0.1130116E+00
         25   -1    0    0    0    0  0.00000000000E+00  0.00000000000E+00  0.99999998245E-14  0.12500000000E+03  0.12500000000E+03 0.  0.
        -13    1    1    0    0    0  0.64238626839E+00 -0.34564219501E+02  0.28712812827E+02  0.44939233575E+02  0.10566000000E+00 0.  1.
         13    1    1    0    0    0  0.34061421242E+01 -0.13254718012E+02  0.11166790772E+02  0.17663457587E+02  0.10566000000E+00 0. -1.
         22    1    1    0    0    0 -0.40485283926E+01  0.47818937512E+02 -0.39879603600E+02  0.62397308838E+02  0.00000000000E+00 0.  1.
</event>
<event>
 4    1  0.9897231E-003  0.9118800E+02  0.7818608E-02  0.1130116E+00
         25   -1    0    0    0    0  0.00000000000E+00  0.00000000000E+00  0.99999998245E-14  0.12500000000E+03  0.12500000000E+03 0.  0.
        -13    1    1    0    0    0 -0.41987148610E+02  0.10600025007E+02  0.30539631328E+02  0.52990201210E+02  0.10566000000E+00 0.  1.
         13    1    1    0    0    0 -0.72612124669E+01  0.19206312328E+01  0.58398895908E+01  0.95146994325E+01  0.10566000000E+00 0. -1.
         22    1    1    0    0    0  0.49248361077E+02 -0.12520656240E+02 -0.36379520918E+02  0.62495099358E+02  0.00000000000E+00 0.  1.
</event>
<event>
 4    1  0.9897231E-003  0.9118800E+02  0.7818608E-02  0.1130116E+00
         25   -1    0    0    0    0  0.00000000000E+00  0.00000000000E+00  0.99999998245E-14  0.12500000000E+03  0.12500000000E+03 0.  0.
        -13    1    1    0    0    0 -0.26498825478E+01  0.69522611353E+01  0.32751981887E+02  0.33586593962E+02  0.10566000000E+00 0. -1.
         13    1    1    0    0    0 -0.36340572279E+01  0.59233689920E+01  0.28074692147E+02  0.28922174457E+02  0.10566000000E+00 0.  1.
         22    1    1    0    0    0  0.62839397757E+01 -0.12875630127E+02 -0.60826674035E+02  0.62491231580E+02  0.00000000000E+00 0. -1.
</event>
<event>
 4    1  0.9897231E-003  0.9118800E+02  0.7818608E-02  0.1130116E+00
         25   -1    0    0    0    0  0.00000000000E+00  0.00000000000E+00  0.99999998245E-14  0.12500000000E+03  0.12500000000E+03 0.  0.
        -13    1    1    0    0    0 -0.20704093926E+02  0.54227293656E+02  0.17865692345E+02  0.60732635457E+02  0.10566000000E+00 0. -1.
         13    1    1    0    0    0 -0.35919937535E+00  0.15849907138E+01  0.72552735287E+00  0.17829115877E+01  0.10566000000E+00 0.  1.
         22    1    1    0    0    0  0.21063293301E+02 -0.55812284370E+02 -0.18591219698E+02  0.62484452955E+02  0.00000000000E+00 0. -1.
</event>
<event>
 4    1  0.9897231E-003  0.9118800E+02  0.7818608E-02  0.1130116E+00
         25   -1    0    0    0    0  0.00000000000E+00  0.00000000000E+00  0.99999998245E-14  0.12500000000E+03  0.12500000000E+03 0.  0.
        -13    1    1    0    0    0  0.95707327378E+01 -0.65388052191E+01  0.17388462065E+02  0.20897958653E+02  0.10566000000E+00 0.  1.
         13    1    1    0    0    0  0.14156270769E+02 -0.22964203965E+02  0.32011277627E+02  0.41862724770E+02  0.10566000000E+00 0. -1.
         22    1    1    0    0    0 -0.23727003507E+02  0.29503009184E+02 -0.49399739692E+02  0.62239316577E+02  0.00000000000E+00 0. -1.
</event>
<event>
 4    1  0.9897231E-003  0.9118800E+02  0.7818608E-02  0.1130116E+00
         25   -1    0    0    0    0  0.00000000000E+00  0.00000000000E+00  0.99999998245E-14  0.12500000000E+03  0.12500000000E+03 0.  0.
        -13    1    1    0    0    0  0.91725283197E+01  0.39880691017E+01  0.11401256054E+01  0.10067324439E+02  0.10566000000E+00 0.  1.
         13    1    1    0    0    0  0.45449817982E+02  0.25504481075E+02  0.59400434912E+01  0.52454359115E+02  0.10566000000E+00 0.  1.
         22    1    1    0    0    0 -0.54622346302E+02 -0.29492550177E+02 -0.70801690966E+01  0.62478316445E+02  0.00000000000E+00 0.  1.
</event>
<event>
 4    1  0.9897231E-003  0.9118800E+02  0.7818608E-02  0.1130116E+00
         25   -1    0    0    0    0  0.00000000000E+00  0.00000000000E+00  0.99999998245E-14  0.12500000000E+03  0.12500000000E+03 0.  0.
        -13    1    1    0    0    0  0.19398152683E+02 -0.24120807127E+02 -0.13546753781E+02  0.33787976649E+02  0.10566000000E+00 0.  1.
         13    1    1    0    0    0  0.19128385849E+02  0.20888710340E+01  0.36488775381E+02  0.41251671727E+02  0.10566000000E+00 0. -1.
         22    1    1    0    0    0 -0.38526538532E+02  0.22031936093E+02 -0.22942021600E+02  0.49960351624E+02  0.00000000000E+00 0. -1.
</event>
<event>
 4    1  0.9897231E-003  0.9118800E+02  0.7818608E-02  0.1130116E+00
         25   -1    0    0    0    0  0.00000000000E+00  0.00000000000E+00  0.99999998245E-14  0.12500000000E+03  0.12500000000E+03 0.  0.
        -13    1    1    0    0    0  0.30232637722E+01  0.88547120237E+01 -0.26050952038E+02  0.27680486176E+02  0.10566000000E+00 0.  1.
         13    1    1    0    0    0  0.34645128546E+01  0.18426497499E+02 -0.29579293903E+02  0.35021200026E+02  0.10566000000E+00 0. -1.
         22    1    1    0    0    0 -0.64877766267E+01 -0.27281209523E+02  0.55630245941E+02  0.62298313798E+02  0.00000000000E+00 0. -1.
</event>
<event>
 4    1  0.9897231E-003  0.9118800E+02  0.7818608E-02  0.1130116E+00
         25   -1    0    0    0    0  0.00000000000E+00  0.00000000000E+00  0.99999998245E-14  0.12500000000E+03  0.12500000000E+03 0.  0.
        -13    1    1    0    0    0  0.31912118154E+02  0.34366312793E+02 -0.19930189859E+02  0.50957338744E+02  0.10566000000E+00 0. -1.
         13    1    1    0    0    0  0.78672196679E+01  0.80355961051E+01 -0.28451297105E+01  0.11600425732E+02  0.10566000000E+00 0.  1.
         22    1    1    0    0    0 -0.39779337821E+02 -0.42401908898E+02  0.22775319569E+02  0.62442235524E+02  0.00000000000E+00 0. -1.
</event>
<event>
 4    1  0.9897231E-003  0.9118800E+02  0.7818608E-02  0.1130116E+00
         25   -1    0    0    0    0  0.00000000000E+00  0.00000000000E+00  0.99999998245E-14  0.12500000000E+03  0.12500000000E+03 0.  0.
        -13    1    1    0    0    0  0.27095480478E+02 -0.17384099502E+02 -0.13278878557E+01  0.32220279763E+02  0.10566000000E+00 0. -1.
         13    1    1    0    0    0  0.24629245293E+02 -0.17627790475E+02 -0.51825380869E+00  0.30292218007E+02  0.10566000000E+00 0.  1.
         22    1    1    0    0    0 -0.51724725771E+02  0.35011889977E+02  0.18461416643E+01  0.62487502230E+02  0.00000000000E+00 0. -1.
</event>
<event>
 4    1  0.9897231E-003  0.9118800E+02  0.7818608E-02  0.1130116E+00
         25   -1    0    0    0    0  0.00000000000E+00  0.00000000000E+00  0.99999998245E-14  0.12500000000E+03  0.12500000000E+03 0.  0.
        -13    1    1    0    0    0  0.90764426191E+01 -0.31755116787E+02  0.17747878468E+02  0.37493567541E+02  0.10566000000E+00 0.  1.
         13    1    1    0    0    0  0.14415386854E+02 -0.21834369215E+02  0.64307516514E+00  0.26171888867E+02  0.10566000000E+00 0. -1.
         22    1    1    0    0    0 -0.23491829473E+02  0.53589486003E+02 -0.18390953633E+02  0.61334543592E+02  0.00000000000E+00 0.  1.
</event>
<event>
 4    1  0.9897231E-003  0.9118800E+02  0.7818608E-02  0.1130116E+00
         25   -1    0    0    0    0  0.00000000000E+00  0.00000000000E+00  0.99999998245E-14  0.12500000000E+03  0.12500000000E+03 0.  0.
        -13    1    1    0    0    0 -0.20828195798E+01 -0.63280261625E+01 -0.12526463962E+01  0.67795530491E+01  0.10566000000E+00 0.  1.
         13    1    1    0    0    0 -0.17336695128E+02 -0.51658623889E+02 -0.11650879635E+02  0.55721886009E+02  0.10566000000E+00 0. -1.
         22    1    1    0    0    0  0.19419514708E+02  0.57986650052E+02  0.12903526032E+02  0.62498560942E+02  0.00000000000E+00 0. -1.
</event>
<event>
 4    1  0.9897231E-003  0.9118800E+02  0.7818608E-02  0.1130116E+00
         25   -1    0    0    0    0  0.00000000000E+00  0.00000000000E+00  0.99999998245E-14  0.12500000000E+03  0.12500000000E+03 0.  0.
        -13    1    1    0    0    0  0.36775697322E+02 -0.38899588302E+02 -0.57265640631E+01  0.53837111583E+02  0.10566000000E+00 0. -1.
         13    1    1    0    0    0  0.58191933435E+01 -0.63453578962E+01 -0.96040813027E+00  0.86637247078E+01  0.10566000000E+00 0.  1.
         22    1    1    0    0    0 -0.42594890665E+02  0.45244946198E+02  0.66869721934E+01  0.62499163709E+02  0.00000000000E+00 0. -1.
</event>
<event>
 4    1  0.9897231E-003  0.9118800E+02  0.7818608E-02  0.1130116E+00
         25   -1    0    0    0    0  0.00000000000E+00  0.00000000000E+00  0.99999998245E-14  0.12500000000E+03  0.12500000000E+03 0.  0.
        -13    1    1    0    0    0  0.15615552882E+01  0.14981158419E+02 -0.66107009147E+01  0.16449501303E+02  0.10566000000E+00 0.  1.
         13    1    1    0    0    0  0.71199105492E+01  0.39932565310E+02 -0.21871689743E+02  0.46083455543E+02  0.10566000000E+00 0. -1.
         22    1    1    0    0    0 -0.86814658374E+01 -0.54913723729E+02  0.28482390658E+02  0.62467043155E+02  0.00000000000E+00 0. -1.
</event>
<event>
 4    1  0.9897231E-003  0.9118800E+02  0.7818608E-02  0.1130116E+00
         25   -1    0    0    0    0  0.00000000000E+00  0.00000000000E+00  0.99999998245E-14  0.12500000000E+03  0.12500000000E+03 0.  0.
        -13    1    1    0    0    0 -0.99476156544E-01 -0.14938365838E+02  0.18595436847E+02  0.23853010396E+02  0.10566000000E+00 0.  1.
         13    1    1    0    0    0  0.12979464467E+02 -0.25290788270E+02  0.26849559702E+02  0.39102435850E+02  0.10566000000E+00 0. -1.
         22    1    1    0    0    0 -0.12879988311E+02  0.40229154108E+02 -0.45444996549E+02  0.62044553753E+02  0.00000000000E+00 0. -1.
</event>
<event>
 4    1  0.9897231E-003  0.9118800E+02  0.7818608E-02  0.1130116E+00
         25   -1    0    0    0    0  0.00000000000E+00  0.00000000000E+00  0.99999998245E-14  0.12500000000E+03  0.12500000000E+03 0.  0.
        -13    1    1    0    0    0  0.57824171043E+00  0.99586602383E+00 -0.23299508432E+02  0.23328188310E+02  0.10566000000E+00 0.  1.
         13    1    1    0    0    0  0.26069384576E+01  0.25125066933E+01 -0.39012298509E+02  0.39180089549E+02  0.10566000000E+00 0. -1.
         22    1    1    0    0    0 -0.31851801680E+01 -0.35083727172E+01  0.62311806942E+02  0.62491722141E+02  0.00000000000E+00 0. -1.
</event>
<event>
 4    1  0.9897231E-003  0.9118800E+02  0.7818608E-02  0.1130116E+00
         25   -1    0    0    0    0  0.00000000000E+00  0.00000000000E+00  0.99999998245E-14  0.12500000000E+03  0.12500000000E+03 0.  0.
        -13    1    1    0    0    0  0.16745053632E+02 -0.25496449162E+01 -0.17118857315E+02  0.24082440702E+02  0.10566000000E+00 0.  1.
         13    1    1    0    0    0  0.28800543725E+02 -0.12267631405E+02 -0.22670051597E+02  0.38651112566E+02  0.10566000000E+00 0. -1.
         22    1    1    0    0    0 -0.45545597358E+02  0.14817276322E+02  0.39788908912E+02  0.62266446732E+02  0.00000000000E+00 0. -1.
</event>
<event>
 4    1  0.9897231E-003  0.9118800E+02  0.7818608E-02  0.1130116E+00
         25   -1    0    0    0    0  0.00000000000E+00  0.00000000000E+00  0.99999998245E-14  0.12500000000E+03  0.12500000000E+03 0.  0.
        -13    1    1    0    0    0  0.14702189715E+01 -0.19197667903E+02  0.21395548195E+02  0.28783548137E+02  0.10566000000E+00 0.  1.
         13    1    1    0    0    0  0.17512977606E+01 -0.22058390937E+02  0.25440834679E+02  0.33717753302E+02  0.10566000000E+00 0.  1.
         22    1    1    0    0    0 -0.32215167320E+01  0.41256058840E+02 -0.46836382874E+02  0.62498698561E+02  0.00000000000E+00 0.  1.
</event>
<event>
 4    1  0.9897231E-003  0.9118800E+02  0.7818608E-02  0.1130116E+00
         25   -1    0    0    0    0  0.00000000000E+00  0.00000000000E+00  0.99999998245E-14  0.12500000000E+03  0.12500000000E+03 0.  0.
        -13    1    1    0    0    0  0.22623274863E+02 -0.11748767881E+02 -0.20172269208E+02  0.32508117775E+02  0.10566000000E+00 0.  1.
         13    1    1    0    0    0  0.20773307309E+02 -0.10743669442E+02 -0.18776792079E+02  0.29992262577E+02  0.10566000000E+00 0.  1.
         22    1    1    0    0    0 -0.43396582172E+02  0.22492437323E+02  0.38949061288E+02  0.62499619648E+02  0.00000000000E+00 0.  1.
</event>
<event>
 4    1  0.9897231E-003  0.9118800E+02  0.7818608E-02  0.1130116E+00
         25   -1    0    0    0    0  0.00000000000E+00  0.00000000000E+00  0.99999998245E-14  0.12500000000E+03  0.12500000000E+03 0.  0.
        -13    1    1    0    0    0  0.97396093810E+01  0.32459864290E+00  0.83037349183E+01  0.12803457846E+02  0.10566000000E+00 0.  1.
         13    1    1    0    0    0  0.40433608903E+02 -0.80360807723E+00  0.28922410532E+02  0.49719608907E+02  0.10566000000E+00 0. -1.
         22    1    1    0    0    0 -0.50173218284E+02  0.47900943433E+00 -0.37226145450E+02  0.62476933248E+02  0.00000000000E+00 0. -1.
</event>
<event>
 4    1  0.9897231E-003  0.9118800E+02  0.7818608E-02  0.1130116E+00
         25   -1    0    0    0    0  0.00000000000E+00  0.00000000000E+00  0.99999998245E-14  0.12500000000E+03  0.12500000000E+03 0.  0.
        -13    1    1    0    0    0  0.59083873901E+01 -0.20943610156E+01  0.43650281246E+01  0.76393732845E+01  0.10566000000E+00 0.  1.
         13    1    1    0    0    0  0.23279128309E+02 -0.15750020265E+02  0.47521485222E+02  0.55211264022E+02  0.10566000000E+00 0. -1.
         22    1    1    0    0    0 -0.29187515699E+02  0.17844381281E+02 -0.51886513346E+02  0.62149362694E+02  0.00000000000E+00 0. -1.
</event>
<event>
 4    1  0.9897231E-003  0.9118800E+02  0.7818608E-02  0.1130116E+00
         25   -1    0    0    0    0  0.00000000000E+00  0.00000000000E+00  0.99999998245E-14  0.12500000000E+03  0.12500000000E+03 0.  0.
        -13    1    1    0    0    0 -0.21356191849E+02  0.45700431645E+02 -0.10039476286E+02  0.51433633266E+02  0.10566000000E+00 0.  1.
         13    1    1    0    0    0 -0.45281483545E+01  0.98344586021E+01 -0.22909102281E+01  0.11067074466E+02  0.10566000000E+00 0.  1.
         22    1    1    0    0    0  0.25884340203E+02 -0.55534890247E+02  0.12330386514E+02  0.62499292269E+02  0.00000000000E+00 0.  1.
</event>
<event>
 4    1  0.9897231E-003  0.9118800E+02  0.7818608E-02  0.1130116E+00
         25   -1    0    0    0    0  0.00000000000E+00  0.00000000000E+00  0.99999998245E-14  0.12500000000E+03  0.12500000000E+03 0.  0.
        -13    1    1    0    0    0  0.62788114483E+01 -0.47940739298E+01 -0.81448862856E+01  0.11347112174E+02  0.10566000000E+00 0.  1.
         13    1    1    0    0    0  0.31417205209E+02 -0.21530542356E+02 -0.34168730339E+02  0.51167551576E+02  0.10566000000E+00 0. -1.
         22    1    1    0    0    0 -0.37696016658E+02  0.26324616286E+02  0.42313616624E+02  0.62485336250E+02  0.00000000000E+00 0. -1.
</event>
<event>
 4    1  0.9897231E-003  0.9118800E+02  0.7818608E-02  0.1130116E+00
         25   -1    0    0    0    0  0.00000000000E+00  0.00000000000E+00  0.99999998245E-14  0.12500000000E+03  0.12500000000E+03 0.  0.
        -13    1    1    0    0    0 -0.38686302201E+02  0.13924458214E+02  0.39180308274E+01  0.41302332188E+02  0.10566000000E+00 0.  1.
         13    1    1    0    0    0 -0.19682231230E+02  0.69367045839E+01  0.38731308897E+01  0.21225465921E+02  0.10566000000E+00 0. -1.
         22    1    1    0    0    0  0.58368533431E+02 -0.20861162798E+02 -0.77911617170E+01  0.62472201891E+02  0.00000000000E+00 0.  1.
</event>
<event>
 4    1  0.9897231E-003  0.9118800E+02  0.7818608E-02  0.1130116E+00
         25   -1    0    0    0    0  0.00000000000E+00  0.00000000000E+00  0.99999998245E-14  0.12500000000E+03  0.12500000000E+03 0.  0.
        -13    1    1    0    0    0 -0.10753556042E+02 -0.84166616547E+01 -0.16670297631E+01  0.13757518425E+02  0.10566000000E+00 0.  1.
         13    1    1    0    0    0 -0.37950439194E+02 -0.30084448355E+02 -0.55280846725E+01  0.48743007212E+02  0.10566000000E+00 0.  1.
         22    1    1    0    0    0  0.48703995236E+02  0.38501110010E+02  0.71951144356E+01  0.62499474363E+02  0.00000000000E+00 0.  1.
</event>
<event>
 4    1  0.9897231E-003  0.9118800E+02  0.7818608E-02  0.1130116E+00
         25   -1    0    0    0    0  0.00000000000E+00  0.00000000000E+00  0.99999998245E-14  0.12500000000E+03  0.12500000000E+03 0.  0.
        -13    1    1    0    0    0  0.11686972426E+02  0.33245033621E+01 -0.44078264280E+01  0.12925855675E+02  0.10566000000E+00 0.  1.
         13    1    1    0    0    0  0.44778210405E+02  0.13221669022E+02 -0.16665535311E+02  0.49574710186E+02  0.10566000000E+00 0.  1.
         22    1    1    0    0    0 -0.56465182831E+02 -0.16546172384E+02  0.21073361739E+02  0.62499434139E+02  0.00000000000E+00 0.  1.
</event>
<event>
 4    1  0.9897231E-003  0.9118800E+02  0.7818608E-02  0.1130116E+00
         25   -1    0    0    0    0  0.00000000000E+00  0.00000000000E+00  0.99999998245E-14  0.12500000000E+03  0.12500000000E+03 0.  0.
        -13    1    1    0    0    0  0.13917881719E+02 -0.21125158570E+02 -0.45691747447E+00  0.25302167768E+02  0.10566000000E+00 0. -1.
         13    1    1    0    0    0  0.19719911571E+02 -0.31505745584E+02 -0.15860931287E+01  0.37202335580E+02  0.10566000000E+00 0.  1.
         22    1    1    0    0    0 -0.33637793290E+02  0.52630904154E+02  0.20430106032E+01  0.62495496652E+02  0.00000000000E+00 0. -1.
</event>
<event>
 4    1  0.9897231E-003  0.9118800E+02  0.7818608E-02  0.1130116E+00
         25   -1    0    0    0    0  0.00000000000E+00  0.00000000000E+00  0.99999998245E-14  0.12500000000E+03  0.12500000000E+03 0.  0.
        -13    1    1    0    0    0  0.14845913644E+01 -0.28306593315E+01  0.14160788770E+01  0.34975830500E+01  0.10566000000E+00 0.  1.
         13    1    1    0    0    0 -0.24014093492E+02 -0.50712649218E+02 -0.21425656444E+02  0.60062628938E+02  0.10566000000E+00 0. -1.
         22    1    1    0    0    0  0.22529502127E+02  0.53543308549E+02  0.20009577567E+02  0.61439788012E+02  0.00000000000E+00 0. -1.
</event>
<event>
 4    1  0.9897231E-003  0.9118800E+02  0.7818608E-02  0.1130116E+00
         25   -1    0    0    0    0  0.00000000000E+00  0.00000000000E+00  0.99999998245E-14  0.12500000000E+03  0.12500000000E+03 0.  0.
        -13    1    1    0    0    0 -0.65516964337E+01  0.33285806306E+01  0.13125409613E+02  0.15042995604E+02  0.10566000000E+00 0.  1.
         13    1    1    0    0    0  0.45956302461E+02  0.31166850209E+02 -0.15116149071E+02  0.57548791600E+02  0.10566000000E+00 0. -1.
         22    1    1    0    0    0 -0.39404606027E+02 -0.34495430840E+02  0.19907394574E+01  0.52408212797E+02  0.00000000000E+00 0. -1.
</event>
<event>
 4    1  0.9897231E-003  0.9118800E+02  0.7818608E-02  0.1130116E+00
         25   -1    0    0    0    0  0.00000000000E+00  0.00000000000E+00  0.99999998245E-14  0.12500000000E+03  0.12500000000E+03 0.  0.
        -13    1    1    0    0    0 -0.64030787557E+01  0.22487317404E+01 -0.11765050063E+02  0.13582480591E+02  0.10566000000E+00 0.  1.
         13    1    1    0    0    0 -0.28897238803E+02  0.13470371202E+02 -0.37231090769E+02  0.49017003118E+02  0.10566000000E+00 0. -1.
         22    1    1    0    0    0  0.35300317559E+02 -0.15719102942E+02  0.48996140832E+02  0.62400516291E+02  0.00000000000E+00 0. -1.
</event>
<event>
 4    1  0.9897231E-003  0.9118800E+02  0.7818608E-02  0.1130116E+00
         25   -1    0    0    0    0  0.00000000000E+00  0.00000000000E+00  0.99999998245E-14  0.12500000000E+03  0.12500000000E+03 0.  0.
        -13    1    1    0    0    0 -0.17236986427E+01  0.39350172292E+02  0.42640284190E+02  0.58048360840E+02  0.10566000000E+00 0. -1.
         13    1    1    0    0    0 -0.77714824237E+01 -0.35979078829E+01  0.21799361378E+01  0.88376561257E+01  0.10566000000E+00 0.  1.
         22    1    1    0    0    0  0.94951810663E+01 -0.35752264409E+02 -0.44820220328E+02  0.58113983034E+02  0.00000000000E+00 0. -1.
</event>
<event>
 4    1  0.9897231E-003  0.9118800E+02  0.7818608E-02  0.1130116E+00
         25   -1    0    0    0    0  0.00000000000E+00  0.00000000000E+00  0.99999998245E-14  0.12500000000E+03  0.12500000000E+03 0.  0.
        -13    1    1    0    0    0 -0.57304545806E+02 -0.26640331626E+00 -0.13291463138E+02  0.58826491457E+02  0.10566000000E+00 0.  1.
         13    1    1    0    0    0  0.20448031514E+01 -0.69173077259E+01  0.70729620646E+01  0.10102886840E+02  0.10566000000E+00 0. -1.
         22    1    1    0    0    0  0.55259742654E+02  0.71837110422E+01  0.62185010733E+01  0.56070621703E+02  0.00000000000E+00 0.  1.
</event>
<event>
 4    1  0.9897231E-003  0.9118800E+02  0.7818608E-02  0.1130116E+00
         25   -1    0    0    0    0  0.00000000000E+00  0.00000000000E+00  0.99999998245E-14  0.12500000000E+03  0.12500000000E+03 0.  0.
        -13    1    1    0    0    0 -0.20679105404E+02  0.86870967740E+01 -0.29139366111E+02  0.36772338409E+02  0.10566000000E+00 0. -1.
         13    1    1    0    0    0 -0.30095039071E+02 -0.47504819787E+01  0.20111817614E+02  0.36507188709E+02  0.10566000000E+00 0.  1.
         22    1    1    0    0    0  0.50774144475E+02 -0.39366147953E+01  0.90275484973E+01  0.51720472881E+02  0.00000000000E+00 0.  1.
</event>
<event>
 4    1  0.9897231E-003  0.9118800E+02  0.7818608E-02  0.1130116E+00
         25   -1    0    0    0    0  0.00000000000E+00  0.00000000000E+00  0.99999998245E-14  0.12500000000E+03  0.12500000000E+03 0.  0.
        -13    1    1    0    0    0  0.72875528166E+01 -0.16421071905E+02 -0.15669726874E+02  0.23839285495E+02  0.10566000000E+00 0. -1.
         13    1    1    0    0    0  0.43416366463E+01 -0.12466253184E+02 -0.37382223102E+02  0.39644659733E+02  0.10566000000E+00 0.  1.
         22    1    1    0    0    0 -0.11629189463E+02  0.28887325089E+02  0.53051949977E+02  0.61516054772E+02  0.00000000000E+00 0.  1.
</event>
<event>
 4    1  0.9897231E-003  0.9118800E+02  0.7818608E-02  0.1130116E+00
         25   -1    0    0    0    0  0.00000000000E+00  0.00000000000E+00  0.99999998245E-14  0.12500000000E+03  0.12500000000E+03 0.  0.
        -13    1    1    0    0    0 -0.14576325084E+02 -0.38170885032E+01  0.12416058042E+02  0.19524576280E+02  0.10566000000E+00 0. -1.
         13    1    1    0    0    0 -0.32366097153E+02 -0.85895809101E+01  0.26936788452E+02  0.42976119895E+02  0.10566000000E+00 0.  1.
         22    1    1    0    0    0  0.46942422237E+02  0.12406669413E+02 -0.39352846494E+02  0.62499303824E+02  0.00000000000E+00 0.  1.
</event>
<event>
 4    1  0.9897231E-003  0.9118800E+02  0.7818608E-02  0.1130116E+00
         25   -1    0    0    0    0  0.00000000000E+00  0.00000000000E+00  0.99999998245E-14  0.12500000000E+03  0.12500000000E+03 0.  0.
        -13    1    1    0    0    0  0.17590381599E+02  0.66636990793E+01 -0.98697450592E+01  0.21242632647E+02  0.10566000000E+00 0. -1.
         13    1    1    0    0    0  0.26471226478E+02 -0.27267987554E+02 -0.23580087726E+02  0.44724721103E+02  0.10566000000E+00 0.  1.
         22    1    1    0    0    0 -0.44061608077E+02  0.20604288475E+02  0.33449832785E+02  0.59032646250E+02  0.00000000000E+00 0.  1.
</event>
<event>
 4    1  0.9897231E-003  0.9118800E+02  0.7818608E-02  0.1130116E+00
         25   -1    0    0    0    0  0.00000000000E+00  0.00000000000E+00  0.99999998245E-14  0.12500000000E+03  0.12500000000E+03 0.  0.
        -13    1    1    0    0    0 -0.14694815016E+01  0.14132805165E+01  0.21487443789E+01  0.29639507660E+01  0.10566000000E+00 0.  1.
         13    1    1    0    0    0 -0.55175161340E+01 -0.26739972797E+02  0.53740964678E+02  0.60279113945E+02  0.10566000000E+00 0. -1.
         22    1    1    0    0    0  0.69869976357E+01  0.25326692281E+02 -0.55889709057E+02  0.61756935289E+02  0.00000000000E+00 0. -1.
</event>
<event>
 4    1  0.9897231E-003  0.9118800E+02  0.7818608E-02  0.1130116E+00
         25   -1    0    0    0    0  0.00000000000E+00  0.00000000000E+00  0.99999998245E-14  0.12500000000E+03  0.12500000000E+03 0.  0.
        -13    1    1    0    0    0  0.66835672898E+01 -0.86194939587E+01  0.66729119776E+01  0.12786894311E+02  0.10566000000E+00 0.  1.
         13    1    1    0    0    0  0.29187217570E+02 -0.36050848385E+02  0.18106591053E+02  0.49793746016E+02  0.10566000000E+00 0. -1.
         22    1    1    0    0    0 -0.35870784860E+02  0.44670342343E+02 -0.24779503031E+02  0.62419359673E+02  0.00000000000E+00 0.  1.
</event>
<event>
 4    1  0.9897231E-003  0.9118800E+02  0.7818608E-02  0.1130116E+00
         25   -1    0    0    0    0  0.00000000000E+00  0.00000000000E+00  0.99999998245E-14  0.12500000000E+03  0.12500000000E+03 0.  0.
        -13    1    1    0    0    0  0.56058306628E+01  0.11981778337E+02 -0.21434885560E+02  0.25188367008E+02  0.10566000000E+00 0. -1.
         13    1    1    0    0    0  0.16209949519E+01  0.16637678213E+02 -0.33505264614E+02  0.37444009959E+02  0.10566000000E+00 0.  1.
         22    1    1    0    0    0 -0.72268256147E+01 -0.28619456550E+02  0.54940150173E+02  0.62367623033E+02  0.00000000000E+00 0.  1.
</event>
<event>
 4    1  0.9897231E-003  0.9118800E+02  0.7818608E-02  0.1130116E+00
         25   -1    0    0    0    0  0.00000000000E+00  0.00000000000E+00  0.99999998245E-14  0.12500000000E+03  0.12500000000E+03 0.  0.
        -13    1    1    0    0    0  0.34747935031E+01  0.72484786195E+00  0.21404934375E+01  0.41463804099E+01  0.10566000000E+00 0. -1.
         13    1    1    0    0    0  0.48830950176E+02  0.11794899741E+02  0.29693890134E+02  0.58355116574E+02  0.10566000000E+00 0. -1.
         22    1    1    0    0    0 -0.52305743679E+02 -0.12519747603E+02 -0.31834383572E+02  0.62498503016E+02  0.00000000000E+00 0. -1.
</event>
<event>
 4    1  0.9897231E-003  0.9118800E+02  0.7818608E-02  0.1130116E+00
         25   -1    0    0    0    0  0.00000000000E+00  0.00000000000E+00  0.99999998245E-14  0.12500000000E+03  0.12500000000E+03 0.  0.
        -13    1    1    0    0    0  0.22303201141E+02 -0.42607438808E+02 -0.25723900600E+02  0.54539498063E+02  0.10566000000E+00 0. -1.
         13    1    1    0    0    0  0.13526415396E+02  0.81051902085E+01  0.46604480784E+01  0.16443508206E+02  0.10566000000E+00 0.  1.
         22    1    1    0    0    0 -0.35829616537E+02  0.34502248599E+02  0.21063452522E+02  0.54016993731E+02  0.00000000000E+00 0. -1.
</event>
<event>
 4    1  0.9897231E-003  0.9118800E+02  0.7818608E-02  0.1130116E+00
         25   -1    0    0    0    0  0.00000000000E+00  0.00000000000E+00  0.99999998245E-14  0.12500000000E+03  0.12500000000E+03 0.  0.
        -13    1    1    0    0    0 -0.29008553811E+01  0.84885907625E+00 -0.13059511378E+01  0.32942671542E+01  0.10566000000E+00 0. -1.
         13    1    1    0    0    0  0.53628776228E+02  0.68554492328E+01  0.31101098563E+02  0.62372528566E+02  0.10566000000E+00 0.  1.
         22    1    1    0    0    0 -0.50727920847E+02 -0.77043083090E+01 -0.29795147425E+02  0.59333204279E+02  0.00000000000E+00 0.  1.
</event>
<event>
 4    1  0.9897231E-003  0.9118800E+02  0.7818608E-02  0.1130116E+00
         25   -1    0    0    0    0  0.00000000000E+00  0.00000000000E+00  0.99999998245E-14  0.12500000000E+03  0.12500000000E+03 0.  0.
        -13    1    1    0    0    0  0.36666856409E+02  0.39842305586E+02 -0.69213700669E+01  0.54587399654E+02  0.10566000000E+00 0.  1.
         13    1    1    0    0    0  0.17862364600E+01 -0.14917690059E+01 -0.12515710089E+02  0.12730678636E+02  0.10566000000E+00 0. -1.
         22    1    1    0    0    0 -0.38453092869E+02 -0.38350536580E+02  0.19437080156E+02  0.57681921710E+02  0.00000000000E+00 0.  1.
</event>
<event>
 4    1  0.9897231E-003  0.9118800E+02  0.7818608E-02  0.1130116E+00
         25   -1    0    0    0    0  0.00000000000E+00  0.00000000000E+00  0.99999998245E-14  0.12500000000E+03  0.12500000000E+03 0.  0.
        -13    1    1    0    0    0  0.13195407786E+01 -0.53019016966E+01  0.14409972035E+02  0.15411353203E+02  0.10566000000E+00 0. -1.
         13    1    1    0    0    0  0.62893164606E+01 -0.12973380843E+02  0.44849561157E+02  0.47110066992E+02  0.10566000000E+00 0.  1.
         22    1    1    0    0    0 -0.76088572393E+01  0.18275282539E+02 -0.59259533191E+02  0.62478579805E+02  0.00000000000E+00 0.  1.
</event>
<event>
 4    1  0.9897231E-003  0.9118800E+02  0.7818608E-02  0.1130116E+00
         25   -1    0    0    0    0  0.00000000000E+00  0.00000000000E+00  0.99999998245E-14  0.12500000000E+03  0.12500000000E+03 0.  0.
        -13    1    1    0    0    0 -0.27578962724E+02 -0.43111142000E+02  0.20597356498E+02  0.55167309235E+02  0.10566000000E+00 0.  1.
         13    1    1    0    0    0 -0.26667054513E+01 -0.51255597741E+01  0.47787614242E+01  0.74986936027E+01  0.10566000000E+00 0. -1.
         22    1    1    0    0    0  0.30245668176E+02  0.48236701774E+02 -0.25376117922E+02  0.62333997162E+02  0.00000000000E+00 0.  1.
</event>
<event>
 4    1  0.9897231E-003  0.9118800E+02  0.7818608E-02  0.1130116E+00
         25   -1    0    0    0    0  0.00000000000E+00  0.00000000000E+00  0.99999998245E-14  0.12500000000E+03  0.12500000000E+03 0.  0.
        -13    1    1    0    0    0 -0.40855593020E+02 -0.35546668352E+02  0.25950677528E+02  0.60051593985E+02  0.10566000000E+00 0. -1.
         13    1    1    0    0    0 -0.31458090470E+01  0.26784273032E+01  0.15879391973E+00  0.41359964849E+01  0.10566000000E+00 0.  1.
         22    1    1    0    0    0  0.44001402067E+02  0.32868241049E+02 -0.26109471448E+02  0.60812409530E+02  0.00000000000E+00 0. -1.
</event>
<event>
 4    1  0.9897231E-003  0.9118800E+02  0.7818608E-02  0.1130116E+00
         25   -1    0    0    0    0  0.00000000000E+00  0.00000000000E+00  0.99999998245E-14  0.12500000000E+03  0.12500000000E+03 0.  0.
        -13    1    1    0    0    0  0.13960816238E+01 -0.34664403046E+01 -0.46549205873E+01  0.59703184166E+01  0.10566000000E+00 0.  1.
         13    1    1    0    0    0  0.54441857412E+02 -0.15080916697E+02 -0.12263373722E+02  0.57807883424E+02  0.10566000000E+00 0. -1.
         22    1    1    0    0    0 -0.55837939036E+02  0.18547357002E+02  0.16918294309E+02  0.61221798159E+02  0.00000000000E+00 0. -1.
</event>
<event>
 4    1  0.9897231E-003  0.9118800E+02  0.7818608E-02  0.1130116E+00
         25   -1    0    0    0    0  0.00000000000E+00  0.00000000000E+00  0.99999998245E-14  0.12500000000E+03  0.12500000000E+03 0.  0.
        -13    1    1    0    0    0 -0.10153930126E+02  0.55851635458E+01  0.32467253993E+02  0.34473614471E+02  0.10566000000E+00 0.  1.
         13    1    1    0    0    0 -0.85632031716E+01  0.44374493187E+01  0.26315180925E+02  0.28027117514E+02  0.10566000000E+00 0. -1.
         22    1    1    0    0    0  0.18717133298E+02 -0.10022612864E+02 -0.58782434918E+02  0.62499268015E+02  0.00000000000E+00 0.  1.
</event>
<event>
 4    1  0.9897231E-003  0.9118800E+02  0.7818608E-02  0.1130116E+00
         25   -1    0    0    0    0  0.00000000000E+00  0.00000000000E+00  0.99999998245E-14  0.12500000000E+03  0.12500000000E+03 0.  0.
        -13    1    1    0    0    0 -0.99184798084E+01 -0.21008815298E+01 -0.61125137788E+01  0.11839085000E+02  0.10566000000E+00 0. -1.
         13    1    1    0    0    0 -0.41273135172E+02 -0.39635019729E+01 -0.29167583087E+02  0.50694576653E+02  0.10566000000E+00 0.  1.
         22    1    1    0    0    0  0.51191614981E+02  0.60643835027E+01  0.35280096866E+02  0.62466338347E+02  0.00000000000E+00 0.  1.
</event>
<event>
 4    1  0.9897231E-003  0.9118800E+02  0.7818608E-02  0.1130116E+00
         25   -1    0    0    0    0  0.00000000000E+00  0.00000000000E+00  0.99999998245E-14  0.12500000000E+03  0.12500000000E+03 0.  0.
        -13    1    1    0    0    0 -0.30009520740E+01 -0.28095942837E+01 -0.63231815845E+00  0.41605917462E+01  0.10566000000E+00 0. -1.
         13    1    1    0    0    0 -0.43561745863E+02 -0.38325703212E+02 -0.61185475788E+01  0.58343234551E+02  0.10566000000E+00 0. -1.
         22    1    1    0    0    0  0.46562697937E+02  0.41135297496E+02  0.67508657372E+01  0.62496173703E+02  0.00000000000E+00 0. -1.
</event>
<event>
 4    1  0.9897231E-003  0.9118800E+02  0.7818608E-02  0.1130116E+00
         25   -1    0    0    0    0  0.00000000000E+00  0.00000000000E+00  0.99999998245E-14  0.12500000000E+03  0.12500000000E+03 0.  0.
        -13    1    1    0    0    0  0.88488157698E+00 -0.31375263712E+01  0.92809283179E+01  0.98373716822E+01  0.10566000000E+00 0. -1.
         13    1    1    0    0    0 -0.41264617007E+01 -0.11899673876E+02  0.51215297645E+02  0.52741329159E+02  0.10566000000E+00 0.  1.
         22    1    1    0    0    0  0.32415801238E+01  0.15037200247E+02 -0.60496225963E+02  0.62421299159E+02  0.00000000000E+00 0.  1.
</event>
<event>
 4    1  0.9897231E-003  0.9118800E+02  0.7818608E-02  0.1130116E+00
         25   -1    0    0    0    0  0.00000000000E+00  0.00000000000E+00  0.99999998245E-14  0.12500000000E+03  0.12500000000E+03 0.  0.
        -13    1    1    0    0    0  0.93022629260E+01 -0.58089958004E+01  0.50558682983E+01  0.12076816470E+02  0.10566000000E+00 0. -1.
         13    1    1    0    0    0  0.38214422998E+02 -0.25186662193E+02  0.21164289169E+02  0.50424680242E+02  0.10566000000E+00 0.  1.
         22    1    1    0    0    0 -0.47516685924E+02  0.30995657994E+02 -0.26220157468E+02  0.62498503288E+02  0.00000000000E+00 0.  1.
</event>
<event>
 4    1  0.9897231E-003  0.9118800E+02  0.7818608E-02  0.1130116E+00
         25   -1    0    0    0    0  0.00000000000E+00  0.00000000000E+00  0.99999998245E-14  0.12500000000E+03  0.12500000000E+03 0.  0.
        -13    1    1    0    0    0 -0.31398037586E+02 -0.71634070400E+00  0.35770305703E+02  0.47601216816E+02  0.10566000000E+00 0.  1.
         13    1    1    0    0    0 -0.97186664437E+01 -0.19788393598E+00  0.11290991106E+02  0.14899304671E+02  0.10566000000E+00 0.  1.
         22    1    1    0    0    0  0.41116704030E+02  0.91422463998E+00 -0.47061296809E+02  0.62499478512E+02  0.00000000000E+00 0.  1.
</event>
<event>
 4    1  0.9897231E-003  0.9118800E+02  0.7818608E-02  0.1130116E+00
         25   -1    0    0    0    0  0.00000000000E+00  0.00000000000E+00  0.99999998245E-14  0.12500000000E+03  0.12500000000E+03 0.  0.
        -13    1    1    0    0    0 -0.52567975105E+01 -0.27876091277E+02  0.50576479975E+02  0.57988808193E+02  0.10566000000E+00 0. -1.
         13    1    1    0    0    0 -0.30893104596E+00 -0.23927208982E+01  0.38157120637E+01  0.45156809317E+01  0.10566000000E+00 0. -1.
         22    1    1    0    0    0  0.55657285564E+01  0.30268812175E+02 -0.54392192038E+02  0.62495510876E+02  0.00000000000E+00 0. -1.
</event>
<event>
 4    1  0.9897231E-003  0.9118800E+02  0.7818608E-02  0.1130116E+00
         25   -1    0    0    0    0  0.00000000000E+00  0.00000000000E+00  0.99999998245E-14  0.12500000000E+03  0.12500000000E+03 0.  0.
        -13    1    1    0    0    0 -0.29902047736E+02 -0.10091070415E+02 -0.42013252136E+02  0.52546043429E+02  0.10566000000E+00 0. -1.
         13    1    1    0    0    0 -0.49289648607E+01 -0.32860263705E+01 -0.80629828261E+01  0.10005774333E+02  0.10566000000E+00 0.  1.
         22    1    1    0    0    0  0.34831012596E+02  0.13377096785E+02  0.50076234963E+02  0.62448182239E+02  0.00000000000E+00 0. -1.
</event>
<event>
 4    1  0.9897231E-003  0.9118800E+02  0.7818608E-02  0.1130116E+00
         25   -1    0    0    0    0  0.00000000000E+00  0.00000000000E+00  0.99999998245E-14  0.12500000000E+03  0.12500000000E+03 0.  0.
        -13    1    1    0    0    0  0.22537518626E+01  0.39070824131E+02 -0.63703957544E+00  0.39141099616E+02  0.10566000000E+00 0.  1.
         13    1    1    0    0    0  0.31270151506E+01  0.23171604871E+02  0.12336919964E+00  0.23382212899E+02  0.10566000000E+00 0. -1.
         22    1    1    0    0    0 -0.53807670131E+01 -0.62242429002E+02  0.51367037580E+00  0.62476687484E+02  0.00000000000E+00 0. -1.
</event>
<event>
 4    1  0.9897231E-003  0.9118800E+02  0.7818608E-02  0.1130116E+00
         25   -1    0    0    0    0  0.00000000000E+00  0.00000000000E+00  0.99999998245E-14  0.12500000000E+03  0.12500000000E+03 0.  0.
        -13    1    1    0    0    0  0.10489201361E+01 -0.12060019070E+01 -0.35632626062E+00  0.16409772976E+01  0.10566000000E+00 0.  1.
         13    1    1    0    0    0  0.24181535388E+02 -0.55910173075E+02  0.55348435827E+00  0.60918072983E+02  0.10566000000E+00 0.  1.
         22    1    1    0    0    0 -0.25230455524E+02  0.57116174982E+02 -0.19715809765E+00  0.62440949719E+02  0.00000000000E+00 0.  1.
</event>
<event>
 4    1  0.9897231E-003  0.9118800E+02  0.7818608E-02  0.1130116E+00
         25   -1    0    0    0    0  0.00000000000E+00  0.00000000000E+00  0.99999998245E-14  0.12500000000E+03  0.12500000000E+03 0.  0.
        -13    1    1    0    0    0 -0.50969396435E+02 -0.30286932252E+02  0.11618765438E+02  0.60416756885E+02  0.10566000000E+00 0. -1.
         13    1    1    0    0    0  0.41645071432E+01 -0.37666952267E+01 -0.16064798063E+01  0.58414941650E+01  0.10566000000E+00 0.  1.
         22    1    1    0    0    0  0.46804889292E+02  0.34053627479E+02 -0.10012285631E+02  0.58741748950E+02  0.00000000000E+00 0. -1.
</event>
<event>
 4    1  0.9897231E-003  0.9118800E+02  0.7818608E-02  0.1130116E+00
         25   -1    0    0    0    0  0.00000000000E+00  0.00000000000E+00  0.99999998245E-14  0.12500000000E+03  0.12500000000E+03 0.  0.
        -13    1    1    0    0    0 -0.14352437695E+00 -0.18672387081E+02 -0.53660342486E+02  0.56816565879E+02  0.10566000000E+00 0.  1.
         13    1    1    0    0    0 -0.15130632645E+02 -0.16535916935E+01  0.12021838037E+02  0.19396034738E+02  0.10566000000E+00 0. -1.
         22    1    1    0    0    0  0.15274157022E+02  0.20325978774E+02  0.41638504449E+02  0.48787399383E+02  0.00000000000E+00 0.  1.
</event>
<event>
 4    1  0.9897231E-003  0.9118800E+02  0.7818608E-02  0.1130116E+00
         25   -1    0    0    0    0  0.00000000000E+00  0.00000000000E+00  0.99999998245E-14  0.12500000000E+03  0.12500000000E+03 0.  0.
        -13    1    1    0    0    0  0.15373276221E+02  0.14644837234E+02  0.32255097021E+02  0.38616205500E+02  0.10566000000E+00 0. -1.
         13    1    1    0    0    0  0.10243651812E+02  0.11390621983E+02  0.18394359316E+02  0.23938301742E+02  0.10566000000E+00 0.  1.
         22    1    1    0    0    0 -0.25616928033E+02 -0.26035459217E+02 -0.50649456337E+02  0.62445492758E+02  0.00000000000E+00 0.  1.
</event>
<event>
 4    1  0.9897231E-003  0.9118800E+02  0.7818608E-02  0.1130116E+00
         25   -1    0    0    0    0  0.00000000000E+00  0.00000000000E+00  0.99999998245E-14  0.12500000000E+03  0.12500000000E+03 0.  0.
        -13    1    1    0    0    0  0.17540386360E+01  0.29573102719E+01  0.55906109394E+01  0.65641778078E+01  0.10566000000E+00 0.  1.
         13    1    1    0    0    0  0.55273354711E+02 -0.32928799167E+01 -0.21229980064E+02  0.59301855087E+02  0.10566000000E+00 0. -1.
         22    1    1    0    0    0 -0.57027393347E+02  0.33556964480E+00  0.15639369125E+02  0.59133967105E+02  0.00000000000E+00 0. -1.
</event>
<event>
 4    1  0.9897231E-003  0.9118800E+02  0.7818608E-02  0.1130116E+00
         25   -1    0    0    0    0  0.00000000000E+00  0.00000000000E+00  0.99999998245E-14  0.12500000000E+03  0.12500000000E+03 0.  0.
        -13    1    1    0    0    0 -0.21622746113E+02  0.18466414334E+01 -0.78135948588E+01  0.23065486396E+02  0.10566000000E+00 0. -1.
         13    1    1    0    0    0 -0.36966677268E+02  0.32089481576E+01 -0.13351133058E+02  0.39434711797E+02  0.10566000000E+00 0. -1.
         22    1    1    0    0    0  0.58589423380E+02 -0.50555895910E+01  0.21164727917E+02  0.62499801807E+02  0.00000000000E+00 0. -1.
</event>
<event>
 4    1  0.9897231E-003  0.9118800E+02  0.7818608E-02  0.1130116E+00
         25   -1    0    0    0    0  0.00000000000E+00  0.00000000000E+00  0.99999998245E-14  0.12500000000E+03  0.12500000000E+03 0.  0.
        -13    1    1    0    0    0 -0.53061337283E+01 -0.24578283143E+01 -0.86668754813E+01  0.10455709914E+02  0.10566000000E+00 0.  1.
         13    1    1    0    0    0 -0.26111790118E+02 -0.13019882479E+02 -0.43096945906E+02  0.52045180693E+02  0.10566000000E+00 0. -1.
         22    1    1    0    0    0  0.31417923846E+02  0.15477710793E+02  0.51763821388E+02  0.62499109392E+02  0.00000000000E+00 0. -1.
</event>
<event>
 4    1  0.9897231E-003  0.9118800E+02  0.7818608E-02  0.1130116E+00
         25   -1    0    0    0    0  0.00000000000E+00  0.00000000000E+00  0.99999998245E-14  0.12500000000E+03  0.12500000000E+03 0.  0.
        -13    1    1    0    0    0 -0.66915359938E+00 -0.77743432319E+01  0.48478714549E+01  0.91870126214E+01  0.10566000000E+00 0. -1.
         13    1    1    0    0    0 -0.39803433624E+01 -0.45058142749E+02  0.28217433176E+02  0.53313357242E+02  0.10566000000E+00 0. -1.
         22    1    1    0    0    0  0.46494969618E+01  0.52832485981E+02 -0.33065304631E+02  0.62499630137E+02  0.00000000000E+00 0. -1.
</event>
<event>
 4    1  0.9897231E-003  0.9118800E+02  0.7818608E-02  0.1130116E+00
         25   -1    0    0    0    0  0.00000000000E+00  0.00000000000E+00  0.99999998245E-14  0.12500000000E+03  0.12500000000E+03 0.  0.
        -13    1    1    0    0    0 -0.66072954329E+01  0.23676545310E+02  0.32572190704E+01  0.24796285828E+02  0.10566000000E+00 0.  1.
         13    1    1    0    0    0 -0.20224545385E+02  0.30415184290E+02  0.11031270697E+02  0.38155153893E+02  0.10566000000E+00 0. -1.
         22    1    1    0    0    0  0.26831840818E+02 -0.54091729600E+02 -0.14288489768E+02  0.62048560278E+02  0.00000000000E+00 0.  1.
</event>
<event>
 4    1  0.9897231E-003  0.9118800E+02  0.7818608E-02  0.1130116E+00
         25   -1    0    0    0    0  0.00000000000E+00  0.00000000000E+00  0.99999998245E-14  0.12500000000E+03  0.12500000000E+03 0.  0.
        -13    1    1    0    0    0 -0.18420799582E+01 -0.38272252277E+02 -0.23415996530E+02  0.44905218076E+02  0.10566000000E+00 0. -1.
         13    1    1    0    0    0 -0.22881636750E+01 -0.14604226439E+02 -0.95944852942E+01  0.17623405885E+02  0.10566000000E+00 0.  1.
         22    1    1    0    0    0  0.41302436332E+01  0.52876478716E+02  0.33010481824E+02  0.62471376039E+02  0.00000000000E+00 0. -1.
</event>
<event>
 4    1  0.9897231E-003  0.9118800E+02  0.7818608E-02  0.1130116E+00
         25   -1    0    0    0    0  0.00000000000E+00  0.00000000000E+00  0.99999998245E-14  0.12500000000E+03  0.12500000000E+03 0.  0.
        -13    1    1    0    0    0 -0.16809761941E+01 -0.29766993178E+02 -0.41480435836E+02  0.51083630304E+02  0.10566000000E+00 0. -1.
         13    1    1    0    0    0 -0.52489430521E+01 -0.13187087568E+02  0.58706215234E+00  0.14205861034E+02  0.10566000000E+00 0.  1.
         22    1    1    0    0    0  0.69299192462E+01  0.42954080746E+02  0.40893373684E+02  0.59710508663E+02  0.00000000000E+00 0. -1.
</event>
<event>
 4    1  0.9897231E-003  0.9118800E+02  0.7818608E-02  0.1130116E+00
         25   -1    0    0    0    0  0.00000000000E+00  0.00000000000E+00  0.99999998245E-14  0.12500000000E+03  0.12500000000E+03 0.  0.
        -13    1    1    0    0    0 -0.34423121062E+01  0.32488074240E+02 -0.24130169353E+02  0.40615276898E+02  0.10566000000E+00 0.  1.
         13    1    1    0    0    0 -0.26739783802E+01  0.16250763753E+02 -0.14461087973E+02  0.21917383793E+02  0.10566000000E+00 0. -1.
         22    1    1    0    0    0  0.61162904864E+01 -0.48738837994E+02  0.38591257326E+02  0.62467339308E+02  0.00000000000E+00 0.  1.
</event>
<event>
 4    1  0.9897231E-003  0.9118800E+02  0.7818608E-02  0.1130116E+00
         25   -1    0    0    0    0  0.00000000000E+00  0.00000000000E+00  0.99999998245E-14  0.12500000000E+03  0.12500000000E+03 0.  0.
        -13    1    1    0    0    0 -0.12645904910E+01 -0.14816856308E+02  0.26425819088E+02  0.30322821414E+02  0.10566000000E+00 0. -1.
         13    1    1    0    0    0 -0.15528958046E+01 -0.15499648741E+02  0.28155756221E+02  0.32177762024E+02  0.10566000000E+00 0.  1.
         22    1    1    0    0    0  0.28174862956E+01  0.30316505050E+02 -0.54581575309E+02  0.62499416562E+02  0.00000000000E+00 0. -1.
</event>
<event>
 4    1  0.9897231E-003  0.9118800E+02  0.7818608E-02  0.1130116E+00
         25   -1    0    0    0    0  0.00000000000E+00  0.00000000000E+00  0.99999998245E-14  0.12500000000E+03  0.12500000000E+03 0.  0.
        -13    1    1    0    0    0 -0.17467489629E+00 -0.10287881999E+00 -0.57437516461E-01  0.23570845317E+00  0.10566000000E+00 0. -1.
         13    1    1    0    0    0 -0.37086227098E+02 -0.44269595021E+01  0.49924475527E+02  0.62349423666E+02  0.10566000000E+00 0.  1.
         22    1    1    0    0    0  0.37260901994E+02  0.45298383221E+01 -0.49867038010E+02  0.62414867881E+02  0.00000000000E+00 0.  1.
</event>
<event>
 4    1  0.9897231E-003  0.9118800E+02  0.7818608E-02  0.1130116E+00
         25   -1    0    0    0    0  0.00000000000E+00  0.00000000000E+00  0.99999998245E-14  0.12500000000E+03  0.12500000000E+03 0.  0.
        -13    1    1    0    0    0 -0.10171983896E+02  0.89650821724E+01 -0.31694573374E+01  0.13924746985E+02  0.10566000000E+00 0.  1.
         13    1    1    0    0    0 -0.35069554581E+02  0.31498202005E+02 -0.11731763230E+02  0.48576288667E+02  0.10566000000E+00 0.  1.
         22    1    1    0    0    0  0.45241538477E+02 -0.40463284178E+02  0.14901220568E+02  0.62498964349E+02  0.00000000000E+00 0.  1.
</event>
<event>
 4    1  0.9897231E-003  0.9118800E+02  0.7818608E-02  0.1130116E+00
         25   -1    0    0    0    0  0.00000000000E+00  0.00000000000E+00  0.99999998245E-14  0.12500000000E+03  0.12500000000E+03 0.  0.
        -13    1    1    0    0    0  0.13817349427E+02 -0.37662418206E+02  0.39968868288E+02  0.56629484252E+02  0.10566000000E+00 0. -1.
         13    1    1    0    0    0  0.85110438498E+00 -0.50977431519E+01  0.30205253548E+01  0.59871613784E+01  0.10566000000E+00 0.  1.
         22    1    1    0    0    0 -0.14668453812E+02  0.42760161358E+02 -0.42989393643E+02  0.62383354370E+02  0.00000000000E+00 0. -1.
</event>
<event>
 4    1  0.9897231E-003  0.9118800E+02  0.7818608E-02  0.1130116E+00
         25   -1    0    0    0    0  0.00000000000E+00  0.00000000000E+00  0.99999998245E-14  0.12500000000E+03  0.12500000000E+03 0.  0.
        -13    1    1    0    0    0  0.37659311337E+02 -0.29040238100E+01 -0.16645830508E+01  0.37807923580E+02  0.10566000000E+00 0.  1.
         13    1    1    0    0    0  0.24588382011E+02 -0.10228291451E+01 -0.21533386012E+01  0.24703901322E+02  0.10566000000E+00 0. -1.
         22    1    1    0    0    0 -0.62247693348E+02  0.39268529551E+01  0.38179216520E+01  0.62488175098E+02  0.00000000000E+00 0. -1.
</event>
<event>
 4    1  0.9897231E-003  0.9118800E+02  0.7818608E-02  0.1130116E+00
         25   -1    0    0    0    0  0.00000000000E+00  0.00000000000E+00  0.99999998245E-14  0.12500000000E+03  0.12500000000E+03 0.  0.
        -13    1    1    0    0    0  0.28816655644E+00 -0.53554771312E+01  0.24423603341E+01  0.58941041138E+01  0.10566000000E+00 0. -1.
         13    1    1    0    0    0  0.37005602579E+01 -0.51564882735E+02  0.23058480451E+02  0.56606854377E+02  0.10566000000E+00 0. -1.
         22    1    1    0    0    0 -0.39887268143E+01  0.56920359866E+02 -0.25500840785E+02  0.62499041510E+02  0.00000000000E+00 0. -1.
</event>
<event>
 4    1  0.9897231E-003  0.9118800E+02  0.7818608E-02  0.1130116E+00
         25   -1    0    0    0    0  0.00000000000E+00  0.00000000000E+00  0.99999998245E-14  0.12500000000E+03  0.12500000000E+03 0.  0.
        -13    1    1    0    0    0 -0.12190899036E+02 -0.45723810372E+02  0.24283302494E+02  0.53188107677E+02  0.10566000000E+00 0. -1.
         13    1    1    0    0    0  0.34086066674E+01 -0.72108757781E+01  0.61968626485E+01  0.10100871231E+02  0.10566000000E+00 0.  1.
         22    1    1    0    0    0  0.87822923681E+01  0.52934686150E+02 -0.30480165142E+02  0.61711021092E+02  0.00000000000E+00 0. -1.
</event>
<event>
 4    1  0.9897231E-003  0.9118800E+02  0.7818608E-02  0.1130116E+00
         25   -1    0    0    0    0  0.00000000000E+00  0.00000000000E+00  0.99999998245E-14  0.12500000000E+03  0.12500000000E+03 0.  0.
        -13    1    1    0    0    0 -0.66983630157E+01 -0.14741641835E+02 -0.14017638517E+02  0.21417035853E+02  0.10566000000E+00 0. -1.
         13    1    1    0    0    0 -0.12350044902E+02 -0.27915661460E+02 -0.27497926450E+02  0.41084728147E+02  0.10566000000E+00 0.  1.
         22    1    1    0    0    0  0.19048407917E+02  0.42657303296E+02  0.41515564967E+02  0.62498236000E+02  0.00000000000E+00 0.  1.
</event>
<event>
 4    1  0.9897231E-003  0.9118800E+02  0.7818608E-02  0.1130116E+00
         25   -1    0    0    0    0  0.00000000000E+00  0.00000000000E+00  0.99999998245E-14  0.12500000000E+03  0.12500000000E+03 0.  0.
        -13    1    1    0    0    0 -0.36799889546E+01 -0.37353952618E+02 -0.13723637569E+02  0.39965103366E+02  0.10566000000E+00 0. -1.
         13    1    1    0    0    0  0.10577184895E+02 -0.19038210240E+02 -0.93683740881E+01  0.23708814532E+02  0.10566000000E+00 0.  1.
         22    1    1    0    0    0 -0.68971959399E+01  0.56392162858E+02  0.23092011657E+02  0.61326082102E+02  0.00000000000E+00 0. -1.
</event>
<event>
 4    1  0.9897231E-003  0.9118800E+02  0.7818608E-02  0.1130116E+00
         25   -1    0    0    0    0  0.00000000000E+00  0.00000000000E+00  0.99999998245E-14  0.12500000000E+03  0.12500000000E+03 0.  0.
        -13    1    1    0    0    0  0.47388192256E+02  0.30978837429E+02  0.21934535311E+02  0.60716259248E+02  0.10566000000E+00 0. -1.
         13    1    1    0    0    0 -0.87968252772E+01 -0.13628857220E+02  0.81786233252E+00  0.16242227277E+02  0.10566000000E+00 0.  1.
         22    1    1    0    0    0 -0.38591366978E+02 -0.17349980208E+02 -0.22752397643E+02  0.48041513475E+02  0.00000000000E+00 0. -1.
</event>
<event>
 4    1  0.9897231E-003  0.9118800E+02  0.7818608E-02  0.1130116E+00
         25   -1    0    0    0    0  0.00000000000E+00  0.00000000000E+00  0.99999998245E-14  0.12500000000E+03  0.12500000000E+03 0.  0.
        -13    1    1    0    0    0  0.11978956764E+02 -0.50327828866E+00  0.53268904039E+02  0.54601611659E+02  0.10566000000E+00 0.  1.
         13    1    1    0    0    0 -0.37736354422E+01 -0.76485998064E+01  0.57306114005E+01  0.10275819895E+02  0.10566000000E+00 0. -1.
         22    1    1    0    0    0 -0.82053213221E+01  0.81518780951E+01 -0.58999515440E+02  0.60122568446E+02  0.00000000000E+00 0.  1.
</event>
<event>
 4    1  0.9897231E-003  0.9118800E+02  0.7818608E-02  0.1130116E+00
         25   -1    0    0    0    0  0.00000000000E+00  0.00000000000E+00  0.99999998245E-14  0.12500000000E+03  0.12500000000E+03 0.  0.
        -13    1    1    0    0    0  0.27353099199E+02 -0.50374343365E+02  0.28877716714E+01  0.57394397763E+02  0.10566000000E+00 0.  1.
         13    1    1    0    0    0  0.28446915403E+01 -0.42525938981E+01  0.64146253794E-01  0.51178221539E+01  0.10566000000E+00 0. -1.
         22    1    1    0    0    0 -0.30197790739E+02  0.54626937263E+02 -0.29519179252E+01  0.62487780083E+02  0.00000000000E+00 0.  1.
</event>
<event>
 4    1  0.9897231E-003  0.9118800E+02  0.7818608E-02  0.1130116E+00
         25   -1    0    0    0    0  0.00000000000E+00  0.00000000000E+00  0.99999998245E-14  0.12500000000E+03  0.12500000000E+03 0.  0.
        -13    1    1    0    0    0  0.28227774933E+02 -0.32948476923E+02 -0.21169017213E+02  0.48275748187E+02  0.10566000000E+00 0. -1.
         13    1    1    0    0    0  0.82944924248E+01 -0.97162747200E+01 -0.62546897602E+01  0.14224517814E+02  0.10566000000E+00 0. -1.
         22    1    1    0    0    0 -0.36522267357E+02  0.42664751643E+02  0.27423706973E+02  0.62499733998E+02  0.00000000000E+00 0. -1.
</event>
<event>
 4    1  0.9897231E-003  0.9118800E+02  0.7818608E-02  0.1130116E+00
         25   -1    0    0    0    0  0.00000000000E+00  0.00000000000E+00  0.99999998245E-14  0.12500000000E+03  0.12500000000E+03 0.  0.
        -13    1    1    0    0    0 -0.57440508435E+01  0.28106627248E+02 -0.42892549145E+02  0.51601923913E+02  0.10566000000E+00 0. -1.
         13    1    1    0    0    0 -0.86217622095E+00  0.66943121221E+01 -0.85784686746E+01  0.10915972309E+02  0.10566000000E+00 0.  1.
         22    1    1    0    0    0  0.66062270644E+01 -0.34800939370E+02  0.51471017819E+02  0.62482103777E+02  0.00000000000E+00 0. -1.
</event>
<event>
 4    1  0.9897231E-003  0.9118800E+02  0.7818608E-02  0.1130116E+00
         25   -1    0    0    0    0  0.00000000000E+00  0.00000000000E+00  0.99999998245E-14  0.12500000000E+03  0.12500000000E+03 0.  0.
        -13    1    1    0    0    0  0.17550197591E+02 -0.36654377838E+02 -0.18679587691E+02  0.44726848877E+02  0.10566000000E+00 0. -1.
         13    1    1    0    0    0  0.72625113171E+01 -0.13241859581E+02 -0.94853537711E+01  0.17834629685E+02  0.10566000000E+00 0.  1.
         22    1    1    0    0    0 -0.24812708908E+02  0.49896237418E+02  0.28164941462E+02  0.62438521438E+02  0.00000000000E+00 0. -1.
</event>
<event>
 4    1  0.9897231E-003  0.9118800E+02  0.7818608E-02  0.1130116E+00
         25   -1    0    0    0    0  0.00000000000E+00  0.00000000000E+00  0.99999998245E-14  0.12500000000E+03  0.12500000000E+03 0.  0.
        -13    1    1    0    0    0  0.11905722023E+02 -0.22119483633E+02 -0.18492033411E+02  0.31192695248E+02  0.10566000000E+00 0. -1.
         13    1    1    0    0    0 -0.38075300928E+02 -0.24704586145E+01 -0.18368337609E+02  0.42346649184E+02  0.10566000000E+00 0.  1.
         22    1    1    0    0    0  0.26169578905E+02  0.24589942248E+02  0.36860371020E+02  0.51460655569E+02  0.00000000000E+00 0. -1.
</event>
<event>
 4    1  0.9897231E-003  0.9118800E+02  0.7818608E-02  0.1130116E+00
         25   -1    0    0    0    0  0.00000000000E+00  0.00000000000E+00  0.99999998245E-14  0.12500000000E+03  0.12500000000E+03 0.  0.
        -13    1    1    0    0    0 -0.37402939473E+02 -0.13395781691E+01  0.46911236927E+02  0.60012079325E+02  0.10566000000E+00 0.  1.
         13    1    1    0    0    0 -0.13079107929E+01 -0.29220949266E+00  0.21111502068E+01  0.25028256553E+01  0.10566000000E+00 0. -1.
         22    1    1    0    0    0  0.38710850266E+02  0.16317876617E+01 -0.49022387134E+02  0.62485095019E+02  0.00000000000E+00 0.  1.
</event>
<event>
 4    1  0.9897231E-003  0.9118800E+02  0.7818608E-02  0.1130116E+00
         25   -1    0    0    0    0  0.00000000000E+00  0.00000000000E+00  0.99999998245E-14  0.12500000000E+03  0.12500000000E+03 0.  0.
        -13    1    1    0    0    0  0.19567520512E+01 -0.32135170554E+01 -0.15216441775E+01  0.40598196381E+01  0.10566000000E+00 0. -1.
         13    1    1    0    0    0  0.11007671511E+02 -0.54311464538E+02 -0.18878628064E+02  0.58543298284E+02  0.10566000000E+00 0.  1.
         22    1    1    0    0    0 -0.12964423562E+02  0.57524981593E+02  0.20400272241E+02  0.62396882078E+02  0.00000000000E+00 0.  1.
</event>
<event>
 4    1  0.9897231E-003  0.9118800E+02  0.7818608E-02  0.1130116E+00
         25   -1    0    0    0    0  0.00000000000E+00  0.00000000000E+00  0.99999998245E-14  0.12500000000E+03  0.12500000000E+03 0.  0.
        -13    1    1    0    0    0 -0.85786010391E+01 -0.29396891749E+02 -0.16443054480E+02  0.34758521904E+02  0.10566000000E+00 0. -1.
         13    1    1    0    0    0 -0.28092907629E+02 -0.15555977062E+01 -0.15950916762E+02  0.32343071172E+02  0.10566000000E+00 0.  1.
         22    1    1    0    0    0  0.36671508668E+02  0.30952489455E+02  0.32393971242E+02  0.57898406924E+02  0.00000000000E+00 0. -1.
</event>
<event>
 4    1  0.9897231E-003  0.9118800E+02  0.7818608E-02  0.1130116E+00
         25   -1    0    0    0    0  0.00000000000E+00  0.00000000000E+00  0.99999998245E-14  0.12500000000E+03  0.12500000000E+03 0.  0.
        -13    1    1    0    0    0 -0.19944329303E+01  0.70677892014E+01 -0.36850307748E+00  0.73537993896E+01  0.10566000000E+00 0. -1.
         13    1    1    0    0    0 -0.12556975957E+02  0.53674328194E+02 -0.17198698360E+01  0.55150523738E+02  0.10566000000E+00 0.  1.
         22    1    1    0    0    0  0.14551408887E+02 -0.60742117396E+02  0.20883729135E+01  0.62495676872E+02  0.00000000000E+00 0.  1.
</event>
<event>
 4    1  0.9897231E-003  0.9118800E+02  0.7818608E-02  0.1130116E+00
         25   -1    0    0    0    0  0.00000000000E+00  0.00000000000E+00  0.99999998245E-14  0.12500000000E+03  0.12500000000E+03 0.  0.
        -13    1    1    0    0    0 -0.30274110425E+02  0.16303249349E+02 -0.51982280164E+02  0.62325647340E+02  0.10566000000E+00 0. -1.
         13    1    1    0    0    0  0.59259104611E+01 -0.52195456211E+01  0.15933971502E+02  0.17783775841E+02  0.10566000000E+00 0.  1.
         22    1    1    0    0    0  0.24348199964E+02 -0.11083703728E+02  0.36048308661E+02  0.44890576819E+02  0.00000000000E+00 0. -1.
</event>
<event>
 4    1  0.9897231E-003  0.9118800E+02  0.7818608E-02  0.1130116E+00
         25   -1    0    0    0    0  0.00000000000E+00  0.00000000000E+00  0.99999998245E-14  0.12500000000E+03  0.12500000000E+03 0.  0.
        -13    1    1    0    0    0 -0.26935868886E+02 -0.30467178571E+02  0.36530223832E+02  0.54664965197E+02  0.10566000000E+00 0. -1.
         13    1    1    0    0    0 -0.10201175113E+02 -0.19878451198E+01 -0.34622780876E+01  0.10955091762E+02  0.10566000000E+00 0.  1.
         22    1    1    0    0    0  0.37137044000E+02  0.32455023691E+02 -0.33067945745E+02  0.59379943041E+02  0.00000000000E+00 0. -1.
</event>
<event>
 4    1  0.9897231E-003  0.9118800E+02  0.7818608E-02  0.1130116E+00
         25   -1    0    0    0    0  0.00000000000E+00  0.00000000000E+00  0.99999998245E-14  0.12500000000E+03  0.12500000000E+03 0.  0.
        -13    1    1    0    0    0  0.22790139214E+02  0.18608712681E+01  0.12118743670E+02  0.25879111257E+02  0.10566000000E+00 0. -1.
         13    1    1    0    0    0  0.31982257471E+02  0.10677390147E+01  0.17824243472E+02  0.36629491929E+02  0.10566000000E+00 0.  1.
         22    1    1    0    0    0 -0.54772396685E+02 -0.29286102829E+01 -0.29942987142E+02  0.62491396815E+02  0.00000000000E+00 0. -1.
</event>
<event>
 4    1  0.9897231E-003  0.9118800E+02  0.7818608E-02  0.1130116E+00
         25   -1    0    0    0    0  0.00000000000E+00  0.00000000000E+00  0.99999998245E-14  0.12500000000E+03  0.12500000000E+03 0.  0.
        -13    1    1    0    0    0  0.34481754347E+02 -0.37749120467E+01 -0.20941408751E+02  0.40519070921E+02  0.10566000000E+00 0. -1.
         13    1    1    0    0    0 -0.39474263109E+01 -0.21501207075E+02 -0.18444086485E+02  0.28602090316E+02  0.10566000000E+00 0.  1.
         22    1    1    0    0    0 -0.30534328036E+02  0.25276119121E+02  0.39385495237E+02  0.55878838763E+02  0.00000000000E+00 0.  1.
</event>
<event>
 4    1  0.9897231E-003  0.9118800E+02  0.7818608E-02  0.1130116E+00
         25   -1    0    0    0    0  0.00000000000E+00  0.00000000000E+00  0.99999998245E-14  0.12500000000E+03  0.12500000000E+03 0.  0.
        -13    1    1    0    0    0  0.16720514904E+02 -0.97341996575E+01  0.55205455192E+01  0.20120085698E+02  0.10566000000E+00 0.  1.
         13    1    1    0    0    0  0.35550542272E+02 -0.20105134063E+02  0.11316567451E+02  0.42380813282E+02  0.10566000000E+00 0. -1.
         22    1    1    0    0    0 -0.52271057176E+02  0.29839333721E+02 -0.16837112970E+02  0.62499101020E+02  0.00000000000E+00 0.  1.
</event>
<event>
 4    1  0.9897231E-003  0.9118800E+02  0.7818608E-02  0.1130116E+00
         25   -1    0    0    0    0  0.00000000000E+00  0.00000000000E+00  0.99999998245E-14  0.12500000000E+03  0.12500000000E+03 0.  0.
        -13    1    1    0    0    0  0.51238615500E+02 -0.26025981510E+02 -0.42804459959E+01  0.57628819299E+02  0.10566000000E+00 0. -1.
         13    1    1    0    0    0  0.43303067227E+01 -0.40633639571E+00 -0.31751435954E+01  0.53860343914E+01  0.10566000000E+00 0.  1.
         22    1    1    0    0    0 -0.55568922222E+02  0.26432317906E+02  0.74555895913E+01  0.61985146309E+02  0.00000000000E+00 0. -1.
</event>
<event>
 4    1  0.9897231E-003  0.9118800E+02  0.7818608E-02  0.1130116E+00
         25   -1    0    0    0    0  0.00000000000E+00  0.00000000000E+00  0.99999998245E-14  0.12500000000E+03  0.12500000000E+03 0.  0.
        -13    1    1    0    0    0 -0.34406852067E+00  0.12510461106E+01  0.58375598230E+01  0.59809504462E+01  0.10566000000E+00 0. -1.
         13    1    1    0    0    0  0.42528451070E+02 -0.96134421879E+01  0.37833692230E+02  0.57727695718E+02  0.10566000000E+00 0.  1.
         22    1    1    0    0    0 -0.42184382549E+02  0.83623960773E+01 -0.43671252053E+02  0.61291353836E+02  0.00000000000E+00 0.  1.
</event>
<event>
 4    1  0.9897231E-003  0.9118800E+02  0.7818608E-02  0.1130116E+00
         25   -1    0    0    0    0  0.00000000000E+00  0.00000000000E+00  0.99999998245E-14  0.12500000000E+03  0.12500000000E+03 0.  0.
        -13    1    1    0    0    0  0.17812471896E+02 -0.10383745956E+02  0.11067446086E+02  0.23400979938E+02  0.10566000000E+00 0. -1.
         13    1    1    0    0    0  0.35835526554E+02 -0.11334103421E+02  0.11760856393E+02  0.39382429723E+02  0.10566000000E+00 0.  1.
         22    1    1    0    0    0 -0.53647998450E+02  0.21717849378E+02 -0.22828302479E+02  0.62216590339E+02  0.00000000000E+00 0.  1.
</event>
<event>
 4    1  0.9897231E-003  0.9118800E+02  0.7818608E-02  0.1130116E+00
         25   -1    0    0    0    0  0.00000000000E+00  0.00000000000E+00  0.99999998245E-14  0.12500000000E+03  0.12500000000E+03 0.  0.
        -13    1    1    0    0    0 -0.12126857396E+02  0.18633447561E+02 -0.52922964972E+02  0.57403113363E+02  0.10566000000E+00 0. -1.
         13    1    1    0    0    0 -0.91698542018E+00  0.18111382480E+01 -0.46771039773E+01  0.50997597653E+01  0.10566000000E+00 0.  1.
         22    1    1    0    0    0  0.13043842816E+02 -0.20444585809E+02  0.57600068949E+02  0.62497126872E+02  0.00000000000E+00 0. -1.
</event>
<event>
 4    1  0.9897231E-003  0.9118800E+02  0.7818608E-02  0.1130116E+00
         25   -1    0    0    0    0  0.00000000000E+00  0.00000000000E+00  0.99999998245E-14  0.12500000000E+03  0.12500000000E+03 0.  0.
        -13    1    1    0    0    0  0.44327454772E+02  0.30654776907E+02 -0.85786851171E+01  0.54573286470E+02  0.10566000000E+00 0. -1.
         13    1    1    0    0    0 -0.37440368426E+01  0.43095859503E+01 -0.11803668753E+02  0.13112135715E+02  0.10566000000E+00 0.  1.
         22    1    1    0    0    0 -0.40583417929E+02 -0.34964362858E+02  0.20382353870E+02  0.57314577815E+02  0.00000000000E+00 0. -1.
</event>
<event>
 4    1  0.9897231E-003  0.9118800E+02  0.7818608E-02  0.1130116E+00
         25   -1    0    0    0    0  0.00000000000E+00  0.00000000000E+00  0.99999998245E-14  0.12500000000E+03  0.12500000000E+03 0.  0.
        -13    1    1    0    0    0 -0.58032182718E+00 -0.11973757280E+02 -0.73256965705E+00  0.12010639416E+02  0.10566000000E+00 0.  1.
         13    1    1    0    0    0  0.36656563109E+00 -0.50399393547E+02 -0.31172670568E+01  0.50497146041E+02  0.10566000000E+00 0. -1.
         22    1    1    0    0    0  0.21375619609E+00  0.62373150828E+02  0.38498367139E+01  0.62492214544E+02  0.00000000000E+00 0. -1.
</event>
<event>
 4    1  0.9897231E-003  0.9118800E+02  0.7818608E-02  0.1130116E+00
         25   -1    0    0    0    0  0.00000000000E+00  0.00000000000E+00  0.99999998245E-14  0.12500000000E+03  0.12500000000E+03 0.  0.
        -13    1    1    0    0    0  0.34768145019E+02 -0.32269454144E+02  0.26642986883E+02  0.54405895755E+02  0.10566000000E+00 0. -1.
         13    1    1    0    0    0  0.50818665154E+01 -0.47004449734E+01  0.41978618592E+01  0.80964658001E+01  0.10566000000E+00 0.  1.
         22    1    1    0    0    0 -0.39850011535E+02  0.36969899117E+02 -0.30840848742E+02  0.62497638445E+02  0.00000000000E+00 0. -1.
</event>
<event>
 4    1  0.9897231E-003  0.9118800E+02  0.7818608E-02  0.1130116E+00
         25   -1    0    0    0    0  0.00000000000E+00  0.00000000000E+00  0.99999998245E-14  0.12500000000E+03  0.12500000000E+03 0.  0.
        -13    1    1    0    0    0 -0.15177604743E+02  0.80236832612E+01 -0.38434925833E+01  0.17593259450E+02  0.10566000000E+00 0. -1.
         13    1    1    0    0    0 -0.40762054271E+02 -0.16543803040E+02 -0.16919259956E+02  0.47132950353E+02  0.10566000000E+00 0.  1.
         22    1    1    0    0    0  0.55939659014E+02  0.85201197791E+01  0.20762752540E+02  0.60273790197E+02  0.00000000000E+00 0. -1.
</event>
<event>
 4    1  0.9897231E-003  0.9118800E+02  0.7818608E-02  0.1130116E+00
         25   -1    0    0    0    0  0.00000000000E+00  0.00000000000E+00  0.99999998245E-14  0.12500000000E+03  0.12500000000E+03 0.  0.
        -13    1    1    0    0    0  0.11110122169E+02  0.24369496933E+02 -0.43881333998E+02  0.51409044271E+02  0.10566000000E+00 0. -1.
         13    1    1    0    0    0  0.25529789597E+01  0.46139130263E+01 -0.97681498697E+01  0.11101072511E+02  0.10566000000E+00 0.  1.
         22    1    1    0    0    0 -0.13663101129E+02 -0.28983409959E+02  0.53649483868E+02  0.62489883218E+02  0.00000000000E+00 0. -1.
</event>
<event>
 4    1  0.9897231E-003  0.9118800E+02  0.7818608E-02  0.1130116E+00
         25   -1    0    0    0    0  0.00000000000E+00  0.00000000000E+00  0.99999998245E-14  0.12500000000E+03  0.12500000000E+03 0.  0.
        -13    1    1    0    0    0  0.19732329496E+00 -0.20264822440E+00 -0.46503442569E+00  0.55445814834E+00  0.10566000000E+00 0.  1.
         13    1    1    0    0    0 -0.10109516198E+01  0.49483972266E+02 -0.37610829684E+02  0.62163262526E+02  0.10566000000E+00 0. -1.
         22    1    1    0    0    0  0.81362832479E+00 -0.49281324041E+02  0.38075864109E+02  0.62282279326E+02  0.00000000000E+00 0. -1.
</event>
<event>
 4    1  0.9897231E-003  0.9118800E+02  0.7818608E-02  0.1130116E+00
         25   -1    0    0    0    0  0.00000000000E+00  0.00000000000E+00  0.99999998245E-14  0.12500000000E+03  0.12500000000E+03 0.  0.
        -13    1    1    0    0    0  0.10786047582E+02  0.58794076765E+01 -0.55973012523E+00  0.12297589964E+02  0.10566000000E+00 0. -1.
         13    1    1    0    0    0  0.42089604073E+02  0.27291324210E+02 -0.23203977251E+01  0.50216994711E+02  0.10566000000E+00 0.  1.
         22    1    1    0    0    0 -0.52875651656E+02 -0.33170731886E+02  0.28801278503E+01  0.62485415325E+02  0.00000000000E+00 0.  1.
</event>
<event>
 4    1  0.9897231E-003  0.9118800E+02  0.7818608E-02  0.1130116E+00
         25   -1    0    0    0    0  0.00000000000E+00  0.00000000000E+00  0.99999998245E-14  0.12500000000E+03  0.12500000000E+03 0.  0.
        -13    1    1    0    0    0 -0.13953159907E+01  0.51908121386E+01 -0.21915916405E+01  0.58056589054E+01  0.10566000000E+00 0. -1.
         13    1    1    0    0    0  0.10698694217E+02  0.34095567161E+02 -0.44757726328E+02  0.57273335752E+02  0.10566000000E+00 0.  1.
         22    1    1    0    0    0 -0.93033782260E+01 -0.39286379300E+02  0.46949317969E+02  0.61921005343E+02  0.00000000000E+00 0.  1.
</event>
<event>
 4    1  0.9897231E-003  0.9118800E+02  0.7818608E-02  0.1130116E+00
         25   -1    0    0    0    0  0.00000000000E+00  0.00000000000E+00  0.99999998245E-14  0.12500000000E+03  0.12500000000E+03 0.  0.
        -13    1    1    0    0    0 -0.51845604738E+01 -0.36915915737E+02  0.27085262202E+02  0.46079139473E+02  0.10566000000E+00 0.  1.
         13    1    1    0    0    0 -0.19170796221E+01 -0.13260007906E+02  0.94948930128E+01  0.16421545643E+02  0.10566000000E+00 0.  1.
         22    1    1    0    0    0  0.71016400960E+01  0.50175923643E+02 -0.36580155214E+02  0.62499314884E+02  0.00000000000E+00 0.  1.
</event>
<event>
 4    1  0.9897231E-003  0.9118800E+02  0.7818608E-02  0.1130116E+00
         25   -1    0    0    0    0  0.00000000000E+00  0.00000000000E+00  0.99999998245E-14  0.12500000000E+03  0.12500000000E+03 0.  0.
        -13    1    1    0    0    0  0.39563611921E+01  0.16177433002E+02 -0.11708709613E+02  0.20358466967E+02  0.10566000000E+00 0.  1.
         13    1    1    0    0    0  0.69655551391E+01  0.34367858219E+02 -0.23382375192E+02  0.42147541692E+02  0.10566000000E+00 0. -1.
         22    1    1    0    0    0 -0.10921916331E+02 -0.50545291221E+02  0.35091084806E+02  0.62493991341E+02  0.00000000000E+00 0. -1.
</event>
<event>
 4    1  0.9897231E-003  0.9118800E+02  0.7818608E-02  0.1130116E+00
         25   -1    0    0    0    0  0.00000000000E+00  0.00000000000E+00  0.99999998245E-14  0.12500000000E+03  0.12500000000E+03 0.  0.
        -13    1    1    0    0    0 -0.53320916693E+02 -0.71646291493E+01 -0.21999340241E+02  0.58124299591E+02  0.10566000000E+00 0.  1.
         13    1    1    0    0    0 -0.28893448527E+01 -0.45934913463E+01  0.14097467420E+00  0.54295040584E+01  0.10566000000E+00 0. -1.
         22    1    1    0    0    0  0.56210261546E+02  0.11758120496E+02  0.21858365567E+02  0.61446196350E+02  0.00000000000E+00 0.  1.
</event>
<event>
 4    1  0.9897231E-003  0.9118800E+02  0.7818608E-02  0.1130116E+00
         25   -1    0    0    0    0  0.00000000000E+00  0.00000000000E+00  0.99999998245E-14  0.12500000000E+03  0.12500000000E+03 0.  0.
        -13    1    1    0    0    0  0.10295162356E+02 -0.83835029484E+01  0.14007143809E+02  0.19299863506E+02  0.10566000000E+00 0. -1.
         13    1    1    0    0    0  0.20699292071E+02 -0.17414579134E+02  0.33712328041E+02  0.43223378912E+02  0.10566000000E+00 0.  1.
         22    1    1    0    0    0 -0.30994454427E+02  0.25798082082E+02 -0.47719471850E+02  0.62476757582E+02  0.00000000000E+00 0.  1.
</event>
<event>
 4    1  0.9897231E-003  0.9118800E+02  0.7818608E-02  0.1130116E+00
         25   -1    0    0    0    0  0.00000000000E+00  0.00000000000E+00  0.99999998245E-14  0.12500000000E+03  0.12500000000E+03 0.  0.
        -13    1    1    0    0    0 -0.22696153050E+02 -0.15063876103E+02  0.11251527327E+01  0.27263764583E+02  0.10566000000E+00 0. -1.
         13    1    1    0    0    0 -0.29218657813E+02 -0.19632242690E+02  0.15653659106E+01  0.35236578323E+02  0.10566000000E+00 0. -1.
         22    1    1    0    0    0  0.51914810864E+02  0.34696118793E+02 -0.26905186434E+01  0.62499657094E+02  0.00000000000E+00 0. -1.
</event>
<event>
 4    1  0.9897231E-003  0.9118800E+02  0.7818608E-02  0.1130116E+00
         25   -1    0    0    0    0  0.00000000000E+00  0.00000000000E+00  0.99999998245E-14  0.12500000000E+03  0.12500000000E+03 0.  0.
        -13    1    1    0    0    0  0.37055207858E+02 -0.45623674521E+01 -0.24193646432E+02  0.44488732482E+02  0.10566000000E+00 0. -1.
         13    1    1    0    0    0  0.14935341473E+02 -0.19047452459E+01 -0.98851209167E+01  0.18011642316E+02  0.10566000000E+00 0.  1.
         22    1    1    0    0    0 -0.51990549331E+02  0.64671126980E+01  0.34078767348E+02  0.62499625202E+02  0.00000000000E+00 0. -1.
</event>
<event>
 4    1  0.9897231E-003  0.9118800E+02  0.7818608E-02  0.1130116E+00
         25   -1    0    0    0    0  0.00000000000E+00  0.00000000000E+00  0.99999998245E-14  0.12500000000E+03  0.12500000000E+03 0.  0.
        -13    1    1    0    0    0 -0.16253981355E+01 -0.19047474462E+01  0.12799818672E+01  0.28141605407E+01  0.10566000000E+00 0.  1.
         13    1    1    0    0    0 -0.29056370401E+02 -0.42429522747E+02  0.30314263596E+02  0.59695081898E+02  0.10566000000E+00 0. -1.
         22    1    1    0    0    0  0.30681768537E+02  0.44334270193E+02 -0.31594245464E+02  0.62490757561E+02  0.00000000000E+00 0. -1.
</event>
<event>
 4    1  0.9897231E-003  0.9118800E+02  0.7818608E-02  0.1130116E+00
         25   -1    0    0    0    0  0.00000000000E+00  0.00000000000E+00  0.99999998245E-14  0.12500000000E+03  0.12500000000E+03 0.  0.
        -13    1    1    0    0    0  0.18836145935E+01  0.70226350380E+00  0.48808638195E+01  0.52796944633E+01  0.10566000000E+00 0. -1.
         13    1    1    0    0    0  0.20252170745E+02  0.67688096417E+01  0.53087509494E+02  0.57221167693E+02  0.10566000000E+00 0.  1.
         22    1    1    0    0    0 -0.22135785338E+02 -0.74710731455E+01 -0.57968373314E+02  0.62499137843E+02  0.00000000000E+00 0.  1.
</event>
<event>
 4    1  0.9897231E-003  0.9118800E+02  0.7818608E-02  0.1130116E+00
         25   -1    0    0    0    0  0.00000000000E+00  0.00000000000E+00  0.99999998245E-14  0.12500000000E+03  0.12500000000E+03 0.  0.
        -13    1    1    0    0    0  0.34099429890E+02  0.38030876029E+02 -0.31269158592E+02  0.59890651136E+02  0.10566000000E+00 0.  1.
         13    1    1    0    0    0  0.17546717028E+01  0.12669201776E+01 -0.14952269521E+01  0.26326464242E+01  0.10566000000E+00 0.  1.
         22    1    1    0    0    0 -0.35854101593E+02 -0.39297796206E+02  0.32764385544E+02  0.62476702440E+02  0.00000000000E+00 0.  1.
</event>
<event>
 4    1  0.9897231E-003  0.9118800E+02  0.7818608E-02  0.1130116E+00
         25   -1    0    0    0    0  0.00000000000E+00  0.00000000000E+00  0.99999998245E-14  0.12500000000E+03  0.12500000000E+03 0.  0.
        -13    1    1    0    0    0  0.45304740531E+01 -0.59971635777E+02  0.33262197976E+00  0.60143529114E+02  0.10566000000E+00 0.  1.
         13    1    1    0    0    0 -0.35586885261E+01  0.24506533464E-01  0.32142998403E+01  0.47966396670E+01  0.10566000000E+00 0. -1.
         22    1    1    0    0    0 -0.97178552703E+00  0.59947129243E+02 -0.35469218201E+01  0.60059831219E+02  0.00000000000E+00 0.  1.
</event>
<event>
 4    1  0.9897231E-003  0.9118800E+02  0.7818608E-02  0.1130116E+00
         25   -1    0    0    0    0  0.00000000000E+00  0.00000000000E+00  0.99999998245E-14  0.12500000000E+03  0.12500000000E+03 0.  0.
        -13    1    1    0    0    0  0.24438504052E+02 -0.18435004891E+02 -0.27916108668E+02  0.41429580892E+02  0.10566000000E+00 0.  1.
         13    1    1    0    0    0  0.17693057075E+02 -0.34446998870E+01 -0.11908804150E+02  0.21604189554E+02  0.10566000000E+00 0. -1.
         22    1    1    0    0    0 -0.42131561128E+02  0.21879704778E+02  0.39824912818E+02  0.61966229554E+02  0.00000000000E+00 0.  1.
</event>
<event>
 4    1  0.9897231E-003  0.9118800E+02  0.7818608E-02  0.1130116E+00
         25   -1    0    0    0    0  0.00000000000E+00  0.00000000000E+00  0.99999998245E-14  0.12500000000E+03  0.12500000000E+03 0.  0.
        -13    1    1    0    0    0 -0.60988972184E-01  0.75479032754E+00  0.79741432444E+00  0.11047450990E+01  0.10566000000E+00 0. -1.
         13    1    1    0    0    0 -0.22651781952E+01 -0.52206427445E+02  0.33449355010E+02  0.62044440633E+02  0.10566000000E+00 0.  1.
         22    1    1    0    0    0  0.23261671674E+01  0.51451637118E+02 -0.34246769335E+02  0.61850814268E+02  0.00000000000E+00 0.  1.
</event>
<event>
 4    1  0.9897231E-003  0.9118800E+02  0.7818608E-02  0.1130116E+00
         25   -1    0    0    0    0  0.00000000000E+00  0.00000000000E+00  0.99999998245E-14  0.12500000000E+03  0.12500000000E+03 0.  0.
        -13    1    1    0    0    0  0.12619140744E+02  0.12001911765E+01  0.31940267440E+02  0.34363862125E+02  0.10566000000E+00 0. -1.
         13    1    1    0    0    0  0.11129749778E+02  0.23698892616E+01  0.25746895521E+02  0.28149626964E+02  0.10566000000E+00 0.  1.
         22    1    1    0    0    0 -0.23748890523E+02 -0.35700804380E+01 -0.57687162960E+02  0.62486510911E+02  0.00000000000E+00 0.  1.
</event>
<event>
 4    1  0.9897231E-003  0.9118800E+02  0.7818608E-02  0.1130116E+00
         25   -1    0    0    0    0  0.00000000000E+00  0.00000000000E+00  0.99999998245E-14  0.12500000000E+03  0.12500000000E+03 0.  0.
        -13    1    1    0    0    0  0.13070400169E+02 -0.45136984536E+01  0.36926412000E+01  0.14312777417E+02  0.10566000000E+00 0.  1.
         13    1    1    0    0    0  0.31001363794E+02  0.31616663014E+01  0.38587388355E+02  0.49599177362E+02  0.10566000000E+00 0. -1.
         22    1    1    0    0    0 -0.44071763963E+02  0.13520321521E+01 -0.42280029555E+02  0.61088045221E+02  0.00000000000E+00 0. -1.
</event>
<event>
 4    1  0.9897231E-003  0.9118800E+02  0.7818608E-02  0.1130116E+00
         25   -1    0    0    0    0  0.00000000000E+00  0.00000000000E+00  0.99999998245E-14  0.12500000000E+03  0.12500000000E+03 0.  0.
        -13    1    1    0    0    0 -0.30737857916E+01  0.20100542189E+02  0.41091366711E+02  0.45847481257E+02  0.10566000000E+00 0. -1.
         13    1    1    0    0    0 -0.10433045365E+02  0.42553465452E-01  0.14868049133E+02  0.18163708196E+02  0.10566000000E+00 0.  1.
         22    1    1    0    0    0  0.13506831157E+02 -0.20143095654E+02 -0.55959415843E+02  0.60988810547E+02  0.00000000000E+00 0. -1.
</event>
<event>
 4    1  0.9897231E-003  0.9118800E+02  0.7818608E-02  0.1130116E+00
         25   -1    0    0    0    0  0.00000000000E+00  0.00000000000E+00  0.99999998245E-14  0.12500000000E+03  0.12500000000E+03 0.  0.
        -13    1    1    0    0    0  0.81014141684E+01 -0.32910674530E+02  0.22869016422E+01  0.33970376693E+02  0.10566000000E+00 0.  1.
         13    1    1    0    0    0  0.59956304154E+01 -0.27862338460E+02  0.13953607824E+01  0.28534464850E+02  0.10566000000E+00 0. -1.
         22    1    1    0    0    0 -0.14097044584E+02  0.60773012990E+02 -0.36822624246E+01  0.62495158456E+02  0.00000000000E+00 0. -1.
</event>
<event>
 4    1  0.9897231E-003  0.9118800E+02  0.7818608E-02  0.1130116E+00
         25   -1    0    0    0    0  0.00000000000E+00  0.00000000000E+00  0.99999998245E-14  0.12500000000E+03  0.12500000000E+03 0.  0.
        -13    1    1    0    0    0 -0.69670070298E+00  0.76977328527E+01  0.71090198380E+01  0.10501895545E+02  0.10566000000E+00 0. -1.
         13    1    1    0    0    0 -0.51262468650E+01  0.43009826865E+02  0.28867320935E+02  0.52052444668E+02  0.10566000000E+00 0.  1.
         22    1    1    0    0    0  0.58229475680E+01 -0.50707559718E+02 -0.35976340773E+02  0.62445659788E+02  0.00000000000E+00 0.  1.
</event>
<event>
 4    1  0.9897231E-003  0.9118800E+02  0.7818608E-02  0.1130116E+00
         25   -1    0    0    0    0  0.00000000000E+00  0.00000000000E+00  0.99999998245E-14  0.12500000000E+03  0.12500000000E+03 0.  0.
        -13    1    1    0    0    0  0.62717668470E+01  0.32538142403E+01  0.38526103849E+01  0.80483623990E+01  0.10566000000E+00 0.  1.
         13    1    1    0    0    0  0.43866999608E+02  0.21943027549E+02  0.23658166525E+02  0.54456681133E+02  0.10566000000E+00 0. -1.
         22    1    1    0    0    0 -0.50138766455E+02 -0.25196841789E+02 -0.27510776910E+02  0.62494956468E+02  0.00000000000E+00 0. -1.
</event>
<event>
 4    1  0.9897231E-003  0.9118800E+02  0.7818608E-02  0.1130116E+00
         25   -1    0    0    0    0  0.00000000000E+00  0.00000000000E+00  0.99999998245E-14  0.12500000000E+03  0.12500000000E+03 0.  0.
        -13    1    1    0    0    0  0.17780721843E+02  0.46588138035E+02 -0.36613238871E+02  0.61863956384E+02  0.10566000000E+00 0. -1.
         13    1    1    0    0    0  0.26067786655E+00  0.45449732721E+00 -0.35777351575E+00  0.64318480604E+00  0.10566000000E+00 0.  1.
         22    1    1    0    0    0 -0.18041399710E+02 -0.47042635362E+02  0.36971012387E+02  0.62492858810E+02  0.00000000000E+00 0. -1.
</event>
<event>
 4    1  0.9897231E-003  0.9118800E+02  0.7818608E-02  0.1130116E+00
         25   -1    0    0    0    0  0.00000000000E+00  0.00000000000E+00  0.99999998245E-14  0.12500000000E+03  0.12500000000E+03 0.  0.
        -13    1    1    0    0    0 -0.88547191985E+01 -0.38917016617E+02 -0.38155245859E+02  0.55215705964E+02  0.10566000000E+00 0. -1.
         13    1    1    0    0    0 -0.18165243664E+01 -0.27451921705E+01 -0.68090219212E+01  0.75637149857E+01  0.10566000000E+00 0.  1.
         22    1    1    0    0    0  0.10671243565E+02  0.41662208788E+02  0.44964267780E+02  0.62220579050E+02  0.00000000000E+00 0. -1.
</event>
<event>
 4    1  0.9897231E-003  0.9118800E+02  0.7818608E-02  0.1130116E+00
         25   -1    0    0    0    0  0.00000000000E+00  0.00000000000E+00  0.99999998245E-14  0.12500000000E+03  0.12500000000E+03 0.  0.
        -13    1    1    0    0    0 -0.22048902757E+01 -0.23786448233E+01  0.46549237169E+02  0.46662213164E+02  0.10566000000E+00 0. -1.
         13    1    1    0    0    0 -0.10243258397E+02 -0.61521719782E+01  0.12557966194E+02  0.17334567823E+02  0.10566000000E+00 0.  1.
         22    1    1    0    0    0  0.12448148673E+02  0.85308168015E+01 -0.59107203362E+02  0.61003219014E+02  0.00000000000E+00 0. -1.
</event>
<event>
 4    1  0.9897231E-003  0.9118800E+02  0.7818608E-02  0.1130116E+00
         25   -1    0    0    0    0  0.00000000000E+00  0.00000000000E+00  0.99999998245E-14  0.12500000000E+03  0.12500000000E+03 0.  0.
        -13    1    1    0    0    0 -0.70744651208E+01 -0.48336427724E+02  0.25560947932E+02  0.55134667181E+02  0.10566000000E+00 0.  1.
         13    1    1    0    0    0 -0.96114773290E+00 -0.63415405385E+01  0.36234791685E+01  0.73674762765E+01  0.10566000000E+00 0. -1.
         22    1    1    0    0    0  0.80356128537E+01  0.54677968263E+02 -0.29184427101E+02  0.62497856543E+02  0.00000000000E+00 0.  1.
</event>
<event>
 4    1  0.9897231E-003  0.9118800E+02  0.7818608E-02  0.1130116E+00
         25   -1    0    0    0    0  0.00000000000E+00  0.00000000000E+00  0.99999998245E-14  0.12500000000E+03  0.12500000000E+03 0.  0.
        -13    1    1    0    0    0 -0.19240695343E+00 -0.48476239258E+02  0.26572513758E+02  0.55281935969E+02  0.10566000000E+00 0.  1.
         13    1    1    0    0    0 -0.67877390802E-01 -0.63531011715E+01  0.34250582062E+01  0.72186348839E+01  0.10566000000E+00 0.  1.
         22    1    1    0    0    0  0.26028434423E+00  0.54829340430E+02 -0.29997571965E+02  0.62499429147E+02  0.00000000000E+00 0.  1.
</event>
<event>
 4    1  0.9897231E-003  0.9118800E+02  0.7818608E-02  0.1130116E+00
         25   -1    0    0    0    0  0.00000000000E+00  0.00000000000E+00  0.99999998245E-14  0.12500000000E+03  0.12500000000E+03 0.  0.
        -13    1    1    0    0    0  0.29901537598E+02 -0.36361326792E+02 -0.15848256780E+02  0.49673196432E+02  0.10566000000E+00 0.  1.
         13    1    1    0    0    0  0.76639854128E+01 -0.93805001125E+01 -0.42190046882E+01  0.12827377727E+02  0.10566000000E+00 0.  1.
         22    1    1    0    0    0 -0.37565523011E+02  0.45741826904E+02  0.20067261468E+02  0.62499425841E+02  0.00000000000E+00 0.  1.
</event>
<event>
 4    1  0.9897231E-003  0.9118800E+02  0.7818608E-02  0.1130116E+00
         25   -1    0    0    0    0  0.00000000000E+00  0.00000000000E+00  0.99999998245E-14  0.12500000000E+03  0.12500000000E+03 0.  0.
        -13    1    1    0    0    0 -0.10062222483E+02  0.35886475040E+01 -0.46982800215E+01  0.11670977312E+02  0.10566000000E+00 0. -1.
         13    1    1    0    0    0 -0.28189168758E+02  0.32314720397E+02 -0.28275666692E+02  0.51365308142E+02  0.10566000000E+00 0.  1.
         22    1    1    0    0    0  0.38251391241E+02 -0.35903367901E+02  0.32973946714E+02  0.61963714546E+02  0.00000000000E+00 0. -1.
</event>
<event>
 4    1  0.9897231E-003  0.9118800E+02  0.7818608E-02  0.1130116E+00
         25   -1    0    0    0    0  0.00000000000E+00  0.00000000000E+00  0.99999998245E-14  0.12500000000E+03  0.12500000000E+03 0.  0.
        -13    1    1    0    0    0 -0.45682680633E+02  0.19542640054E+02  0.32347787749E+02  0.59289228586E+02  0.10566000000E+00 0. -1.
         13    1    1    0    0    0 -0.25559014304E+01  0.10051411711E+01  0.16640359496E+01  0.32129613401E+01  0.10566000000E+00 0. -1.
         22    1    1    0    0    0  0.48238582063E+02 -0.20547781225E+02 -0.34011823698E+02  0.62497810074E+02  0.00000000000E+00 0. -1.
</event>
<event>
 4    1  0.9897231E-003  0.9118800E+02  0.7818608E-02  0.1130116E+00
         25   -1    0    0    0    0  0.00000000000E+00  0.00000000000E+00  0.99999998245E-14  0.12500000000E+03  0.12500000000E+03 0.  0.
        -13    1    1    0    0    0 -0.55991721045E+02 -0.57714235155E+01  0.23843095499E+02  0.61130078701E+02  0.10566000000E+00 0.  1.
         13    1    1    0    0    0  0.15717670678E+02  0.81646684126E+01 -0.13358208774E+02  0.22184676863E+02  0.10566000000E+00 0. -1.
         22    1    1    0    0    0  0.40274050367E+02 -0.23932448970E+01 -0.10484886725E+02  0.41685244436E+02  0.00000000000E+00 0.  1.
</event>
<event>
 4    1  0.9897231E-003  0.9118800E+02  0.7818608E-02  0.1130116E+00
         25   -1    0    0    0    0  0.00000000000E+00  0.00000000000E+00  0.99999998245E-14  0.12500000000E+03  0.12500000000E+03 0.  0.
        -13    1    1    0    0    0  0.48233186180E+02 -0.21071927393E+02 -0.59831462170E+01  0.52974291650E+02  0.10566000000E+00 0. -1.
         13    1    1    0    0    0  0.71050039137E+01 -0.62872931396E+01 -0.22387981758E+01  0.97485648659E+01  0.10566000000E+00 0.  1.
         22    1    1    0    0    0 -0.55338190094E+02  0.27359220532E+02  0.82219443928E+01  0.62277143484E+02  0.00000000000E+00 0. -1.
</event>
<event>
 4    1  0.9897231E-003  0.9118800E+02  0.7818608E-02  0.1130116E+00
         25   -1    0    0    0    0  0.00000000000E+00  0.00000000000E+00  0.99999998245E-14  0.12500000000E+03  0.12500000000E+03 0.  0.
        -13    1    1    0    0    0 -0.24189119637E+02 -0.44332191938E+01  0.60563106986E+00  0.24599692971E+02  0.10566000000E+00 0. -1.
         13    1    1    0    0    0 -0.37270527583E+02 -0.68073357371E+01  0.10026472003E+01  0.37900508065E+02  0.10566000000E+00 0. -1.
         22    1    1    0    0    0  0.61459647220E+02  0.11240554931E+02 -0.16082782702E+01  0.62499798964E+02  0.00000000000E+00 0. -1.
</event>
<event>
 4    1  0.9897231E-003  0.9118800E+02  0.7818608E-02  0.1130116E+00
         25   -1    0    0    0    0  0.00000000000E+00  0.00000000000E+00  0.99999998245E-14  0.12500000000E+03  0.12500000000E+03 0.  0.
        -13    1    1    0    0    0 -0.25752998086E+01 -0.13596125294E+02  0.19990608968E+00  0.13839722489E+02  0.10566000000E+00 0.  1.
         13    1    1    0    0    0 -0.51918486350E+02  0.20664242451E+02 -0.43804432300E+01  0.56051222893E+02  0.10566000000E+00 0. -1.
         22    1    1    0    0    0  0.54493786158E+02 -0.70681171574E+01  0.41805371403E+01  0.55109054617E+02  0.00000000000E+00 0. -1.
</event>
<event>
 4    1  0.9897231E-003  0.9118800E+02  0.7818608E-02  0.1130116E+00
         25   -1    0    0    0    0  0.00000000000E+00  0.00000000000E+00  0.99999998245E-14  0.12500000000E+03  0.12500000000E+03 0.  0.
        -13    1    1    0    0    0  0.11185897771E+02  0.11169751244E+01  0.16479775040E+02  0.19949087493E+02  0.10566000000E+00 0. -1.
         13    1    1    0    0    0  0.17408536964E+02  0.71516130636E+01  0.38318033748E+02  0.42690579792E+02  0.10566000000E+00 0.  1.
         22    1    1    0    0    0 -0.28594434735E+02 -0.82685881880E+01 -0.54797808788E+02  0.62360332716E+02  0.00000000000E+00 0.  1.
</event>
<event>
 4    1  0.9897231E-003  0.9118800E+02  0.7818608E-02  0.1130116E+00
         25   -1    0    0    0    0  0.00000000000E+00  0.00000000000E+00  0.99999998245E-14  0.12500000000E+03  0.12500000000E+03 0.  0.
        -13    1    1    0    0    0 -0.41303676502E+02 -0.18129041853E+02  0.19591104274E+02  0.49178027428E+02  0.10566000000E+00 0. -1.
         13    1    1    0    0    0 -0.11777391476E+02 -0.21871197777E+00  0.69782811970E+01  0.13691689355E+02  0.10566000000E+00 0.  1.
         22    1    1    0    0    0  0.53081067977E+02  0.18347753831E+02 -0.26569385471E+02  0.62130283216E+02  0.00000000000E+00 0. -1.
</event>
<event>
 4    1  0.9897231E-003  0.9118800E+02  0.7818608E-02  0.1130116E+00
         25   -1    0    0    0    0  0.00000000000E+00  0.00000000000E+00  0.99999998245E-14  0.12500000000E+03  0.12500000000E+03 0.  0.
        -13    1    1    0    0    0  0.14523533815E+02 -0.20794932128E+01  0.51417254787E+02  0.53469641671E+02  0.10566000000E+00 0.  1.
         13    1    1    0    0    0  0.18257182410E+01 -0.11131114207E+01  0.87973209981E+01  0.90540755966E+01  0.10566000000E+00 0.  1.
         22    1    1    0    0    0 -0.16349252056E+02  0.31926046335E+01 -0.60214575785E+02  0.62476282733E+02  0.00000000000E+00 0.  1.
</event>
<event>
 4    1  0.9897231E-003  0.9118800E+02  0.7818608E-02  0.1130116E+00
         25   -1    0    0    0    0  0.00000000000E+00  0.00000000000E+00  0.99999998245E-14  0.12500000000E+03  0.12500000000E+03 0.  0.
        -13    1    1    0    0    0  0.86067344002E+01 -0.47006319036E+02  0.65227359448E+01  0.48230977127E+02  0.10566000000E+00 0. -1.
         13    1    1    0    0    0  0.71934492431E+00 -0.14079132778E+02  0.25083223957E+01  0.14319297545E+02  0.10566000000E+00 0.  1.
         22    1    1    0    0    0 -0.93260793245E+01  0.61085451814E+02 -0.90310583405E+01  0.62449725329E+02  0.00000000000E+00 0. -1.
</event>
<event>
 4    1  0.9897231E-003  0.9118800E+02  0.7818608E-02  0.1130116E+00
         25   -1    0    0    0    0  0.00000000000E+00  0.00000000000E+00  0.99999998245E-14  0.12500000000E+03  0.12500000000E+03 0.  0.
        -13    1    1    0    0    0  0.69151396501E+01  0.77413490421E+00  0.70971871373E+01  0.99398023385E+01  0.10566000000E+00 0.  1.
         13    1    1    0    0    0 -0.46013731744E+02 -0.14450726914E+02  0.32178110250E+02  0.57978694023E+02  0.10566000000E+00 0. -1.
         22    1    1    0    0    0  0.39098592094E+02  0.13676592010E+02 -0.39275297387E+02  0.57081503638E+02  0.00000000000E+00 0. -1.
</event>
<event>
 4    1  0.9897231E-003  0.9118800E+02  0.7818608E-02  0.1130116E+00
         25   -1    0    0    0    0  0.00000000000E+00  0.00000000000E+00  0.99999998245E-14  0.12500000000E+03  0.12500000000E+03 0.  0.
        -13    1    1    0    0    0  0.32305406082E+02 -0.29875586074E+02  0.41700570554E+02  0.60622921852E+02  0.10566000000E+00 0.  1.
         13    1    1    0    0    0 -0.14235105015E+02  0.13175302124E+01 -0.69242812757E+01  0.15884927946E+02  0.10566000000E+00 0. -1.
         22    1    1    0    0    0 -0.18070301067E+02  0.28558055861E+02 -0.34776289278E+02  0.48492150202E+02  0.00000000000E+00 0.  1.
</event>
<event>
 4    1  0.9897231E-003  0.9118800E+02  0.7818608E-02  0.1130116E+00
         25   -1    0    0    0    0  0.00000000000E+00  0.00000000000E+00  0.99999998245E-14  0.12500000000E+03  0.12500000000E+03 0.  0.
        -13    1    1    0    0    0 -0.59156392736E+02  0.17070254776E+01  0.19055182787E+02  0.62173176633E+02  0.10566000000E+00 0. -1.
         13    1    1    0    0    0  0.54776170315E+00 -0.64651045494E+00  0.55144288079E+00  0.10164998466E+01  0.10566000000E+00 0.  1.
         22    1    1    0    0    0  0.58608631033E+02 -0.10605150226E+01 -0.19606625668E+02  0.61810323521E+02  0.00000000000E+00 0. -1.
</event>
<event>
 4    1  0.9897231E-003  0.9118800E+02  0.7818608E-02  0.1130116E+00
         25   -1    0    0    0    0  0.00000000000E+00  0.00000000000E+00  0.99999998245E-14  0.12500000000E+03  0.12500000000E+03 0.  0.
        -13    1    1    0    0    0  0.14693997417E+01  0.13313726724E+01 -0.98820285691E+01  0.10079550658E+02  0.10566000000E+00 0. -1.
         13    1    1    0    0    0  0.20009095423E+02  0.49597417537E+01 -0.48336084522E+02  0.52548560103E+02  0.10566000000E+00 0.  1.
         22    1    1    0    0    0 -0.21478495165E+02 -0.62911144260E+01  0.58218113092E+02  0.62371889239E+02  0.00000000000E+00 0.  1.
</event>
<event>
 4    1  0.9897231E-003  0.9118800E+02  0.7818608E-02  0.1130116E+00
         25   -1    0    0    0    0  0.00000000000E+00  0.00000000000E+00  0.99999998245E-14  0.12500000000E+03  0.12500000000E+03 0.  0.
        -13    1    1    0    0    0 -0.11932880256E+02  0.31427408448E+02 -0.51028922636E+02  0.61106773293E+02  0.10566000000E+00 0. -1.
         13    1    1    0    0    0 -0.10667932772E+01 -0.17964693502E+00 -0.12243028024E+01  0.16371934233E+01  0.10566000000E+00 0.  1.
         22    1    1    0    0    0  0.12999673533E+02 -0.31247761513E+02  0.52253225438E+02  0.62256033283E+02  0.00000000000E+00 0. -1.
</event>
<event>
 4    1  0.9897231E-003  0.9118800E+02  0.7818608E-02  0.1130116E+00
         25   -1    0    0    0    0  0.00000000000E+00  0.00000000000E+00  0.99999998245E-14  0.12500000000E+03  0.12500000000E+03 0.  0.
        -13    1    1    0    0    0  0.30532758338E+01  0.18013645100E+01  0.10864484134E+01  0.37093047334E+01  0.10566000000E+00 0.  1.
         13    1    1    0    0    0  0.47905235285E+02  0.31225177263E+02  0.13678339312E+02  0.58796525350E+02  0.10566000000E+00 0. -1.
         22    1    1    0    0    0 -0.50958511119E+02 -0.33026541773E+02 -0.14764787726E+02  0.62494169917E+02  0.00000000000E+00 0. -1.
</event>
<event>
 4    1  0.9897231E-003  0.9118800E+02  0.7818608E-02  0.1130116E+00
         25   -1    0    0    0    0  0.00000000000E+00  0.00000000000E+00  0.99999998245E-14  0.12500000000E+03  0.12500000000E+03 0.  0.
        -13    1    1    0    0    0 -0.10890774462E+01 -0.15418693375E+01  0.14885942140E+02  0.15005528587E+02  0.10566000000E+00 0.  1.
         13    1    1    0    0    0 -0.91692415133E+01 -0.15242167462E+02  0.44240048633E+02  0.47682195062E+02  0.10566000000E+00 0. -1.
         22    1    1    0    0    0  0.10258318960E+02  0.16784036800E+02 -0.59125990773E+02  0.62312276351E+02  0.00000000000E+00 0. -1.
</event>
<event>
 4    1  0.9897231E-003  0.9118800E+02  0.7818608E-02  0.1130116E+00
         25   -1    0    0    0    0  0.00000000000E+00  0.00000000000E+00  0.99999998245E-14  0.12500000000E+03  0.12500000000E+03 0.  0.
        -13    1    1    0    0    0 -0.29877822756E+02 -0.31717093745E+02  0.64215312730E+01  0.44044358960E+02  0.10566000000E+00 0.  1.
         13    1    1    0    0    0 -0.13002247752E+02 -0.12709836314E+02  0.32101306032E+01  0.18463869807E+02  0.10566000000E+00 0. -1.
         22    1    1    0    0    0  0.42880070509E+02  0.44426930059E+02 -0.96316618762E+01  0.62491771232E+02  0.00000000000E+00 0.  1.
</event>
<event>
 4    1  0.9897231E-003  0.9118800E+02  0.7818608E-02  0.1130116E+00
         25   -1    0    0    0    0  0.00000000000E+00  0.00000000000E+00  0.99999998245E-14  0.12500000000E+03  0.12500000000E+03 0.  0.
        -13    1    1    0    0    0  0.17109847446E+01 -0.18398912871E+02  0.35549522541E+02  0.40065286478E+02  0.10566000000E+00 0. -1.
         13    1    1    0    0    0  0.46117855047E+01  0.38530661503E+01  0.23259973630E+02  0.24023992624E+02  0.10566000000E+00 0.  1.
         22    1    1    0    0    0 -0.63227702493E+01  0.14545846721E+02 -0.58809496171E+02  0.60910720898E+02  0.00000000000E+00 0. -1.
</event>
<event>
 4    1  0.9897231E-003  0.9118800E+02  0.7818608E-02  0.1130116E+00
         25   -1    0    0    0    0  0.00000000000E+00  0.00000000000E+00  0.99999998245E-14  0.12500000000E+03  0.12500000000E+03 0.  0.
        -13    1    1    0    0    0  0.23081197092E+02  0.28473183215E+02  0.17911771723E+02  0.40795913421E+02  0.10566000000E+00 0. -1.
         13    1    1    0    0    0  0.12210107584E+02  0.15162253245E+02  0.95962080685E+01  0.21704354955E+02  0.10566000000E+00 0. -1.
         22    1    1    0    0    0 -0.35291304676E+02 -0.43635436460E+02 -0.27507979792E+02  0.62499731624E+02  0.00000000000E+00 0. -1.
</event>
<event>
 4    1  0.9897231E-003  0.9118800E+02  0.7818608E-02  0.1130116E+00
         25   -1    0    0    0    0  0.00000000000E+00  0.00000000000E+00  0.99999998245E-14  0.12500000000E+03  0.12500000000E+03 0.  0.
        -13    1    1    0    0    0  0.29774837416E+02  0.49207856698E+02  0.76494415394E+01  0.58021368683E+02  0.10566000000E+00 0. -1.
         13    1    1    0    0    0  0.32776099610E+01  0.28723889217E+01 -0.26305533712E+01  0.50915930953E+01  0.10566000000E+00 0.  1.
         22    1    1    0    0    0 -0.33052447377E+02 -0.52080245620E+02 -0.50188881683E+01  0.61887038222E+02  0.00000000000E+00 0. -1.
</event>
<event>
 4    1  0.9897231E-003  0.9118800E+02  0.7818608E-02  0.1130116E+00
         25   -1    0    0    0    0  0.00000000000E+00  0.00000000000E+00  0.99999998245E-14  0.12500000000E+03  0.12500000000E+03 0.  0.
        -13    1    1    0    0    0  0.13380464729E+02 -0.16637373565E+01 -0.15175817138E+01  0.13569048480E+02  0.10566000000E+00 0. -1.
         13    1    1    0    0    0  0.48242196771E+02 -0.54380793916E+01 -0.61196403224E+01  0.48932028554E+02  0.10566000000E+00 0.  1.
         22    1    1    0    0    0 -0.61622661500E+02  0.71018167481E+01  0.76372220362E+01  0.62498922966E+02  0.00000000000E+00 0. -1.
</event>
<event>
 4    1  0.9897231E-003  0.9118800E+02  0.7818608E-02  0.1130116E+00
         25   -1    0    0    0    0  0.00000000000E+00  0.00000000000E+00  0.99999998245E-14  0.12500000000E+03  0.12500000000E+03 0.  0.
        -13    1    1    0    0    0 -0.33221929441E+01  0.14168665576E+02  0.11884569221E+02  0.18789417228E+02  0.10566000000E+00 0. -1.
         13    1    1    0    0    0 -0.12613161593E+02  0.29802682971E+02  0.29477508595E+02  0.43774723696E+02  0.10566000000E+00 0.  1.
         22    1    1    0    0    0  0.15935354537E+02 -0.43971348548E+02 -0.41362077816E+02  0.62435859076E+02  0.00000000000E+00 0. -1.
</event>
<event>
 4    1  0.9897231E-003  0.9118800E+02  0.7818608E-02  0.1130116E+00
         25   -1    0    0    0    0  0.00000000000E+00  0.00000000000E+00  0.99999998245E-14  0.12500000000E+03  0.12500000000E+03 0.  0.
        -13    1    1    0    0    0  0.37983069306E+01 -0.55831212803E+01  0.10954568479E+02  0.12869037002E+02  0.10566000000E+00 0. -1.
         13    1    1    0    0    0  0.14492425509E+02 -0.21534286451E+02  0.42302427420E+02  0.49631264539E+02  0.10566000000E+00 0.  1.
         22    1    1    0    0    0 -0.18290732440E+02  0.27117407731E+02 -0.53256995899E+02  0.62499698459E+02  0.00000000000E+00 0.  1.
</event>
<event>
 4    1  0.9897231E-003  0.9118800E+02  0.7818608E-02  0.1130116E+00
         25   -1    0    0    0    0  0.00000000000E+00  0.00000000000E+00  0.99999998245E-14  0.12500000000E+03  0.12500000000E+03 0.  0.
        -13    1    1    0    0    0  0.27990569845E+01  0.84686399279E+01  0.92688392722E+00  0.89678793525E+01  0.10566000000E+00 0. -1.
         13    1    1    0    0    0  0.31070421204E+02  0.41876393326E+02  0.13078331977E+02  0.53759253372E+02  0.10566000000E+00 0.  1.
         22    1    1    0    0    0 -0.33869478188E+02 -0.50345033254E+02 -0.14005215905E+02  0.62272867275E+02  0.00000000000E+00 0.  1.
</event>
<event>
 4    1  0.9897231E-003  0.9118800E+02  0.7818608E-02  0.1130116E+00
         25   -1    0    0    0    0  0.00000000000E+00  0.00000000000E+00  0.99999998245E-14  0.12500000000E+03  0.12500000000E+03 0.  0.
        -13    1    1    0    0    0 -0.61176279504E+01  0.18940957364E+02 -0.42958395764E+02  0.47345751322E+02  0.10566000000E+00 0.  1.
         13    1    1    0    0    0 -0.44677332813E+00  0.76960833931E+01 -0.13124218347E+02  0.15221221280E+02  0.10566000000E+00 0. -1.
         22    1    1    0    0    0  0.65644012785E+01 -0.26637040757E+02  0.56082614111E+02  0.62433027397E+02  0.00000000000E+00 0.  1.
</event>
<event>
 4    1  0.9897231E-003  0.9118800E+02  0.7818608E-02  0.1130116E+00
         25   -1    0    0    0    0  0.00000000000E+00  0.00000000000E+00  0.99999998245E-14  0.12500000000E+03  0.12500000000E+03 0.  0.
        -13    1    1    0    0    0  0.88492886060E+01  0.35163304856E+02 -0.23727739094E+02  0.43333413018E+02  0.10566000000E+00 0.  1.
         13    1    1    0    0    0  0.41649517933E+01  0.15193798292E+02 -0.10921828223E+02  0.19170180639E+02  0.10566000000E+00 0. -1.
         22    1    1    0    0    0 -0.13014240399E+02 -0.50357103147E+02  0.34649567317E+02  0.62496406343E+02  0.00000000000E+00 0.  1.
</event>
<event>
 4    1  0.9897231E-003  0.9118800E+02  0.7818608E-02  0.1130116E+00
         25   -1    0    0    0    0  0.00000000000E+00  0.00000000000E+00  0.99999998245E-14  0.12500000000E+03  0.12500000000E+03 0.  0.
        -13    1    1    0    0    0  0.25427778985E+02  0.17247955668E+02 -0.72553270534E+01  0.31570791145E+02  0.10566000000E+00 0. -1.
         13    1    1    0    0    0  0.18637887518E+02  0.25033418595E+02 -0.35498435459E+01  0.31411072108E+02  0.10566000000E+00 0.  1.
         22    1    1    0    0    0 -0.44065666503E+02 -0.42281374264E+02  0.10805170599E+02  0.62018136748E+02  0.00000000000E+00 0.  1.
</event>
<event>
 4    1  0.9897231E-003  0.9118800E+02  0.7818608E-02  0.1130116E+00
         25   -1    0    0    0    0  0.00000000000E+00  0.00000000000E+00  0.99999998245E-14  0.12500000000E+03  0.12500000000E+03 0.  0.
        -13    1    1    0    0    0  0.35073962048E+02 -0.54703754409E+01 -0.43772878845E+02  0.56357642850E+02  0.10566000000E+00 0.  1.
         13    1    1    0    0    0  0.39331742347E+01 -0.36820021996E+00 -0.47062694012E+01  0.61453695312E+01  0.10566000000E+00 0. -1.
         22    1    1    0    0    0 -0.39007136283E+02  0.58385756608E+01  0.48479148246E+02  0.62496987619E+02  0.00000000000E+00 0.  1.
</event>
<event>
 4    1  0.9897231E-003  0.9118800E+02  0.7818608E-02  0.1130116E+00
         25   -1    0    0    0    0  0.00000000000E+00  0.00000000000E+00  0.99999998245E-14  0.12500000000E+03  0.12500000000E+03 0.  0.
        -13    1    1    0    0    0 -0.13571520133E+01  0.77414667121E+01 -0.66124144803E+01  0.10271677455E+02  0.10566000000E+00 0.  1.
         13    1    1    0    0    0 -0.18376418097E+02  0.41904251907E+02 -0.25513529522E+02  0.52389029603E+02  0.10566000000E+00 0. -1.
         22    1    1    0    0    0  0.19733570110E+02 -0.49645718619E+02  0.32125944002E+02  0.62339292943E+02  0.00000000000E+00 0. -1.
</event>
<event>
 4    1  0.9897231E-003  0.9118800E+02  0.7818608E-02  0.1130116E+00
         25   -1    0    0    0    0  0.00000000000E+00  0.00000000000E+00  0.99999998245E-14  0.12500000000E+03  0.12500000000E+03 0.  0.
        -13    1    1    0    0    0  0.55170528432E+01 -0.36916976205E+01 -0.39864608204E+01  0.77440000842E+01  0.10566000000E+00 0. -1.
         13    1    1    0    0    0  0.40119336525E+02 -0.28686331020E+02 -0.23821365850E+02  0.54771665901E+02  0.10566000000E+00 0. -1.
         22    1    1    0    0    0 -0.45636389368E+02  0.32378028641E+02  0.27807826670E+02  0.62484334015E+02  0.00000000000E+00 0. -1.
</event>
<event>
 4    1  0.9897231E-003  0.9118800E+02  0.7818608E-02  0.1130116E+00
         25   -1    0    0    0    0  0.00000000000E+00  0.00000000000E+00  0.99999998245E-14  0.12500000000E+03  0.12500000000E+03 0.  0.
        -13    1    1    0    0    0 -0.65580188129E+01 -0.37062772238E+02 -0.12310610048E+02  0.39600744697E+02  0.10566000000E+00 0.  1.
         13    1    1    0    0    0 -0.66153316959E+01 -0.19817664316E+02 -0.96578162320E+01  0.23017102571E+02  0.10566000000E+00 0. -1.
         22    1    1    0    0    0  0.13173350509E+02  0.56880436554E+02  0.21968426280E+02  0.62382152732E+02  0.00000000000E+00 0.  1.
</event>
<event>
 4    1  0.9897231E-003  0.9118800E+02  0.7818608E-02  0.1130116E+00
         25   -1    0    0    0    0  0.00000000000E+00  0.00000000000E+00  0.99999998245E-14  0.12500000000E+03  0.12500000000E+03 0.  0.
        -13    1    1    0    0    0 -0.24345857521E+02 -0.23179581723E+02  0.11720154760E+02  0.35600378916E+02  0.10566000000E+00 0. -1.
         13    1    1    0    0    0 -0.20375437172E+02 -0.18230873516E+02 -0.39415074515E-01  0.27341102880E+02  0.10566000000E+00 0.  1.
         22    1    1    0    0    0  0.44721294693E+02  0.41410455239E+02 -0.11680739686E+02  0.62058518204E+02  0.00000000000E+00 0. -1.
</event>
<event>
 4    1  0.9897231E-003  0.9118800E+02  0.7818608E-02  0.1130116E+00
         25   -1    0    0    0    0  0.00000000000E+00  0.00000000000E+00  0.99999998245E-14  0.12500000000E+03  0.12500000000E+03 0.  0.
        -13    1    1    0    0    0  0.10459480033E+02 -0.25464573368E+01 -0.16001229493E+02  0.19285633950E+02  0.10566000000E+00 0.  1.
         13    1    1    0    0    0  0.23703302750E+02  0.26218568235E+01 -0.36187136212E+02  0.43338674250E+02  0.10566000000E+00 0. -1.
         22    1    1    0    0    0 -0.34162782783E+02 -0.75399486634E-01  0.52188365705E+02  0.62375691800E+02  0.00000000000E+00 0. -1.
</event>
<event>
 4    1  0.9897231E-003  0.9118800E+02  0.7818608E-02  0.1130116E+00
         25   -1    0    0    0    0  0.00000000000E+00  0.00000000000E+00  0.99999998245E-14  0.12500000000E+03  0.12500000000E+03 0.  0.
        -13    1    1    0    0    0  0.33590931608E+02  0.15064053041E+02  0.34321451306E+02  0.50331397398E+02  0.10566000000E+00 0.  1.
         13    1    1    0    0    0  0.71476037465E+01 -0.38201054342E-01  0.10215181240E+02  0.12467990633E+02  0.10566000000E+00 0. -1.
         22    1    1    0    0    0 -0.40738535354E+02 -0.15025851986E+02 -0.44536632545E+02  0.62200611968E+02  0.00000000000E+00 0.  1.
</event>
<event>
 4    1  0.9897231E-003  0.9118800E+02  0.7818608E-02  0.1130116E+00
         25   -1    0    0    0    0  0.00000000000E+00  0.00000000000E+00  0.99999998245E-14  0.12500000000E+03  0.12500000000E+03 0.  0.
        -13    1    1    0    0    0 -0.58519781627E+02  0.71891885617E+01  0.10157779402E+02  0.59828429031E+02  0.10566000000E+00 0.  1.
         13    1    1    0    0    0 -0.24727062083E+01 -0.13641596163E+01 -0.17586453737E+01  0.33285439816E+01  0.10566000000E+00 0. -1.
         22    1    1    0    0    0  0.60992487836E+02 -0.58250289454E+01 -0.83991340280E+01  0.61843026988E+02  0.00000000000E+00 0.  1.
</event>
<event>
 4    1  0.9897231E-003  0.9118800E+02  0.7818608E-02  0.1130116E+00
         25   -1    0    0    0    0  0.00000000000E+00  0.00000000000E+00  0.99999998245E-14  0.12500000000E+03  0.12500000000E+03 0.  0.
        -13    1    1    0    0    0  0.64918310804E+01  0.45866238615E+02 -0.18670665220E+02  0.49944575474E+02  0.10566000000E+00 0.  1.
         13    1    1    0    0    0 -0.41047440444E+01  0.12419927424E+02 -0.18607599325E+01  0.13212763241E+02  0.10566000000E+00 0. -1.
         22    1    1    0    0    0 -0.23870870360E+01 -0.58286166039E+02  0.20531425153E+02  0.61842661285E+02  0.00000000000E+00 0. -1.
</event>
<event>
 4    1  0.9897231E-003  0.9118800E+02  0.7818608E-02  0.1130116E+00
         25   -1    0    0    0    0  0.00000000000E+00  0.00000000000E+00  0.99999998245E-14  0.12500000000E+03  0.12500000000E+03 0.  0.
        -13    1    1    0    0    0 -0.12697692538E+02 -0.93779925727E+01 -0.30476030495E+02  0.34321680309E+02  0.10566000000E+00 0.  1.
         13    1    1    0    0    0 -0.78243056122E+01 -0.39359542683E+01 -0.26907973867E+02  0.28297733407E+02  0.10566000000E+00 0. -1.
         22    1    1    0    0    0  0.20521998150E+02  0.13313946841E+02  0.57384004362E+02  0.62380586284E+02  0.00000000000E+00 0.  1.
</event>
<event>
 4    1  0.9897231E-003  0.9118800E+02  0.7818608E-02  0.1130116E+00
         25   -1    0    0    0    0  0.00000000000E+00  0.00000000000E+00  0.99999998245E-14  0.12500000000E+03  0.12500000000E+03 0.  0.
        -13    1    1    0    0    0  0.31599890739E+02 -0.81559300924E+01 -0.39837815668E+02  0.51498883596E+02  0.10566000000E+00 0.  1.
         13    1    1    0    0    0  0.53170694535E+01 -0.13714638390E+01 -0.96056149730E+01  0.11064860762E+02  0.10566000000E+00 0. -1.
         22    1    1    0    0    0 -0.36916960193E+02  0.95273939314E+01  0.49443430641E+02  0.62436255642E+02  0.00000000000E+00 0.  1.
</event>
<event>
 4    1  0.9897231E-003  0.9118800E+02  0.7818608E-02  0.1130116E+00
         25   -1    0    0    0    0  0.00000000000E+00  0.00000000000E+00  0.99999998245E-14  0.12500000000E+03  0.12500000000E+03 0.  0.
        -13    1    1    0    0    0 -0.84104606983E+01 -0.44201299929E+02 -0.46232066784E+01  0.45231360455E+02  0.10566000000E+00 0. -1.
         13    1    1    0    0    0 -0.72398250623E+01 -0.15919648749E+02  0.25588259571E+00  0.17490766797E+02  0.10566000000E+00 0.  1.
         22    1    1    0    0    0  0.15650285761E+02  0.60120948678E+02  0.43673240827E+01  0.62277872748E+02  0.00000000000E+00 0. -1.
</event>
<event>
 4    1  0.9897231E-003  0.9118800E+02  0.7818608E-02  0.1130116E+00
         25   -1    0    0    0    0  0.00000000000E+00  0.00000000000E+00  0.99999998245E-14  0.12500000000E+03  0.12500000000E+03 0.  0.
        -13    1    1    0    0    0 -0.69545719421E+01  0.52434955608E+02  0.91969837833E+01  0.53687860036E+02  0.10566000000E+00 0.  1.
         13    1    1    0    0    0 -0.83227500610E+01  0.45807973875E+01 -0.77608977091E+01  0.12267622857E+02  0.10566000000E+00 0. -1.
         22    1    1    0    0    0  0.15277322003E+02 -0.57015752995E+02 -0.14360860741E+01  0.59044517107E+02  0.00000000000E+00 0.  1.
</event>
<event>
 4    1  0.9897231E-003  0.9118800E+02  0.7818608E-02  0.1130116E+00
         25   -1    0    0    0    0  0.00000000000E+00  0.00000000000E+00  0.99999998245E-14  0.12500000000E+03  0.12500000000E+03 0.  0.
        -13    1    1    0    0    0 -0.19912938269E+00  0.93926418158E-01 -0.12635897473E+00  0.27496419616E+00  0.10566000000E+00 0.  1.
         13    1    1    0    0    0 -0.51965618909E+02  0.34617902081E+01  0.34209480413E+02  0.62311389443E+02  0.10566000000E+00 0. -1.
         22    1    1    0    0    0  0.52164748292E+02 -0.35557166262E+01 -0.34083121439E+02  0.62413646361E+02  0.00000000000E+00 0. -1.
</event>
<event>
 4    1  0.9897231E-003  0.9118800E+02  0.7818608E-02  0.1130116E+00
         25   -1    0    0    0    0  0.00000000000E+00  0.00000000000E+00  0.99999998245E-14  0.12500000000E+03  0.12500000000E+03 0.  0.
        -13    1    1    0    0    0  0.17328934611E+01 -0.29798438432E+02 -0.17458584761E+02  0.34579809118E+02  0.10566000000E+00 0. -1.
         13    1    1    0    0    0  0.10966466744E+01 -0.23843315681E+02 -0.14488285645E+02  0.27921818020E+02  0.10566000000E+00 0.  1.
         22    1    1    0    0    0 -0.28295401355E+01  0.53641754113E+02  0.31946870406E+02  0.62498372862E+02  0.00000000000E+00 0.  1.
</event>
<event>
 4    1  0.9897231E-003  0.9118800E+02  0.7818608E-02  0.1130116E+00
         25   -1    0    0    0    0  0.00000000000E+00  0.00000000000E+00  0.99999998245E-14  0.12500000000E+03  0.12500000000E+03 0.  0.
        -13    1    1    0    0    0  0.15346877957E+02  0.98111862568E+01  0.28773492333E+01  0.18441158897E+02  0.10566000000E+00 0.  1.
         13    1    1    0    0    0  0.36288110932E+02  0.23760020971E+02  0.77441185090E+01  0.44060732257E+02  0.10566000000E+00 0. -1.
         22    1    1    0    0    0 -0.51634988889E+02 -0.33571207227E+02 -0.10621467742E+02  0.62498108846E+02  0.00000000000E+00 0. -1.
</event>
<event>
 4    1  0.9897231E-003  0.9118800E+02  0.7818608E-02  0.1130116E+00
         25   -1    0    0    0    0  0.00000000000E+00  0.00000000000E+00  0.99999998245E-14  0.12500000000E+03  0.12500000000E+03 0.  0.
        -13    1    1    0    0    0  0.31740171581E+01 -0.30617906112E+01  0.62019139236E+00  0.44547444445E+01  0.10566000000E+00 0.  1.
         13    1    1    0    0    0  0.13248699356E+02 -0.53898343513E+02 -0.18701126395E+02  0.58568786572E+02  0.10566000000E+00 0. -1.
         22    1    1    0    0    0 -0.16422716514E+02  0.56960134124E+02  0.18080935002E+02  0.61976468984E+02  0.00000000000E+00 0. -1.
</event>
<event>
 4    1  0.9897231E-003  0.9118800E+02  0.7818608E-02  0.1130116E+00
         25   -1    0    0    0    0  0.00000000000E+00  0.00000000000E+00  0.99999998245E-14  0.12500000000E+03  0.12500000000E+03 0.  0.
        -13    1    1    0    0    0 -0.46347890755E+02 -0.30170284868E+02 -0.43201697209E+01  0.55471146527E+02  0.10566000000E+00 0. -1.
         13    1    1    0    0    0 -0.60228854013E+01 -0.36240271749E+01 -0.24409024856E+00  0.70341641726E+01  0.10566000000E+00 0. -1.
         22    1    1    0    0    0  0.52370776157E+02  0.33794312043E+02  0.45642599695E+01  0.62494689301E+02  0.00000000000E+00 0. -1.
</event>
<event>
 4    1  0.9897231E-003  0.9118800E+02  0.7818608E-02  0.1130116E+00
         25   -1    0    0    0    0  0.00000000000E+00  0.00000000000E+00  0.99999998245E-14  0.12500000000E+03  0.12500000000E+03 0.  0.
        -13    1    1    0    0    0  0.10651438591E+02  0.35391529676E+01  0.10667815990E+02  0.15485225533E+02  0.10566000000E+00 0. -1.
         13    1    1    0    0    0  0.33073017118E+02  0.89192076267E+01  0.32210362554E+02  0.47020158931E+02  0.10566000000E+00 0.  1.
         22    1    1    0    0    0 -0.43724455709E+02 -0.12458360594E+02 -0.42878178544E+02  0.62494615536E+02  0.00000000000E+00 0.  1.
</event>
<event>
 4    1  0.9897231E-003  0.9118800E+02  0.7818608E-02  0.1130116E+00
         25   -1    0    0    0    0  0.00000000000E+00  0.00000000000E+00  0.99999998245E-14  0.12500000000E+03  0.12500000000E+03 0.  0.
        -13    1    1    0    0    0 -0.61295171435E+01  0.68330100417E+01 -0.14897178190E+02  0.17498516757E+02  0.10566000000E+00 0.  1.
         13    1    1    0    0    0 -0.16480730514E+02  0.33505218789E+02 -0.26217272137E+02  0.45624233546E+02  0.10566000000E+00 0. -1.
         22    1    1    0    0    0  0.22610247657E+02 -0.40338228831E+02  0.41114450327E+02  0.61877249696E+02  0.00000000000E+00 0. -1.
</event>
<event>
 4    1  0.9897231E-003  0.9118800E+02  0.7818608E-02  0.1130116E+00
         25   -1    0    0    0    0  0.00000000000E+00  0.00000000000E+00  0.99999998245E-14  0.12500000000E+03  0.12500000000E+03 0.  0.
        -13    1    1    0    0    0  0.17621620033E+02 -0.17990392896E+02 -0.39069637911E+02  0.46482507459E+02  0.10566000000E+00 0. -1.
         13    1    1    0    0    0  0.61584448027E+01 -0.52718008089E+01 -0.13827882857E+02  0.16029342921E+02  0.10566000000E+00 0.  1.
         22    1    1    0    0    0 -0.23780064836E+02  0.23262193705E+02  0.52897520768E+02  0.62488149620E+02  0.00000000000E+00 0.  1.
</event>
<event>
 4    1  0.9897231E-003  0.9118800E+02  0.7818608E-02  0.1130116E+00
         25   -1    0    0    0    0  0.00000000000E+00  0.00000000000E+00  0.99999998245E-14  0.12500000000E+03  0.12500000000E+03 0.  0.
        -13    1    1    0    0    0 -0.37552030308E+01  0.64167239589E+01 -0.80512405870E-01  0.74359627790E+01  0.10566000000E+00 0.  1.
         13    1    1    0    0    0 -0.23743387896E+01  0.50039657165E+02 -0.24402030257E+02  0.55723200003E+02  0.10566000000E+00 0. -1.
         22    1    1    0    0    0  0.61295418204E+01 -0.56456381124E+02  0.24482542663E+02  0.61840837218E+02  0.00000000000E+00 0. -1.
</event>
<event>
 4    1  0.9897231E-003  0.9118800E+02  0.7818608E-02  0.1130116E+00
         25   -1    0    0    0    0  0.00000000000E+00  0.00000000000E+00  0.99999998245E-14  0.12500000000E+03  0.12500000000E+03 0.  0.
        -13    1    1    0    0    0  0.49239139351E+02  0.47994194361E+01  0.13894219754E+01  0.49492109759E+02  0.10566000000E+00 0. -1.
         13    1    1    0    0    0  0.12961339536E+02 -0.94277016231E-01 -0.20678328103E+01  0.13126016429E+02  0.10566000000E+00 0.  1.
         22    1    1    0    0    0 -0.62200478887E+02 -0.47051424199E+01  0.67841083496E+00  0.62381873812E+02  0.00000000000E+00 0. -1.
</event>
<event>
 4    1  0.9897231E-003  0.9118800E+02  0.7818608E-02  0.1130116E+00
         25   -1    0    0    0    0  0.00000000000E+00  0.00000000000E+00  0.99999998245E-14  0.12500000000E+03  0.12500000000E+03 0.  0.
        -13    1    1    0    0    0 -0.69029101868E+01 -0.50480675780E+02 -0.24754604536E+01  0.51010664226E+02  0.10566000000E+00 0. -1.
         13    1    1    0    0    0 -0.19849681921E+01 -0.11240527318E+02  0.22315185283E+01  0.11631009934E+02  0.10566000000E+00 0.  1.
         22    1    1    0    0    0  0.88878783789E+01  0.61721203098E+02  0.24394192532E+00  0.62358325840E+02  0.00000000000E+00 0. -1.
</event>
<event>
 4    1  0.9897231E-003  0.9118800E+02  0.7818608E-02  0.1130116E+00
         25   -1    0    0    0    0  0.00000000000E+00  0.00000000000E+00  0.99999998245E-14  0.12500000000E+03  0.12500000000E+03 0.  0.
        -13    1    1    0    0    0  0.33173194643E+00 -0.71220475040E+00  0.88238036747E+00  0.11861875228E+01  0.10566000000E+00 0.  1.
         13    1    1    0    0    0  0.60697130217E+02 -0.42115542019E+01 -0.10783146432E+02  0.61791311819E+02  0.10566000000E+00 0. -1.
         22    1    1    0    0    0 -0.61028862163E+02  0.49237589523E+01  0.99007660641E+01  0.62022500658E+02  0.00000000000E+00 0. -1.
</event>
<event>
 4    1  0.9897231E-003  0.9118800E+02  0.7818608E-02  0.1130116E+00
         25   -1    0    0    0    0  0.00000000000E+00  0.00000000000E+00  0.99999998245E-14  0.12500000000E+03  0.12500000000E+03 0.  0.
        -13    1    1    0    0    0  0.28746187661E+02  0.81819186210E+01  0.67232568524E+01  0.30634954612E+02  0.10566000000E+00 0.  1.
         13    1    1    0    0    0  0.30406392757E+02  0.74687622768E+01  0.59695696262E+01  0.31874410676E+02  0.10566000000E+00 0. -1.
         22    1    1    0    0    0 -0.59152580417E+02 -0.15650680898E+02 -0.12692826479E+02  0.62490634711E+02  0.00000000000E+00 0.  1.
</event>
<event>
 4    1  0.9897231E-003  0.9118800E+02  0.7818608E-02  0.1130116E+00
         25   -1    0    0    0    0  0.00000000000E+00  0.00000000000E+00  0.99999998245E-14  0.12500000000E+03  0.12500000000E+03 0.  0.
        -13    1    1    0    0    0 -0.89980619929E+01 -0.44029550506E+02  0.11132187395E+02  0.46297982652E+02  0.10566000000E+00 0. -1.
         13    1    1    0    0    0 -0.31467513286E+01 -0.15577800920E+02  0.31828766880E+01  0.16208386517E+02  0.10566000000E+00 0.  1.
         22    1    1    0    0    0  0.12144813321E+02  0.59607351427E+02 -0.14315064083E+02  0.62493630831E+02  0.00000000000E+00 0. -1.
</event>
<event>
 4    1  0.9897231E-003  0.9118800E+02  0.7818608E-02  0.1130116E+00
         25   -1    0    0    0    0  0.00000000000E+00  0.00000000000E+00  0.99999998245E-14  0.12500000000E+03  0.12500000000E+03 0.  0.
        -13    1    1    0    0    0 -0.18787994498E+02 -0.18986270707E+02 -0.36222678116E+02  0.45006230530E+02  0.10566000000E+00 0. -1.
         13    1    1    0    0    0 -0.10720354118E+01 -0.27326562271E+01 -0.18032702093E+02  0.18270363400E+02  0.10566000000E+00 0.  1.
         22    1    1    0    0    0  0.19860029910E+02  0.21718926934E+02  0.54255380209E+02  0.61723406069E+02  0.00000000000E+00 0. -1.
</event>
<event>
 4    1  0.9897231E-003  0.9118800E+02  0.7818608E-02  0.1130116E+00
         25   -1    0    0    0    0  0.00000000000E+00  0.00000000000E+00  0.99999998245E-14  0.12500000000E+03  0.12500000000E+03 0.  0.
        -13    1    1    0    0    0 -0.40924266944E+02  0.20705919856E+02  0.10979829083E+02  0.47160349370E+02  0.10566000000E+00 0. -1.
         13    1    1    0    0    0  0.17082583505E+02  0.27864260696E+00 -0.34378559425E+02  0.38389957190E+02  0.10566000000E+00 0.  1.
         22    1    1    0    0    0  0.23841683438E+02 -0.20984562463E+02  0.23398730341E+02  0.39449693440E+02  0.00000000000E+00 0. -1.
</event>
<event>
 4    1  0.9897231E-003  0.9118800E+02  0.7818608E-02  0.1130116E+00
         25   -1    0    0    0    0  0.00000000000E+00  0.00000000000E+00  0.99999998245E-14  0.12500000000E+03  0.12500000000E+03 0.  0.
        -13    1    1    0    0    0 -0.12413558602E+02  0.48797116322E+02  0.35773740176E+02  0.61765901990E+02  0.10566000000E+00 0.  1.
         13    1    1    0    0    0  0.88180280943E-01  0.51279887910E+00  0.54789850444E+00  0.76295167548E+00  0.10566000000E+00 0. -1.
         22    1    1    0    0    0  0.12325378321E+02 -0.49309915201E+02 -0.36321638680E+02  0.62471146334E+02  0.00000000000E+00 0.  1.
</event>
<event>
 4    1  0.9897231E-003  0.9118800E+02  0.7818608E-02  0.1130116E+00
         25   -1    0    0    0    0  0.00000000000E+00  0.00000000000E+00  0.99999998245E-14  0.12500000000E+03  0.12500000000E+03 0.  0.
        -13    1    1    0    0    0  0.81829813881E+01 -0.18864971339E+01  0.46218760198E+01  0.95860814629E+01  0.10566000000E+00 0. -1.
         13    1    1    0    0    0  0.46837418867E+02  0.27241850004E+02  0.34675934020E+01  0.54294544531E+02  0.10566000000E+00 0.  1.
         22    1    1    0    0    0 -0.55020400255E+02 -0.25355352870E+02 -0.80894694218E+01  0.61119374006E+02  0.00000000000E+00 0.  1.
</event>
<event>
 4    1  0.9897231E-003  0.9118800E+02  0.7818608E-02  0.1130116E+00
         25   -1    0    0    0    0  0.00000000000E+00  0.00000000000E+00  0.99999998245E-14  0.12500000000E+03  0.12500000000E+03 0.  0.
        -13    1    1    0    0    0  0.32767504665E+02  0.51754259299E+02 -0.32346592427E+01  0.61340744225E+02  0.10566000000E+00 0. -1.
         13    1    1    0    0    0 -0.43168773328E+01 -0.13332167789E+02  0.70705239678E+01  0.15696674841E+02  0.10566000000E+00 0.  1.
         22    1    1    0    0    0 -0.28450627332E+02 -0.38422091510E+02 -0.38358647251E+01  0.47962580934E+02  0.00000000000E+00 0. -1.
</event>
<event>
 4    1  0.9897231E-003  0.9118800E+02  0.7818608E-02  0.1130116E+00
         25   -1    0    0    0    0  0.00000000000E+00  0.00000000000E+00  0.99999998245E-14  0.12500000000E+03  0.12500000000E+03 0.  0.
        -13    1    1    0    0    0  0.53452680289E+02 -0.26624560960E+02 -0.10284539960E+02  0.60595702839E+02  0.10566000000E+00 0. -1.
         13    1    1    0    0    0  0.16824347905E+01 -0.79938802427E+00 -0.39289816091E+00  0.19066045835E+01  0.10566000000E+00 0. -1.
         22    1    1    0    0    0 -0.55135115079E+02  0.27423948984E+02  0.10677438120E+02  0.62497692577E+02  0.00000000000E+00 0. -1.
</event>
<event>
 4    1  0.9897231E-003  0.9118800E+02  0.7818608E-02  0.1130116E+00
         25   -1    0    0    0    0  0.00000000000E+00  0.00000000000E+00  0.99999998245E-14  0.12500000000E+03  0.12500000000E+03 0.  0.
        -13    1    1    0    0    0  0.36431862297E+00  0.93397692075E+01 -0.70510646399E+01  0.11708658911E+02  0.10566000000E+00 0. -1.
         13    1    1    0    0    0  0.42186568569E+01  0.40158183042E+02 -0.30821605297E+02  0.50798220914E+02  0.10566000000E+00 0.  1.
         22    1    1    0    0    0 -0.45829754799E+01 -0.49497952249E+02  0.37872669936E+02  0.62493120175E+02  0.00000000000E+00 0.  1.
</event>
<event>
 4    1  0.9897231E-003  0.9118800E+02  0.7818608E-02  0.1130116E+00
         25   -1    0    0    0    0  0.00000000000E+00  0.00000000000E+00  0.99999998245E-14  0.12500000000E+03  0.12500000000E+03 0.  0.
        -13    1    1    0    0    0  0.43114444104E+02  0.35220554326E+02 -0.15612343395E+02  0.57819539671E+02  0.10566000000E+00 0. -1.
         13    1    1    0    0    0  0.36016013909E+01  0.27628386575E+01 -0.11456790355E+01  0.46827934520E+01  0.10566000000E+00 0.  1.
         22    1    1    0    0    0 -0.46716045495E+02 -0.37983392984E+02  0.16758022430E+02  0.62497666877E+02  0.00000000000E+00 0. -1.
</event>
<event>
 4    1  0.9897231E-003  0.9118800E+02  0.7818608E-02  0.1130116E+00
         25   -1    0    0    0    0  0.00000000000E+00  0.00000000000E+00  0.99999998245E-14  0.12500000000E+03  0.12500000000E+03 0.  0.
        -13    1    1    0    0    0  0.16647620048E+02  0.78792123404E+01  0.46701731603E+02  0.50202471444E+02  0.10566000000E+00 0. -1.
         13    1    1    0    0    0  0.34837077904E+01  0.73577878400E+00  0.11803205850E+02  0.12329007371E+02  0.10566000000E+00 0.  1.
         22    1    1    0    0    0 -0.20131327838E+02 -0.86149911244E+01 -0.58504937453E+02  0.62468521184E+02  0.00000000000E+00 0. -1.
</event>
<event>
 4    1  0.9897231E-003  0.9118800E+02  0.7818608E-02  0.1130116E+00
         25   -1    0    0    0    0  0.00000000000E+00  0.00000000000E+00  0.99999998245E-14  0.12500000000E+03  0.12500000000E+03 0.  0.
        -13    1    1    0    0    0  0.89821551909E+01 -0.14348343442E+02  0.51548483052E+01  0.17695697118E+02  0.10566000000E+00 0.  1.
         13    1    1    0    0    0  0.22830492940E+02 -0.36303073400E+02  0.12972726937E+02  0.44804546135E+02  0.10566000000E+00 0.  1.
         22    1    1    0    0    0 -0.31812648131E+02  0.50651416842E+02 -0.18127575242E+02  0.62499756747E+02  0.00000000000E+00 0.  1.
</event>
<event>
 4    1  0.9897231E-003  0.9118800E+02  0.7818608E-02  0.1130116E+00
         25   -1    0    0    0    0  0.00000000000E+00  0.00000000000E+00  0.99999998245E-14  0.12500000000E+03  0.12500000000E+03 0.  0.
        -13    1    1    0    0    0  0.62941299610E+01 -0.32559898832E+02 -0.21945514326E+01  0.33235377295E+02  0.10566000000E+00 0.  1.
         13    1    1    0    0    0 -0.64916877239E+01 -0.29212968778E+02 -0.54509175777E+00  0.29930717389E+02  0.10566000000E+00 0. -1.
         22    1    1    0    0    0  0.19755776284E+00  0.61772867610E+02  0.27396431904E+01  0.61833905316E+02  0.00000000000E+00 0. -1.
</event>
<event>
 4    1  0.9897231E-003  0.9118800E+02  0.7818608E-02  0.1130116E+00
         25   -1    0    0    0    0  0.00000000000E+00  0.00000000000E+00  0.99999998245E-14  0.12500000000E+03  0.12500000000E+03 0.  0.
        -13    1    1    0    0    0 -0.14235490820E+02  0.89024381057E+01 -0.87485758366E+01  0.18932811368E+02  0.10566000000E+00 0. -1.
         13    1    1    0    0    0 -0.32633362652E+02  0.21401545743E+02 -0.19374234261E+02  0.43569882205E+02  0.10566000000E+00 0.  1.
         22    1    1    0    0    0  0.46868853471E+02 -0.30303983849E+02  0.28122810097E+02  0.62497306427E+02  0.00000000000E+00 0.  1.
</event>
<event>
 4    1  0.9897231E-003  0.9118800E+02  0.7818608E-02  0.1130116E+00
         25   -1    0    0    0    0  0.00000000000E+00  0.00000000000E+00  0.99999998245E-14  0.12500000000E+03  0.12500000000E+03 0.  0.
        -13    1    1    0    0    0  0.62873631090E+01 -0.61278726946E+01 -0.16868189569E+02  0.19016538644E+02  0.10566000000E+00 0.  1.
         13    1    1    0    0    0  0.41576065590E+02 -0.15958425509E+02  0.27317051984E+02  0.52244359196E+02  0.10566000000E+00 0. -1.
         22    1    1    0    0    0 -0.47863428700E+02  0.22086298203E+02 -0.10448862415E+02  0.53739102160E+02  0.00000000000E+00 0. -1.
</event>
<event>
 4    1  0.9897231E-003  0.9118800E+02  0.7818608E-02  0.1130116E+00
         25   -1    0    0    0    0  0.00000000000E+00  0.00000000000E+00  0.99999998245E-14  0.12500000000E+03  0.12500000000E+03 0.  0.
        -13    1    1    0    0    0 -0.41628543281E+02  0.23909443271E+02 -0.13366260828E+02  0.49832370863E+02  0.10566000000E+00 0. -1.
         13    1    1    0    0    0 -0.99783248346E+01  0.78029667313E+01  0.64122378429E+01  0.14197929937E+02  0.10566000000E+00 0.  1.
         22    1    1    0    0    0  0.51606868116E+02 -0.31712410003E+02  0.69540229849E+01  0.60969699200E+02  0.00000000000E+00 0. -1.
</event>
<event>
 4    1  0.9897231E-003  0.9118800E+02  0.7818608E-02  0.1130116E+00
         25   -1    0    0    0    0  0.00000000000E+00  0.00000000000E+00  0.99999998245E-14  0.12500000000E+03  0.12500000000E+03 0.  0.
        -13    1    1    0    0    0 -0.62501323242E+01  0.11894230300E+02  0.27921315281E+01  0.13723848987E+02  0.10566000000E+00 0. -1.
         13    1    1    0    0    0 -0.23397015685E+01  0.40608654058E+02 -0.30922934902E+02  0.51095753784E+02  0.10566000000E+00 0.  1.
         22    1    1    0    0    0  0.85898338927E+01 -0.52502884358E+02  0.28130803374E+02  0.60180397229E+02  0.00000000000E+00 0.  1.
</event>
<event>
 4    1  0.9897231E-003  0.9118800E+02  0.7818608E-02  0.1130116E+00
         25   -1    0    0    0    0  0.00000000000E+00  0.00000000000E+00  0.99999998245E-14  0.12500000000E+03  0.12500000000E+03 0.  0.
        -13    1    1    0    0    0  0.51066786327E+01 -0.60451150708E+01 -0.36361391090E+01  0.87094347999E+01  0.10566000000E+00 0.  1.
         13    1    1    0    0    0  0.37252687945E+02 -0.36560549072E+02 -0.13310450320E+02  0.53866647931E+02  0.10566000000E+00 0. -1.
         22    1    1    0    0    0 -0.42359366578E+02  0.42605664143E+02  0.16946589429E+02  0.62423917269E+02  0.00000000000E+00 0. -1.
</event>
<event>
 4    1  0.9897231E-003  0.9118800E+02  0.7818608E-02  0.1130116E+00
         25   -1    0    0    0    0  0.00000000000E+00  0.00000000000E+00  0.99999998245E-14  0.12500000000E+03  0.12500000000E+03 0.  0.
        -13    1    1    0    0    0  0.42305384287E+01  0.42409257774E+01 -0.12190572678E+02  0.13583229848E+02  0.10566000000E+00 0.  1.
         13    1    1    0    0    0  0.15265145464E+02  0.50290269860E+02  0.18449607147E+01  0.52588505899E+02  0.10566000000E+00 0. -1.
         22    1    1    0    0    0 -0.19495683893E+02 -0.54531195638E+02  0.10345611963E+02  0.58828264253E+02  0.00000000000E+00 0. -1.
</event>
<event>
 4    1  0.9897231E-003  0.9118800E+02  0.7818608E-02  0.1130116E+00
         25   -1    0    0    0    0  0.00000000000E+00  0.00000000000E+00  0.99999998245E-14  0.12500000000E+03  0.12500000000E+03 0.  0.
        -13    1    1    0    0    0 -0.11002200613E+02  0.12779188806E+01 -0.28261880403E+01  0.11431535237E+02  0.10566000000E+00 0.  1.
         13    1    1    0    0    0 -0.38456074147E+02 -0.20902237246E+01  0.37031874613E+02  0.53428546446E+02  0.10566000000E+00 0. -1.
         22    1    1    0    0    0  0.49458274759E+02  0.81230484399E+00 -0.34205686572E+02  0.60139918317E+02  0.00000000000E+00 0. -1.
</event>
<event>
 4    1  0.9897231E-003  0.9118800E+02  0.7818608E-02  0.1130116E+00
         25   -1    0    0    0    0  0.00000000000E+00  0.00000000000E+00  0.99999998245E-14  0.12500000000E+03  0.12500000000E+03 0.  0.
        -13    1    1    0    0    0 -0.27839057724E+01  0.56548903137E+01 -0.94380437773E+01  0.11349702648E+02  0.10566000000E+00 0.  1.
         13    1    1    0    0    0 -0.14107762438E+02  0.25116883515E+02 -0.42269679030E+02  0.51152944469E+02  0.10566000000E+00 0. -1.
         22    1    1    0    0    0  0.16891668210E+02 -0.30771773828E+02  0.51707722808E+02  0.62497352883E+02  0.00000000000E+00 0. -1.
</event>
<event>
 4    1  0.9897231E-003  0.9118800E+02  0.7818608E-02  0.1130116E+00
         25   -1    0    0    0    0  0.00000000000E+00  0.00000000000E+00  0.99999998245E-14  0.12500000000E+03  0.12500000000E+03 0.  0.
        -13    1    1    0    0    0 -0.35195963501E+02  0.39883085349E+02 -0.87369934536E+01  0.53905125566E+02  0.10566000000E+00 0. -1.
         13    1    1    0    0    0 -0.67422009661E+01  0.53947203668E+01 -0.68936022012E+00  0.86629477231E+01  0.10566000000E+00 0.  1.
         22    1    1    0    0    0  0.41938164467E+02 -0.45277805715E+02  0.94263536737E+01  0.62431926711E+02  0.00000000000E+00 0. -1.
</event>
<event>
 4    1  0.9897231E-003  0.9118800E+02  0.7818608E-02  0.1130116E+00
         25   -1    0    0    0    0  0.00000000000E+00  0.00000000000E+00  0.99999998245E-14  0.12500000000E+03  0.12500000000E+03 0.  0.
        -13    1    1    0    0    0  0.17359194842E+02  0.17535523996E+02 -0.53849328234E+02  0.59233415929E+02  0.10566000000E+00 0.  1.
         13    1    1    0    0    0  0.20426595891E+01 -0.81719917139E+00 -0.28202007152E+01  0.35784031064E+01  0.10566000000E+00 0. -1.
         22    1    1    0    0    0 -0.19401854431E+02 -0.16718324825E+02  0.56669528949E+02  0.62188180964E+02  0.00000000000E+00 0.  1.
</event>
<event>
 4    1  0.9897231E-003  0.9118800E+02  0.7818608E-02  0.1130116E+00
         25   -1    0    0    0    0  0.00000000000E+00  0.00000000000E+00  0.99999998245E-14  0.12500000000E+03  0.12500000000E+03 0.  0.
        -13    1    1    0    0    0  0.24494544328E+02 -0.20474248073E+01  0.28750398981E+02  0.37825537085E+02  0.10566000000E+00 0.  1.
         13    1    1    0    0    0  0.18592572451E+02  0.25145941696E+02 -0.17412003269E+01  0.31321639113E+02  0.10566000000E+00 0. -1.
         22    1    1    0    0    0 -0.43087116779E+02 -0.23098516888E+02 -0.27009198654E+02  0.55852823802E+02  0.00000000000E+00 0. -1.
</event>
<event>
 4    1  0.9897231E-003  0.9118800E+02  0.7818608E-02  0.1130116E+00
         25   -1    0    0    0    0  0.00000000000E+00  0.00000000000E+00  0.99999998245E-14  0.12500000000E+03  0.12500000000E+03 0.  0.
        -13    1    1    0    0    0 -0.45110942798E+02  0.36273665541E+02 -0.15623860827E+02  0.59957419583E+02  0.10566000000E+00 0.  1.
         13    1    1    0    0    0 -0.10506794073E+01 -0.35592990339E+01 -0.37132202127E+01  0.52508766138E+01  0.10566000000E+00 0. -1.
         22    1    1    0    0    0  0.46161622205E+02 -0.32714366507E+02  0.19337081039E+02  0.59791703803E+02  0.00000000000E+00 0.  1.
</event>
<event>
 4    1  0.9897231E-003  0.9118800E+02  0.7818608E-02  0.1130116E+00
         25   -1    0    0    0    0  0.00000000000E+00  0.00000000000E+00  0.99999998245E-14  0.12500000000E+03  0.12500000000E+03 0.  0.
        -13    1    1    0    0    0  0.26256018548E+02  0.12344776175E+02  0.49451638958E+02  0.57334525101E+02  0.10566000000E+00 0. -1.
         13    1    1    0    0    0  0.33191476639E+01 -0.29987354082E+01  0.39114521216E+01  0.59430444217E+01  0.10566000000E+00 0.  1.
         22    1    1    0    0    0 -0.29575166212E+02 -0.93460407670E+01 -0.53363091080E+02  0.61722430478E+02  0.00000000000E+00 0. -1.
</event>
<event>
 4    1  0.9897231E-003  0.9118800E+02  0.7818608E-02  0.1130116E+00
         25   -1    0    0    0    0  0.00000000000E+00  0.00000000000E+00  0.99999998245E-14  0.12500000000E+03  0.12500000000E+03 0.  0.
        -13    1    1    0    0    0 -0.22511277315E+02  0.23345406302E+02  0.94703180237E+00  0.32444932347E+02  0.10566000000E+00 0.  1.
         13    1    1    0    0    0 -0.20902964576E+02  0.21586738521E+02  0.63394190130E+00  0.30055519533E+02  0.10566000000E+00 0. -1.
         22    1    1    0    0    0  0.43414241891E+02 -0.44932144823E+02 -0.15809737037E+01  0.62499548120E+02  0.00000000000E+00 0. -1.
</event>
<event>
 4    1  0.9897231E-003  0.9118800E+02  0.7818608E-02  0.1130116E+00
         25   -1    0    0    0    0  0.00000000000E+00  0.00000000000E+00  0.99999998245E-14  0.12500000000E+03  0.12500000000E+03 0.  0.
        -13    1    1    0    0    0 -0.38350887346E+02  0.20476427128E+02  0.10958994751E+02  0.44835090701E+02  0.10566000000E+00 0. -1.
         13    1    1    0    0    0 -0.16201167601E+02  0.39260521773E+01  0.65198077987E+01  0.17900021651E+02  0.10566000000E+00 0.  1.
         22    1    1    0    0    0  0.54552054948E+02 -0.24402479305E+02 -0.17478802550E+02  0.62264887648E+02  0.00000000000E+00 0. -1.
</event>
<event>
 4    1  0.9897231E-003  0.9118800E+02  0.7818608E-02  0.1130116E+00
         25   -1    0    0    0    0  0.00000000000E+00  0.00000000000E+00  0.99999998245E-14  0.12500000000E+03  0.12500000000E+03 0.  0.
        -13    1    1    0    0    0  0.34009846655E+02 -0.68821357199E+01 -0.17801777639E+02  0.38999332208E+02  0.10566000000E+00 0. -1.
         13    1    1    0    0    0  0.95452718635E+01  0.13688346367E+02 -0.21310583109E+02  0.27067234023E+02  0.10566000000E+00 0.  1.
         22    1    1    0    0    0 -0.43555118518E+02 -0.68062106468E+01  0.39112360747E+02  0.58933433769E+02  0.00000000000E+00 0. -1.
</event>
<event>
 4    1  0.9897231E-003  0.9118800E+02  0.7818608E-02  0.1130116E+00
         25   -1    0    0    0    0  0.00000000000E+00  0.00000000000E+00  0.99999998245E-14  0.12500000000E+03  0.12500000000E+03 0.  0.
        -13    1    1    0    0    0  0.57521876844E+01 -0.58935170592E+01  0.15748190002E+01  0.83852504675E+01  0.10566000000E+00 0.  1.
         13    1    1    0    0    0  0.43121490021E+02 -0.32872689264E+02 -0.70747196263E+00  0.54227191350E+02  0.10566000000E+00 0. -1.
         22    1    1    0    0    0 -0.48873677706E+02  0.38766206323E+02 -0.86734703759E+00  0.62387558183E+02  0.00000000000E+00 0. -1.
</event>
<event>
 4    1  0.9897231E-003  0.9118800E+02  0.7818608E-02  0.1130116E+00
         25   -1    0    0    0    0  0.00000000000E+00  0.00000000000E+00  0.99999998245E-14  0.12500000000E+03  0.12500000000E+03 0.  0.
        -13    1    1    0    0    0 -0.43846085067E+02 -0.11357710731E+02 -0.24210871442E+02  0.51358097987E+02  0.10566000000E+00 0.  1.
         13    1    1    0    0    0 -0.74291712813E+01 -0.40609703244E+01 -0.75863328954E+01  0.11368714823E+02  0.10566000000E+00 0. -1.
         22    1    1    0    0    0  0.51275256349E+02  0.15418681056E+02  0.31797204337E+02  0.62273187190E+02  0.00000000000E+00 0. -1.
</event>
<event>
 4    1  0.9897231E-003  0.9118800E+02  0.7818608E-02  0.1130116E+00
         25   -1    0    0    0    0  0.00000000000E+00  0.00000000000E+00  0.99999998245E-14  0.12500000000E+03  0.12500000000E+03 0.  0.
        -13    1    1    0    0    0  0.13690493159E+01 -0.12724333145E+02 -0.71290041660E+01  0.14649805953E+02  0.10566000000E+00 0. -1.
         13    1    1    0    0    0  0.88076452596E+01 -0.47844247723E+02  0.14385812649E+01  0.48669572993E+02  0.10566000000E+00 0.  1.
         22    1    1    0    0    0 -0.10176694575E+02  0.60568580868E+02  0.56904229011E+01  0.61680621054E+02  0.00000000000E+00 0.  1.
</event>
<event>
 4    1  0.9897231E-003  0.9118800E+02  0.7818608E-02  0.1130116E+00
         25   -1    0    0    0    0  0.00000000000E+00  0.00000000000E+00  0.99999998245E-14  0.12500000000E+03  0.12500000000E+03 0.  0.
        -13    1    1    0    0    0  0.58609050469E+02 -0.63980354500E+01 -0.18570530849E+02  0.61812874343E+02  0.10566000000E+00 0. -1.
         13    1    1    0    0    0  0.60449421786E+00 -0.12050728318E-01 -0.33482288436E+00  0.69916298456E+00  0.10566000000E+00 0.  1.
         22    1    1    0    0    0 -0.59213544687E+02  0.64100861783E+01  0.18905353734E+02  0.62487962673E+02  0.00000000000E+00 0. -1.
</event>
<event>
 4    1  0.9897231E-003  0.9118800E+02  0.7818608E-02  0.1130116E+00
         25   -1    0    0    0    0  0.00000000000E+00  0.00000000000E+00  0.99999998245E-14  0.12500000000E+03  0.12500000000E+03 0.  0.
        -13    1    1    0    0    0  0.57019961384E+01 -0.27877222973E+02  0.38944998581E+02  0.48232524288E+02  0.10566000000E+00 0. -1.
         13    1    1    0    0    0  0.18887657337E+01 -0.87538434869E+01  0.11114779901E+02  0.14273987112E+02  0.10566000000E+00 0.  1.
         22    1    1    0    0    0 -0.75907618721E+01  0.36631066460E+02 -0.50059778482E+02  0.62493488600E+02  0.00000000000E+00 0. -1.
</event>
<event>
 4    1  0.9897231E-003  0.9118800E+02  0.7818608E-02  0.1130116E+00
         25   -1    0    0    0    0  0.00000000000E+00  0.00000000000E+00  0.99999998245E-14  0.12500000000E+03  0.12500000000E+03 0.  0.
        -13    1    1    0    0    0 -0.61374426703E+02  0.32266662857E+01  0.92602096075E+01  0.62152990873E+02  0.10566000000E+00 0.  1.
         13    1    1    0    0    0 -0.20127532414E+00 -0.40998266325E+00  0.15121643164E+00  0.49257282210E+00  0.10566000000E+00 0. -1.
         22    1    1    0    0    0  0.61575702027E+02 -0.28166836225E+01 -0.94114260392E+01  0.62354436305E+02  0.00000000000E+00 0.  1.
</event>
<event>
 4    1  0.9897231E-003  0.9118800E+02  0.7818608E-02  0.1130116E+00
         25   -1    0    0    0    0  0.00000000000E+00  0.00000000000E+00  0.99999998245E-14  0.12500000000E+03  0.12500000000E+03 0.  0.
        -13    1    1    0    0    0  0.11445471289E+01  0.14760745534E+01 -0.43758752276E+00  0.19213097337E+01  0.10566000000E+00 0.  1.
         13    1    1    0    0    0  0.29194545960E+02  0.47061549358E+02 -0.24604213466E+02  0.60601067863E+02  0.10566000000E+00 0. -1.
         22    1    1    0    0    0 -0.30339093089E+02 -0.48537623911E+02  0.25041800989E+02  0.62477622403E+02  0.00000000000E+00 0. -1.
</event>
<event>
 4    1  0.9897231E-003  0.9118800E+02  0.7818608E-02  0.1130116E+00
         25   -1    0    0    0    0  0.00000000000E+00  0.00000000000E+00  0.99999998245E-14  0.12500000000E+03  0.12500000000E+03 0.  0.
        -13    1    1    0    0    0  0.17488392737E+01 -0.36679566360E+01 -0.25745000455E+01  0.48116067180E+01  0.10566000000E+00 0. -1.
         13    1    1    0    0    0  0.21881127331E+02 -0.40497655670E+02 -0.34788768894E+02  0.57698470111E+02  0.10566000000E+00 0.  1.
         22    1    1    0    0    0 -0.23629966604E+02  0.44165612306E+02  0.37363268939E+02  0.62489923171E+02  0.00000000000E+00 0.  1.
</event>
<event>
 4    1  0.9897231E-003  0.9118800E+02  0.7818608E-02  0.1130116E+00
         25   -1    0    0    0    0  0.00000000000E+00  0.00000000000E+00  0.99999998245E-14  0.12500000000E+03  0.12500000000E+03 0.  0.
        -13    1    1    0    0    0  0.62040920929E+01 -0.17251608845E+02 -0.41315556840E+01  0.18793341449E+02  0.10566000000E+00 0. -1.
         13    1    1    0    0    0  0.12306045124E+02 -0.40892226875E+02 -0.93511048347E+01  0.43715755639E+02  0.10566000000E+00 0.  1.
         22    1    1    0    0    0 -0.18510137217E+02  0.58143835720E+02  0.13482660519E+02  0.62490902912E+02  0.00000000000E+00 0.  1.
</event>
<event>
 4    1  0.9897231E-003  0.9118800E+02  0.7818608E-02  0.1130116E+00
         25   -1    0    0    0    0  0.00000000000E+00  0.00000000000E+00  0.99999998245E-14  0.12500000000E+03  0.12500000000E+03 0.  0.
        -13    1    1    0    0    0 -0.15952105521E+02 -0.13027067069E+02 -0.26213568394E+02  0.33336713680E+02  0.10566000000E+00 0. -1.
         13    1    1    0    0    0 -0.19569978123E+02 -0.53486854554E+01 -0.21395590995E+02  0.29485165048E+02  0.10566000000E+00 0.  1.
         22    1    1    0    0    0  0.35522083644E+02  0.18375752524E+02  0.47609159389E+02  0.62178121273E+02  0.00000000000E+00 0. -1.
</event>
<event>
 4    1  0.9897231E-003  0.9118800E+02  0.7818608E-02  0.1130116E+00
         25   -1    0    0    0    0  0.00000000000E+00  0.00000000000E+00  0.99999998245E-14  0.12500000000E+03  0.12500000000E+03 0.  0.
        -13    1    1    0    0    0  0.64879246927E+01 -0.30646506197E+02  0.29421407347E+02  0.42975945402E+02  0.10566000000E+00 0.  1.
         13    1    1    0    0    0  0.30424221059E+01 -0.13944749745E+02  0.13322057635E+02  0.19524363277E+02  0.10566000000E+00 0.  1.
         22    1    1    0    0    0 -0.95303467986E+01  0.44591255942E+02 -0.42743464981E+02  0.62499691321E+02  0.00000000000E+00 0.  1.
</event>
<event>
 4    1  0.9897231E-003  0.9118800E+02  0.7818608E-02  0.1130116E+00
         25   -1    0    0    0    0  0.00000000000E+00  0.00000000000E+00  0.99999998245E-14  0.12500000000E+03  0.12500000000E+03 0.  0.
        -13    1    1    0    0    0 -0.15594930764E+02 -0.52251299332E+02 -0.22260943788E+02  0.58897885614E+02  0.10566000000E+00 0.  1.
         13    1    1    0    0    0 -0.88141010754E+00 -0.29244754166E+01 -0.19615853003E+01  0.36315865907E+01  0.10566000000E+00 0. -1.
         22    1    1    0    0    0  0.16476340872E+02  0.55175774749E+02  0.24222529088E+02  0.62470527795E+02  0.00000000000E+00 0.  1.
</event>
<event>
 4    1  0.9897231E-003  0.9118800E+02  0.7818608E-02  0.1130116E+00
         25   -1    0    0    0    0  0.00000000000E+00  0.00000000000E+00  0.99999998245E-14  0.12500000000E+03  0.12500000000E+03 0.  0.
        -13    1    1    0    0    0  0.23911190915E+02  0.12215226541E+02 -0.26912073020E+02  0.38016149840E+02  0.10566000000E+00 0.  1.
         13    1    1    0    0    0  0.16212450563E+02  0.74060960780E+01 -0.16796311384E+02  0.24491244406E+02  0.10566000000E+00 0. -1.
         22    1    1    0    0    0 -0.40123641478E+02 -0.19621322619E+02  0.43708384404E+02  0.62492605754E+02  0.00000000000E+00 0.  1.
</event>
<event>
 4    1  0.9897231E-003  0.9118800E+02  0.7818608E-02  0.1130116E+00
         25   -1    0    0    0    0  0.00000000000E+00  0.00000000000E+00  0.99999998245E-14  0.12500000000E+03  0.12500000000E+03 0.  0.
        -13    1    1    0    0    0  0.22691303196E+01 -0.10430958205E+02  0.31670507714E+02  0.33421341451E+02  0.10566000000E+00 0. -1.
         13    1    1    0    0    0  0.17154822916E+01 -0.89943619484E+01  0.27599754193E+02  0.29079185372E+02  0.10566000000E+00 0. -1.
         22    1    1    0    0    0 -0.39846126112E+01  0.19425320153E+02 -0.59270261908E+02  0.62499473176E+02  0.00000000000E+00 0. -1.
</event>
<event>
 4    1  0.9897231E-003  0.9118800E+02  0.7818608E-02  0.1130116E+00
         25   -1    0    0    0    0  0.00000000000E+00  0.00000000000E+00  0.99999998245E-14  0.12500000000E+03  0.12500000000E+03 0.  0.
        -13    1    1    0    0    0  0.15953533499E+02 -0.70175518554E+01 -0.10762580824E+02  0.20484276291E+02  0.10566000000E+00 0. -1.
         13    1    1    0    0    0  0.32686355176E+02 -0.14537103345E+02 -0.22036459435E+02  0.42015971925E+02  0.10566000000E+00 0. -1.
         22    1    1    0    0    0 -0.48639888675E+02  0.21554655200E+02  0.32799040259E+02  0.62499751784E+02  0.00000000000E+00 0. -1.
</event>
<event>
 4    1  0.9897231E-003  0.9118800E+02  0.7818608E-02  0.1130116E+00
         25   -1    0    0    0    0  0.00000000000E+00  0.00000000000E+00  0.99999998245E-14  0.12500000000E+03  0.12500000000E+03 0.  0.
        -13    1    1    0    0    0 -0.41914800418E+01 -0.12486877793E+02  0.82946043687E+00  0.13198097992E+02  0.10566000000E+00 0.  1.
         13    1    1    0    0    0 -0.18354326055E+02 -0.45754970730E+02  0.12305818976E+01  0.49314542756E+02  0.10566000000E+00 0. -1.
         22    1    1    0    0    0  0.22545806096E+02  0.58241848523E+02 -0.20600423345E+01  0.62487359252E+02  0.00000000000E+00 0. -1.
</event>
<event>
 4    1  0.9897231E-003  0.9118800E+02  0.7818608E-02  0.1130116E+00
         25   -1    0    0    0    0  0.00000000000E+00  0.00000000000E+00  0.99999998245E-14  0.12500000000E+03  0.12500000000E+03 0.  0.
        -13    1    1    0    0    0  0.44156287277E+02  0.32563510781E+02  0.24556037215E+02  0.60109650375E+02  0.10566000000E+00 0. -1.
         13    1    1    0    0    0  0.16301053866E+01  0.13861852905E+01  0.10702879531E+01  0.23948765248E+01  0.10566000000E+00 0. -1.
         22    1    1    0    0    0 -0.45786392663E+02 -0.33949696071E+02 -0.25626325168E+02  0.62495473101E+02  0.00000000000E+00 0. -1.
</event>
<event>
 4    1  0.9897231E-003  0.9118800E+02  0.7818608E-02  0.1130116E+00
         25   -1    0    0    0    0  0.00000000000E+00  0.00000000000E+00  0.99999998245E-14  0.12500000000E+03  0.12500000000E+03 0.  0.
        -13    1    1    0    0    0  0.45685879849E+02 -0.28503396019E+02  0.97511420955E+01  0.54724209802E+02  0.10566000000E+00 0.  1.
         13    1    1    0    0    0  0.54970998362E+01 -0.50460971757E+01  0.24856779185E+01  0.78658096891E+01  0.10566000000E+00 0. -1.
         22    1    1    0    0    0 -0.51182979686E+02  0.33549493194E+02 -0.12236820014E+02  0.62409980509E+02  0.00000000000E+00 0.  1.
</event>
<event>
 4    1  0.9897231E-003  0.9118800E+02  0.7818608E-02  0.1130116E+00
         25   -1    0    0    0    0  0.00000000000E+00  0.00000000000E+00  0.99999998245E-14  0.12500000000E+03  0.12500000000E+03 0.  0.
        -13    1    1    0    0    0  0.74532773406E+01 -0.41396903728E+01  0.58807233575E+01  0.10357724207E+02  0.10566000000E+00 0. -1.
         13    1    1    0    0    0  0.36867717426E+02 -0.20347680859E+02  0.30753007614E+02  0.52144178447E+02  0.10566000000E+00 0.  1.
         22    1    1    0    0    0 -0.44320994767E+02  0.24487371232E+02 -0.36633730972E+02  0.62498097346E+02  0.00000000000E+00 0.  1.
</event>
<event>
 4    1  0.9897231E-003  0.9118800E+02  0.7818608E-02  0.1130116E+00
         25   -1    0    0    0    0  0.00000000000E+00  0.00000000000E+00  0.99999998245E-14  0.12500000000E+03  0.12500000000E+03 0.  0.
        -13    1    1    0    0    0  0.36950860878E+02 -0.38675595687E+01  0.16952889021E+02  0.40837920452E+02  0.10566000000E+00 0.  1.
         13    1    1    0    0    0  0.20026336877E+02  0.18578204289E+00  0.83653283339E+01  0.21704344400E+02  0.10566000000E+00 0. -1.
         22    1    1    0    0    0 -0.56977197755E+02  0.36817775258E+01 -0.25318217355E+02  0.62457735148E+02  0.00000000000E+00 0.  1.
</event>
<event>
 4    1  0.9897231E-003  0.9118800E+02  0.7818608E-02  0.1130116E+00
         25   -1    0    0    0    0  0.00000000000E+00  0.00000000000E+00  0.99999998245E-14  0.12500000000E+03  0.12500000000E+03 0.  0.
        -13    1    1    0    0    0 -0.22168349557E+02  0.29390153947E+02  0.12118195138E+02  0.38756659925E+02  0.10566000000E+00 0. -1.
         13    1    1    0    0    0 -0.71653007962E+01  0.22768519839E+02  0.41555216819E+01  0.24228630907E+02  0.10566000000E+00 0.  1.
         22    1    1    0    0    0  0.29333650353E+02 -0.52158673786E+02 -0.16273716819E+02  0.62014709168E+02  0.00000000000E+00 0.  1.
</event>
<event>
 4    1  0.9897231E-003  0.9118800E+02  0.7818608E-02  0.1130116E+00
         25   -1    0    0    0    0  0.00000000000E+00  0.00000000000E+00  0.99999998245E-14  0.12500000000E+03  0.12500000000E+03 0.  0.
        -13    1    1    0    0    0  0.31006885381E+02  0.88040288044E+01 -0.45551104333E+02  0.55801900812E+02  0.10566000000E+00 0. -1.
         13    1    1    0    0    0  0.32994758220E+01  0.11570098642E+01 -0.57225507192E+01  0.67070085205E+01  0.10566000000E+00 0.  1.
         22    1    1    0    0    0 -0.34306361203E+02 -0.99610386686E+01  0.51273655052E+02  0.62491090667E+02  0.00000000000E+00 0. -1.
</event>
<event>
 4    1  0.9897231E-003  0.9118800E+02  0.7818608E-02  0.1130116E+00
         25   -1    0    0    0    0  0.00000000000E+00  0.00000000000E+00  0.99999998245E-14  0.12500000000E+03  0.12500000000E+03 0.  0.
        -13    1    1    0    0    0 -0.38732958874E+00 -0.50790621530E+01  0.94586515653E+01  0.10743563191E+02  0.10566000000E+00 0. -1.
         13    1    1    0    0    0 -0.21198243426E+01 -0.25527980179E+02  0.44974557741E+02  0.51758027737E+02  0.10566000000E+00 0.  1.
         22    1    1    0    0    0  0.25071539314E+01  0.30607042332E+02 -0.54433209306E+02  0.62498409072E+02  0.00000000000E+00 0.  1.
</event>
<event>
 4    1  0.9897231E-003  0.9118800E+02  0.7818608E-02  0.1130116E+00
         25   -1    0    0    0    0  0.00000000000E+00  0.00000000000E+00  0.99999998245E-14  0.12500000000E+03  0.12500000000E+03 0.  0.
        -13    1    1    0    0    0 -0.14815195121E+02  0.26732686177E+02 -0.43572786867E+01  0.30872699239E+02  0.10566000000E+00 0. -1.
         13    1    1    0    0    0  0.28926022939E+02  0.95733367350E+01 -0.29579431733E+02  0.42465486280E+02  0.10566000000E+00 0.  1.
         22    1    1    0    0    0 -0.14110827817E+02 -0.36306022912E+02  0.33936710420E+02  0.51661814481E+02  0.00000000000E+00 0.  1.
</event>
<event>
 4    1  0.9897231E-003  0.9118800E+02  0.7818608E-02  0.1130116E+00
         25   -1    0    0    0    0  0.00000000000E+00  0.00000000000E+00  0.99999998245E-14  0.12500000000E+03  0.12500000000E+03 0.  0.
        -13    1    1    0    0    0 -0.19086842247E+02 -0.39569940703E+02  0.15898836629E+02  0.46721214929E+02  0.10566000000E+00 0. -1.
         13    1    1    0    0    0 -0.65781079687E+01 -0.13295675080E+02  0.53784902588E+01  0.15779283944E+02  0.10566000000E+00 0. -1.
         22    1    1    0    0    0  0.25664950216E+02  0.52865615783E+02 -0.21277326888E+02  0.62499501128E+02  0.00000000000E+00 0. -1.
</event>
<event>
 4    1  0.9897231E-003  0.9118800E+02  0.7818608E-02  0.1130116E+00
         25   -1    0    0    0    0  0.00000000000E+00  0.00000000000E+00  0.99999998245E-14  0.12500000000E+03  0.12500000000E+03 0.  0.
        -13    1    1    0    0    0 -0.96637166536E+01  0.31844660083E+02  0.12228767763E+02  0.35454530322E+02  0.10566000000E+00 0. -1.
         13    1    1    0    0    0 -0.36610259394E+01  0.23055697789E+02  0.14041151132E+02  0.27242125479E+02  0.10566000000E+00 0.  1.
         22    1    1    0    0    0  0.13324742593E+02 -0.54900357872E+02 -0.26269918895E+02  0.62303344199E+02  0.00000000000E+00 0. -1.
</event>
<event>
 4    1  0.9897231E-003  0.9118800E+02  0.7818608E-02  0.1130116E+00
         25   -1    0    0    0    0  0.00000000000E+00  0.00000000000E+00  0.99999998245E-14  0.12500000000E+03  0.12500000000E+03 0.  0.
        -13    1    1    0    0    0 -0.46314226242E+02 -0.18640776645E+02  0.73785015334E+01  0.50467212675E+02  0.10566000000E+00 0. -1.
         13    1    1    0    0    0 -0.10812284169E+02 -0.48611925955E+01  0.20937427921E+01  0.12038754309E+02  0.10566000000E+00 0.  1.
         22    1    1    0    0    0  0.57126510411E+02  0.23501969241E+02 -0.94722443255E+01  0.62494033015E+02  0.00000000000E+00 0. -1.
</event>
<event>
 4    1  0.9897231E-003  0.9118800E+02  0.7818608E-02  0.1130116E+00
         25   -1    0    0    0    0  0.00000000000E+00  0.00000000000E+00  0.99999998245E-14  0.12500000000E+03  0.12500000000E+03 0.  0.
        -13    1    1    0    0    0  0.29678641158E+01  0.93292912758E+01  0.53250477491E+01  0.11145007433E+02  0.10566000000E+00 0. -1.
         13    1    1    0    0    0  0.81926758558E+01  0.43379256434E+02  0.26295359549E+02  0.51384208901E+02  0.10566000000E+00 0. -1.
         22    1    1    0    0    0 -0.11160539972E+02 -0.52708547710E+02 -0.31620407299E+02  0.62470783666E+02  0.00000000000E+00 0. -1.
</event>
<event>
 4    1  0.9897231E-003  0.9118800E+02  0.7818608E-02  0.1130116E+00
         25   -1    0    0    0    0  0.00000000000E+00  0.00000000000E+00  0.99999998245E-14  0.12500000000E+03  0.12500000000E+03 0.  0.
        -13    1    1    0    0    0  0.87248280089E+01 -0.21490577808E+02 -0.17426218307E+02  0.29011235872E+02  0.10566000000E+00 0.  1.
         13    1    1    0    0    0  0.86140756435E+01 -0.25493829112E+02 -0.19949168905E+02  0.33498031673E+02  0.10566000000E+00 0. -1.
         22    1    1    0    0    0 -0.17338903652E+02  0.46984406920E+02  0.37375387211E+02  0.62490732454E+02  0.00000000000E+00 0. -1.
</event>
<event>
 4    1  0.9897231E-003  0.9118800E+02  0.7818608E-02  0.1130116E+00
         25   -1    0    0    0    0  0.00000000000E+00  0.00000000000E+00  0.99999998245E-14  0.12500000000E+03  0.12500000000E+03 0.  0.
        -13    1    1    0    0    0 -0.26649360325E+02 -0.60155096452E+01  0.34558350927E+02  0.44052985653E+02  0.10566000000E+00 0. -1.
         13    1    1    0    0    0 -0.96449543912E+01 -0.73223377739E+01  0.14235323978E+02  0.18689499417E+02  0.10566000000E+00 0.  1.
         22    1    1    0    0    0  0.36294314717E+02  0.13337847419E+02 -0.48793674905E+02  0.62257514930E+02  0.00000000000E+00 0.  1.
</event>
<event>
 4    1  0.9897231E-003  0.9118800E+02  0.7818608E-02  0.1130116E+00
         25   -1    0    0    0    0  0.00000000000E+00  0.00000000000E+00  0.99999998245E-14  0.12500000000E+03  0.12500000000E+03 0.  0.
        -13    1    1    0    0    0  0.40513110841E+00  0.42715230017E+02 -0.83774926233E+01  0.43531006804E+02  0.10566000000E+00 0. -1.
         13    1    1    0    0    0  0.39242932500E+00  0.18598998014E+02 -0.37094932044E+01  0.18969666095E+02  0.10566000000E+00 0. -1.
         22    1    1    0    0    0 -0.79756043340E+00 -0.61314228031E+02  0.12086985828E+02  0.62499327101E+02  0.00000000000E+00 0. -1.
</event>
<event>
 4    1  0.9897231E-003  0.9118800E+02  0.7818608E-02  0.1130116E+00
         25   -1    0    0    0    0  0.00000000000E+00  0.00000000000E+00  0.99999998245E-14  0.12500000000E+03  0.12500000000E+03 0.  0.
        -13    1    1    0    0    0 -0.38437245694E+02 -0.33512780811E+02 -0.12177808680E+02  0.52429366985E+02  0.10566000000E+00 0.  1.
         13    1    1    0    0    0 -0.73779850643E+01 -0.63469260643E+01 -0.25933656277E+01  0.10072479506E+02  0.10566000000E+00 0.  1.
         22    1    1    0    0    0  0.45815230758E+02  0.39859706875E+02  0.14771174307E+02  0.62498153509E+02  0.00000000000E+00 0.  1.
</event>
<event>
 4    1  0.9897231E-003  0.9118800E+02  0.7818608E-02  0.1130116E+00
         25   -1    0    0    0    0  0.00000000000E+00  0.00000000000E+00  0.99999998245E-14  0.12500000000E+03  0.12500000000E+03 0.  0.
        -13    1    1    0    0    0  0.65666497546E+01 -0.11463890685E+02 -0.11782519318E+02  0.17702559254E+02  0.10566000000E+00 0.  1.
         13    1    1    0    0    0  0.16938677647E+02 -0.29072855094E+02 -0.29575208527E+02  0.44797922130E+02  0.10566000000E+00 0. -1.
         22    1    1    0    0    0 -0.23505327402E+02  0.40536745779E+02  0.41357727845E+02  0.62499518615E+02  0.00000000000E+00 0. -1.
</event>
<event>
 4    1  0.9897231E-003  0.9118800E+02  0.7818608E-02  0.1130116E+00
         25   -1    0    0    0    0  0.00000000000E+00  0.00000000000E+00  0.99999998245E-14  0.12500000000E+03  0.12500000000E+03 0.  0.
        -13    1    1    0    0    0 -0.21997991373E+02  0.91040841039E+01 -0.50257250979E+02  0.55611135682E+02  0.10566000000E+00 0.  1.
         13    1    1    0    0    0 -0.34599383615E+01 -0.13442680280E+02  0.11795699092E+01  0.13931237410E+02  0.10566000000E+00 0. -1.
         22    1    1    0    0    0  0.25457929734E+02  0.43385961759E+01  0.49077681070E+02  0.55457626908E+02  0.00000000000E+00 0.  1.
</event>
<event>
 4    1  0.9897231E-003  0.9118800E+02  0.7818608E-02  0.1130116E+00
         25   -1    0    0    0    0  0.00000000000E+00  0.00000000000E+00  0.99999998245E-14  0.12500000000E+03  0.12500000000E+03 0.  0.
        -13    1    1    0    0    0 -0.26313675932E+02  0.43062280577E+02  0.81537217291E+01  0.51120092837E+02  0.10566000000E+00 0.  1.
         13    1    1    0    0    0 -0.19486103914E+01  0.47105959204E+01 -0.16932183653E+02  0.17683235102E+02  0.10566000000E+00 0. -1.
         22    1    1    0    0    0  0.28262286323E+02 -0.47772876498E+02  0.87784619235E+01  0.56196672062E+02  0.00000000000E+00 0.  1.
</event>
<event>
 4    1  0.9897231E-003  0.9118800E+02  0.7818608E-02  0.1130116E+00
         25   -1    0    0    0    0  0.00000000000E+00  0.00000000000E+00  0.99999998245E-14  0.12500000000E+03  0.12500000000E+03 0.  0.
        -13    1    1    0    0    0  0.23457660435E+02 -0.71377617123E+01  0.17687078666E+02  0.30233315913E+02  0.10566000000E+00 0.  1.
         13    1    1    0    0    0  0.26248406130E+02 -0.92471584906E+01  0.16405093887E+02  0.32305216823E+02  0.10566000000E+00 0. -1.
         22    1    1    0    0    0 -0.49706066565E+02  0.16384920203E+02 -0.34092172553E+02  0.62461467264E+02  0.00000000000E+00 0.  1.
</event>
<event>
 4    1  0.9897231E-003  0.9118800E+02  0.7818608E-02  0.1130116E+00
         25   -1    0    0    0    0  0.00000000000E+00  0.00000000000E+00  0.99999998245E-14  0.12500000000E+03  0.12500000000E+03 0.  0.
        -13    1    1    0    0    0  0.42965478665E+02 -0.49026172596E+01  0.34340730418E+02  0.55221055247E+02  0.10566000000E+00 0. -1.
         13    1    1    0    0    0  0.18849975572E+01 -0.10438080272E+01  0.77134090763E+01  0.80094066323E+01  0.10566000000E+00 0.  1.
         22    1    1    0    0    0 -0.44850476222E+02  0.59464252868E+01 -0.42054139495E+02  0.61769538121E+02  0.00000000000E+00 0. -1.
</event>
<event>
 4    1  0.9897231E-003  0.9118800E+02  0.7818608E-02  0.1130116E+00
         25   -1    0    0    0    0  0.00000000000E+00  0.00000000000E+00  0.99999998245E-14  0.12500000000E+03  0.12500000000E+03 0.  0.
        -13    1    1    0    0    0 -0.15885747066E+01 -0.49908781540E+01  0.34030949578E+01  0.62469715602E+01  0.10566000000E+00 0. -1.
         13    1    1    0    0    0 -0.29797668026E+02 -0.21567059269E+02  0.43112013639E+02  0.56671826769E+02  0.10566000000E+00 0.  1.
         22    1    1    0    0    0  0.31386242732E+02  0.26557937423E+02 -0.46515108597E+02  0.62081201670E+02  0.00000000000E+00 0.  1.
</event>
<event>
 4    1  0.9897231E-003  0.9118800E+02  0.7818608E-02  0.1130116E+00
         25   -1    0    0    0    0  0.00000000000E+00  0.00000000000E+00  0.99999998245E-14  0.12500000000E+03  0.12500000000E+03 0.  0.
        -13    1    1    0    0    0  0.16156634037E+01  0.56286395114E+00  0.27506174558E+02  0.27559535318E+02  0.10566000000E+00 0.  1.
         13    1    1    0    0    0  0.21073620313E+01  0.66946771144E+00  0.34870468933E+02  0.34940662979E+02  0.10566000000E+00 0.  1.
         22    1    1    0    0    0 -0.37230254350E+01 -0.12323316626E+01 -0.62376643491E+02  0.62499801703E+02  0.00000000000E+00 0.  1.
</event>
<event>
 4    1  0.9897231E-003  0.9118800E+02  0.7818608E-02  0.1130116E+00
         25   -1    0    0    0    0  0.00000000000E+00  0.00000000000E+00  0.99999998245E-14  0.12500000000E+03  0.12500000000E+03 0.  0.
        -13    1    1    0    0    0 -0.25428204040E+01 -0.80366437242E+00  0.40194977651E+01  0.48248666665E+01  0.10566000000E+00 0.  1.
         13    1    1    0    0    0 -0.31452923080E+02 -0.11072853035E+02  0.47061144950E+02  0.57677178959E+02  0.10566000000E+00 0. -1.
         22    1    1    0    0    0  0.33995743484E+02  0.11876517408E+02 -0.51080642715E+02  0.62497954374E+02  0.00000000000E+00 0. -1.
</event>
<event>
 4    1  0.9897231E-003  0.9118800E+02  0.7818608E-02  0.1130116E+00
         25   -1    0    0    0    0  0.00000000000E+00  0.00000000000E+00  0.99999998245E-14  0.12500000000E+03  0.12500000000E+03 0.  0.
        -13    1    1    0    0    0  0.66610500594E+01 -0.16497857655E+02 -0.12051421803E+02  0.21489458500E+02  0.10566000000E+00 0.  1.
         13    1    1    0    0    0  0.11501020610E+02 -0.31230732952E+02 -0.23972138819E+02  0.41015932995E+02  0.10566000000E+00 0. -1.
         22    1    1    0    0    0 -0.18162070669E+02  0.47728590607E+02  0.36023560622E+02  0.62494608506E+02  0.00000000000E+00 0. -1.
</event>
<event>
 4    1  0.9897231E-003  0.9118800E+02  0.7818608E-02  0.1130116E+00
         25   -1    0    0    0    0  0.00000000000E+00  0.00000000000E+00  0.99999998245E-14  0.12500000000E+03  0.12500000000E+03 0.  0.
        -13    1    1    0    0    0  0.74742171316E+01 -0.41655441538E+02 -0.28560699515E+01  0.42417072400E+02  0.10566000000E+00 0. -1.
         13    1    1    0    0    0 -0.26237972499E+01 -0.20067707334E+02  0.41323067441E+01  0.20656338318E+02  0.10566000000E+00 0.  1.
         22    1    1    0    0    0 -0.48504198818E+01  0.61723148872E+02 -0.12762367926E+01  0.61926589281E+02  0.00000000000E+00 0. -1.
</event>
<event>
 4    1  0.9897231E-003  0.9118800E+02  0.7818608E-02  0.1130116E+00
         25   -1    0    0    0    0  0.00000000000E+00  0.00000000000E+00  0.99999998245E-14  0.12500000000E+03  0.12500000000E+03 0.  0.
        -13    1    1    0    0    0 -0.31005466644E+01 -0.71782169026E+01  0.17097574208E+02  0.18801021125E+02  0.10566000000E+00 0. -1.
         13    1    1    0    0    0 -0.82978859259E+01 -0.12677604165E+02  0.41022844905E+02  0.43731699331E+02  0.10566000000E+00 0.  1.
         22    1    1    0    0    0  0.11398432590E+02  0.19855821068E+02 -0.58120419113E+02  0.62467279544E+02  0.00000000000E+00 0.  1.
</event>
<event>
 4    1  0.9897231E-003  0.9118800E+02  0.7818608E-02  0.1130116E+00
         25   -1    0    0    0    0  0.00000000000E+00  0.00000000000E+00  0.99999998245E-14  0.12500000000E+03  0.12500000000E+03 0.  0.
        -13    1    1    0    0    0  0.50161416652E+02 -0.21398668996E+02 -0.47068072191E+01  0.54737884080E+02  0.10566000000E+00 0.  1.
         13    1    1    0    0    0  0.70944452384E+01 -0.30666713415E+01 -0.71528811423E+00  0.77626301909E+01  0.10566000000E+00 0.  1.
         22    1    1    0    0    0 -0.57255861890E+02  0.24465340338E+02  0.54220953333E+01  0.62499485729E+02  0.00000000000E+00 0.  1.
</event>
<event>
 4    1  0.9897231E-003  0.9118800E+02  0.7818608E-02  0.1130116E+00
         25   -1    0    0    0    0  0.00000000000E+00  0.00000000000E+00  0.99999998245E-14  0.12500000000E+03  0.12500000000E+03 0.  0.
        -13    1    1    0    0    0  0.43074899495E+02  0.40236460397E+02 -0.13749530206E+02  0.60526692101E+02  0.10566000000E+00 0.  1.
         13    1    1    0    0    0  0.99426885249E+00  0.13450198458E+01 -0.12064610980E+01  0.20650330150E+01  0.10566000000E+00 0. -1.
         22    1    1    0    0    0 -0.44069168348E+02 -0.41581480243E+02  0.14955991304E+02  0.62408274884E+02  0.00000000000E+00 0.  1.
</event>
<event>
 4    1  0.9897231E-003  0.9118800E+02  0.7818608E-02  0.1130116E+00
         25   -1    0    0    0    0  0.00000000000E+00  0.00000000000E+00  0.99999998245E-14  0.12500000000E+03  0.12500000000E+03 0.  0.
        -13    1    1    0    0    0 -0.12012941090E+01 -0.61587571361E+01  0.14595154427E+01  0.64431938013E+01  0.10566000000E+00 0. -1.
         13    1    1    0    0    0 -0.89712041758E+01 -0.53932233224E+02  0.12384044654E+02  0.56058398219E+02  0.10566000000E+00 0. -1.
         22    1    1    0    0    0  0.10172498285E+02  0.60090990360E+02 -0.13843560097E+02  0.62498407979E+02  0.00000000000E+00 0. -1.
</event>
<event>
 4    1  0.9897231E-003  0.9118800E+02  0.7818608E-02  0.1130116E+00
         25   -1    0    0    0    0  0.00000000000E+00  0.00000000000E+00  0.99999998245E-14  0.12500000000E+03  0.12500000000E+03 0.  0.
        -13    1    1    0    0    0 -0.39527262682E+02 -0.30432643721E+01  0.47437669201E+02  0.61822403515E+02  0.10566000000E+00 0. -1.
         13    1    1    0    0    0  0.48067415016E+01 -0.12011948880E+01 -0.10261221859E+01  0.50608026831E+01  0.10566000000E+00 0.  1.
         22    1    1    0    0    0  0.34720521181E+02  0.42444592601E+01 -0.46411547015E+02  0.58116793802E+02  0.00000000000E+00 0. -1.
</event>
<event>
 4    1  0.9897231E-003  0.9118800E+02  0.7818608E-02  0.1130116E+00
         25   -1    0    0    0    0  0.00000000000E+00  0.00000000000E+00  0.99999998245E-14  0.12500000000E+03  0.12500000000E+03 0.  0.
        -13    1    1    0    0    0  0.36619450988E+02 -0.90420282818E+01 -0.42124555452E+02  0.56544069558E+02  0.10566000000E+00 0.  1.
         13    1    1    0    0    0  0.44132067058E+01 -0.46048355130E+00 -0.40137846612E+01  0.59841515582E+01  0.10566000000E+00 0. -1.
         22    1    1    0    0    0 -0.41032657694E+02  0.95025118331E+01  0.46138340113E+02  0.62471778884E+02  0.00000000000E+00 0.  1.
</event>
<event>
 4    1  0.9897231E-003  0.9118800E+02  0.7818608E-02  0.1130116E+00
         25   -1    0    0    0    0  0.00000000000E+00  0.00000000000E+00  0.99999998245E-14  0.12500000000E+03  0.12500000000E+03 0.  0.
        -13    1    1    0    0    0  0.10796228187E+02 -0.15634623540E+02 -0.16746021593E+02  0.25326673677E+02  0.10566000000E+00 0. -1.
         13    1    1    0    0    0  0.18788250339E+02 -0.23065257825E+02 -0.22352109239E+02  0.37210649293E+02  0.10566000000E+00 0.  1.
         22    1    1    0    0    0 -0.29584478525E+02  0.38699881365E+02  0.39098130832E+02  0.62462677031E+02  0.00000000000E+00 0.  1.
</event>
<event>
 4    1  0.9897231E-003  0.9118800E+02  0.7818608E-02  0.1130116E+00
         25   -1    0    0    0    0  0.00000000000E+00  0.00000000000E+00  0.99999998245E-14  0.12500000000E+03  0.12500000000E+03 0.  0.
        -13    1    1    0    0    0  0.16061460369E+02 -0.49152064868E+02  0.19340392817E+02  0.55208314123E+02  0.10566000000E+00 0. -1.
         13    1    1    0    0    0  0.44592265757E+01 -0.31636539127E+01  0.60243405626E+01  0.81361693064E+01  0.10566000000E+00 0.  1.
         22    1    1    0    0    0 -0.20520686945E+02  0.52315718780E+02 -0.25364733380E+02  0.61655516571E+02  0.00000000000E+00 0. -1.
</event>
<event>
 4    1  0.9897231E-003  0.9118800E+02  0.7818608E-02  0.1130116E+00
         25   -1    0    0    0    0  0.00000000000E+00  0.00000000000E+00  0.99999998245E-14  0.12500000000E+03  0.12500000000E+03 0.  0.
        -13    1    1    0    0    0  0.89626362553E+01  0.26927819799E+02  0.14172658094E+01  0.28415772630E+02  0.10566000000E+00 0. -1.
         13    1    1    0    0    0  0.13060556822E+02  0.31360357015E+02  0.30883381013E+01  0.34111568901E+02  0.10566000000E+00 0.  1.
         22    1    1    0    0    0 -0.22023193077E+02 -0.58288176814E+02 -0.45056039107E+01  0.62472658469E+02  0.00000000000E+00 0. -1.
</event>
<event>
 4    1  0.9897231E-003  0.9118800E+02  0.7818608E-02  0.1130116E+00
         25   -1    0    0    0    0  0.00000000000E+00  0.00000000000E+00  0.99999998245E-14  0.12500000000E+03  0.12500000000E+03 0.  0.
        -13    1    1    0    0    0  0.73301683616E+01  0.19129093706E+02 -0.30155522969E+02  0.36455731015E+02  0.10566000000E+00 0.  1.
         13    1    1    0    0    0 -0.51752067682E+01  0.31362917422E+02  0.18134612321E+02  0.36596320613E+02  0.10566000000E+00 0. -1.
         22    1    1    0    0    0 -0.21549615935E+01 -0.50492011129E+02  0.12020910648E+02  0.51947948372E+02  0.00000000000E+00 0. -1.
</event>
<event>
 4    1  0.9897231E-003  0.9118800E+02  0.7818608E-02  0.1130116E+00
         25   -1    0    0    0    0  0.00000000000E+00  0.00000000000E+00  0.99999998245E-14  0.12500000000E+03  0.12500000000E+03 0.  0.
        -13    1    1    0    0    0  0.24509808584E+01  0.55484169584E+01 -0.18584803909E+01  0.63448681083E+01  0.10566000000E+00 0. -1.
         13    1    1    0    0    0  0.13814739168E+02  0.54289319492E+02  0.68928539053E+01  0.56442004112E+02  0.10566000000E+00 0.  1.
         22    1    1    0    0    0 -0.16265720027E+02 -0.59837736450E+02 -0.50343735145E+01  0.62213127780E+02  0.00000000000E+00 0.  1.
</event>
<event>
 4    1  0.9897231E-003  0.9118800E+02  0.7818608E-02  0.1130116E+00
         25   -1    0    0    0    0  0.00000000000E+00  0.00000000000E+00  0.99999998245E-14  0.12500000000E+03  0.12500000000E+03 0.  0.
        -13    1    1    0    0    0  0.94408667991E+00  0.10629019285E+01 -0.72768736676E-02  0.14255795865E+01  0.10566000000E+00 0.  1.
         13    1    1    0    0    0  0.28930702229E+02  0.53479575494E+02 -0.59889800251E+01  0.61097705131E+02  0.10566000000E+00 0. -1.
         22    1    1    0    0    0 -0.29874788909E+02 -0.54542477423E+02  0.59962568988E+01  0.62476715283E+02  0.00000000000E+00 0. -1.
</event>
<event>
 4    1  0.9897231E-003  0.9118800E+02  0.7818608E-02  0.1130116E+00
         25   -1    0    0    0    0  0.00000000000E+00  0.00000000000E+00  0.99999998245E-14  0.12500000000E+03  0.12500000000E+03 0.  0.
        -13    1    1    0    0    0 -0.12936020186E+02  0.70259995941E+01 -0.71540323237E+01  0.16367548108E+02  0.10566000000E+00 0. -1.
         13    1    1    0    0    0 -0.15061816626E+02  0.24299880364E+02 -0.37608411060E+02  0.47241361668E+02  0.10566000000E+00 0.  1.
         22    1    1    0    0    0  0.27997836812E+02 -0.31325879958E+02  0.44762443383E+02  0.61391090224E+02  0.00000000000E+00 0.  1.
</event>
<event>
 4    1  0.9897231E-003  0.9118800E+02  0.7818608E-02  0.1130116E+00
         25   -1    0    0    0    0  0.00000000000E+00  0.00000000000E+00  0.99999998245E-14  0.12500000000E+03  0.12500000000E+03 0.  0.
        -13    1    1    0    0    0  0.29795816992E+01  0.14544910534E+02  0.10316002436E+01  0.14883134503E+02  0.10566000000E+00 0. -1.
         13    1    1    0    0    0  0.90333225383E+01  0.46742684051E+02  0.12065162301E+01  0.47622959524E+02  0.10566000000E+00 0.  1.
         22    1    1    0    0    0 -0.12012904237E+02 -0.61287594586E+02 -0.22381164737E+01  0.62493905972E+02  0.00000000000E+00 0.  1.
</event>
<event>
 4    1  0.9897231E-003  0.9118800E+02  0.7818608E-02  0.1130116E+00
         25   -1    0    0    0    0  0.00000000000E+00  0.00000000000E+00  0.99999998245E-14  0.12500000000E+03  0.12500000000E+03 0.  0.
        -13    1    1    0    0    0 -0.20921960832E+02  0.22401971481E+02 -0.55789707532E+01  0.31156265019E+02  0.10566000000E+00 0.  1.
         13    1    1    0    0    0 -0.13254770515E+02  0.24529893077E+02  0.19643765095E+02  0.34107085289E+02  0.10566000000E+00 0. -1.
         22    1    1    0    0    0  0.34176731346E+02 -0.46931864558E+02 -0.14064794342E+02  0.59736649691E+02  0.00000000000E+00 0. -1.
</event>
<event>
 4    1  0.9897231E-003  0.9118800E+02  0.7818608E-02  0.1130116E+00
         25   -1    0    0    0    0  0.00000000000E+00  0.00000000000E+00  0.99999998245E-14  0.12500000000E+03  0.12500000000E+03 0.  0.
        -13    1    1    0    0    0  0.24600156915E+02  0.24190148843E+01  0.31458504861E+02  0.40008349696E+02  0.10566000000E+00 0.  1.
         13    1    1    0    0    0  0.13393129683E+02  0.12709308188E+01  0.18027247778E+02  0.22494088431E+02  0.10566000000E+00 0. -1.
         22    1    1    0    0    0 -0.37993286598E+02 -0.36899457032E+01 -0.49485752639E+02  0.62497561873E+02  0.00000000000E+00 0.  1.
</event>
<event>
 4    1  0.9897231E-003  0.9118800E+02  0.7818608E-02  0.1130116E+00
         25   -1    0    0    0    0  0.00000000000E+00  0.00000000000E+00  0.99999998245E-14  0.12500000000E+03  0.12500000000E+03 0.  0.
        -13    1    1    0    0    0  0.80967881618E+01  0.19792970356E+01  0.24047012245E+02  0.25450845904E+02  0.10566000000E+00 0.  1.
         13    1    1    0    0    0  0.22955387357E+02  0.26758796782E+02  0.18270181843E+02  0.39708862015E+02  0.10566000000E+00 0. -1.
         22    1    1    0    0    0 -0.31052175518E+02 -0.28738093818E+02 -0.42317194089E+02  0.59840292080E+02  0.00000000000E+00 0.  1.
</event>
<event>
 4    1  0.9897231E-003  0.9118800E+02  0.7818608E-02  0.1130116E+00
         25   -1    0    0    0    0  0.00000000000E+00  0.00000000000E+00  0.99999998245E-14  0.12500000000E+03  0.12500000000E+03 0.  0.
        -13    1    1    0    0    0  0.27506929589E+02 -0.21814347478E+01 -0.23754665797E+02  0.36409959409E+02  0.10566000000E+00 0. -1.
         13    1    1    0    0    0  0.19866398379E+02 -0.18482113051E+01 -0.16811975982E+02  0.26091059197E+02  0.10566000000E+00 0. -1.
         22    1    1    0    0    0 -0.47373327968E+02  0.40296460530E+01  0.40566641779E+02  0.62498981394E+02  0.00000000000E+00 0. -1.
</event>
<event>
 4    1  0.9897231E-003  0.9118800E+02  0.7818608E-02  0.1130116E+00
         25   -1    0    0    0    0  0.00000000000E+00  0.00000000000E+00  0.99999998245E-14  0.12500000000E+03  0.12500000000E+03 0.  0.
        -13    1    1    0    0    0  0.11670559230E+02 -0.49533528309E+01  0.42948316865E+02  0.44780651431E+02  0.10566000000E+00 0. -1.
         13    1    1    0    0    0  0.46791889176E+01 -0.20176568866E+01  0.16970825679E+02  0.17719645496E+02  0.10566000000E+00 0. -1.
         22    1    1    0    0    0 -0.16349748148E+02  0.69710097175E+01 -0.59919142544E+02  0.62499703073E+02  0.00000000000E+00 0. -1.
</event>
<event>
 4    1  0.9897231E-003  0.9118800E+02  0.7818608E-02  0.1130116E+00
         25   -1    0    0    0    0  0.00000000000E+00  0.00000000000E+00  0.99999998245E-14  0.12500000000E+03  0.12500000000E+03 0.  0.
        -13    1    1    0    0    0  0.13031299176E+00 -0.37941465181E+00  0.91987294802E+01  0.92080793350E+01  0.10566000000E+00 0.  1.
         13    1    1    0    0    0  0.25794005025E+02  0.51196307750E+00  0.47160474122E+02  0.53756062773E+02  0.10566000000E+00 0. -1.
         22    1    1    0    0    0 -0.25924318017E+02 -0.13254842568E+00 -0.56359203602E+02  0.62035857892E+02  0.00000000000E+00 0. -1.
</event>
<event>
 4    1  0.9897231E-003  0.9118800E+02  0.7818608E-02  0.1130116E+00
         25   -1    0    0    0    0  0.00000000000E+00  0.00000000000E+00  0.99999998245E-14  0.12500000000E+03  0.12500000000E+03 0.  0.
        -13    1    1    0    0    0 -0.11082307568E+02  0.78320417476E+01  0.16996761573E+02  0.21749930734E+02  0.10566000000E+00 0. -1.
         13    1    1    0    0    0 -0.20591546909E+02  0.14566947283E+02  0.32005888873E+02  0.40750409125E+02  0.10566000000E+00 0. -1.
         22    1    1    0    0    0  0.31673854476E+02 -0.22398989030E+02 -0.49002650446E+02  0.62499660141E+02  0.00000000000E+00 0. -1.
</event>
<event>
 4    1  0.9897231E-003  0.9118800E+02  0.7818608E-02  0.1130116E+00
         25   -1    0    0    0    0  0.00000000000E+00  0.00000000000E+00  0.99999998245E-14  0.12500000000E+03  0.12500000000E+03 0.  0.
        -13    1    1    0    0    0  0.60396813245E+01 -0.71324601647E+01  0.11223127266E+02  0.14605460902E+02  0.10566000000E+00 0.  1.
         13    1    1    0    0    0  0.92625935967E+01  0.79402560454E+01  0.47842440796E+02  0.49373612503E+02  0.10566000000E+00 0. -1.
         22    1    1    0    0    0 -0.15302274921E+02 -0.80779588064E+00 -0.59065568062E+02  0.61020926595E+02  0.00000000000E+00 0. -1.
</event>
<event>
 4    1  0.9897231E-003  0.9118800E+02  0.7818608E-02  0.1130116E+00
         25   -1    0    0    0    0  0.00000000000E+00  0.00000000000E+00  0.99999998245E-14  0.12500000000E+03  0.12500000000E+03 0.  0.
        -13    1    1    0    0    0  0.41535935618E+01  0.12282157728E+02  0.37835398243E+02  0.39995403013E+02  0.10566000000E+00 0. -1.
         13    1    1    0    0    0  0.12813190952E+01  0.88230249120E+01  0.20702762179E+02  0.22541141788E+02  0.10566000000E+00 0.  1.
         22    1    1    0    0    0 -0.54349126570E+01 -0.21105182640E+02 -0.58538160422E+02  0.62463455199E+02  0.00000000000E+00 0. -1.
</event>
<event>
 4    1  0.9897231E-003  0.9118800E+02  0.7818608E-02  0.1130116E+00
         25   -1    0    0    0    0  0.00000000000E+00  0.00000000000E+00  0.99999998245E-14  0.12500000000E+03  0.12500000000E+03 0.  0.
        -13    1    1    0    0    0  0.12144365645E+02  0.25558703155E+00  0.20523839538E+02  0.23849320642E+02  0.10566000000E+00 0. -1.
         13    1    1    0    0    0  0.19958012346E+02  0.11680662447E+00  0.33099532449E+02  0.38651340378E+02  0.10566000000E+00 0.  1.
         22    1    1    0    0    0 -0.32102377991E+02 -0.37239365602E+00 -0.53623371987E+02  0.62499338981E+02  0.00000000000E+00 0.  1.
</event>
<event>
 4    1  0.9897231E-003  0.9118800E+02  0.7818608E-02  0.1130116E+00
         25   -1    0    0    0    0  0.00000000000E+00  0.00000000000E+00  0.99999998245E-14  0.12500000000E+03  0.12500000000E+03 0.  0.
        -13    1    1    0    0    0  0.28855133988E+02 -0.16591691205E+02 -0.88644973218E+01  0.34445514241E+02  0.10566000000E+00 0.  1.
         13    1    1    0    0    0  0.18914279869E+02  0.16890568888E+02 -0.22090995229E+02  0.33631302897E+02  0.10566000000E+00 0. -1.
         22    1    1    0    0    0 -0.47769413857E+02 -0.29887768347E+00  0.30955492551E+02  0.56923182862E+02  0.00000000000E+00 0. -1.
</event>
<event>
 4    1  0.9897231E-003  0.9118800E+02  0.7818608E-02  0.1130116E+00
         25   -1    0    0    0    0  0.00000000000E+00  0.00000000000E+00  0.99999998245E-14  0.12500000000E+03  0.12500000000E+03 0.  0.
        -13    1    1    0    0    0  0.17829554061E+02  0.48122905017E+02  0.11640895389E+02  0.52623460498E+02  0.10566000000E+00 0.  1.
         13    1    1    0    0    0  0.45801922532E+01  0.81598353173E+01  0.34011969589E+01  0.99569261457E+01  0.10566000000E+00 0. -1.
         22    1    1    0    0    0 -0.22409746314E+02 -0.56282740334E+02 -0.15042092348E+02  0.62419613357E+02  0.00000000000E+00 0.  1.
</event>
<event>
 4    1  0.9897231E-003  0.9118800E+02  0.7818608E-02  0.1130116E+00
         25   -1    0    0    0    0  0.00000000000E+00  0.00000000000E+00  0.99999998245E-14  0.12500000000E+03  0.12500000000E+03 0.  0.
        -13    1    1    0    0    0 -0.28017565717E+01 -0.18730130584E+02 -0.31895066406E+02  0.37094124287E+02  0.10566000000E+00 0.  1.
         13    1    1    0    0    0 -0.36556175274E+01 -0.10623256504E+02 -0.22844605194E+02  0.25457892073E+02  0.10566000000E+00 0. -1.
         22    1    1    0    0    0  0.64573740990E+01  0.29353387089E+02  0.54739671600E+02  0.62447983640E+02  0.00000000000E+00 0.  1.
</event>
<event>
 4    1  0.9897231E-003  0.9118800E+02  0.7818608E-02  0.1130116E+00
         25   -1    0    0    0    0  0.00000000000E+00  0.00000000000E+00  0.99999998245E-14  0.12500000000E+03  0.12500000000E+03 0.  0.
        -13    1    1    0    0    0  0.11167852676E+02 -0.24638384302E+01 -0.14692025617E+02  0.18618759732E+02  0.10566000000E+00 0.  1.
         13    1    1    0    0    0  0.26517002232E+02 -0.53815209209E+01 -0.34546957540E+02  0.43881836950E+02  0.10566000000E+00 0.  1.
         22    1    1    0    0    0 -0.37684854907E+02  0.78453593511E+01  0.49238983157E+02  0.62499403318E+02  0.00000000000E+00 0.  1.
</event>
<event>
 4    1  0.9897231E-003  0.9118800E+02  0.7818608E-02  0.1130116E+00
         25   -1    0    0    0    0  0.00000000000E+00  0.00000000000E+00  0.99999998245E-14  0.12500000000E+03  0.12500000000E+03 0.  0.
        -13    1    1    0    0    0 -0.85306158357E+01  0.14336521081E+01 -0.11699927367E+02  0.14550815418E+02  0.10566000000E+00 0.  1.
         13    1    1    0    0    0 -0.13946172004E+02  0.11813504152E+02 -0.44707991897E+02  0.48299796039E+02  0.10566000000E+00 0. -1.
         22    1    1    0    0    0  0.22476787840E+02 -0.13247156260E+02  0.56407919264E+02  0.62149388543E+02  0.00000000000E+00 0. -1.
</event>
<event>
 4    1  0.9897231E-003  0.9118800E+02  0.7818608E-02  0.1130116E+00
         25   -1    0    0    0    0  0.00000000000E+00  0.00000000000E+00  0.99999998245E-14  0.12500000000E+03  0.12500000000E+03 0.  0.
        -13    1    1    0    0    0  0.37642285534E+02 -0.16377124402E+02 -0.18120858016E+02  0.44872358120E+02  0.10566000000E+00 0. -1.
         13    1    1    0    0    0  0.14843945098E+02 -0.63886414538E+01 -0.70410903425E+01  0.17627976712E+02  0.10566000000E+00 0. -1.
         22    1    1    0    0    0 -0.52486230632E+02  0.22765765856E+02  0.25161948359E+02  0.62499665169E+02  0.00000000000E+00 0. -1.
</event>
<event>
 4    1  0.9897231E-003  0.9118800E+02  0.7818608E-02  0.1130116E+00
         25   -1    0    0    0    0  0.00000000000E+00  0.00000000000E+00  0.99999998245E-14  0.12500000000E+03  0.12500000000E+03 0.  0.
        -13    1    1    0    0    0 -0.35453135475E+02 -0.21172797459E+02  0.29218113570E+02  0.50585783496E+02  0.10566000000E+00 0. -1.
         13    1    1    0    0    0 -0.75020348611E+01 -0.56926537017E+01  0.73372025590E+01  0.11938699203E+02  0.10566000000E+00 0.  1.
         22    1    1    0    0    0  0.42955170336E+02  0.26865451161E+02 -0.36555316129E+02  0.62475517301E+02  0.00000000000E+00 0. -1.
</event>
<event>
 4    1  0.9897231E-003  0.9118800E+02  0.7818608E-02  0.1130116E+00
         25   -1    0    0    0    0  0.00000000000E+00  0.00000000000E+00  0.99999998245E-14  0.12500000000E+03  0.12500000000E+03 0.  0.
        -13    1    1    0    0    0  0.33170812835E+01  0.20006562857E+02 -0.14371327694E+02  0.24855820431E+02  0.10566000000E+00 0.  1.
         13    1    1    0    0    0  0.10600981529E+02  0.30250956291E+02 -0.19911352168E+02  0.37735583672E+02  0.10566000000E+00 0. -1.
         22    1    1    0    0    0 -0.13918062812E+02 -0.50257519148E+02  0.34282679862E+02  0.62408595897E+02  0.00000000000E+00 0.  1.
</event>
<event>
 4    1  0.9897231E-003  0.9118800E+02  0.7818608E-02  0.1130116E+00
         25   -1    0    0    0    0  0.00000000000E+00  0.00000000000E+00  0.99999998245E-14  0.12500000000E+03  0.12500000000E+03 0.  0.
        -13    1    1    0    0    0 -0.97180182256E+01 -0.54182367778E+00 -0.10475659222E+01  0.97898932337E+01  0.10566000000E+00 0.  1.
         13    1    1    0    0    0 -0.52349279183E+02 -0.30293599977E+01 -0.53630987350E+01  0.52710511713E+02  0.10566000000E+00 0.  1.
         22    1    1    0    0    0  0.62067297409E+02  0.35711836755E+01  0.64106646572E+01  0.62499595053E+02  0.00000000000E+00 0.  1.
</event>
<event>
 4    1  0.9897231E-003  0.9118800E+02  0.7818608E-02  0.1130116E+00
         25   -1    0    0    0    0  0.00000000000E+00  0.00000000000E+00  0.99999998245E-14  0.12500000000E+03  0.12500000000E+03 0.  0.
        -13    1    1    0    0    0  0.12275659364E+02  0.12365614773E+02 -0.51759609121E+02  0.54613812739E+02  0.10566000000E+00 0.  1.
         13    1    1    0    0    0  0.15491111380E+01  0.27713417181E+01 -0.72509123530E+01  0.79162474836E+01  0.10566000000E+00 0. -1.
         22    1    1    0    0    0 -0.13824770502E+02 -0.15136956491E+02  0.59010521474E+02  0.62469939778E+02  0.00000000000E+00 0.  1.
</event>
<event>
 4    1  0.9897231E-003  0.9118800E+02  0.7818608E-02  0.1130116E+00
         25   -1    0    0    0    0  0.00000000000E+00  0.00000000000E+00  0.99999998245E-14  0.12500000000E+03  0.12500000000E+03 0.  0.
        -13    1    1    0    0    0 -0.41237902408E+01 -0.34045251187E+01 -0.76571247899E+01  0.93401906468E+01  0.10566000000E+00 0. -1.
         13    1    1    0    0    0 -0.33711121225E+02 -0.17386972066E+02  0.44805925382E+02  0.58705439316E+02  0.10566000000E+00 0.  1.
         22    1    1    0    0    0  0.37834911466E+02  0.20791497185E+02 -0.37148800592E+02  0.56954370037E+02  0.00000000000E+00 0.  1.
</event>
<event>
 4    1  0.9897231E-003  0.9118800E+02  0.7818608E-02  0.1130116E+00
         25   -1    0    0    0    0  0.00000000000E+00  0.00000000000E+00  0.99999998245E-14  0.12500000000E+03  0.12500000000E+03 0.  0.
        -13    1    1    0    0    0 -0.25761549436E+02  0.80362026882E+01 -0.10812896629E+02  0.29071771197E+02  0.10566000000E+00 0. -1.
         13    1    1    0    0    0  0.45986576406E+02  0.26063781185E+02  0.17584546202E+02  0.55707390249E+02  0.10566000000E+00 0.  1.
         22    1    1    0    0    0 -0.20225026970E+02 -0.34099983873E+02 -0.67716495731E+01  0.40220838555E+02  0.00000000000E+00 0.  1.
</event>
<event>
 4    1  0.9897231E-003  0.9118800E+02  0.7818608E-02  0.1130116E+00
         25   -1    0    0    0    0  0.00000000000E+00  0.00000000000E+00  0.99999998245E-14  0.12500000000E+03  0.12500000000E+03 0.  0.
        -13    1    1    0    0    0 -0.24738072615E+02 -0.83977505735E+01 -0.61658471968E+01  0.26842564838E+02  0.10566000000E+00 0. -1.
         13    1    1    0    0    0 -0.32869397113E+02 -0.11142555472E+02 -0.81792898499E+01  0.35657618477E+02  0.10566000000E+00 0. -1.
         22    1    1    0    0    0  0.57607469727E+02  0.19540306046E+02  0.14345137047E+02  0.62499816685E+02  0.00000000000E+00 0. -1.
</event>
<event>
 4    1  0.9897231E-003  0.9118800E+02  0.7818608E-02  0.1130116E+00
         25   -1    0    0    0    0  0.00000000000E+00  0.00000000000E+00  0.99999998245E-14  0.12500000000E+03  0.12500000000E+03 0.  0.
        -13    1    1    0    0    0  0.91565417842E+00 -0.27487577114E+01  0.13701760694E+01  0.32066552710E+01  0.10566000000E+00 0. -1.
         13    1    1    0    0    0  0.15608874445E+02 -0.55826273940E+02  0.12664713029E+02  0.59334778533E+02  0.10566000000E+00 0.  1.
         22    1    1    0    0    0 -0.16524528624E+02  0.58575031652E+02 -0.14034889098E+02  0.62458566196E+02  0.00000000000E+00 0.  1.
</event>
<event>
 4    1  0.9897231E-003  0.9118800E+02  0.7818608E-02  0.1130116E+00
         25   -1    0    0    0    0  0.00000000000E+00  0.00000000000E+00  0.99999998245E-14  0.12500000000E+03  0.12500000000E+03 0.  0.
        -13    1    1    0    0    0  0.13763387738E+02  0.89472854835E+01 -0.58162487496E+02  0.60434848187E+02  0.10566000000E+00 0.  1.
         13    1    1    0    0    0  0.57301658899E+00  0.33388772901E+00 -0.19559142888E+01  0.20679926904E+01  0.10566000000E+00 0.  1.
         22    1    1    0    0    0 -0.14336404327E+02 -0.92811732125E+01  0.60118401785E+02  0.62497159123E+02  0.00000000000E+00 0.  1.
</event>
<event>
 4    1  0.9897231E-003  0.9118800E+02  0.7818608E-02  0.1130116E+00
         25   -1    0    0    0    0  0.00000000000E+00  0.00000000000E+00  0.99999998245E-14  0.12500000000E+03  0.12500000000E+03 0.  0.
        -13    1    1    0    0    0 -0.53705292899E+00  0.14487904405E+02 -0.33377700522E+02  0.36390518766E+02  0.10566000000E+00 0. -1.
         13    1    1    0    0    0 -0.40752918057E+01  0.16717194871E+02 -0.20138476185E+02  0.26488525719E+02  0.10566000000E+00 0.  1.
         22    1    1    0    0    0  0.46123447347E+01 -0.31205099276E+02  0.53516176707E+02  0.62120955515E+02  0.00000000000E+00 0. -1.
</event>
<event>
 4    1  0.9897231E-003  0.9118800E+02  0.7818608E-02  0.1130116E+00
         25   -1    0    0    0    0  0.00000000000E+00  0.00000000000E+00  0.99999998245E-14  0.12500000000E+03  0.12500000000E+03 0.  0.
        -13    1    1    0    0    0  0.11120929126E+01  0.33495311873E+01 -0.18045953333E+01  0.39653295164E+01  0.10566000000E+00 0. -1.
         13    1    1    0    0    0  0.12055032986E+02  0.49676749850E+02 -0.28530682756E+02  0.58541560609E+02  0.10566000000E+00 0.  1.
         22    1    1    0    0    0 -0.13167125898E+02 -0.53026281037E+02  0.30335278089E+02  0.62493109875E+02  0.00000000000E+00 0.  1.
</event>
<event>
 4    1  0.9897231E-003  0.9118800E+02  0.7818608E-02  0.1130116E+00
         25   -1    0    0    0    0  0.00000000000E+00  0.00000000000E+00  0.99999998245E-14  0.12500000000E+03  0.12500000000E+03 0.  0.
        -13    1    1    0    0    0 -0.97060999279E+01 -0.55591542211E+01  0.16477505394E+02  0.19915619988E+02  0.10566000000E+00 0.  1.
         13    1    1    0    0    0 -0.25915534763E+02 -0.33562074533E+01  0.33863324046E+02  0.42773998528E+02  0.10566000000E+00 0. -1.
         22    1    1    0    0    0  0.35621634691E+02  0.89153616744E+01 -0.50340829441E+02  0.62310381484E+02  0.00000000000E+00 0.  1.
</event>
<event>
 4    1  0.9897231E-003  0.9118800E+02  0.7818608E-02  0.1130116E+00
         25   -1    0    0    0    0  0.00000000000E+00  0.00000000000E+00  0.99999998245E-14  0.12500000000E+03  0.12500000000E+03 0.  0.
        -13    1    1    0    0    0 -0.26082289935E+02 -0.52221624217E+02  0.17195168703E+01  0.58398217322E+02  0.10566000000E+00 0.  1.
         13    1    1    0    0    0 -0.23894173046E+01 -0.32990855534E+01  0.81228212997E+00  0.41550266953E+01  0.10566000000E+00 0. -1.
         22    1    1    0    0    0  0.28471707240E+02  0.55520709770E+02 -0.25317990003E+01  0.62446755982E+02  0.00000000000E+00 0.  1.
</event>
<event>
 4    1  0.9897231E-003  0.9118800E+02  0.7818608E-02  0.1130116E+00
         25   -1    0    0    0    0  0.00000000000E+00  0.00000000000E+00  0.99999998245E-14  0.12500000000E+03  0.12500000000E+03 0.  0.
        -13    1    1    0    0    0 -0.39555005380E+02  0.17794674879E+02  0.12312991346E+02  0.45087357702E+02  0.10566000000E+00 0. -1.
         13    1    1    0    0    0 -0.14877541633E+02  0.65706478160E+01  0.62950639930E+01  0.17440001504E+02  0.10566000000E+00 0.  1.
         22    1    1    0    0    0  0.54432547012E+02 -0.24365322695E+02 -0.18608055339E+02  0.62472640794E+02  0.00000000000E+00 0. -1.
</event>
<event>
 4    1  0.9897231E-003  0.9118800E+02  0.7818608E-02  0.1130116E+00
         25   -1    0    0    0    0  0.00000000000E+00  0.00000000000E+00  0.99999998245E-14  0.12500000000E+03  0.12500000000E+03 0.  0.
        -13    1    1    0    0    0  0.28314430546E+02 -0.27397644677E+02  0.41364339745E+02  0.57125805706E+02  0.10566000000E+00 0.  1.
         13    1    1    0    0    0  0.79251388564E+01 -0.70054884727E+00 -0.62022575136E+01  0.10088496265E+02  0.10566000000E+00 0. -1.
         22    1    1    0    0    0 -0.36239569403E+02  0.28098193524E+02 -0.35162082232E+02  0.57785698029E+02  0.00000000000E+00 0.  1.
</event>
<event>
 4    1  0.9897231E-003  0.9118800E+02  0.7818608E-02  0.1130116E+00
         25   -1    0    0    0    0  0.00000000000E+00  0.00000000000E+00  0.99999998245E-14  0.12500000000E+03  0.12500000000E+03 0.  0.
        -13    1    1    0    0    0  0.87290179141E+01  0.10318405166E+01  0.45426377680E+01  0.98948052292E+01  0.10566000000E+00 0. -1.
         13    1    1    0    0    0  0.46666052085E+02  0.47860000536E+01  0.23806675977E+02  0.52606037665E+02  0.10566000000E+00 0.  1.
         22    1    1    0    0    0 -0.55395069999E+02 -0.58178405702E+01 -0.28349313745E+02  0.62499157106E+02  0.00000000000E+00 0.  1.
</event>
<event>
 4    1  0.9897231E-003  0.9118800E+02  0.7818608E-02  0.1130116E+00
         25   -1    0    0    0    0  0.00000000000E+00  0.00000000000E+00  0.99999998245E-14  0.12500000000E+03  0.12500000000E+03 0.  0.
        -13    1    1    0    0    0  0.10845462957E+01 -0.24252395353E+01  0.55314901656E+00  0.27157255644E+01  0.10566000000E+00 0.  1.
         13    1    1    0    0    0  0.21753397029E+02 -0.54089953865E+02  0.13246762803E+02  0.59786464021E+02  0.10566000000E+00 0. -1.
         22    1    1    0    0    0 -0.22837943325E+02  0.56515193400E+02 -0.13799911820E+02  0.62497810414E+02  0.00000000000E+00 0. -1.
</event>
<event>
 4    1  0.9897231E-003  0.9118800E+02  0.7818608E-02  0.1130116E+00
         25   -1    0    0    0    0  0.00000000000E+00  0.00000000000E+00  0.99999998245E-14  0.12500000000E+03  0.12500000000E+03 0.  0.
        -13    1    1    0    0    0  0.18380457936E+02  0.18680131459E+02 -0.29539713998E+02  0.39489168292E+02  0.10566000000E+00 0. -1.
         13    1    1    0    0    0  0.13716660950E+02  0.86361454464E+01 -0.16474175410E+02  0.23111456364E+02  0.10566000000E+00 0.  1.
         22    1    1    0    0    0 -0.32097118886E+02 -0.27316276906E+02  0.46013889409E+02  0.62399375344E+02  0.00000000000E+00 0. -1.
</event>
<event>
 4    1  0.9897231E-003  0.9118800E+02  0.7818608E-02  0.1130116E+00
         25   -1    0    0    0    0  0.00000000000E+00  0.00000000000E+00  0.99999998245E-14  0.12500000000E+03  0.12500000000E+03 0.  0.
        -13    1    1    0    0    0 -0.13197194765E+02  0.16886948582E+02 -0.46474038252E+02  0.51177948157E+02  0.10566000000E+00 0. -1.
         13    1    1    0    0    0 -0.25077627548E+01  0.47322908776E+01 -0.10000480347E+02  0.11344788327E+02  0.10566000000E+00 0.  1.
         22    1    1    0    0    0  0.15704957520E+02 -0.21619239459E+02  0.56474518599E+02  0.62477263516E+02  0.00000000000E+00 0.  1.
</event>
<event>
 4    1  0.9897231E-003  0.9118800E+02  0.7818608E-02  0.1130116E+00
         25   -1    0    0    0    0  0.00000000000E+00  0.00000000000E+00  0.99999998245E-14  0.12500000000E+03  0.12500000000E+03 0.  0.
        -13    1    1    0    0    0 -0.31138854198E+01 -0.56530348947E+01 -0.10809777981E+02  0.12590295864E+02  0.10566000000E+00 0.  1.
         13    1    1    0    0    0  0.25607347868E+02  0.18765396352E+02  0.53614232077E+02  0.62308694501E+02  0.10566000000E+00 0. -1.
         22    1    1    0    0    0 -0.22493462449E+02 -0.13112361458E+02 -0.42804454097E+02  0.50101009635E+02  0.00000000000E+00 0. -1.
</event>
<event>
 4    1  0.9897231E-003  0.9118800E+02  0.7818608E-02  0.1130116E+00
         25   -1    0    0    0    0  0.00000000000E+00  0.00000000000E+00  0.99999998245E-14  0.12500000000E+03  0.12500000000E+03 0.  0.
        -13    1    1    0    0    0 -0.13437791017E+02 -0.19790290292E+02  0.41251078237E+02  0.47685348242E+02  0.10566000000E+00 0.  1.
         13    1    1    0    0    0 -0.62464049462E+01  0.10396056771E+02  0.13637878133E+02  0.18250985046E+02  0.10566000000E+00 0. -1.
         22    1    1    0    0    0  0.19684195963E+02  0.93942335207E+01 -0.54888956369E+02  0.59063666712E+02  0.00000000000E+00 0.  1.
</event>
<event>
 4    1  0.9897231E-003  0.9118800E+02  0.7818608E-02  0.1130116E+00
         25   -1    0    0    0    0  0.00000000000E+00  0.00000000000E+00  0.99999998245E-14  0.12500000000E+03  0.12500000000E+03 0.  0.
        -13    1    1    0    0    0 -0.27293585257E+02 -0.22169135155E+02  0.47450293596E+02  0.59058884819E+02  0.10566000000E+00 0. -1.
         13    1    1    0    0    0 -0.15514195819E+01 -0.12168837379E+01  0.28201272714E+01  0.34426720165E+01  0.10566000000E+00 0. -1.
         22    1    1    0    0    0  0.28845004839E+02  0.23386018893E+02 -0.50270420867E+02  0.62498443164E+02  0.00000000000E+00 0. -1.
</event>
<event>
 4    1  0.9897231E-003  0.9118800E+02  0.7818608E-02  0.1130116E+00
         25   -1    0    0    0    0  0.00000000000E+00  0.00000000000E+00  0.99999998245E-14  0.12500000000E+03  0.12500000000E+03 0.  0.
        -13    1    1    0    0    0 -0.49363845577E+01  0.84422644110E+01 -0.43600378740E+01  0.10707979043E+02  0.10566000000E+00 0. -1.
         13    1    1    0    0    0 -0.24250388080E+02  0.40624765252E+02 -0.21071253538E+02  0.51792487520E+02  0.10566000000E+00 0.  1.
         22    1    1    0    0    0  0.29186772638E+02 -0.49067029663E+02  0.25431291412E+02  0.62499533437E+02  0.00000000000E+00 0.  1.
</event>
<event>
 4    1  0.9897231E-003  0.9118800E+02  0.7818608E-02  0.1130116E+00
         25   -1    0    0    0    0  0.00000000000E+00  0.00000000000E+00  0.99999998245E-14  0.12500000000E+03  0.12500000000E+03 0.  0.
        -13    1    1    0    0    0 -0.28915100304E+02  0.30292556866E+01  0.19908798671E+02  0.35236782545E+02  0.10566000000E+00 0.  1.
         13    1    1    0    0    0 -0.19776158158E+02  0.25616081504E+01  0.18725743699E+02  0.27355491385E+02  0.10566000000E+00 0. -1.
         22    1    1    0    0    0  0.48691258462E+02 -0.55908638369E+01 -0.38634542370E+02  0.62407726070E+02  0.00000000000E+00 0.  1.
</event>
<event>
 4    1  0.9897231E-003  0.9118800E+02  0.7818608E-02  0.1130116E+00
         25   -1    0    0    0    0  0.00000000000E+00  0.00000000000E+00  0.99999998245E-14  0.12500000000E+03  0.12500000000E+03 0.  0.
        -13    1    1    0    0    0  0.38630582588E+00 -0.51314973318E+01  0.78951363774E+01  0.94247461245E+01  0.10566000000E+00 0.  1.
         13    1    1    0    0    0  0.25605991328E+02 -0.31966801961E+02  0.34485836099E+02  0.53542761182E+02  0.10566000000E+00 0. -1.
         22    1    1    0    0    0 -0.25992297154E+02  0.37098299293E+02 -0.42380972476E+02  0.62032492694E+02  0.00000000000E+00 0. -1.
</event>
<event>
 4    1  0.9897231E-003  0.9118800E+02  0.7818608E-02  0.1130116E+00
         25   -1    0    0    0    0  0.00000000000E+00  0.00000000000E+00  0.99999998245E-14  0.12500000000E+03  0.12500000000E+03 0.  0.
        -13    1    1    0    0    0 -0.72675379523E+01 -0.15948997809E+02 -0.48848636938E+00  0.17533893520E+02  0.10566000000E+00 0.  1.
         13    1    1    0    0    0 -0.33077808270E+02  0.39680724819E+02  0.21755628698E+02  0.56053723036E+02  0.10566000000E+00 0. -1.
         22    1    1    0    0    0  0.40345346222E+02 -0.23731727010E+02 -0.21267142329E+02  0.51412383445E+02  0.00000000000E+00 0. -1.
</event>
<event>
 4    1  0.9897231E-003  0.9118800E+02  0.7818608E-02  0.1130116E+00
         25   -1    0    0    0    0  0.00000000000E+00  0.00000000000E+00  0.99999998245E-14  0.12500000000E+03  0.12500000000E+03 0.  0.
        -13    1    1    0    0    0  0.33333332116E+02 -0.20782032731E+02  0.32056138287E+02  0.50701194071E+02  0.10566000000E+00 0.  1.
         13    1    1    0    0    0  0.83444321907E+01 -0.45243910654E+01  0.70259302925E+01  0.11809933260E+02  0.10566000000E+00 0. -1.
         22    1    1    0    0    0 -0.41677764307E+02  0.25306423796E+02 -0.39082068579E+02  0.62488872668E+02  0.00000000000E+00 0.  1.
</event>
<event>
 4    1  0.9897231E-003  0.9118800E+02  0.7818608E-02  0.1130116E+00
         25   -1    0    0    0    0  0.00000000000E+00  0.00000000000E+00  0.99999998245E-14  0.12500000000E+03  0.12500000000E+03 0.  0.
        -13    1    1    0    0    0 -0.32196943506E+02  0.41673695977E+02 -0.18412806122E+02  0.55788732741E+02  0.10566000000E+00 0.  1.
         13    1    1    0    0    0  0.20021203474E+01  0.81181398306E+01  0.94152500873E+00  0.84148864266E+01  0.10566000000E+00 0. -1.
         22    1    1    0    0    0  0.30194823159E+02 -0.49791835807E+02  0.17471281114E+02  0.60796380833E+02  0.00000000000E+00 0.  1.
</event>
<event>
 4    1  0.9897231E-003  0.9118800E+02  0.7818608E-02  0.1130116E+00
         25   -1    0    0    0    0  0.00000000000E+00  0.00000000000E+00  0.99999998245E-14  0.12500000000E+03  0.12500000000E+03 0.  0.
        -13    1    1    0    0    0  0.37756039874E+01 -0.18748439993E+01  0.95570244998E+01  0.10445961268E+02  0.10566000000E+00 0. -1.
         13    1    1    0    0    0  0.36267410559E+02 -0.51583121809E+00  0.37869603173E+02  0.52437669276E+02  0.10566000000E+00 0.  1.
         22    1    1    0    0    0 -0.40043014546E+02  0.23906752174E+01 -0.47426627673E+02  0.62116369456E+02  0.00000000000E+00 0.  1.
</event>
<event>
 4    1  0.9897231E-003  0.9118800E+02  0.7818608E-02  0.1130116E+00
         25   -1    0    0    0    0  0.00000000000E+00  0.00000000000E+00  0.99999998245E-14  0.12500000000E+03  0.12500000000E+03 0.  0.
        -13    1    1    0    0    0 -0.19369770415E+01  0.88977176480E+01  0.17667826409E+01  0.92765265233E+01  0.10566000000E+00 0. -1.
         13    1    1    0    0    0 -0.11478070321E+02  0.51410122301E+02  0.76483251596E+01  0.53228327186E+02  0.10566000000E+00 0.  1.
         22    1    1    0    0    0  0.13415047362E+02 -0.60307839949E+02 -0.94151078005E+01  0.62495146291E+02  0.00000000000E+00 0.  1.
</event>
<event>
 4    1  0.9897231E-003  0.9118800E+02  0.7818608E-02  0.1130116E+00
         25   -1    0    0    0    0  0.00000000000E+00  0.00000000000E+00  0.99999998245E-14  0.12500000000E+03  0.12500000000E+03 0.  0.
        -13    1    1    0    0    0  0.46980412537E+02 -0.19411438540E+02 -0.16452651401E+02  0.53429055864E+02  0.10566000000E+00 0.  1.
         13    1    1    0    0    0  0.62937869003E+01  0.16538702841E+00 -0.77391086189E+01  0.99771775902E+01  0.10566000000E+00 0. -1.
         22    1    1    0    0    0 -0.53274199437E+02  0.19246051511E+02  0.24191760020E+02  0.61593766546E+02  0.00000000000E+00 0.  1.
</event>
<event>
 4    1  0.9897231E-003  0.9118800E+02  0.7818608E-02  0.1130116E+00
         25   -1    0    0    0    0  0.00000000000E+00  0.00000000000E+00  0.99999998245E-14  0.12500000000E+03  0.12500000000E+03 0.  0.
        -13    1    1    0    0    0 -0.56314050010E+01  0.70391838450E+01  0.98598615206E+01  0.13360047333E+02  0.10566000000E+00 0.  1.
         13    1    1    0    0    0 -0.31818850056E+02 -0.29668019803E+02 -0.39523214075E+02  0.58776919218E+02  0.10566000000E+00 0. -1.
         22    1    1    0    0    0  0.37450255057E+02  0.22628835958E+02  0.29663352555E+02  0.52863033449E+02  0.00000000000E+00 0. -1.
</event>
<event>
 4    1  0.9897231E-003  0.9118800E+02  0.7818608E-02  0.1130116E+00
         25   -1    0    0    0    0  0.00000000000E+00  0.00000000000E+00  0.99999998245E-14  0.12500000000E+03  0.12500000000E+03 0.  0.
        -13    1    1    0    0    0 -0.17559756402E+01 -0.19843553147E+02  0.19957600199E+01  0.20021095726E+02  0.10566000000E+00 0.  1.
         13    1    1    0    0    0 -0.27630463286E+01 -0.42179472960E+02  0.42273622031E+01  0.42480867687E+02  0.10566000000E+00 0. -1.
         22    1    1    0    0    0  0.45190219688E+01  0.62023026107E+02 -0.62231222230E+01  0.62498036587E+02  0.00000000000E+00 0. -1.
</event>
<event>
 4    1  0.9897231E-003  0.9118800E+02  0.7818608E-02  0.1130116E+00
         25   -1    0    0    0    0  0.00000000000E+00  0.00000000000E+00  0.99999998245E-14  0.12500000000E+03  0.12500000000E+03 0.  0.
        -13    1    1    0    0    0 -0.18422093365E+02  0.32804063642E-01  0.85475241450E+01  0.20308764933E+02  0.10566000000E+00 0. -1.
         13    1    1    0    0    0 -0.31536535989E+02 -0.12920384755E+02  0.25769469670E+02  0.42726644796E+02  0.10566000000E+00 0.  1.
         22    1    1    0    0    0  0.49958629354E+02  0.12887580691E+02 -0.34316993815E+02  0.61964590271E+02  0.00000000000E+00 0. -1.
</event>
<event>
 4    1  0.9897231E-003  0.9118800E+02  0.7818608E-02  0.1130116E+00
         25   -1    0    0    0    0  0.00000000000E+00  0.00000000000E+00  0.99999998245E-14  0.12500000000E+03  0.12500000000E+03 0.  0.
        -13    1    1    0    0    0  0.46187393653E+02 -0.82504700199E+01  0.12469422654E+02  0.48547330033E+02  0.10566000000E+00 0. -1.
         13    1    1    0    0    0 -0.44676825647E+01 -0.11588748991E+02 -0.25576298384E+02  0.28432683548E+02  0.10566000000E+00 0.  1.
         22    1    1    0    0    0 -0.41719711088E+02  0.19839219011E+02  0.13106875730E+02  0.48019986418E+02  0.00000000000E+00 0.  1.
</event>
<event>
 4    1  0.9897231E-003  0.9118800E+02  0.7818608E-02  0.1130116E+00
         25   -1    0    0    0    0  0.00000000000E+00  0.00000000000E+00  0.99999998245E-14  0.12500000000E+03  0.12500000000E+03 0.  0.
        -13    1    1    0    0    0 -0.89021556043E+01  0.13650573528E+02 -0.84707445388E+01  0.18367123050E+02  0.10566000000E+00 0.  1.
         13    1    1    0    0    0 -0.93472554420E+01  0.40080578178E+02 -0.16878204591E+02  0.44482680738E+02  0.10566000000E+00 0. -1.
         22    1    1    0    0    0  0.18249411046E+02 -0.53731151706E+02  0.25348949130E+02  0.62150196212E+02  0.00000000000E+00 0. -1.
</event>
<event>
 4    1  0.9897231E-003  0.9118800E+02  0.7818608E-02  0.1130116E+00
         25   -1    0    0    0    0  0.00000000000E+00  0.00000000000E+00  0.99999998245E-14  0.12500000000E+03  0.12500000000E+03 0.  0.
        -13    1    1    0    0    0  0.28520981033E+02  0.53559907067E+01  0.18594050798E+02  0.34465676907E+02  0.10566000000E+00 0.  1.
         13    1    1    0    0    0  0.52706850622E+01 -0.14785874814E+02  0.28065372564E+02  0.32157091227E+02  0.10566000000E+00 0. -1.
         22    1    1    0    0    0 -0.33791666096E+02  0.94298841068E+01 -0.46659423362E+02  0.58377231865E+02  0.00000000000E+00 0. -1.
</event>
<event>
 4    1  0.9897231E-003  0.9118800E+02  0.7818608E-02  0.1130116E+00
         25   -1    0    0    0    0  0.00000000000E+00  0.00000000000E+00  0.99999998245E-14  0.12500000000E+03  0.12500000000E+03 0.  0.
        -13    1    1    0    0    0  0.13615804697E+02  0.37186756026E+02 -0.30421412146E+02  0.49937144915E+02  0.10566000000E+00 0. -1.
         13    1    1    0    0    0  0.35167743598E+01  0.88896542589E+01 -0.81621648542E+01  0.12570829483E+02  0.10566000000E+00 0.  1.
         22    1    1    0    0    0 -0.17132579056E+02 -0.46076410284E+02  0.38583577000E+02  0.62492025603E+02  0.00000000000E+00 0. -1.
</event>
<event>
 4    1  0.9897231E-003  0.9118800E+02  0.7818608E-02  0.1130116E+00
         25   -1    0    0    0    0  0.00000000000E+00  0.00000000000E+00  0.99999998245E-14  0.12500000000E+03  0.12500000000E+03 0.  0.
        -13    1    1    0    0    0  0.44828806428E+01 -0.29544504596E+02  0.39552809237E+02  0.49572268994E+02  0.10566000000E+00 0. -1.
         13    1    1    0    0    0 -0.25180069822E+02  0.31484823386E+02 -0.14431426420E+02  0.42820640495E+02  0.10566000000E+00 0.  1.
         22    1    1    0    0    0  0.20697189179E+02 -0.19403187898E+01 -0.25121382817E+02  0.32607090510E+02  0.00000000000E+00 0. -1.
</event>
<event>
 4    1  0.9897231E-003  0.9118800E+02  0.7818608E-02  0.1130116E+00
         25   -1    0    0    0    0  0.00000000000E+00  0.00000000000E+00  0.99999998245E-14  0.12500000000E+03  0.12500000000E+03 0.  0.
        -13    1    1    0    0    0  0.21898277097E+02  0.38827422715E+01 -0.19475999654E+02  0.29562407783E+02  0.10566000000E+00 0. -1.
         13    1    1    0    0    0  0.24662446384E+02  0.48138075961E+01 -0.21297595824E+02  0.32939455933E+02  0.10566000000E+00 0.  1.
         22    1    1    0    0    0 -0.46560723482E+02 -0.86965498676E+01  0.40773595478E+02  0.62498136284E+02  0.00000000000E+00 0.  1.
</event>
<event>
 4    1  0.9897231E-003  0.9118800E+02  0.7818608E-02  0.1130116E+00
         25   -1    0    0    0    0  0.00000000000E+00  0.00000000000E+00  0.99999998245E-14  0.12500000000E+03  0.12500000000E+03 0.  0.
        -13    1    1    0    0    0  0.16366280063E+02  0.15323783446E+02  0.14582498856E+02  0.26745726745E+02  0.10566000000E+00 0. -1.
         13    1    1    0    0    0 -0.45195577866E+02  0.21310436263E+02 -0.21812569939E+01  0.50015437602E+02  0.10566000000E+00 0.  1.
         22    1    1    0    0    0  0.28829297803E+02 -0.36634219708E+02 -0.12401241862E+02  0.48238835653E+02  0.00000000000E+00 0.  1.
</event>
<event>
 4    1  0.9897231E-003  0.9118800E+02  0.7818608E-02  0.1130116E+00
         25   -1    0    0    0    0  0.00000000000E+00  0.00000000000E+00  0.99999998245E-14  0.12500000000E+03  0.12500000000E+03 0.  0.
        -13    1    1    0    0    0 -0.57539752568E+02 -0.20876283932E+01 -0.16944729065E+02  0.60019299605E+02  0.10566000000E+00 0.  1.
         13    1    1    0    0    0  0.48384227825E+01  0.43660299223E+01 -0.46233613946E+01  0.79911943366E+01  0.10566000000E+00 0. -1.
         22    1    1    0    0    0  0.52701329786E+02 -0.22784015291E+01  0.21568090460E+02  0.56989506059E+02  0.00000000000E+00 0.  1.
</event>
<event>
 4    1  0.9897231E-003  0.9118800E+02  0.7818608E-02  0.1130116E+00
         25   -1    0    0    0    0  0.00000000000E+00  0.00000000000E+00  0.99999998245E-14  0.12500000000E+03  0.12500000000E+03 0.  0.
        -13    1    1    0    0    0 -0.38609293835E+02  0.12360082487E+02  0.15930660981E+02  0.43557391254E+02  0.10566000000E+00 0. -1.
         13    1    1    0    0    0 -0.16582175749E+02  0.59590435452E+01  0.69623884646E+01  0.18946365607E+02  0.10566000000E+00 0.  1.
         22    1    1    0    0    0  0.55191469584E+02 -0.18319126033E+02 -0.22893049446E+02  0.62496243138E+02  0.00000000000E+00 0. -1.
</event>
<event>
 4    1  0.9897231E-003  0.9118800E+02  0.7818608E-02  0.1130116E+00
         25   -1    0    0    0    0  0.00000000000E+00  0.00000000000E+00  0.99999998245E-14  0.12500000000E+03  0.12500000000E+03 0.  0.
        -13    1    1    0    0    0  0.10616826371E+02 -0.46373923668E+01 -0.19547186015E+02  0.22722809142E+02  0.10566000000E+00 0. -1.
         13    1    1    0    0    0  0.19926263661E+02 -0.77583703424E+01 -0.33547177359E+02  0.39782817480E+02  0.10566000000E+00 0.  1.
         22    1    1    0    0    0 -0.30543090032E+02  0.12395762709E+02  0.53094363374E+02  0.62494373378E+02  0.00000000000E+00 0.  1.
</event>
<event>
 4    1  0.9897231E-003  0.9118800E+02  0.7818608E-02  0.1130116E+00
         25   -1    0    0    0    0  0.00000000000E+00  0.00000000000E+00  0.99999998245E-14  0.12500000000E+03  0.12500000000E+03 0.  0.
        -13    1    1    0    0    0  0.13515302431E+02 -0.10273400032E+02 -0.19997719944E+02  0.26232158032E+02  0.10566000000E+00 0. -1.
         13    1    1    0    0    0  0.26790962292E+02 -0.20182073520E+02 -0.15574586070E+02  0.36981761009E+02  0.10566000000E+00 0.  1.
         22    1    1    0    0    0 -0.40306264722E+02  0.30455473552E+02  0.35572306014E+02  0.61786080959E+02  0.00000000000E+00 0.  1.
</event>
<event>
 4    1  0.9897231E-003  0.9118800E+02  0.7818608E-02  0.1130116E+00
         25   -1    0    0    0    0  0.00000000000E+00  0.00000000000E+00  0.99999998245E-14  0.12500000000E+03  0.12500000000E+03 0.  0.
        -13    1    1    0    0    0  0.11987596195E+01  0.67613889980E+00 -0.72818317935E+01  0.74115063746E+01  0.10566000000E+00 0.  1.
         13    1    1    0    0    0  0.18406262571E+01 -0.12587085473E+01 -0.55092363587E+02  0.55137572869E+02  0.10566000000E+00 0.  1.
         22    1    1    0    0    0 -0.30393858766E+01  0.58256964750E+00  0.62374195381E+02  0.62450920756E+02  0.00000000000E+00 0.  1.
</event>
<event>
 4    1  0.9897231E-003  0.9118800E+02  0.7818608E-02  0.1130116E+00
         25   -1    0    0    0    0  0.00000000000E+00  0.00000000000E+00  0.99999998245E-14  0.12500000000E+03  0.12500000000E+03 0.  0.
        -13    1    1    0    0    0  0.27038942890E+02  0.26492782853E+02  0.24976009916E+02  0.45351782889E+02  0.10566000000E+00 0.  1.
         13    1    1    0    0    0  0.10821276067E+02  0.91519477308E+01  0.96757708341E+01  0.17160707103E+02  0.10566000000E+00 0. -1.
         22    1    1    0    0    0 -0.37860218957E+02 -0.35644730584E+02 -0.34651780750E+02  0.62487510008E+02  0.00000000000E+00 0.  1.
</event>
<event>
 4    1  0.9897231E-003  0.9118800E+02  0.7818608E-02  0.1130116E+00
         25   -1    0    0    0    0  0.00000000000E+00  0.00000000000E+00  0.99999998245E-14  0.12500000000E+03  0.12500000000E+03 0.  0.
        -13    1    1    0    0    0 -0.59012954817E+00 -0.22578560237E+01  0.60763662353E+01  0.65099583231E+01  0.10566000000E+00 0.  1.
         13    1    1    0    0    0  0.57763942528E+01 -0.16060655471E+02  0.53389195215E+02  0.56051125898E+02  0.10566000000E+00 0. -1.
         22    1    1    0    0    0 -0.51862647047E+01  0.18318511495E+02 -0.59465561450E+02  0.62438915778E+02  0.00000000000E+00 0. -1.
</event>
<event>
 4    1  0.9897231E-003  0.9118800E+02  0.7818608E-02  0.1130116E+00
         25   -1    0    0    0    0  0.00000000000E+00  0.00000000000E+00  0.99999998245E-14  0.12500000000E+03  0.12500000000E+03 0.  0.
        -13    1    1    0    0    0 -0.31033510199E+02 -0.13881155742E+02 -0.67829322387E+00  0.34003477553E+02  0.10566000000E+00 0. -1.
         13    1    1    0    0    0 -0.14513511232E+02 -0.19993846181E+02  0.19198194298E+02  0.31288619684E+02  0.10566000000E+00 0.  1.
         22    1    1    0    0    0  0.45547021431E+02  0.33875001923E+02 -0.18519901075E+02  0.59707902762E+02  0.00000000000E+00 0.  1.
</event>
<event>
 4    1  0.9897231E-003  0.9118800E+02  0.7818608E-02  0.1130116E+00
         25   -1    0    0    0    0  0.00000000000E+00  0.00000000000E+00  0.99999998245E-14  0.12500000000E+03  0.12500000000E+03 0.  0.
        -13    1    1    0    0    0 -0.21781394280E+02 -0.71499334088E+01 -0.14155868510E+02  0.26943467888E+02  0.10566000000E+00 0.  1.
         13    1    1    0    0    0 -0.22207128555E+02 -0.15797311846E+02 -0.23328673183E+02  0.35874082242E+02  0.10566000000E+00 0. -1.
         22    1    1    0    0    0  0.43988522834E+02  0.22947245255E+02  0.37484541693E+02  0.62182449870E+02  0.00000000000E+00 0. -1.
</event>
<event>
 4    1  0.9897231E-003  0.9118800E+02  0.7818608E-02  0.1130116E+00
         25   -1    0    0    0    0  0.00000000000E+00  0.00000000000E+00  0.99999998245E-14  0.12500000000E+03  0.12500000000E+03 0.  0.
        -13    1    1    0    0    0 -0.17295796227E+02 -0.23164711738E+02  0.11481825157E+02  0.31106139426E+02  0.10566000000E+00 0. -1.
         13    1    1    0    0    0 -0.17600773760E+02 -0.22988245984E+02  0.12142802794E+02  0.31395947415E+02  0.10566000000E+00 0.  1.
         22    1    1    0    0    0  0.34896569987E+02  0.46152957722E+02 -0.23624627951E+02  0.62497913159E+02  0.00000000000E+00 0.  1.
</event>
<event>
 4    1  0.9897231E-003  0.9118800E+02  0.7818608E-02  0.1130116E+00
         25   -1    0    0    0    0  0.00000000000E+00  0.00000000000E+00  0.99999998245E-14  0.12500000000E+03  0.12500000000E+03 0.  0.
        -13    1    1    0    0    0 -0.96207574734E+01  0.10730006828E+02  0.16223965969E+02  0.21700697148E+02  0.10566000000E+00 0. -1.
         13    1    1    0    0    0 -0.27772032359E+02  0.33468013378E+02 -0.12853692999E+01  0.43509275322E+02  0.10566000000E+00 0.  1.
         22    1    1    0    0    0  0.37392789833E+02 -0.44198020206E+02 -0.14938596669E+02  0.59790027530E+02  0.00000000000E+00 0.  1.
</event>
<event>
 4    1  0.9897231E-003  0.9118800E+02  0.7818608E-02  0.1130116E+00
         25   -1    0    0    0    0  0.00000000000E+00  0.00000000000E+00  0.99999998245E-14  0.12500000000E+03  0.12500000000E+03 0.  0.
        -13    1    1    0    0    0  0.42900240050E+02  0.11228795058E+02 -0.33685471693E+02  0.55688765492E+02  0.10566000000E+00 0. -1.
         13    1    1    0    0    0  0.60137012646E+01  0.12010724784E+01 -0.30874874319E+01  0.68666528000E+01  0.10566000000E+00 0.  1.
         22    1    1    0    0    0 -0.48913941314E+02 -0.12429867536E+02  0.36772959125E+02  0.62444581708E+02  0.00000000000E+00 0. -1.
</event>
<event>
 4    1  0.9897231E-003  0.9118800E+02  0.7818608E-02  0.1130116E+00
         25   -1    0    0    0    0  0.00000000000E+00  0.00000000000E+00  0.99999998245E-14  0.12500000000E+03  0.12500000000E+03 0.  0.
        -13    1    1    0    0    0  0.58999581988E+01 -0.30742806350E+01  0.10159898626E+02  0.12144768928E+02  0.10566000000E+00 0. -1.
         13    1    1    0    0    0  0.25886580757E+02 -0.15481470239E+02  0.40337454547E+02  0.50367771316E+02  0.10566000000E+00 0.  1.
         22    1    1    0    0    0 -0.31786538956E+02  0.18555750874E+02 -0.50497353173E+02  0.62487459756E+02  0.00000000000E+00 0.  1.
</event>
<event>
 4    1  0.9897231E-003  0.9118800E+02  0.7818608E-02  0.1130116E+00
         25   -1    0    0    0    0  0.00000000000E+00  0.00000000000E+00  0.99999998245E-14  0.12500000000E+03  0.12500000000E+03 0.  0.
        -13    1    1    0    0    0  0.13012186596E+01 -0.39947264716E+02  0.16291159603E+02  0.43161211447E+02  0.10566000000E+00 0.  1.
         13    1    1    0    0    0  0.92267241726E+00 -0.18044899192E+02  0.69005858972E+01  0.19341638013E+02  0.10566000000E+00 0. -1.
         22    1    1    0    0    0 -0.22238910769E+01  0.57992163909E+02 -0.23191745500E+02  0.62497150540E+02  0.00000000000E+00 0. -1.
</event>
<event>
 4    1  0.9897231E-003  0.9118800E+02  0.7818608E-02  0.1130116E+00
         25   -1    0    0    0    0  0.00000000000E+00  0.00000000000E+00  0.99999998245E-14  0.12500000000E+03  0.12500000000E+03 0.  0.
        -13    1    1    0    0    0 -0.54184659634E+01 -0.26006111501E+01  0.60619953767E+00  0.60416548781E+01  0.10566000000E+00 0.  1.
         13    1    1    0    0    0 -0.49324181968E+02 -0.27242635709E+02  0.36406254101E+01  0.56465046219E+02  0.10566000000E+00 0. -1.
         22    1    1    0    0    0  0.54742647931E+02  0.29843246859E+02 -0.42468249477E+01  0.62493298903E+02  0.00000000000E+00 0. -1.
</event>
<event>
 4    1  0.9897231E-003  0.9118800E+02  0.7818608E-02  0.1130116E+00
         25   -1    0    0    0    0  0.00000000000E+00  0.00000000000E+00  0.99999998245E-14  0.12500000000E+03  0.12500000000E+03 0.  0.
        -13    1    1    0    0    0 -0.10168149615E+02  0.21076276633E+02  0.29329377409E+02  0.37520984083E+02  0.10566000000E+00 0. -1.
         13    1    1    0    0    0 -0.67722166546E+01  0.14164147678E+02  0.19428625833E+02  0.24979364757E+02  0.10566000000E+00 0. -1.
         22    1    1    0    0    0  0.16940366269E+02 -0.35240424311E+02 -0.48758003242E+02  0.62499651160E+02  0.00000000000E+00 0. -1.
</event>
<event>
 4    1  0.9897231E-003  0.9118800E+02  0.7818608E-02  0.1130116E+00
         25   -1    0    0    0    0  0.00000000000E+00  0.00000000000E+00  0.99999998245E-14  0.12500000000E+03  0.12500000000E+03 0.  0.
        -13    1    1    0    0    0  0.46312382464E+00  0.40277093214E+01  0.68072246296E+01  0.79237867998E+01  0.10566000000E+00 0. -1.
         13    1    1    0    0    0  0.20303527406E+01  0.27774147845E+02  0.46937785991E+02  0.54577399522E+02  0.10566000000E+00 0.  1.
         22    1    1    0    0    0 -0.24934765653E+01 -0.31801857167E+02 -0.53745010621E+02  0.62498813679E+02  0.00000000000E+00 0.  1.
</event>
<event>
 4    1  0.9897231E-003  0.9118800E+02  0.7818608E-02  0.1130116E+00
         25   -1    0    0    0    0  0.00000000000E+00  0.00000000000E+00  0.99999998245E-14  0.12500000000E+03  0.12500000000E+03 0.  0.
        -13    1    1    0    0    0  0.14273813349E+02 -0.47507701407E+02  0.28857489192E+02  0.57388930004E+02  0.10566000000E+00 0. -1.
         13    1    1    0    0    0  0.13492810384E+01 -0.47042330192E+01  0.16356588946E+01  0.51610959761E+01  0.10566000000E+00 0.  1.
         22    1    1    0    0    0 -0.15623094387E+02  0.52211934427E+02 -0.30493148087E+02  0.62449974020E+02  0.00000000000E+00 0. -1.
</event>
<event>
 4    1  0.9897231E-003  0.9118800E+02  0.7818608E-02  0.1130116E+00
         25   -1    0    0    0    0  0.00000000000E+00  0.00000000000E+00  0.99999998245E-14  0.12500000000E+03  0.12500000000E+03 0.  0.
        -13    1    1    0    0    0  0.50324538325E+01  0.55042316527E+02  0.24429328674E+02  0.60430004664E+02  0.10566000000E+00 0.  1.
         13    1    1    0    0    0 -0.13417389507E+01  0.17246088909E+00  0.26383385792E+01  0.29668165876E+01  0.10566000000E+00 0. -1.
         22    1    1    0    0    0 -0.36907148818E+01 -0.55214777416E+02 -0.27067667253E+02  0.61603178749E+02  0.00000000000E+00 0.  1.
</event>
<event>
 4    1  0.9897231E-003  0.9118800E+02  0.7818608E-02  0.1130116E+00
         25   -1    0    0    0    0  0.00000000000E+00  0.00000000000E+00  0.99999998245E-14  0.12500000000E+03  0.12500000000E+03 0.  0.
        -13    1    1    0    0    0  0.24980173124E+01 -0.10439096072E+02 -0.10713862126E+01  0.10787671192E+02  0.10566000000E+00 0. -1.
         13    1    1    0    0    0  0.11688784437E+02 -0.50238714342E+02 -0.37167512557E+01  0.51714422595E+02  0.10566000000E+00 0.  1.
         22    1    1    0    0    0 -0.14186801750E+02  0.60677810415E+02  0.47881374682E+01  0.62497906213E+02  0.00000000000E+00 0.  1.
</event>
<event>
 4    1  0.9897231E-003  0.9118800E+02  0.7818608E-02  0.1130116E+00
         25   -1    0    0    0    0  0.00000000000E+00  0.00000000000E+00  0.99999998245E-14  0.12500000000E+03  0.12500000000E+03 0.  0.
        -13    1    1    0    0    0 -0.97508952559E+01 -0.12606301643E+02  0.85587575235E+01  0.18090392306E+02  0.10566000000E+00 0. -1.
         13    1    1    0    0    0 -0.18962303862E+02 -0.22674538026E+02  0.33696280692E+02  0.44823589091E+02  0.10566000000E+00 0.  1.
         22    1    1    0    0    0  0.28713199118E+02  0.35280839669E+02 -0.42255038216E+02  0.62086018603E+02  0.00000000000E+00 0.  1.
</event>
<event>
 4    1  0.9897231E-003  0.9118800E+02  0.7818608E-02  0.1130116E+00
         25   -1    0    0    0    0  0.00000000000E+00  0.00000000000E+00  0.99999998245E-14  0.12500000000E+03  0.12500000000E+03 0.  0.
        -13    1    1    0    0    0 -0.21060707162E+02 -0.70172859532E+01 -0.49908188862E+02  0.54622652516E+02  0.10566000000E+00 0.  1.
         13    1    1    0    0    0 -0.21999665587E+01 -0.24596686401E+01 -0.72376984071E+01  0.79552036395E+01  0.10566000000E+00 0. -1.
         22    1    1    0    0    0  0.23260673721E+02  0.94769545933E+01  0.57145887269E+02  0.62422143844E+02  0.00000000000E+00 0.  1.
</event>
<event>
 4    1  0.9897231E-003  0.9118800E+02  0.7818608E-02  0.1130116E+00
         25   -1    0    0    0    0  0.00000000000E+00  0.00000000000E+00  0.99999998245E-14  0.12500000000E+03  0.12500000000E+03 0.  0.
        -13    1    1    0    0    0 -0.17029292376E+02  0.23521500310E+02  0.39039604980E+02  0.48655520722E+02  0.10566000000E+00 0. -1.
         13    1    1    0    0    0  0.60163815655E+00 -0.41808298242E+01  0.15566762664E+02  0.16129989782E+02  0.10566000000E+00 0.  1.
         22    1    1    0    0    0  0.16427654220E+02 -0.19340670486E+02 -0.54606367644E+02  0.60214489496E+02  0.00000000000E+00 0. -1.
</event>
<event>
 4    1  0.9897231E-003  0.9118800E+02  0.7818608E-02  0.1130116E+00
         25   -1    0    0    0    0  0.00000000000E+00  0.00000000000E+00  0.99999998245E-14  0.12500000000E+03  0.12500000000E+03 0.  0.
        -13    1    1    0    0    0  0.28871318017E+02  0.20945166214E+02  0.24577128200E+02  0.43316271612E+02  0.10566000000E+00 0.  1.
         13    1    1    0    0    0  0.12900822103E+02  0.94070024003E+01  0.10635851571E+02  0.19184770204E+02  0.10566000000E+00 0. -1.
         22    1    1    0    0    0 -0.41772140119E+02 -0.30352168614E+02 -0.35212979772E+02  0.62498958184E+02  0.00000000000E+00 0.  1.
</event>
<event>
 4    1  0.9897231E-003  0.9118800E+02  0.7818608E-02  0.1130116E+00
         25   -1    0    0    0    0  0.00000000000E+00  0.00000000000E+00  0.99999998245E-14  0.12500000000E+03  0.12500000000E+03 0.  0.
        -13    1    1    0    0    0 -0.33835044480E+01 -0.54582234051E+01 -0.19998745885E+00  0.64258434550E+01  0.10566000000E+00 0.  1.
         13    1    1    0    0    0  0.43559824256E+02  0.41952160092E+02  0.15013148911E+02  0.62312501393E+02  0.10566000000E+00 0. -1.
         22    1    1    0    0    0 -0.40176319808E+02 -0.36493936687E+02 -0.14813161452E+02  0.56261655152E+02  0.00000000000E+00 0. -1.
</event>
<event>
 4    1  0.9897231E-003  0.9118800E+02  0.7818608E-02  0.1130116E+00
         25   -1    0    0    0    0  0.00000000000E+00  0.00000000000E+00  0.99999998245E-14  0.12500000000E+03  0.12500000000E+03 0.  0.
        -13    1    1    0    0    0  0.96039041133E+01  0.12110665422E+02 -0.83884051629E+01  0.17586349718E+02  0.10566000000E+00 0. -1.
         13    1    1    0    0    0  0.20502342516E+02  0.30024950601E+02 -0.26484007564E+02  0.44980635033E+02  0.10566000000E+00 0.  1.
         22    1    1    0    0    0 -0.30106246629E+02 -0.42135616023E+02  0.34872412727E+02  0.62433015250E+02  0.00000000000E+00 0.  1.
</event>
<event>
 4    1  0.9897231E-003  0.9118800E+02  0.7818608E-02  0.1130116E+00
         25   -1    0    0    0    0  0.00000000000E+00  0.00000000000E+00  0.99999998245E-14  0.12500000000E+03  0.12500000000E+03 0.  0.
        -13    1    1    0    0    0  0.84527482755E+01  0.33239009444E+02  0.66231321609E+01  0.34930756446E+02  0.10566000000E+00 0. -1.
         13    1    1    0    0    0  0.64214797571E+01  0.26352799198E+02  0.49397459965E+01  0.27570231816E+02  0.10566000000E+00 0. -1.
         22    1    1    0    0    0 -0.14874228033E+02 -0.59591808643E+02 -0.11562878157E+02  0.62499011737E+02  0.00000000000E+00 0. -1.
</event>
<event>
 4    1  0.9897231E-003  0.9118800E+02  0.7818608E-02  0.1130116E+00
         25   -1    0    0    0    0  0.00000000000E+00  0.00000000000E+00  0.99999998245E-14  0.12500000000E+03  0.12500000000E+03 0.  0.
        -13    1    1    0    0    0 -0.49019855997E+01 -0.73601987390E+00 -0.12337496659E+02  0.13296472311E+02  0.10566000000E+00 0. -1.
         13    1    1    0    0    0 -0.16610745302E+02 -0.47415085610E+01 -0.46079328099E+02  0.49210917538E+02  0.10566000000E+00 0. -1.
         22    1    1    0    0    0  0.21512730901E+02  0.54775284349E+01  0.58416824758E+02  0.62492610150E+02  0.00000000000E+00 0. -1.
</event>
<event>
 4    1  0.9897231E-003  0.9118800E+02  0.7818608E-02  0.1130116E+00
         25   -1    0    0    0    0  0.00000000000E+00  0.00000000000E+00  0.99999998245E-14  0.12500000000E+03  0.12500000000E+03 0.  0.
        -13    1    1    0    0    0  0.26582365893E+02  0.29550179744E+02  0.50920551207E+01  0.40072128578E+02  0.10566000000E+00 0.  1.
         13    1    1    0    0    0  0.14715469964E+02  0.16740738828E+02  0.25038918664E+01  0.22429401046E+02  0.10566000000E+00 0. -1.
         22    1    1    0    0    0 -0.41297835857E+02 -0.46290918572E+02 -0.75959469871E+01  0.62498470376E+02  0.00000000000E+00 0.  1.
</event>
<event>
 4    1  0.9897231E-003  0.9118800E+02  0.7818608E-02  0.1130116E+00
         25   -1    0    0    0    0  0.00000000000E+00  0.00000000000E+00  0.99999998245E-14  0.12500000000E+03  0.12500000000E+03 0.  0.
        -13    1    1    0    0    0 -0.36684954923E+02 -0.39259514968E+02  0.15322552631E+02  0.55873850918E+02  0.10566000000E+00 0. -1.
         13    1    1    0    0    0 -0.43932923074E+01 -0.46274814810E+01  0.17854843413E+01  0.66267428291E+01  0.10566000000E+00 0.  1.
         22    1    1    0    0    0  0.41078247231E+02  0.43886996449E+02 -0.17108036972E+02  0.62499406253E+02  0.00000000000E+00 0. -1.
</event>
<event>
 4    1  0.9897231E-003  0.9118800E+02  0.7818608E-02  0.1130116E+00
         25   -1    0    0    0    0  0.00000000000E+00  0.00000000000E+00  0.99999998245E-14  0.12500000000E+03  0.12500000000E+03 0.  0.
        -13    1    1    0    0    0 -0.17964904572E+00  0.83163126453E+00 -0.84180237851E+01  0.84615703520E+01  0.10566000000E+00 0. -1.
         13    1    1    0    0    0 -0.49598102404E+02 -0.28892808033E+02  0.14122645934E+02  0.59111981953E+02  0.10566000000E+00 0.  1.
         22    1    1    0    0    0  0.49777751450E+02  0.28061176769E+02 -0.57046221486E+01  0.57426447695E+02  0.00000000000E+00 0.  1.
</event>
<event>
 4    1  0.9897231E-003  0.9118800E+02  0.7818608E-02  0.1130116E+00
         25   -1    0    0    0    0  0.00000000000E+00  0.00000000000E+00  0.99999998245E-14  0.12500000000E+03  0.12500000000E+03 0.  0.
        -13    1    1    0    0    0 -0.23283183509E+02 -0.29343109138E+02 -0.13575337148E+02  0.39842510349E+02  0.10566000000E+00 0.  1.
         13    1    1    0    0    0 -0.13245152896E+02 -0.16688454032E+02 -0.77084957013E+01  0.22657683978E+02  0.10566000000E+00 0.  1.
         22    1    1    0    0    0  0.36528336405E+02  0.46031563171E+02  0.21283832849E+02  0.62499805673E+02  0.00000000000E+00 0.  1.
</event>
<event>
 4    1  0.9897231E-003  0.9118800E+02  0.7818608E-02  0.1130116E+00
         25   -1    0    0    0    0  0.00000000000E+00  0.00000000000E+00  0.99999998245E-14  0.12500000000E+03  0.12500000000E+03 0.  0.
        -13    1    1    0    0    0 -0.26376480843E+02  0.15715923777E+02 -0.16508884057E+02  0.34860628489E+02  0.10566000000E+00 0. -1.
         13    1    1    0    0    0 -0.20500099569E+02  0.14271799312E+02 -0.11889477897E+02  0.27664222141E+02  0.10566000000E+00 0.  1.
         22    1    1    0    0    0  0.46876580412E+02 -0.29987723089E+02  0.28398361954E+02  0.62475149370E+02  0.00000000000E+00 0.  1.
</event>
<event>
 4    1  0.9897231E-003  0.9118800E+02  0.7818608E-02  0.1130116E+00
         25   -1    0    0    0    0  0.00000000000E+00  0.00000000000E+00  0.99999998245E-14  0.12500000000E+03  0.12500000000E+03 0.  0.
        -13    1    1    0    0    0 -0.25765941796E+01 -0.93251995039E+00  0.49024186573E+02  0.49100819384E+02  0.10566000000E+00 0.  1.
         13    1    1    0    0    0 -0.18279757137E+01  0.80617727539E+00  0.13284790957E+02  0.13434591613E+02  0.10566000000E+00 0. -1.
         22    1    1    0    0    0  0.44045698932E+01  0.12634267500E+00 -0.62308977530E+02  0.62464589002E+02  0.00000000000E+00 0.  1.
</event>
<event>
 4    1  0.9897231E-003  0.9118800E+02  0.7818608E-02  0.1130116E+00
         25   -1    0    0    0    0  0.00000000000E+00  0.00000000000E+00  0.99999998245E-14  0.12500000000E+03  0.12500000000E+03 0.  0.
        -13    1    1    0    0    0  0.39252784737E+02  0.39219060350E+02 -0.16489046080E+02  0.57886229874E+02  0.10566000000E+00 0. -1.
         13    1    1    0    0    0  0.35258033921E+01  0.25308141109E+01 -0.16542619057E+01  0.46458644096E+01  0.10566000000E+00 0.  1.
         22    1    1    0    0    0 -0.42778588129E+02 -0.41749874461E+02  0.18143307986E+02  0.62467905716E+02  0.00000000000E+00 0. -1.
</event>
<event>
 4    1  0.9897231E-003  0.9118800E+02  0.7818608E-02  0.1130116E+00
         25   -1    0    0    0    0  0.00000000000E+00  0.00000000000E+00  0.99999998245E-14  0.12500000000E+03  0.12500000000E+03 0.  0.
        -13    1    1    0    0    0  0.11500398932E+02 -0.27225319770E+02 -0.13685916262E+02  0.32569812406E+02  0.10566000000E+00 0. -1.
         13    1    1    0    0    0  0.24311880926E+02 -0.20457730156E+02  0.43796678675E+01  0.32074583894E+02  0.10566000000E+00 0.  1.
         22    1    1    0    0    0 -0.35812279857E+02  0.47683049927E+02  0.93062483944E+01  0.60355603701E+02  0.00000000000E+00 0.  1.
</event>
<event>
 4    1  0.9897231E-003  0.9118800E+02  0.7818608E-02  0.1130116E+00
         25   -1    0    0    0    0  0.00000000000E+00  0.00000000000E+00  0.99999998245E-14  0.12500000000E+03  0.12500000000E+03 0.  0.
        -13    1    1    0    0    0 -0.83875360947E+01 -0.89709627505E-01  0.61673233030E+02  0.62241125037E+02  0.10566000000E+00 0. -1.
         13    1    1    0    0    0 -0.28077944790E+00  0.18400901645E+00  0.11132889592E+00  0.36912677385E+00  0.10566000000E+00 0.  1.
         22    1    1    0    0    0  0.86683155426E+01 -0.94299388948E-01 -0.61784561926E+02  0.62389748189E+02  0.00000000000E+00 0. -1.
</event>
<event>
 4    1  0.9897231E-003  0.9118800E+02  0.7818608E-02  0.1130116E+00
         25   -1    0    0    0    0  0.00000000000E+00  0.00000000000E+00  0.99999998245E-14  0.12500000000E+03  0.12500000000E+03 0.  0.
        -13    1    1    0    0    0  0.20764858962E+01 -0.10923061919E+02 -0.18438465894E+00  0.11120712077E+02  0.10566000000E+00 0.  1.
         13    1    1    0    0    0  0.88492092365E+01 -0.50592040991E+02 -0.14386332977E+01  0.51380384833E+02  0.10566000000E+00 0. -1.
         22    1    1    0    0    0 -0.10925695133E+02  0.61515102910E+02  0.16230179566E+01  0.62498903090E+02  0.00000000000E+00 0. -1.
</event>
<event>
 4    1  0.9897231E-003  0.9118800E+02  0.7818608E-02  0.1130116E+00
         25   -1    0    0    0    0  0.00000000000E+00  0.00000000000E+00  0.99999998245E-14  0.12500000000E+03  0.12500000000E+03 0.  0.
        -13    1    1    0    0    0 -0.23512431214E+02 -0.19185329903E+02  0.62455222499E+01  0.30982721270E+02  0.10566000000E+00 0.  1.
         13    1    1    0    0    0 -0.24189525348E+02 -0.19178967123E+02  0.63576344739E+01  0.31518194691E+02  0.10566000000E+00 0. -1.
         22    1    1    0    0    0  0.47701956563E+02  0.38364297026E+02 -0.12603156724E+02  0.62499084038E+02  0.00000000000E+00 0.  1.
</event>
<event>
 4    1  0.9897231E-003  0.9118800E+02  0.7818608E-02  0.1130116E+00
         25   -1    0    0    0    0  0.00000000000E+00  0.00000000000E+00  0.99999998245E-14  0.12500000000E+03  0.12500000000E+03 0.  0.
        -13    1    1    0    0    0 -0.44784339532E+02  0.34658276452E+02 -0.22413904410E+01  0.56673346373E+02  0.10566000000E+00 0.  1.
         13    1    1    0    0    0 -0.63946229464E+01 -0.12350181398E+00 -0.11214753673E+01  0.64942533335E+01  0.10566000000E+00 0. -1.
         22    1    1    0    0    0  0.51178962479E+02 -0.34534774638E+02  0.33628658084E+01  0.61832400294E+02  0.00000000000E+00 0.  1.
</event>
<event>
 4    1  0.9897231E-003  0.9118800E+02  0.7818608E-02  0.1130116E+00
         25   -1    0    0    0    0  0.00000000000E+00  0.00000000000E+00  0.99999998245E-14  0.12500000000E+03  0.12500000000E+03 0.  0.
        -13    1    1    0    0    0  0.37174421082E+01  0.20061712786E+02  0.18222706995E+01  0.20484714552E+02  0.10566000000E+00 0.  1.
         13    1    1    0    0    0  0.92156653580E+01  0.40521312235E+02  0.63212495648E+01  0.42034207419E+02  0.10566000000E+00 0. -1.
         22    1    1    0    0    0 -0.12933107466E+02 -0.60583025021E+02 -0.81435202643E+01  0.62481078029E+02  0.00000000000E+00 0.  1.
</event>
<event>
 4    1  0.9897231E-003  0.9118800E+02  0.7818608E-02  0.1130116E+00
         25   -1    0    0    0    0  0.00000000000E+00  0.00000000000E+00  0.99999998245E-14  0.12500000000E+03  0.12500000000E+03 0.  0.
        -13    1    1    0    0    0 -0.78828788720E+01  0.22957483304E+02 -0.25894460722E+02  0.35492535540E+02  0.10566000000E+00 0. -1.
         13    1    1    0    0    0 -0.53496092979E+01  0.18360825401E+02 -0.19081896483E+02  0.27016072373E+02  0.10566000000E+00 0.  1.
         22    1    1    0    0    0  0.13232488170E+02 -0.41318308705E+02  0.44976357205E+02  0.62491392086E+02  0.00000000000E+00 0. -1.
</event>
<event>
 4    1  0.9897231E-003  0.9118800E+02  0.7818608E-02  0.1130116E+00
         25   -1    0    0    0    0  0.00000000000E+00  0.00000000000E+00  0.99999998245E-14  0.12500000000E+03  0.12500000000E+03 0.  0.
        -13    1    1    0    0    0 -0.31434109128E+01  0.33567633455E+01 -0.16700485387E+02  0.17322420977E+02  0.10566000000E+00 0. -1.
         13    1    1    0    0    0 -0.71655701531E+01  0.81502490969E+01 -0.43857287360E+02  0.45180136947E+02  0.10566000000E+00 0.  1.
         22    1    1    0    0    0  0.10308981066E+02 -0.11507012442E+02  0.60557772747E+02  0.62497442076E+02  0.00000000000E+00 0. -1.
</event>
<event>
 4    1  0.9897231E-003  0.9118800E+02  0.7818608E-02  0.1130116E+00
         25   -1    0    0    0    0  0.00000000000E+00  0.00000000000E+00  0.99999998245E-14  0.12500000000E+03  0.12500000000E+03 0.  0.
        -13    1    1    0    0    0 -0.87105676064E+01  0.37062627864E+02 -0.30619042366E+02  0.48857438448E+02  0.10566000000E+00 0. -1.
         13    1    1    0    0    0 -0.24827503414E+01  0.10304939627E+02 -0.85884791456E+01  0.13642909075E+02  0.10566000000E+00 0. -1.
         22    1    1    0    0    0  0.11193317948E+02 -0.47367567491E+02  0.39207521512E+02  0.62499652477E+02  0.00000000000E+00 0. -1.
</event>
<event>
 4    1  0.9897231E-003  0.9118800E+02  0.7818608E-02  0.1130116E+00
         25   -1    0    0    0    0  0.00000000000E+00  0.00000000000E+00  0.99999998245E-14  0.12500000000E+03  0.12500000000E+03 0.  0.
        -13    1    1    0    0    0 -0.18941867375E+02 -0.32743552609E+02 -0.17063316840E+02  0.41498223127E+02  0.10566000000E+00 0. -1.
         13    1    1    0    0    0 -0.68995860001E+01 -0.17073755607E+02 -0.10262438923E+02  0.21081893515E+02  0.10566000000E+00 0.  1.
         22    1    1    0    0    0  0.25841453375E+02  0.49817308216E+02  0.27325755763E+02  0.62419883358E+02  0.00000000000E+00 0. -1.
</event>
<event>
 4    1  0.9897231E-003  0.9118800E+02  0.7818608E-02  0.1130116E+00
         25   -1    0    0    0    0  0.00000000000E+00  0.00000000000E+00  0.99999998245E-14  0.12500000000E+03  0.12500000000E+03 0.  0.
        -13    1    1    0    0    0 -0.36369089700E+02 -0.28674946494E+02 -0.36806254422E+01  0.46459890333E+02  0.10566000000E+00 0.  1.
         13    1    1    0    0    0 -0.16674510620E+02 -0.22130702103E+01 -0.17860648893E+01  0.16915619291E+02  0.10566000000E+00 0. -1.
         22    1    1    0    0    0  0.53043600320E+02  0.30888016705E+02  0.54666903315E+01  0.61624490376E+02  0.00000000000E+00 0.  1.
</event>
<event>
 4    1  0.9897231E-003  0.9118800E+02  0.7818608E-02  0.1130116E+00
         25   -1    0    0    0    0  0.00000000000E+00  0.00000000000E+00  0.99999998245E-14  0.12500000000E+03  0.12500000000E+03 0.  0.
        -13    1    1    0    0    0 -0.15719094066E+01  0.13403652330E+01  0.33345699620E+01  0.39240284158E+01  0.10566000000E+00 0. -1.
         13    1    1    0    0    0 -0.22763244274E+02  0.21613653349E+02  0.49457117264E+02  0.58577580294E+02  0.10566000000E+00 0.  1.
         22    1    1    0    0    0  0.24335153680E+02 -0.22954018582E+02 -0.52791687226E+02  0.62498391290E+02  0.00000000000E+00 0. -1.
</event>
<event>
 4    1  0.9897231E-003  0.9118800E+02  0.7818608E-02  0.1130116E+00
         25   -1    0    0    0    0  0.00000000000E+00  0.00000000000E+00  0.99999998245E-14  0.12500000000E+03  0.12500000000E+03 0.  0.
        -13    1    1    0    0    0  0.10418366655E+01  0.36492422978E+00 -0.27269318840E+01  0.29437925991E+01  0.10566000000E+00 0. -1.
         13    1    1    0    0    0  0.28073947533E+02  0.36542884533E+02 -0.38100051651E+02  0.59792591848E+02  0.10566000000E+00 0.  1.
         22    1    1    0    0    0 -0.29115784198E+02 -0.36907808762E+02  0.40826983535E+02  0.62263615553E+02  0.00000000000E+00 0.  1.
</event>
<event>
 4    1  0.9897231E-003  0.9118800E+02  0.7818608E-02  0.1130116E+00
         25   -1    0    0    0    0  0.00000000000E+00  0.00000000000E+00  0.99999998245E-14  0.12500000000E+03  0.12500000000E+03 0.  0.
        -13    1    1    0    0    0 -0.15969840784E+02 -0.20278454039E+02 -0.63143114001E+00  0.25819786641E+02  0.10566000000E+00 0.  1.
         13    1    1    0    0    0 -0.12834550947E+02 -0.30105751221E+02 -0.19085118480E+02  0.37885813520E+02  0.10566000000E+00 0. -1.
         22    1    1    0    0    0  0.28804391731E+02  0.50384205260E+02  0.19716549620E+02  0.61294399839E+02  0.00000000000E+00 0.  1.
</event>
<event>
 4    1  0.9897231E-003  0.9118800E+02  0.7818608E-02  0.1130116E+00
         25   -1    0    0    0    0  0.00000000000E+00  0.00000000000E+00  0.99999998245E-14  0.12500000000E+03  0.12500000000E+03 0.  0.
        -13    1    1    0    0    0 -0.24152241372E+02  0.10165918855E+02 -0.42389995089E+01  0.26545375309E+02  0.10566000000E+00 0. -1.
         13    1    1    0    0    0 -0.32673399109E+02  0.13827024758E+02 -0.58311354373E+01  0.35954845675E+02  0.10566000000E+00 0. -1.
         22    1    1    0    0    0  0.56825640480E+02 -0.23992943613E+02  0.10070134946E+02  0.62499779016E+02  0.00000000000E+00 0. -1.
</event>
<event>
 4    1  0.9897231E-003  0.9118800E+02  0.7818608E-02  0.1130116E+00
         25   -1    0    0    0    0  0.00000000000E+00  0.00000000000E+00  0.99999998245E-14  0.12500000000E+03  0.12500000000E+03 0.  0.
        -13    1    1    0    0    0  0.97820195140E+01 -0.41534380467E+02  0.29992378212E+02  0.52156941833E+02  0.10566000000E+00 0.  1.
         13    1    1    0    0    0  0.19385145417E+01 -0.80727632336E+01  0.61708185482E+01  0.10344926797E+02  0.10566000000E+00 0. -1.
         22    1    1    0    0    0 -0.11720534056E+02  0.49607143701E+02 -0.36163196760E+02  0.62498131369E+02  0.00000000000E+00 0.  1.
</event>
<event>
 4    1  0.9897231E-003  0.9118800E+02  0.7818608E-02  0.1130116E+00
         25   -1    0    0    0    0  0.00000000000E+00  0.00000000000E+00  0.99999998245E-14  0.12500000000E+03  0.12500000000E+03 0.  0.
        -13    1    1    0    0    0  0.12725533923E+02 -0.21599464606E+02 -0.49081156496E+02  0.55113039944E+02  0.10566000000E+00 0. -1.
         13    1    1    0    0    0  0.66248617579E+01 -0.44728008380E+01 -0.29795167644E+01  0.85313202279E+01  0.10566000000E+00 0.  1.
         22    1    1    0    0    0 -0.19350395681E+02  0.26072265444E+02  0.52060673260E+02  0.61355639828E+02  0.00000000000E+00 0. -1.
</event>
<event>
 4    1  0.9897231E-003  0.9118800E+02  0.7818608E-02  0.1130116E+00
         25   -1    0    0    0    0  0.00000000000E+00  0.00000000000E+00  0.99999998245E-14  0.12500000000E+03  0.12500000000E+03 0.  0.
        -13    1    1    0    0    0  0.94366796782E+01  0.39098644742E+01 -0.43200105489E+01  0.11091060307E+02  0.10566000000E+00 0.  1.
         13    1    1    0    0    0  0.43685747210E+02  0.18936473149E+02 -0.19389676292E+02  0.51410166654E+02  0.10566000000E+00 0. -1.
         22    1    1    0    0    0 -0.53122426889E+02 -0.22846337623E+02  0.23709686841E+02  0.62498773039E+02  0.00000000000E+00 0. -1.
</event>
<event>
 4    1  0.9897231E-003  0.9118800E+02  0.7818608E-02  0.1130116E+00
         25   -1    0    0    0    0  0.00000000000E+00  0.00000000000E+00  0.99999998245E-14  0.12500000000E+03  0.12500000000E+03 0.  0.
        -13    1    1    0    0    0  0.35255266757E+02  0.30673252234E+02 -0.34947609444E+02  0.58353481530E+02  0.10566000000E+00 0.  1.
         13    1    1    0    0    0  0.24396935881E+01  0.22301917850E+01 -0.25031884036E+01  0.41476470946E+01  0.10566000000E+00 0. -1.
         22    1    1    0    0    0 -0.37694960345E+02 -0.32903444019E+02  0.37450797848E+02  0.62498871376E+02  0.00000000000E+00 0.  1.
</event>
<event>
 4    1  0.9897231E-003  0.9118800E+02  0.7818608E-02  0.1130116E+00
         25   -1    0    0    0    0  0.00000000000E+00  0.00000000000E+00  0.99999998245E-14  0.12500000000E+03  0.12500000000E+03 0.  0.
        -13    1    1    0    0    0  0.16219182364E+02  0.27933767632E+02  0.21840659923E+02  0.38992086897E+02  0.10566000000E+00 0.  1.
         13    1    1    0    0    0  0.23195909655E+01  0.17967386894E+02  0.15625836890E+02  0.23924578086E+02  0.10566000000E+00 0. -1.
         22    1    1    0    0    0 -0.18538773330E+02 -0.45901154526E+02 -0.37466496813E+02  0.62083335017E+02  0.00000000000E+00 0. -1.
</event>
<event>
 4    1  0.9897231E-003  0.9118800E+02  0.7818608E-02  0.1130116E+00
         25   -1    0    0    0    0  0.00000000000E+00  0.00000000000E+00  0.99999998245E-14  0.12500000000E+03  0.12500000000E+03 0.  0.
        -13    1    1    0    0    0  0.12227579137E+00 -0.71762521399E+01 -0.33098574988E+01  0.79044207151E+01  0.10566000000E+00 0. -1.
         13    1    1    0    0    0  0.55905767685E+00 -0.49856060617E+02 -0.22244222983E+02  0.54596299745E+02  0.10566000000E+00 0.  1.
         22    1    1    0    0    0 -0.68133346822E+00  0.57032312757E+02  0.25554080482E+02  0.62499279540E+02  0.00000000000E+00 0.  1.
</event>
<event>
 4    1  0.9897231E-003  0.9118800E+02  0.7818608E-02  0.1130116E+00
         25   -1    0    0    0    0  0.00000000000E+00  0.00000000000E+00  0.99999998245E-14  0.12500000000E+03  0.12500000000E+03 0.  0.
        -13    1    1    0    0    0 -0.22563482541E+02  0.31868764182E+02  0.35299588146E+02  0.52638398173E+02  0.10566000000E+00 0.  1.
         13    1    1    0    0    0 -0.10456715183E+02 -0.65189339318E+01  0.60141245461E+01  0.13712047627E+02  0.10566000000E+00 0. -1.
         22    1    1    0    0    0  0.33020197724E+02 -0.25349830250E+02 -0.41313712693E+02  0.58649554200E+02  0.00000000000E+00 0.  1.
</event>
<event>
 4    1  0.9897231E-003  0.9118800E+02  0.7818608E-02  0.1130116E+00
         25   -1    0    0    0    0  0.00000000000E+00  0.00000000000E+00  0.99999998245E-14  0.12500000000E+03  0.12500000000E+03 0.  0.
        -13    1    1    0    0    0  0.11401706885E+01  0.11992367836E+02 -0.42447334901E+02  0.44123738280E+02  0.10566000000E+00 0. -1.
         13    1    1    0    0    0  0.24935978042E+01 -0.28225317207E+01 -0.18630216202E+02  0.19007388960E+02  0.10566000000E+00 0.  1.
         22    1    1    0    0    0 -0.36337684927E+01 -0.91698361149E+01  0.61077551103E+02  0.61868872760E+02  0.00000000000E+00 0.  1.
</event>
<event>
 4    1  0.9897231E-003  0.9118800E+02  0.7818608E-02  0.1130116E+00
         25   -1    0    0    0    0  0.00000000000E+00  0.00000000000E+00  0.99999998245E-14  0.12500000000E+03  0.12500000000E+03 0.  0.
        -13    1    1    0    0    0 -0.46218189394E+01  0.57317463369E+01 -0.11058137998E+02  0.13285620287E+02  0.10566000000E+00 0.  1.
         13    1    1    0    0    0 -0.17538008938E+02  0.19943834919E+02 -0.41436103840E+02  0.49216868798E+02  0.10566000000E+00 0. -1.
         22    1    1    0    0    0  0.22159827878E+02 -0.25675581256E+02  0.52494241838E+02  0.62497510915E+02  0.00000000000E+00 0. -1.
</event>
<event>
 4    1  0.9897231E-003  0.9118800E+02  0.7818608E-02  0.1130116E+00
         25   -1    0    0    0    0  0.00000000000E+00  0.00000000000E+00  0.99999998245E-14  0.12500000000E+03  0.12500000000E+03 0.  0.
        -13    1    1    0    0    0 -0.48758989588E+02  0.24178817061E+02 -0.10636480865E+01  0.54435253020E+02  0.10566000000E+00 0. -1.
         13    1    1    0    0    0 -0.72843780120E+01  0.32205989927E+01  0.18496404667E+01  0.81772094742E+01  0.10566000000E+00 0.  1.
         22    1    1    0    0    0  0.56043367600E+02 -0.27399416054E+02 -0.78599238027E+00  0.62387537506E+02  0.00000000000E+00 0. -1.
</event>
<event>
 4    1  0.9897231E-003  0.9118800E+02  0.7818608E-02  0.1130116E+00
         25   -1    0    0    0    0  0.00000000000E+00  0.00000000000E+00  0.99999998245E-14  0.12500000000E+03  0.12500000000E+03 0.  0.
        -13    1    1    0    0    0 -0.52428067874E+02 -0.19344841867E+02 -0.27805667262E+02  0.62418679126E+02  0.10566000000E+00 0. -1.
         13    1    1    0    0    0 -0.63772996166E-01  0.89911828499E-01  0.84627411492E-01  0.17457653428E+00  0.10566000000E+00 0.  1.
         22    1    1    0    0    0  0.52491840870E+02  0.19254930039E+02  0.27721039851E+02  0.62406744340E+02  0.00000000000E+00 0. -1.
</event>
<event>
 4    1  0.9897231E-003  0.9118800E+02  0.7818608E-02  0.1130116E+00
         25   -1    0    0    0    0  0.00000000000E+00  0.00000000000E+00  0.99999998245E-14  0.12500000000E+03  0.12500000000E+03 0.  0.
        -13    1    1    0    0    0 -0.55518619651E+01  0.84909906153E+01  0.88103180276E+01  0.13436999691E+02  0.10566000000E+00 0.  1.
         13    1    1    0    0    0 -0.37603774691E+02  0.33957899134E+02 -0.48796300872E+01  0.50901912915E+02  0.10566000000E+00 0. -1.
         22    1    1    0    0    0  0.43155636656E+02 -0.42448889749E+02 -0.39306879404E+01  0.60661087394E+02  0.00000000000E+00 0. -1.
</event>
<event>
 4    1  0.9897231E-003  0.9118800E+02  0.7818608E-02  0.1130116E+00
         25   -1    0    0    0    0  0.00000000000E+00  0.00000000000E+00  0.99999998245E-14  0.12500000000E+03  0.12500000000E+03 0.  0.
        -13    1    1    0    0    0 -0.13490139584E+02 -0.39642449010E+02  0.24830993965E+02  0.48683642579E+02  0.10566000000E+00 0.  1.
         13    1    1    0    0    0 -0.40091577124E+01 -0.11397904425E+02  0.67058683655E+01  0.13819023316E+02  0.10566000000E+00 0.  1.
         22    1    1    0    0    0  0.17499297296E+02  0.51040353434E+02 -0.31536862330E+02  0.62497334105E+02  0.00000000000E+00 0.  1.
</event>
<event>
 4    1  0.9897231E-003  0.9118800E+02  0.7818608E-02  0.1130116E+00
         25   -1    0    0    0    0  0.00000000000E+00  0.00000000000E+00  0.99999998245E-14  0.12500000000E+03  0.12500000000E+03 0.  0.
        -13    1    1    0    0    0 -0.64951467697E+00  0.15271786417E+01  0.13500463261E+01  0.21419460865E+01  0.10566000000E+00 0. -1.
         13    1    1    0    0    0 -0.18087695629E+02  0.43300203550E+02  0.37962825764E+02  0.60359420679E+02  0.10566000000E+00 0. -1.
         22    1    1    0    0    0  0.18737210306E+02 -0.44827382192E+02 -0.39312872090E+02  0.62498633235E+02  0.00000000000E+00 0. -1.
</event>
<event>
 4    1  0.9897231E-003  0.9118800E+02  0.7818608E-02  0.1130116E+00
         25   -1    0    0    0    0  0.00000000000E+00  0.00000000000E+00  0.99999998245E-14  0.12500000000E+03  0.12500000000E+03 0.  0.
        -13    1    1    0    0    0 -0.22690330165E+01  0.21525584870E+02  0.10783181727E+02  0.24182379681E+02  0.10566000000E+00 0.  1.
         13    1    1    0    0    0  0.38684768873E+00  0.32625966698E+02  0.20224794543E+02  0.38388238205E+02  0.10566000000E+00 0. -1.
         22    1    1    0    0    0  0.18821853278E+01 -0.54151551569E+02 -0.31007976269E+02  0.62429382115E+02  0.00000000000E+00 0. -1.
</event>
<event>
 4    1  0.9897231E-003  0.9118800E+02  0.7818608E-02  0.1130116E+00
         25   -1    0    0    0    0  0.00000000000E+00  0.00000000000E+00  0.99999998245E-14  0.12500000000E+03  0.12500000000E+03 0.  0.
        -13    1    1    0    0    0 -0.46087270045E+02  0.22933157241E+02  0.22920682017E+02  0.56350110819E+02  0.10566000000E+00 0.  1.
         13    1    1    0    0    0 -0.53061643585E+01  0.19932078815E+01  0.24171722103E+01  0.61629654703E+01  0.10566000000E+00 0. -1.
         22    1    1    0    0    0  0.51393434403E+02 -0.24926365122E+02 -0.25337854227E+02  0.62486923710E+02  0.00000000000E+00 0.  1.
</event>
<event>
 4    1  0.9897231E-003  0.9118800E+02  0.7818608E-02  0.1130116E+00
         25   -1    0    0    0    0  0.00000000000E+00  0.00000000000E+00  0.99999998245E-14  0.12500000000E+03  0.12500000000E+03 0.  0.
        -13    1    1    0    0    0  0.90394121753E+01 -0.82592021516E+01  0.34413644208E+01  0.12719258853E+02  0.10566000000E+00 0. -1.
         13    1    1    0    0    0  0.35806242902E+02 -0.32115211502E+02  0.12834665096E+02  0.49781659602E+02  0.10566000000E+00 0.  1.
         22    1    1    0    0    0 -0.44845655077E+02  0.40374413654E+02 -0.16276029517E+02  0.62499081545E+02  0.00000000000E+00 0.  1.
</event>
<event>
 4    1  0.9897231E-003  0.9118800E+02  0.7818608E-02  0.1130116E+00
         25   -1    0    0    0    0  0.00000000000E+00  0.00000000000E+00  0.99999998245E-14  0.12500000000E+03  0.12500000000E+03 0.  0.
        -13    1    1    0    0    0 -0.26333645806E+01  0.21106616616E+01 -0.47312592711E+00  0.34094741299E+01  0.10566000000E+00 0.  1.
         13    1    1    0    0    0 -0.40261152590E+02  0.42176697039E+02 -0.96773048205E+01  0.59105799830E+02  0.10566000000E+00 0.  1.
         22    1    1    0    0    0  0.42894517170E+02 -0.44287358700E+02  0.10150430748E+02  0.62484726040E+02  0.00000000000E+00 0.  1.
</event>
<event>
 4    1  0.9897231E-003  0.9118800E+02  0.7818608E-02  0.1130116E+00
         25   -1    0    0    0    0  0.00000000000E+00  0.00000000000E+00  0.99999998245E-14  0.12500000000E+03  0.12500000000E+03 0.  0.
        -13    1    1    0    0    0  0.73791848482E+01 -0.79807756270E+01  0.25892965822E+01  0.11174111574E+02  0.10566000000E+00 0. -1.
         13    1    1    0    0    0  0.23766299932E+02 -0.20250659834E+02  0.42137706612E+02  0.52445435633E+02  0.10566000000E+00 0.  1.
         22    1    1    0    0    0 -0.31145484780E+02  0.28231435461E+02 -0.44727003194E+02  0.61380452793E+02  0.00000000000E+00 0.  1.
</event>
<event>
 4    1  0.9897231E-003  0.9118800E+02  0.7818608E-02  0.1130116E+00
         25   -1    0    0    0    0  0.00000000000E+00  0.00000000000E+00  0.99999998245E-14  0.12500000000E+03  0.12500000000E+03 0.  0.
        -13    1    1    0    0    0  0.29743766814E+02  0.39638470020E+02 -0.20109800180E+02  0.53481914673E+02  0.10566000000E+00 0. -1.
         13    1    1    0    0    0  0.51121266850E+01  0.65471169146E+01 -0.35129788475E+01  0.90194658132E+01  0.10566000000E+00 0. -1.
         22    1    1    0    0    0 -0.34855893499E+02 -0.46185586935E+02  0.23622779027E+02  0.62498619513E+02  0.00000000000E+00 0. -1.
</event>
<event>
 4    1  0.9897231E-003  0.9118800E+02  0.7818608E-02  0.1130116E+00
         25   -1    0    0    0    0  0.00000000000E+00  0.00000000000E+00  0.99999998245E-14  0.12500000000E+03  0.12500000000E+03 0.  0.
        -13    1    1    0    0    0 -0.45022254987E+01  0.61973695790E+00 -0.72107582807E+01  0.85241015571E+01  0.10566000000E+00 0.  1.
         13    1    1    0    0    0 -0.27596672520E+02  0.20652895581E+01 -0.46345551138E+02  0.53979283335E+02  0.10566000000E+00 0.  1.
         22    1    1    0    0    0  0.32098898019E+02 -0.26850265160E+01  0.53556309418E+02  0.62496615107E+02  0.00000000000E+00 0.  1.
</event>
<event>
 4    1  0.9897231E-003  0.9118800E+02  0.7818608E-02  0.1130116E+00
         25   -1    0    0    0    0  0.00000000000E+00  0.00000000000E+00  0.99999998245E-14  0.12500000000E+03  0.12500000000E+03 0.  0.
        -13    1    1    0    0    0 -0.27476197882E+01  0.16632971197E+02 -0.26338984420E+02  0.31272326578E+02  0.10566000000E+00 0.  1.
         13    1    1    0    0    0 -0.25575251148E+01 -0.24101104739E+02 -0.28909441075E+02  0.37724940446E+02  0.10566000000E+00 0. -1.
         22    1    1    0    0    0  0.53051449030E+01  0.74681335429E+01  0.55248425495E+02  0.56002732975E+02  0.00000000000E+00 0.  1.
</event>
<event>
 4    1  0.9897231E-003  0.9118800E+02  0.7818608E-02  0.1130116E+00
         25   -1    0    0    0    0  0.00000000000E+00  0.00000000000E+00  0.99999998245E-14  0.12500000000E+03  0.12500000000E+03 0.  0.
        -13    1    1    0    0    0 -0.43959815390E+00  0.16020199707E+00  0.10309612000E+01  0.11370823402E+01  0.10566000000E+00 0.  1.
         13    1    1    0    0    0 -0.26517938484E+02 -0.49530904213E+00  0.55345179351E+02  0.61372195935E+02  0.10566000000E+00 0.  1.
         22    1    1    0    0    0  0.26957536638E+02  0.33510704506E+00 -0.56376140551E+02  0.62490721725E+02  0.00000000000E+00 0.  1.
</event>
<event>
 4    1  0.9897231E-003  0.9118800E+02  0.7818608E-02  0.1130116E+00
         25   -1    0    0    0    0  0.00000000000E+00  0.00000000000E+00  0.99999998245E-14  0.12500000000E+03  0.12500000000E+03 0.  0.
        -13    1    1    0    0    0  0.24750959529E+02 -0.33476643802E+02  0.93776584470E+00  0.41643561887E+02  0.10566000000E+00 0. -1.
         13    1    1    0    0    0  0.13563373344E+00 -0.14789816861E+02 -0.20809247123E+02  0.25530237154E+02  0.10566000000E+00 0.  1.
         22    1    1    0    0    0 -0.24886593262E+02  0.48266460663E+02  0.19871481278E+02  0.57826200959E+02  0.00000000000E+00 0.  1.
</event>
<event>
 4    1  0.9897231E-003  0.9118800E+02  0.7818608E-02  0.1130116E+00
         25   -1    0    0    0    0  0.00000000000E+00  0.00000000000E+00  0.99999998245E-14  0.12500000000E+03  0.12500000000E+03 0.  0.
        -13    1    1    0    0    0  0.27834715823E+01 -0.36261916844E+00  0.28986472781E+01  0.40364002266E+01  0.10566000000E+00 0. -1.
         13    1    1    0    0    0 -0.10808949102E+02  0.50733314515E+02  0.30330193783E+02  0.60088554662E+02  0.10566000000E+00 0.  1.
         22    1    1    0    0    0  0.80254775194E+01 -0.50370695347E+02 -0.33228841061E+02  0.60875045112E+02  0.00000000000E+00 0.  1.
</event>
<event>
 4    1  0.9897231E-003  0.9118800E+02  0.7818608E-02  0.1130116E+00
         25   -1    0    0    0    0  0.00000000000E+00  0.00000000000E+00  0.99999998245E-14  0.12500000000E+03  0.12500000000E+03 0.  0.
        -13    1    1    0    0    0  0.14502725636E+02  0.48089225986E+02 -0.34917284073E+02  0.61172956426E+02  0.10566000000E+00 0.  1.
         13    1    1    0    0    0  0.19573227200E+01  0.56749322962E+00  0.17082867830E+01  0.26613095582E+01  0.10566000000E+00 0. -1.
         22    1    1    0    0    0 -0.16460048356E+02 -0.48656719216E+02  0.33208997290E+02  0.61165734016E+02  0.00000000000E+00 0.  1.
</event>
<event>
 4    1  0.9897231E-003  0.9118800E+02  0.7818608E-02  0.1130116E+00
         25   -1    0    0    0    0  0.00000000000E+00  0.00000000000E+00  0.99999998245E-14  0.12500000000E+03  0.12500000000E+03 0.  0.
        -13    1    1    0    0    0  0.50937952381E+02  0.12597221121E+02 -0.13887641273E+02  0.54279302841E+02  0.10566000000E+00 0. -1.
         13    1    1    0    0    0  0.76567254351E+01  0.21234574398E+01 -0.21124122703E+01  0.82224063097E+01  0.10566000000E+00 0.  1.
         22    1    1    0    0    0 -0.58594677816E+02 -0.14720678561E+02  0.16000053543E+02  0.62498290849E+02  0.00000000000E+00 0. -1.
</event>
<event>
 4    1  0.9897231E-003  0.9118800E+02  0.7818608E-02  0.1130116E+00
         25   -1    0    0    0    0  0.00000000000E+00  0.00000000000E+00  0.99999998245E-14  0.12500000000E+03  0.12500000000E+03 0.  0.
        -13    1    1    0    0    0 -0.45517249312E+02 -0.20777165638E+02 -0.52257477101E+01  0.50307357316E+02  0.10566000000E+00 0. -1.
         13    1    1    0    0    0 -0.10580381028E+02 -0.59510421536E+01 -0.13103954935E+01  0.12210146019E+02  0.10566000000E+00 0.  1.
         22    1    1    0    0    0  0.56097630340E+02  0.26728207792E+02  0.65361432036E+01  0.62482496666E+02  0.00000000000E+00 0. -1.
</event>
<event>
 4    1  0.9897231E-003  0.9118800E+02  0.7818608E-02  0.1130116E+00
         25   -1    0    0    0    0  0.00000000000E+00  0.00000000000E+00  0.99999998245E-14  0.12500000000E+03  0.12500000000E+03 0.  0.
        -13    1    1    0    0    0 -0.47515024270E+01  0.13365017776E+01 -0.41183473978E+00  0.49541683665E+01  0.10566000000E+00 0. -1.
         13    1    1    0    0    0 -0.32535645298E+02  0.44338568159E+02 -0.18661656916E+02  0.58075342825E+02  0.10566000000E+00 0.  1.
         22    1    1    0    0    0  0.37287147725E+02 -0.45675069937E+02  0.19073491656E+02  0.61970488808E+02  0.00000000000E+00 0.  1.
</event>
<event>
 4    1  0.9897231E-003  0.9118800E+02  0.7818608E-02  0.1130116E+00
         25   -1    0    0    0    0  0.00000000000E+00  0.00000000000E+00  0.99999998245E-14  0.12500000000E+03  0.12500000000E+03 0.  0.
        -13    1    1    0    0    0 -0.20721665485E+02 -0.21271035338E+01 -0.35260444988E+00  0.20833806274E+02  0.10566000000E+00 0.  1.
         13    1    1    0    0    0 -0.37368327969E+02  0.44236556915E+01 -0.19946079112E+02  0.42588941063E+02  0.10566000000E+00 0. -1.
         22    1    1    0    0    0  0.58089993454E+02 -0.22965521577E+01  0.20298683562E+02  0.61577252664E+02  0.00000000000E+00 0. -1.
</event>
<event>
 4    1  0.9897231E-003  0.9118800E+02  0.7818608E-02  0.1130116E+00
         25   -1    0    0    0    0  0.00000000000E+00  0.00000000000E+00  0.99999998245E-14  0.12500000000E+03  0.12500000000E+03 0.  0.
        -13    1    1    0    0    0  0.27982697745E+01 -0.79312903588E+01 -0.92806408802E+01  0.12525060466E+02  0.10566000000E+00 0. -1.
         13    1    1    0    0    0 -0.15590579493E+01 -0.29978281446E+02 -0.40173406763E+02  0.50150192374E+02  0.10566000000E+00 0.  1.
         22    1    1    0    0    0 -0.12392118252E+01  0.37909571805E+02  0.49454047643E+02  0.62324747161E+02  0.00000000000E+00 0.  1.
</event>
<event>
 4    1  0.9897231E-003  0.9118800E+02  0.7818608E-02  0.1130116E+00
         25   -1    0    0    0    0  0.00000000000E+00  0.00000000000E+00  0.99999998245E-14  0.12500000000E+03  0.12500000000E+03 0.  0.
        -13    1    1    0    0    0  0.24658233597E+01  0.11437952181E+01  0.75957010633E+01  0.80681095073E+01  0.10566000000E+00 0. -1.
         13    1    1    0    0    0 -0.57554989556E+02  0.75025836908E+01  0.90354017002E+01  0.58741086411E+02  0.10566000000E+00 0.  1.
         22    1    1    0    0    0  0.55089166197E+02 -0.86463789089E+01 -0.16631102764E+02  0.58190804081E+02  0.00000000000E+00 0.  1.
</event>
<event>
 4    1  0.9897231E-003  0.9118800E+02  0.7818608E-02  0.1130116E+00
         25   -1    0    0    0    0  0.00000000000E+00  0.00000000000E+00  0.99999998245E-14  0.12500000000E+03  0.12500000000E+03 0.  0.
        -13    1    1    0    0    0  0.28787509012E+01  0.38511544544E+01 -0.21279616336E+01  0.52590856745E+01  0.10566000000E+00 0. -1.
         13    1    1    0    0    0  0.31282357814E+02  0.41342148109E+02 -0.24266927456E+02  0.57242065414E+02  0.10566000000E+00 0. -1.
         22    1    1    0    0    0 -0.34161108715E+02 -0.45193302564E+02  0.26394889089E+02  0.62498848912E+02  0.00000000000E+00 0. -1.
</event>
<event>
 4    1  0.9897231E-003  0.9118800E+02  0.7818608E-02  0.1130116E+00
         25   -1    0    0    0    0  0.00000000000E+00  0.00000000000E+00  0.99999998245E-14  0.12500000000E+03  0.12500000000E+03 0.  0.
        -13    1    1    0    0    0 -0.77125982938E+00 -0.44249800607E+00  0.46191594706E+01  0.47051508435E+01  0.10566000000E+00 0.  1.
         13    1    1    0    0    0 -0.74767595616E+01 -0.67467686958E+01  0.56913115662E+02  0.57797359107E+02  0.10566000000E+00 0.  1.
         22    1    1    0    0    0  0.82480193910E+01  0.71892667019E+01 -0.61532275132E+02  0.62497490050E+02  0.00000000000E+00 0.  1.
</event>
<event>
 4    1  0.9897231E-003  0.9118800E+02  0.7818608E-02  0.1130116E+00
         25   -1    0    0    0    0  0.00000000000E+00  0.00000000000E+00  0.99999998245E-14  0.12500000000E+03  0.12500000000E+03 0.  0.
        -13    1    1    0    0    0  0.24317854570E+02 -0.19197520444E+01  0.72828532755E+01  0.25457702463E+02  0.10566000000E+00 0.  1.
         13    1    1    0    0    0  0.35686252278E+02 -0.26965803731E+01  0.95702368010E+01  0.37045657557E+02  0.10566000000E+00 0. -1.
         22    1    1    0    0    0 -0.60004106849E+02  0.46163324174E+01 -0.16853090077E+02  0.62496639980E+02  0.00000000000E+00 0.  1.
</event>
<event>
 4    1  0.9897231E-003  0.9118800E+02  0.7818608E-02  0.1130116E+00
         25   -1    0    0    0    0  0.00000000000E+00  0.00000000000E+00  0.99999998245E-14  0.12500000000E+03  0.12500000000E+03 0.  0.
        -13    1    1    0    0    0  0.20900089017E+01 -0.30447585022E+02 -0.22777828482E+01  0.30604297568E+02  0.10566000000E+00 0.  1.
         13    1    1    0    0    0 -0.24882416871E+01 -0.31905188733E+02  0.14831646747E+01  0.32036594018E+02  0.10566000000E+00 0. -1.
         22    1    1    0    0    0  0.39823278541E+00  0.62352773755E+02  0.79461817347E+00  0.62359108415E+02  0.00000000000E+00 0.  1.
</event>
<event>
 4    1  0.9897231E-003  0.9118800E+02  0.7818608E-02  0.1130116E+00
         25   -1    0    0    0    0  0.00000000000E+00  0.00000000000E+00  0.99999998245E-14  0.12500000000E+03  0.12500000000E+03 0.  0.
        -13    1    1    0    0    0 -0.22482386740E+02 -0.15361963862E+02  0.32177862180E+02  0.42152978848E+02  0.10566000000E+00 0. -1.
         13    1    1    0    0    0 -0.11190124608E+02 -0.73407944701E+01  0.15327970176E+02  0.20348562258E+02  0.10566000000E+00 0.  1.
         22    1    1    0    0    0  0.33672511348E+02  0.22702758332E+02 -0.47505832356E+02  0.62498458895E+02  0.00000000000E+00 0. -1.
</event>
<event>
 4    1  0.9897231E-003  0.9118800E+02  0.7818608E-02  0.1130116E+00
         25   -1    0    0    0    0  0.00000000000E+00  0.00000000000E+00  0.99999998245E-14  0.12500000000E+03  0.12500000000E+03 0.  0.
        -13    1    1    0    0    0  0.46590962822E+02  0.31829670185E+02  0.97057289355E+00  0.56434022509E+02  0.10566000000E+00 0.  1.
         13    1    1    0    0    0  0.61142951118E+01  0.12694423208E+01 -0.10263238422E+01  0.63293438194E+01  0.10566000000E+00 0. -1.
         22    1    1    0    0    0 -0.52705257934E+02 -0.33099112506E+02  0.55750948606E-01  0.62236633671E+02  0.00000000000E+00 0.  1.
</event>
<event>
 4    1  0.9897231E-003  0.9118800E+02  0.7818608E-02  0.1130116E+00
         25   -1    0    0    0    0  0.00000000000E+00  0.00000000000E+00  0.99999998245E-14  0.12500000000E+03  0.12500000000E+03 0.  0.
        -13    1    1    0    0    0  0.96101765439E+01  0.78432066267E+01  0.27940242985E+02  0.30570242484E+02  0.10566000000E+00 0. -1.
         13    1    1    0    0    0  0.77473042337E+01  0.79765432033E+01  0.29955034301E+02  0.31952483603E+02  0.10566000000E+00 0.  1.
         22    1    1    0    0    0 -0.17357480778E+02 -0.15819749830E+02 -0.57895277286E+02  0.62477273914E+02  0.00000000000E+00 0. -1.
</event>
<event>
 4    1  0.9897231E-003  0.9118800E+02  0.7818608E-02  0.1130116E+00
         25   -1    0    0    0    0  0.00000000000E+00  0.00000000000E+00  0.99999998245E-14  0.12500000000E+03  0.12500000000E+03 0.  0.
        -13    1    1    0    0    0 -0.31415248803E+02 -0.10125529449E+01  0.96623234578E+01  0.32883351099E+02  0.10566000000E+00 0.  1.
         13    1    1    0    0    0 -0.27489207063E+02 -0.29171814692E+01  0.10737691560E+02  0.29655954491E+02  0.10566000000E+00 0. -1.
         22    1    1    0    0    0  0.58904455867E+02  0.39297344141E+01 -0.20400015018E+02  0.62460694410E+02  0.00000000000E+00 0. -1.
</event>
<event>
 4    1  0.9897231E-003  0.9118800E+02  0.7818608E-02  0.1130116E+00
         25   -1    0    0    0    0  0.00000000000E+00  0.00000000000E+00  0.99999998245E-14  0.12500000000E+03  0.12500000000E+03 0.  0.
        -13    1    1    0    0    0 -0.66306097323E+01  0.76429803835E+01  0.85303552609E+01  0.13234736850E+02  0.10566000000E+00 0. -1.
         13    1    1    0    0    0 -0.24376493208E+02  0.28279693546E+02  0.32142741939E+02  0.49265824986E+02  0.10566000000E+00 0. -1.
         22    1    1    0    0    0  0.31007102940E+02 -0.35922673930E+02 -0.40673097200E+02  0.62499438164E+02  0.00000000000E+00 0. -1.
</event>
<event>
 4    1  0.9897231E-003  0.9118800E+02  0.7818608E-02  0.1130116E+00
         25   -1    0    0    0    0  0.00000000000E+00  0.00000000000E+00  0.99999998245E-14  0.12500000000E+03  0.12500000000E+03 0.  0.
        -13    1    1    0    0    0 -0.19653949628E+02 -0.30532792672E+02 -0.21498653586E+02  0.42198725507E+02  0.10566000000E+00 0.  1.
         13    1    1    0    0    0 -0.94758082871E+01 -0.14707270113E+02 -0.10297817705E+02  0.20301501185E+02  0.10566000000E+00 0.  1.
         22    1    1    0    0    0  0.29129757915E+02  0.45240062785E+02  0.31796471291E+02  0.62499773308E+02  0.00000000000E+00 0.  1.
</event>
<event>
 4    1  0.9897231E-003  0.9118800E+02  0.7818608E-02  0.1130116E+00
         25   -1    0    0    0    0  0.00000000000E+00  0.00000000000E+00  0.99999998245E-14  0.12500000000E+03  0.12500000000E+03 0.  0.
        -13    1    1    0    0    0  0.16529902158E+02  0.21803828836E+02  0.54942545517E+01  0.27907751869E+02  0.10566000000E+00 0.  1.
         13    1    1    0    0    0  0.19954710312E+02  0.27377921531E+02  0.69988021637E+01  0.34593864294E+02  0.10566000000E+00 0. -1.
         22    1    1    0    0    0 -0.36484612471E+02 -0.49181750366E+02 -0.12493056715E+02  0.62498383838E+02  0.00000000000E+00 0. -1.
</event>
<event>
 4    1  0.9897231E-003  0.9118800E+02  0.7818608E-02  0.1130116E+00
         25   -1    0    0    0    0  0.00000000000E+00  0.00000000000E+00  0.99999998245E-14  0.12500000000E+03  0.12500000000E+03 0.  0.
        -13    1    1    0    0    0  0.14207048209E+02 -0.54719614194E+01  0.38103900961E+02  0.41032925962E+02  0.10566000000E+00 0. -1.
         13    1    1    0    0    0  0.67487729109E+01 -0.19100012180E+01  0.20301089304E+02  0.21478813548E+02  0.10566000000E+00 0.  1.
         22    1    1    0    0    0 -0.20955821120E+02  0.73819626374E+01 -0.58404990265E+02  0.62488260490E+02  0.00000000000E+00 0. -1.
</event>
<event>
 4    1  0.9897231E-003  0.9118800E+02  0.7818608E-02  0.1130116E+00
         25   -1    0    0    0    0  0.00000000000E+00  0.00000000000E+00  0.99999998245E-14  0.12500000000E+03  0.12500000000E+03 0.  0.
        -13    1    1    0    0    0 -0.77806323843E+00  0.90892845451E+01 -0.45336466129E+01  0.10187521366E+02  0.10566000000E+00 0. -1.
         13    1    1    0    0    0 -0.10327595451E+02  0.45833189315E+02 -0.23078296299E+02  0.52344621449E+02  0.10566000000E+00 0.  1.
         22    1    1    0    0    0  0.11105658689E+02 -0.54922473860E+02  0.27611942912E+02  0.62467857184E+02  0.00000000000E+00 0.  1.
</event>
<event>
 4    1  0.9897231E-003  0.9118800E+02  0.7818608E-02  0.1130116E+00
         25   -1    0    0    0    0  0.00000000000E+00  0.00000000000E+00  0.99999998245E-14  0.12500000000E+03  0.12500000000E+03 0.  0.
        -13    1    1    0    0    0  0.81966971332E+00 -0.28781782320E+01 -0.43112225612E+00  0.30253592860E+01  0.10566000000E+00 0. -1.
         13    1    1    0    0    0 -0.39672635144E+02 -0.43140942363E+02 -0.13529092328E+02  0.60150697340E+02  0.10566000000E+00 0.  1.
         22    1    1    0    0    0  0.38852965431E+02  0.46019120595E+02  0.13960214584E+02  0.61823943374E+02  0.00000000000E+00 0.  1.
</event>
<event>
 4    1  0.9897231E-003  0.9118800E+02  0.7818608E-02  0.1130116E+00
         25   -1    0    0    0    0  0.00000000000E+00  0.00000000000E+00  0.99999998245E-14  0.12500000000E+03  0.12500000000E+03 0.  0.
        -13    1    1    0    0    0 -0.66354075051E+00 -0.52437507685E+01 -0.17972881007E+02  0.18734268712E+02  0.10566000000E+00 0. -1.
         13    1    1    0    0    0 -0.23243310383E+00 -0.12051306835E+02 -0.42076430782E+02  0.43768998309E+02  0.10566000000E+00 0.  1.
         22    1    1    0    0    0  0.89597385435E+00  0.17295057603E+02  0.60049311789E+02  0.62496732979E+02  0.00000000000E+00 0.  1.
</event>
<event>
 4    1  0.9897231E-003  0.9118800E+02  0.7818608E-02  0.1130116E+00
         25   -1    0    0    0    0  0.00000000000E+00  0.00000000000E+00  0.99999998245E-14  0.12500000000E+03  0.12500000000E+03 0.  0.
        -13    1    1    0    0    0 -0.26584726255E+02  0.42427510863E+01 -0.35736428754E+02  0.44742061988E+02  0.10566000000E+00 0. -1.
         13    1    1    0    0    0 -0.10658295766E+02  0.15543185343E+01 -0.14118691046E+02  0.17758484609E+02  0.10566000000E+00 0.  1.
         22    1    1    0    0    0  0.37243022021E+02 -0.57970696206E+01  0.49855119799E+02  0.62499453403E+02  0.00000000000E+00 0. -1.
</event>
<event>
 4    1  0.9897231E-003  0.9118800E+02  0.7818608E-02  0.1130116E+00
         25   -1    0    0    0    0  0.00000000000E+00  0.00000000000E+00  0.99999998245E-14  0.12500000000E+03  0.12500000000E+03 0.  0.
        -13    1    1    0    0    0  0.14813543317E+02 -0.41512980641E+02 -0.36980553900E+02  0.57535564290E+02  0.10566000000E+00 0.  1.
         13    1    1    0    0    0 -0.85284612539E+00 -0.39996245759E+01 -0.31799751964E+01  0.51814814047E+01  0.10566000000E+00 0. -1.
         22    1    1    0    0    0 -0.13960697192E+02  0.45512605217E+02  0.40160529097E+02  0.62282954306E+02  0.00000000000E+00 0.  1.
</event>
<event>
 4    1  0.9897231E-003  0.9118800E+02  0.7818608E-02  0.1130116E+00
         25   -1    0    0    0    0  0.00000000000E+00  0.00000000000E+00  0.99999998245E-14  0.12500000000E+03  0.12500000000E+03 0.  0.
        -13    1    1    0    0    0 -0.34889450808E+02  0.24884976729E+01  0.39868934799E+02  0.53037812214E+02  0.10566000000E+00 0.  1.
         13    1    1    0    0    0 -0.58755663179E+01  0.57250080491E+00  0.74008272517E+01  0.94674941127E+01  0.10566000000E+00 0. -1.
         22    1    1    0    0    0  0.40765017126E+02 -0.30609984779E+01 -0.47269762051E+02  0.62494693673E+02  0.00000000000E+00 0.  1.
</event>
<event>
 4    1  0.9897231E-003  0.9118800E+02  0.7818608E-02  0.1130116E+00
         25   -1    0    0    0    0  0.00000000000E+00  0.00000000000E+00  0.99999998245E-14  0.12500000000E+03  0.12500000000E+03 0.  0.
        -13    1    1    0    0    0  0.16794730273E+01  0.24538793803E+01  0.17117297649E+02  0.17373980445E+02  0.10566000000E+00 0. -1.
         13    1    1    0    0    0 -0.53182177474E+02 -0.62723263585E+01 -0.16295729139E+02  0.55975423456E+02  0.10566000000E+00 0.  1.
         22    1    1    0    0    0  0.51502704447E+02  0.38184469782E+01 -0.82156850979E+00  0.51650596100E+02  0.00000000000E+00 0.  1.
</event>
<event>
 4    1  0.9897231E-003  0.9118800E+02  0.7818608E-02  0.1130116E+00
         25   -1    0    0    0    0  0.00000000000E+00  0.00000000000E+00  0.99999998245E-14  0.12500000000E+03  0.12500000000E+03 0.  0.
        -13    1    1    0    0    0 -0.12332372139E+02 -0.13875177512E+02 -0.26475383659E+02  0.32335198430E+02  0.10566000000E+00 0.  1.
         13    1    1    0    0    0 -0.11030991495E+02 -0.12113492399E+02 -0.25334492547E+02  0.30170633869E+02  0.10566000000E+00 0. -1.
         22    1    1    0    0    0  0.23363363634E+02  0.25988669911E+02  0.51809876206E+02  0.62494167700E+02  0.00000000000E+00 0.  1.
</event>
<event>
 4    1  0.9897231E-003  0.9118800E+02  0.7818608E-02  0.1130116E+00
         25   -1    0    0    0    0  0.00000000000E+00  0.00000000000E+00  0.99999998245E-14  0.12500000000E+03  0.12500000000E+03 0.  0.
        -13    1    1    0    0    0  0.22554124517E+02 -0.29049487108E+02  0.31362193236E+01  0.36910815077E+02  0.10566000000E+00 0. -1.
         13    1    1    0    0    0  0.19856186919E+02 -0.15610405962E+02  0.56360090193E+01  0.25879116966E+02  0.10566000000E+00 0.  1.
         22    1    1    0    0    0 -0.42410311436E+02  0.44659893070E+02 -0.87722283429E+01  0.62210067957E+02  0.00000000000E+00 0.  1.
</event>
<event>
 4    1  0.9897231E-003  0.9118800E+02  0.7818608E-02  0.1130116E+00
         25   -1    0    0    0    0  0.00000000000E+00  0.00000000000E+00  0.99999998245E-14  0.12500000000E+03  0.12500000000E+03 0.  0.
        -13    1    1    0    0    0 -0.39569356304E+02  0.18856636978E+02  0.99638786469E+01  0.44951048466E+02  0.10566000000E+00 0.  1.
         13    1    1    0    0    0 -0.16002041810E+02  0.61121415794E+01  0.39001056442E+01  0.17568312521E+02  0.10566000000E+00 0. -1.
         22    1    1    0    0    0  0.55571398114E+02 -0.24968778557E+02 -0.13863984291E+02  0.62480639013E+02  0.00000000000E+00 0.  1.
</event>
<event>
 4    1  0.9897231E-003  0.9118800E+02  0.7818608E-02  0.1130116E+00
         25   -1    0    0    0    0  0.00000000000E+00  0.00000000000E+00  0.99999998245E-14  0.12500000000E+03  0.12500000000E+03 0.  0.
        -13    1    1    0    0    0 -0.11298352966E+02  0.32643129095E+00 -0.23466871022E+02  0.26047351818E+02  0.10566000000E+00 0.  1.
         13    1    1    0    0    0 -0.16095229764E+02  0.38285845894E+00 -0.32704992641E+02  0.36453130311E+02  0.10566000000E+00 0. -1.
         22    1    1    0    0    0  0.27393582729E+02 -0.70928974989E+00  0.56171863664E+02  0.62499517871E+02  0.00000000000E+00 0.  1.
</event>
<event>
 4    1  0.9897231E-003  0.9118800E+02  0.7818608E-02  0.1130116E+00
         25   -1    0    0    0    0  0.00000000000E+00  0.00000000000E+00  0.99999998245E-14  0.12500000000E+03  0.12500000000E+03 0.  0.
        -13    1    1    0    0    0  0.52277080329E+01  0.34398205459E+02 -0.41254388469E+02  0.53967593999E+02  0.10566000000E+00 0. -1.
         13    1    1    0    0    0  0.39765317617E+00  0.59946003435E+01 -0.60828003597E+01  0.85501453543E+01  0.10566000000E+00 0.  1.
         22    1    1    0    0    0 -0.56253612090E+01 -0.40392805803E+02  0.47337188828E+02  0.62482260647E+02  0.00000000000E+00 0. -1.
</event>
<event>
 4    1  0.9897231E-003  0.9118800E+02  0.7818608E-02  0.1130116E+00
         25   -1    0    0    0    0  0.00000000000E+00  0.00000000000E+00  0.99999998245E-14  0.12500000000E+03  0.12500000000E+03 0.  0.
        -13    1    1    0    0    0  0.18402015401E+01 -0.21197456109E+01 -0.29880735043E+01  0.41011474572E+01  0.10566000000E+00 0. -1.
         13    1    1    0    0    0  0.37989202710E+02  0.33912235355E+02 -0.31023436352E+02  0.59629556400E+02  0.10566000000E+00 0.  1.
         22    1    1    0    0    0 -0.39829404251E+02 -0.31792489744E+02  0.34011509857E+02  0.61269296143E+02  0.00000000000E+00 0.  1.
</event>
<event>
 4    1  0.9897231E-003  0.9118800E+02  0.7818608E-02  0.1130116E+00
         25   -1    0    0    0    0  0.00000000000E+00  0.00000000000E+00  0.99999998245E-14  0.12500000000E+03  0.12500000000E+03 0.  0.
        -13    1    1    0    0    0  0.14846873503E+02 -0.46222809772E+02 -0.32944822184E+02  0.58671545649E+02  0.10566000000E+00 0. -1.
         13    1    1    0    0    0  0.93316938300E+00 -0.30156133959E+01 -0.21651381867E+01  0.38293232632E+01  0.10566000000E+00 0. -1.
         22    1    1    0    0    0 -0.15780042886E+02  0.49238423168E+02  0.35109960370E+02  0.62499131088E+02  0.00000000000E+00 0. -1.
</event>
<event>
 4    1  0.9897231E-003  0.9118800E+02  0.7818608E-02  0.1130116E+00
         25   -1    0    0    0    0  0.00000000000E+00  0.00000000000E+00  0.99999998245E-14  0.12500000000E+03  0.12500000000E+03 0.  0.
        -13    1    1    0    0    0 -0.10831193572E+02  0.17542755522E+02  0.19022535033E+02  0.28052290969E+02  0.10566000000E+00 0.  1.
         13    1    1    0    0    0 -0.11640945249E+02  0.22153522777E+02  0.23687167764E+02  0.34458427974E+02  0.10566000000E+00 0. -1.
         22    1    1    0    0    0  0.22472138820E+02 -0.39696278299E+02 -0.42709702797E+02  0.62489281057E+02  0.00000000000E+00 0. -1.
</event>
<event>
 4    1  0.9897231E-003  0.9118800E+02  0.7818608E-02  0.1130116E+00
         25   -1    0    0    0    0  0.00000000000E+00  0.00000000000E+00  0.99999998245E-14  0.12500000000E+03  0.12500000000E+03 0.  0.
        -13    1    1    0    0    0  0.98458480964E+01 -0.30027411837E+01  0.20737225934E+01  0.10500888952E+02  0.10566000000E+00 0.  1.
         13    1    1    0    0    0 -0.24454210768E+02 -0.50779108899E+02  0.10592048125E+02  0.57347440853E+02  0.10566000000E+00 0. -1.
         22    1    1    0    0    0  0.14608362671E+02  0.53781850082E+02 -0.12665770718E+02  0.57151670195E+02  0.00000000000E+00 0. -1.
</event>
<event>
 4    1  0.9897231E-003  0.9118800E+02  0.7818608E-02  0.1130116E+00
         25   -1    0    0    0    0  0.00000000000E+00  0.00000000000E+00  0.99999998245E-14  0.12500000000E+03  0.12500000000E+03 0.  0.
        -13    1    1    0    0    0 -0.17877415293E+01 -0.35043356076E+01  0.72094238117E+01  0.82136072196E+01  0.10566000000E+00 0. -1.
         13    1    1    0    0    0 -0.33549747636E+02 -0.27445605103E+02  0.33376531309E+02  0.54706953965E+02  0.10566000000E+00 0.  1.
         22    1    1    0    0    0  0.35337489166E+02  0.30949940710E+02 -0.40585955121E+02  0.62079438815E+02  0.00000000000E+00 0.  1.
</event>
<event>
 4    1  0.9897231E-003  0.9118800E+02  0.7818608E-02  0.1130116E+00
         25   -1    0    0    0    0  0.00000000000E+00  0.00000000000E+00  0.99999998245E-14  0.12500000000E+03  0.12500000000E+03 0.  0.
        -13    1    1    0    0    0  0.42308403092E+02  0.15432482274E+02  0.32308330274E+01  0.45150990326E+02  0.10566000000E+00 0.  1.
         13    1    1    0    0    0  0.16258958308E+02  0.59192884236E+01  0.12622190502E+01  0.17349238072E+02  0.10566000000E+00 0.  1.
         22    1    1    0    0    0 -0.58567361400E+02 -0.21351770697E+02 -0.44930520776E+01  0.62499771602E+02  0.00000000000E+00 0.  1.
</event>
<event>
 4    1  0.9897231E-003  0.9118800E+02  0.7818608E-02  0.1130116E+00
         25   -1    0    0    0    0  0.00000000000E+00  0.00000000000E+00  0.99999998245E-14  0.12500000000E+03  0.12500000000E+03 0.  0.
        -13    1    1    0    0    0 -0.16317653017E+02  0.30633145719E+02  0.20079340111E+02  0.40097961045E+02  0.10566000000E+00 0. -1.
         13    1    1    0    0    0 -0.87867678013E+01  0.18584169302E+02  0.90297311437E+01  0.22452746950E+02  0.10566000000E+00 0.  1.
         22    1    1    0    0    0  0.25104420818E+02 -0.49217315021E+02 -0.29109071255E+02  0.62449292005E+02  0.00000000000E+00 0. -1.
</event>
<event>
 4    1  0.9897231E-003  0.9118800E+02  0.7818608E-02  0.1130116E+00
         25   -1    0    0    0    0  0.00000000000E+00  0.00000000000E+00  0.99999998245E-14  0.12500000000E+03  0.12500000000E+03 0.  0.
        -13    1    1    0    0    0  0.12296586578E+02  0.33839325353E+02 -0.83630506904E+01  0.36962924164E+02  0.10566000000E+00 0.  1.
         13    1    1    0    0    0  0.89646921978E+01  0.23103560718E+02 -0.61753167097E+01  0.25539888891E+02  0.10566000000E+00 0. -1.
         22    1    1    0    0    0 -0.21261278776E+02 -0.56942886072E+02  0.14538367400E+02  0.62497186945E+02  0.00000000000E+00 0. -1.
</event>
<event>
 4    1  0.9897231E-003  0.9118800E+02  0.7818608E-02  0.1130116E+00
         25   -1    0    0    0    0  0.00000000000E+00  0.00000000000E+00  0.99999998245E-14  0.12500000000E+03  0.12500000000E+03 0.  0.
        -13    1    1    0    0    0  0.32070453816E+02  0.24169208054E+02  0.88368879302E+01  0.41118929683E+02  0.10566000000E+00 0.  1.
         13    1    1    0    0    0 -0.35650786142E+01  0.16165592964E+02 -0.26652643536E+02  0.31375320762E+02  0.10566000000E+00 0. -1.
         22    1    1    0    0    0 -0.28505375202E+02 -0.40334801018E+02  0.17815755606E+02  0.52505749555E+02  0.00000000000E+00 0.  1.
</event>
<event>
 4    1  0.9897231E-003  0.9118800E+02  0.7818608E-02  0.1130116E+00
         25   -1    0    0    0    0  0.00000000000E+00  0.00000000000E+00  0.99999998245E-14  0.12500000000E+03  0.12500000000E+03 0.  0.
        -13    1    1    0    0    0  0.11389751106E+02  0.14188907467E+02 -0.37745557296E+01  0.18582517600E+02  0.10566000000E+00 0. -1.
         13    1    1    0    0    0  0.27176280320E+02  0.33284026796E+02 -0.90773914033E+01  0.43917955901E+02  0.10566000000E+00 0. -1.
         22    1    1    0    0    0 -0.38566031426E+02 -0.47472934263E+02  0.12851947133E+02  0.62499526499E+02  0.00000000000E+00 0. -1.
</event>
<event>
 4    1  0.9897231E-003  0.9118800E+02  0.7818608E-02  0.1130116E+00
         25   -1    0    0    0    0  0.00000000000E+00  0.00000000000E+00  0.99999998245E-14  0.12500000000E+03  0.12500000000E+03 0.  0.
        -13    1    1    0    0    0 -0.31627980151E+01 -0.19945590137E+00  0.12777915949E+01  0.34186238951E+01  0.10566000000E+00 0.  1.
         13    1    1    0    0    0 -0.53952635911E+02  0.15892847914E+01  0.24043704330E+02  0.59089116002E+02  0.10566000000E+00 0. -1.
         22    1    1    0    0    0  0.57115433926E+02 -0.13898288900E+01 -0.25321495925E+02  0.62492260103E+02  0.00000000000E+00 0. -1.
</event>
<event>
 4    1  0.9897231E-003  0.9118800E+02  0.7818608E-02  0.1130116E+00
         25   -1    0    0    0    0  0.00000000000E+00  0.00000000000E+00  0.99999998245E-14  0.12500000000E+03  0.12500000000E+03 0.  0.
        -13    1    1    0    0    0  0.11568054771E+01 -0.56307013540E+01 -0.54213113377E+01  0.79022007888E+01  0.10566000000E+00 0.  1.
         13    1    1    0    0    0  0.10116165126E+02 -0.35449837628E+02 -0.40292338078E+02  0.54612374573E+02  0.10566000000E+00 0. -1.
         22    1    1    0    0    0 -0.11272970603E+02  0.41080538982E+02  0.45713649415E+02  0.62485424638E+02  0.00000000000E+00 0. -1.
</event>
<event>
 4    1  0.9897231E-003  0.9118800E+02  0.7818608E-02  0.1130116E+00
         25   -1    0    0    0    0  0.00000000000E+00  0.00000000000E+00  0.99999998245E-14  0.12500000000E+03  0.12500000000E+03 0.  0.
        -13    1    1    0    0    0 -0.95648087425E+01  0.61087549631E+01  0.49934132280E+01  0.12399507780E+02  0.10566000000E+00 0. -1.
         13    1    1    0    0    0 -0.35587151471E+02  0.30297711313E+02  0.18169672821E+02  0.50145237412E+02  0.10566000000E+00 0.  1.
         22    1    1    0    0    0  0.45151960214E+02 -0.36406466276E+02 -0.23163086049E+02  0.62455254808E+02  0.00000000000E+00 0.  1.
</event>
<event>
 4    1  0.9897231E-003  0.9118800E+02  0.7818608E-02  0.1130116E+00
         25   -1    0    0    0    0  0.00000000000E+00  0.00000000000E+00  0.99999998245E-14  0.12500000000E+03  0.12500000000E+03 0.  0.
        -13    1    1    0    0    0  0.20137558749E+02  0.24923665023E+02  0.50866181043E+02  0.60117301075E+02  0.10566000000E+00 0. -1.
         13    1    1    0    0    0  0.90744791066E+00  0.30343334341E+01 -0.32802066738E-01  0.31690505063E+01  0.10566000000E+00 0.  1.
         22    1    1    0    0    0 -0.21045006659E+02 -0.27957998457E+02 -0.50833378977E+02  0.61713648419E+02  0.00000000000E+00 0. -1.
</event>
<event>
 4    1  0.9897231E-003  0.9118800E+02  0.7818608E-02  0.1130116E+00
         25   -1    0    0    0    0  0.00000000000E+00  0.00000000000E+00  0.99999998245E-14  0.12500000000E+03  0.12500000000E+03 0.  0.
        -13    1    1    0    0    0 -0.15543365483E+02  0.29122845717E+01 -0.89463726300E+01  0.18169379716E+02  0.10566000000E+00 0. -1.
         13    1    1    0    0    0 -0.37730424586E+02  0.72407547783E+01 -0.22118291149E+02  0.44331066269E+02  0.10566000000E+00 0. -1.
         22    1    1    0    0    0  0.53273790069E+02 -0.10153039350E+02  0.31064663779E+02  0.62499554015E+02  0.00000000000E+00 0. -1.
</event>
<event>
 4    1  0.9897231E-003  0.9118800E+02  0.7818608E-02  0.1130116E+00
         25   -1    0    0    0    0  0.00000000000E+00  0.00000000000E+00  0.99999998245E-14  0.12500000000E+03  0.12500000000E+03 0.  0.
        -13    1    1    0    0    0  0.23683408772E+02  0.21613900974E+01 -0.59261480170E+00  0.23789447547E+02  0.10566000000E+00 0. -1.
         13    1    1    0    0    0  0.37480526345E+02  0.91753275134E+01 -0.42280659963E+01  0.38818348705E+02  0.10566000000E+00 0.  1.
         22    1    1    0    0    0 -0.61163935117E+02 -0.11336717611E+02  0.48206807980E+01  0.62392203748E+02  0.00000000000E+00 0.  1.
</event>
<event>
 4    1  0.9897231E-003  0.9118800E+02  0.7818608E-02  0.1130116E+00
         25   -1    0    0    0    0  0.00000000000E+00  0.00000000000E+00  0.99999998245E-14  0.12500000000E+03  0.12500000000E+03 0.  0.
        -13    1    1    0    0    0  0.65694448327E+01  0.28554324567E+01  0.60317573678E+01  0.93650606460E+01  0.10566000000E+00 0.  1.
         13    1    1    0    0    0 -0.43078694828E+00 -0.77800147603E+01  0.54267572956E+02  0.54824217693E+02  0.10566000000E+00 0. -1.
         22    1    1    0    0    0 -0.61386578844E+01  0.49245823036E+01 -0.60299330324E+02  0.60810721661E+02  0.00000000000E+00 0. -1.
</event>
<event>
 4    1  0.9897231E-003  0.9118800E+02  0.7818608E-02  0.1130116E+00
         25   -1    0    0    0    0  0.00000000000E+00  0.00000000000E+00  0.99999998245E-14  0.12500000000E+03  0.12500000000E+03 0.  0.
        -13    1    1    0    0    0 -0.44455228469E+02 -0.39505220350E+02  0.53057492911E+01  0.59708390639E+02  0.10566000000E+00 0.  1.
         13    1    1    0    0    0 -0.97613332829E+00 -0.27801195030E+01  0.35187606432E+00  0.29693234121E+01  0.10566000000E+00 0. -1.
         22    1    1    0    0    0  0.45431361797E+02  0.42285339853E+02 -0.56576253554E+01  0.62322285949E+02  0.00000000000E+00 0.  1.
</event>
<event>
 4    1  0.9897231E-003  0.9118800E+02  0.7818608E-02  0.1130116E+00
         25   -1    0    0    0    0  0.00000000000E+00  0.00000000000E+00  0.99999998245E-14  0.12500000000E+03  0.12500000000E+03 0.  0.
        -13    1    1    0    0    0 -0.40012320552E+02  0.48727214869E+00 -0.29685546446E+02  0.49824352097E+02  0.10566000000E+00 0.  1.
         13    1    1    0    0    0 -0.10248285386E+02  0.33602316452E+00 -0.74532771312E+01  0.12676859586E+02  0.10566000000E+00 0. -1.
         22    1    1    0    0    0  0.50260605938E+02 -0.82329531321E+00  0.37138823577E+02  0.62498788317E+02  0.00000000000E+00 0.  1.
</event>
<event>
 4    1  0.9897231E-003  0.9118800E+02  0.7818608E-02  0.1130116E+00
         25   -1    0    0    0    0  0.00000000000E+00  0.00000000000E+00  0.99999998245E-14  0.12500000000E+03  0.12500000000E+03 0.  0.
        -13    1    1    0    0    0  0.24169233517E+01 -0.93872702154E-01  0.24285732382E+01  0.34292072817E+01  0.10566000000E+00 0. -1.
         13    1    1    0    0    0  0.45623229589E+02  0.47676018741E-01  0.37536479302E+02  0.59080282613E+02  0.10566000000E+00 0.  1.
         22    1    1    0    0    0 -0.48040152941E+02  0.46196683413E-01 -0.39965052540E+02  0.62490510106E+02  0.00000000000E+00 0.  1.
</event>
<event>
 4    1  0.9897231E-003  0.9118800E+02  0.7818608E-02  0.1130116E+00
         25   -1    0    0    0    0  0.00000000000E+00  0.00000000000E+00  0.99999998245E-14  0.12500000000E+03  0.12500000000E+03 0.  0.
        -13    1    1    0    0    0  0.23776561229E+00 -0.31975479026E+00 -0.17152807470E-01  0.41259407011E+00  0.10566000000E+00 0. -1.
         13    1    1    0    0    0  0.51387084247E+02 -0.34611831264E+02 -0.42994498962E+01  0.62105617494E+02  0.10566000000E+00 0. -1.
         22    1    1    0    0    0 -0.51624849859E+02  0.34931586054E+02  0.43166027037E+01  0.62481788436E+02  0.00000000000E+00 0. -1.
</event>
<event>
 4    1  0.9897231E-003  0.9118800E+02  0.7818608E-02  0.1130116E+00
         25   -1    0    0    0    0  0.00000000000E+00  0.00000000000E+00  0.99999998245E-14  0.12500000000E+03  0.12500000000E+03 0.  0.
        -13    1    1    0    0    0  0.26759432013E+02 -0.10129881040E+02 -0.34632047640E+02  0.44922951587E+02  0.10566000000E+00 0. -1.
         13    1    1    0    0    0  0.11564143647E+02 -0.30104618504E+01 -0.12924957328E+02  0.17602783439E+02  0.10566000000E+00 0.  1.
         22    1    1    0    0    0 -0.38323575660E+02  0.13140342891E+02  0.47557004967E+02  0.62474264974E+02  0.00000000000E+00 0. -1.
</event>
<event>
 4    1  0.9897231E-003  0.9118800E+02  0.7818608E-02  0.1130116E+00
         25   -1    0    0    0    0  0.00000000000E+00  0.00000000000E+00  0.99999998245E-14  0.12500000000E+03  0.12500000000E+03 0.  0.
        -13    1    1    0    0    0 -0.31854800493E+02  0.21644659023E+02 -0.24099168190E+02  0.45431273922E+02  0.10566000000E+00 0.  1.
         13    1    1    0    0    0 -0.11976073936E+02  0.80218945804E+01 -0.91415529708E+01  0.17069162086E+02  0.10566000000E+00 0. -1.
         22    1    1    0    0    0  0.43830874428E+02 -0.29666553604E+02  0.33240721161E+02  0.62499563992E+02  0.00000000000E+00 0.  1.
</event>
<event>
 4    1  0.9897231E-003  0.9118800E+02  0.7818608E-02  0.1130116E+00
         25   -1    0    0    0    0  0.00000000000E+00  0.00000000000E+00  0.99999998245E-14  0.12500000000E+03  0.12500000000E+03 0.  0.
        -13    1    1    0    0    0 -0.64275755956E+01  0.40175813540E+01 -0.33438119768E+01  0.82853443226E+01  0.10566000000E+00 0.  1.
         13    1    1    0    0    0 -0.42414757526E+02  0.30321295828E+02 -0.15002987684E+02  0.54253971654E+02  0.10566000000E+00 0. -1.
         22    1    1    0    0    0  0.48842333122E+02 -0.34338877182E+02  0.18346799661E+02  0.62460684024E+02  0.00000000000E+00 0. -1.
</event>
<event>
 4    1  0.9897231E-003  0.9118800E+02  0.7818608E-02  0.1130116E+00
         25   -1    0    0    0    0  0.00000000000E+00  0.00000000000E+00  0.99999998245E-14  0.12500000000E+03  0.12500000000E+03 0.  0.
        -13    1    1    0    0    0  0.42274055549E+01 -0.58379524156E+01  0.66171197778E+01  0.97851972040E+01  0.10566000000E+00 0. -1.
         13    1    1    0    0    0  0.11188052884E+02 -0.47278359985E+02  0.21547962627E+02  0.53148299198E+02  0.10566000000E+00 0.  1.
         22    1    1    0    0    0 -0.15415458439E+02  0.53116312401E+02 -0.28165082405E+02  0.62066503598E+02  0.00000000000E+00 0.  1.
</event>
<event>
 4    1  0.9897231E-003  0.9118800E+02  0.7818608E-02  0.1130116E+00
         25   -1    0    0    0    0  0.00000000000E+00  0.00000000000E+00  0.99999998245E-14  0.12500000000E+03  0.12500000000E+03 0.  0.
        -13    1    1    0    0    0  0.41763530093E+02  0.72076279702E+01  0.83126846432E+01  0.43188589196E+02  0.10566000000E+00 0.  1.
         13    1    1    0    0    0  0.17840407451E+02  0.61778012482E+01  0.44651936893E+01  0.19400888768E+02  0.10566000000E+00 0. -1.
         22    1    1    0    0    0 -0.59603937544E+02 -0.13385429218E+02 -0.12777878332E+02  0.62410522035E+02  0.00000000000E+00 0.  1.
</event>
<event>
 4    1  0.9897231E-003  0.9118800E+02  0.7818608E-02  0.1130116E+00
         25   -1    0    0    0    0  0.00000000000E+00  0.00000000000E+00  0.99999998245E-14  0.12500000000E+03  0.12500000000E+03 0.  0.
        -13    1    1    0    0    0  0.40335810928E+02 -0.16601253363E+02  0.15946587724E+02  0.46442266100E+02  0.10566000000E+00 0.  1.
         13    1    1    0    0    0  0.38003957125E+01 -0.15482817888E+02  0.92757844016E+01  0.18444836612E+02  0.10566000000E+00 0. -1.
         22    1    1    0    0    0 -0.44136206641E+02  0.32084071251E+02 -0.25222372125E+02  0.60112897288E+02  0.00000000000E+00 0.  1.
</event>
<event>
 4    1  0.9897231E-003  0.9118800E+02  0.7818608E-02  0.1130116E+00
         25   -1    0    0    0    0  0.00000000000E+00  0.00000000000E+00  0.99999998245E-14  0.12500000000E+03  0.12500000000E+03 0.  0.
        -13    1    1    0    0    0 -0.33792932997E+01 -0.65005601795E+01  0.42614819733E+02  0.43240154148E+02  0.10566000000E+00 0.  1.
         13    1    1    0    0    0 -0.15771545076E+01 -0.29896834773E+01  0.18960958557E+02  0.19260185281E+02  0.10566000000E+00 0.  1.
         22    1    1    0    0    0  0.49564478073E+01  0.94902436568E+01 -0.61575778289E+02  0.62499660571E+02  0.00000000000E+00 0.  1.
</event>
<event>
 4    1  0.9897231E-003  0.9118800E+02  0.7818608E-02  0.1130116E+00
         25   -1    0    0    0    0  0.00000000000E+00  0.00000000000E+00  0.99999998245E-14  0.12500000000E+03  0.12500000000E+03 0.  0.
        -13    1    1    0    0    0  0.12056757851E+02  0.61698978961E+00  0.42078056073E+02  0.43775793004E+02  0.10566000000E+00 0.  1.
         13    1    1    0    0    0  0.58777662528E+01  0.13984455674E+01  0.17741053372E+02  0.18741929594E+02  0.10566000000E+00 0.  1.
         22    1    1    0    0    0 -0.17934524104E+02 -0.20154353570E+01 -0.59819109445E+02  0.62482277401E+02  0.00000000000E+00 0.  1.
</event>
<event>
 4    1  0.9897231E-003  0.9118800E+02  0.7818608E-02  0.1130116E+00
         25   -1    0    0    0    0  0.00000000000E+00  0.00000000000E+00  0.99999998245E-14  0.12500000000E+03  0.12500000000E+03 0.  0.
        -13    1    1    0    0    0 -0.18228832148E+02  0.39649985726E+02 -0.25859454151E+02  0.50726070443E+02  0.10566000000E+00 0.  1.
         13    1    1    0    0    0  0.60947683753E+01  0.99178664246E+01 -0.69947952691E+01  0.13581185547E+02  0.10566000000E+00 0. -1.
         22    1    1    0    0    0  0.12134063773E+02 -0.49567852151E+02  0.32854249420E+02  0.60692744010E+02  0.00000000000E+00 0.  1.
</event>
<event>
 4    1  0.9897231E-003  0.9118800E+02  0.7818608E-02  0.1130116E+00
         25   -1    0    0    0    0  0.00000000000E+00  0.00000000000E+00  0.99999998245E-14  0.12500000000E+03  0.12500000000E+03 0.  0.
        -13    1    1    0    0    0 -0.41175998952E+02 -0.25057841676E+02  0.76440942247E+01  0.48803705389E+02  0.10566000000E+00 0. -1.
         13    1    1    0    0    0 -0.11460633250E+02 -0.71834077460E+01  0.21562707403E+01  0.13697011677E+02  0.10566000000E+00 0.  1.
         22    1    1    0    0    0  0.52636632202E+02  0.32241249422E+02 -0.98003649649E+01  0.62499282934E+02  0.00000000000E+00 0. -1.
</event>
<event>
 4    1  0.9897231E-003  0.9118800E+02  0.7818608E-02  0.1130116E+00
         25   -1    0    0    0    0  0.00000000000E+00  0.00000000000E+00  0.99999998245E-14  0.12500000000E+03  0.12500000000E+03 0.  0.
        -13    1    1    0    0    0 -0.56537515443E+01 -0.15571969966E+01  0.17332158632E+02  0.18297668045E+02  0.10566000000E+00 0.  1.
         13    1    1    0    0    0 -0.13605322765E+02 -0.40149132736E+01  0.41864537579E+02  0.44202658369E+02  0.10566000000E+00 0.  1.
         22    1    1    0    0    0  0.19259074310E+02  0.55721102703E+01 -0.59196696211E+02  0.62499673586E+02  0.00000000000E+00 0.  1.
</event>
<event>
 4    1  0.9897231E-003  0.9118800E+02  0.7818608E-02  0.1130116E+00
         25   -1    0    0    0    0  0.00000000000E+00  0.00000000000E+00  0.99999998245E-14  0.12500000000E+03  0.12500000000E+03 0.  0.
        -13    1    1    0    0    0  0.97955182301E+01 -0.38054883851E+02 -0.19530903315E+02  0.43881587377E+02  0.10566000000E+00 0.  1.
         13    1    1    0    0    0 -0.61791373668E+00 -0.18395720820E+02 -0.47130672791E+01  0.19000224448E+02  0.10566000000E+00 0. -1.
         22    1    1    0    0    0 -0.91776044934E+01  0.56450604671E+02  0.24243970595E+02  0.62118188175E+02  0.00000000000E+00 0.  1.
</event>
<event>
 4    1  0.9897231E-003  0.9118800E+02  0.7818608E-02  0.1130116E+00
         25   -1    0    0    0    0  0.00000000000E+00  0.00000000000E+00  0.99999998245E-14  0.12500000000E+03  0.12500000000E+03 0.  0.
        -13    1    1    0    0    0  0.30584875604E+02  0.12223342445E+02 -0.21383681478E+02  0.39269806644E+02  0.10566000000E+00 0.  1.
         13    1    1    0    0    0  0.19066816675E+02  0.14541974563E+01 -0.13604708464E+02  0.23468222020E+02  0.10566000000E+00 0. -1.
         22    1    1    0    0    0 -0.49651692280E+02 -0.13677539901E+02  0.34988389941E+02  0.62261971336E+02  0.00000000000E+00 0.  1.
</event>
<event>
 4    1  0.9897231E-003  0.9118800E+02  0.7818608E-02  0.1130116E+00
         25   -1    0    0    0    0  0.00000000000E+00  0.00000000000E+00  0.99999998245E-14  0.12500000000E+03  0.12500000000E+03 0.  0.
        -13    1    1    0    0    0  0.65763772644E+01  0.14699740257E+02 -0.38893794158E+01  0.16567122195E+02  0.10566000000E+00 0. -1.
         13    1    1    0    0    0 -0.29402215897E+02 -0.23196450743E+02 -0.42127676592E+02  0.56367702861E+02  0.10566000000E+00 0.  1.
         22    1    1    0    0    0  0.22825838633E+02  0.84967104856E+01  0.46017056007E+02  0.52065174944E+02  0.00000000000E+00 0.  1.
</event>
<event>
 4    1  0.9897231E-003  0.9118800E+02  0.7818608E-02  0.1130116E+00
         25   -1    0    0    0    0  0.00000000000E+00  0.00000000000E+00  0.99999998245E-14  0.12500000000E+03  0.12500000000E+03 0.  0.
        -13    1    1    0    0    0 -0.95721872408E+01  0.45899302469E+02  0.11203494740E+01  0.46900310049E+02  0.10566000000E+00 0.  1.
         13    1    1    0    0    0 -0.28804003209E+01  0.15327922543E+02  0.37502110713E+00  0.15601080744E+02  0.10566000000E+00 0. -1.
         22    1    1    0    0    0  0.12452587562E+02 -0.61227225012E+02 -0.14953705811E+01  0.62498609207E+02  0.00000000000E+00 0.  1.
</event>
<event>
 4    1  0.9897231E-003  0.9118800E+02  0.7818608E-02  0.1130116E+00
         25   -1    0    0    0    0  0.00000000000E+00  0.00000000000E+00  0.99999998245E-14  0.12500000000E+03  0.12500000000E+03 0.  0.
        -13    1    1    0    0    0  0.22374941897E+01 -0.17830542194E+01 -0.20031471868E+01  0.34941988045E+01  0.10566000000E+00 0.  1.
         13    1    1    0    0    0  0.51843990293E+02 -0.25591608679E+02  0.14520214560E+02  0.59611891089E+02  0.10566000000E+00 0. -1.
         22    1    1    0    0    0 -0.54081484483E+02  0.27374662898E+02 -0.12517067374E+02  0.61893910107E+02  0.00000000000E+00 0. -1.
</event>
<event>
 4    1  0.9897231E-003  0.9118800E+02  0.7818608E-02  0.1130116E+00
         25   -1    0    0    0    0  0.00000000000E+00  0.00000000000E+00  0.99999998245E-14  0.12500000000E+03  0.12500000000E+03 0.  0.
        -13    1    1    0    0    0 -0.32052273747E+00 -0.51383108766E+00 -0.24369547489E+01  0.25132985688E+01  0.10566000000E+00 0. -1.
         13    1    1    0    0    0 -0.67024851950E+01 -0.14243483182E+02 -0.57886356581E+02  0.59988678625E+02  0.10566000000E+00 0. -1.
         22    1    1    0    0    0  0.70230079325E+01  0.14757314270E+02  0.60323311330E+02  0.62498022806E+02  0.00000000000E+00 0. -1.
</event>
<event>
 4    1  0.9897231E-003  0.9118800E+02  0.7818608E-02  0.1130116E+00
         25   -1    0    0    0    0  0.00000000000E+00  0.00000000000E+00  0.99999998245E-14  0.12500000000E+03  0.12500000000E+03 0.  0.
        -13    1    1    0    0    0  0.20578875296E+01 -0.12710079441E+01  0.15554028400E+01  0.28776386689E+01  0.10566000000E+00 0. -1.
         13    1    1    0    0    0 -0.32535791996E+02  0.14455479371E+01  0.51501100442E+02  0.60934734597E+02  0.10566000000E+00 0.  1.
         22    1    1    0    0    0  0.30477904466E+02 -0.17453999304E+00 -0.53056503282E+02  0.61187626734E+02  0.00000000000E+00 0.  1.
</event>
<event>
 4    1  0.9897231E-003  0.9118800E+02  0.7818608E-02  0.1130116E+00
         25   -1    0    0    0    0  0.00000000000E+00  0.00000000000E+00  0.99999998245E-14  0.12500000000E+03  0.12500000000E+03 0.  0.
        -13    1    1    0    0    0  0.43602732742E+02  0.24418276623E+01  0.74322823359E+01  0.44299106195E+02  0.10566000000E+00 0. -1.
         13    1    1    0    0    0  0.14075244795E+02  0.11219904409E+02  0.76183225300E+01  0.19546067972E+02  0.10566000000E+00 0.  1.
         22    1    1    0    0    0 -0.57677977536E+02 -0.13661732071E+02 -0.15050604866E+02  0.61154825833E+02  0.00000000000E+00 0. -1.
</event>
<event>
 4    1  0.9897231E-003  0.9118800E+02  0.7818608E-02  0.1130116E+00
         25   -1    0    0    0    0  0.00000000000E+00  0.00000000000E+00  0.99999998245E-14  0.12500000000E+03  0.12500000000E+03 0.  0.
        -13    1    1    0    0    0  0.17074027113E+01  0.16199569889E+00 -0.38166983348E+00  0.17601995689E+01  0.10566000000E+00 0.  1.
         13    1    1    0    0    0  0.31922972704E+02  0.31096801035E+02 -0.41645266193E+02  0.60995299665E+02  0.10566000000E+00 0.  1.
         22    1    1    0    0    0 -0.33630375415E+02 -0.31258796734E+02  0.42026936027E+02  0.62244500766E+02  0.00000000000E+00 0.  1.
</event>
<event>
 4    1  0.9897231E-003  0.9118800E+02  0.7818608E-02  0.1130116E+00
         25   -1    0    0    0    0  0.00000000000E+00  0.00000000000E+00  0.99999998245E-14  0.12500000000E+03  0.12500000000E+03 0.  0.
        -13    1    1    0    0    0  0.32308222410E+02  0.39476067184E+01 -0.36022348420E+02  0.48549207860E+02  0.10566000000E+00 0.  1.
         13    1    1    0    0    0  0.62831370158E+01  0.75245918188E+01 -0.10875649639E+02  0.14642001636E+02  0.10566000000E+00 0. -1.
         22    1    1    0    0    0 -0.38591359426E+02 -0.11472198537E+02  0.46897998059E+02  0.61808790504E+02  0.00000000000E+00 0.  1.
</event>
<event>
 4    1  0.9897231E-003  0.9118800E+02  0.7818608E-02  0.1130116E+00
         25   -1    0    0    0    0  0.00000000000E+00  0.00000000000E+00  0.99999998245E-14  0.12500000000E+03  0.12500000000E+03 0.  0.
        -13    1    1    0    0    0  0.60766012286E+01 -0.57982556822E+01  0.51008327017E+01  0.98272330660E+01  0.10566000000E+00 0. -1.
         13    1    1    0    0    0  0.31058613018E+02 -0.30722097561E+02  0.29436288068E+02  0.52678182775E+02  0.10566000000E+00 0.  1.
         22    1    1    0    0    0 -0.37135214246E+02  0.36520353244E+02 -0.34537120770E+02  0.62494584159E+02  0.00000000000E+00 0.  1.
</event>
<event>
 4    1  0.9897231E-003  0.9118800E+02  0.7818608E-02  0.1130116E+00
         25   -1    0    0    0    0  0.00000000000E+00  0.00000000000E+00  0.99999998245E-14  0.12500000000E+03  0.12500000000E+03 0.  0.
        -13    1    1    0    0    0  0.11995964773E+02  0.24172694972E+02 -0.32890264369E+02  0.42544130116E+02  0.10566000000E+00 0. -1.
         13    1    1    0    0    0  0.10925220049E+02 -0.15404899155E+00 -0.18375260323E+02  0.21378622972E+02  0.10566000000E+00 0.  1.
         22    1    1    0    0    0 -0.22921184822E+02 -0.24018645981E+02  0.51265524692E+02  0.61077246912E+02  0.00000000000E+00 0. -1.
</event>
<event>
 4    1  0.9897231E-003  0.9118800E+02  0.7818608E-02  0.1130116E+00
         25   -1    0    0    0    0  0.00000000000E+00  0.00000000000E+00  0.99999998245E-14  0.12500000000E+03  0.12500000000E+03 0.  0.
        -13    1    1    0    0    0  0.45631935080E+01 -0.46083230891E+00 -0.59013725069E+00  0.46254218638E+01  0.10566000000E+00 0. -1.
         13    1    1    0    0    0  0.50244064494E+02  0.25300407615E+02 -0.14988580523E+02  0.58217225565E+02  0.10566000000E+00 0.  1.
         22    1    1    0    0    0 -0.54807258002E+02 -0.24839575306E+02  0.15578717774E+02  0.62157352571E+02  0.00000000000E+00 0.  1.
</event>
<event>
 4    1  0.9897231E-003  0.9118800E+02  0.7818608E-02  0.1130116E+00
         25   -1    0    0    0    0  0.00000000000E+00  0.00000000000E+00  0.99999998245E-14  0.12500000000E+03  0.12500000000E+03 0.  0.
        -13    1    1    0    0    0  0.30621259949E+01  0.26468166423E+01 -0.17266441957E+01  0.44016722005E+01  0.10566000000E+00 0. -1.
         13    1    1    0    0    0  0.40298431616E+02  0.36512305017E+02 -0.20460959552E+02  0.58101411671E+02  0.10566000000E+00 0.  1.
         22    1    1    0    0    0 -0.43360557611E+02 -0.39159121659E+02  0.22187603748E+02  0.62496916128E+02  0.00000000000E+00 0.  1.
</event>
<event>
 4    1  0.9897231E-003  0.9118800E+02  0.7818608E-02  0.1130116E+00
         25   -1    0    0    0    0  0.00000000000E+00  0.00000000000E+00  0.99999998245E-14  0.12500000000E+03  0.12500000000E+03 0.  0.
        -13    1    1    0    0    0 -0.91035530771E+01  0.21548718749E+01 -0.59361997119E+01  0.11080062386E+02  0.10566000000E+00 0. -1.
         13    1    1    0    0    0  0.25477689742E+02  0.49447060603E+02 -0.11969387709E+02  0.56898171175E+02  0.10566000000E+00 0.  1.
         22    1    1    0    0    0 -0.16374136665E+02 -0.51601932478E+02  0.17905587421E+02  0.57021766439E+02  0.00000000000E+00 0.  1.
</event>
<event>
 4    1  0.9897231E-003  0.9118800E+02  0.7818608E-02  0.1130116E+00
         25   -1    0    0    0    0  0.00000000000E+00  0.00000000000E+00  0.99999998245E-14  0.12500000000E+03  0.12500000000E+03 0.  0.
        -13    1    1    0    0    0 -0.37408588394E+02  0.20355153960E+02  0.43384883238E+01  0.42808508773E+02  0.10566000000E+00 0. -1.
         13    1    1    0    0    0  0.45325265161E+02  0.15896625324E+01  0.19018434650E+02  0.49179454139E+02  0.10566000000E+00 0.  1.
         22    1    1    0    0    0 -0.79166767665E+01 -0.21944816492E+02 -0.23356922974E+02  0.33012037088E+02  0.00000000000E+00 0.  1.
</event>
<event>
 4    1  0.9897231E-003  0.9118800E+02  0.7818608E-02  0.1130116E+00
         25   -1    0    0    0    0  0.00000000000E+00  0.00000000000E+00  0.99999998245E-14  0.12500000000E+03  0.12500000000E+03 0.  0.
        -13    1    1    0    0    0  0.34294505085E+02 -0.28360340432E+02 -0.22423238978E+01  0.44558513990E+02  0.10566000000E+00 0.  1.
         13    1    1    0    0    0  0.12284271642E+02 -0.13165469157E+02  0.72174830020E+00  0.18021237264E+02  0.10566000000E+00 0. -1.
         22    1    1    0    0    0 -0.46578776727E+02  0.41525809589E+02  0.15205755976E+01  0.62420248746E+02  0.00000000000E+00 0.  1.
</event>
<event>
 4    1  0.9897231E-003  0.9118800E+02  0.7818608E-02  0.1130116E+00
         25   -1    0    0    0    0  0.00000000000E+00  0.00000000000E+00  0.99999998245E-14  0.12500000000E+03  0.12500000000E+03 0.  0.
        -13    1    1    0    0    0  0.15428288032E+02  0.14254681234E+02 -0.11992177185E+02  0.24187837571E+02  0.10566000000E+00 0. -1.
         13    1    1    0    0    0  0.24557989082E+02  0.22579654876E+02 -0.18838708496E+02  0.38312448942E+02  0.10566000000E+00 0. -1.
         22    1    1    0    0    0 -0.39986277114E+02 -0.36834336110E+02  0.30830885681E+02  0.62499713487E+02  0.00000000000E+00 0. -1.
</event>
<event>
 4    1  0.9897231E-003  0.9118800E+02  0.7818608E-02  0.1130116E+00
         25   -1    0    0    0    0  0.00000000000E+00  0.00000000000E+00  0.99999998245E-14  0.12500000000E+03  0.12500000000E+03 0.  0.
        -13    1    1    0    0    0  0.17097186067E+02  0.35295595218E+01  0.33576086257E+01  0.17777971244E+02  0.10566000000E+00 0. -1.
         13    1    1    0    0    0  0.42941001358E+02  0.89705710295E+01  0.86993412285E+01  0.44722370734E+02  0.10566000000E+00 0. -1.
         22    1    1    0    0    0 -0.60038187425E+02 -0.12500130551E+02 -0.12056949854E+02  0.62499658022E+02  0.00000000000E+00 0. -1.
</event>
<event>
 4    1  0.9897231E-003  0.9118800E+02  0.7818608E-02  0.1130116E+00
         25   -1    0    0    0    0  0.00000000000E+00  0.00000000000E+00  0.99999998245E-14  0.12500000000E+03  0.12500000000E+03 0.  0.
        -13    1    1    0    0    0 -0.19381067240E+02 -0.52469421358E+01 -0.19446009188E+02  0.27952005411E+02  0.10566000000E+00 0.  1.
         13    1    1    0    0    0 -0.25024248078E+02 -0.54980616489E+01 -0.23189590845E+02  0.34557343088E+02  0.10566000000E+00 0. -1.
         22    1    1    0    0    0  0.44405315317E+02  0.10745003785E+02  0.42635600033E+02  0.62490651500E+02  0.00000000000E+00 0.  1.
</event>
<event>
 4    1  0.9897231E-003  0.9118800E+02  0.7818608E-02  0.1130116E+00
         25   -1    0    0    0    0  0.00000000000E+00  0.00000000000E+00  0.99999998245E-14  0.12500000000E+03  0.12500000000E+03 0.  0.
        -13    1    1    0    0    0  0.10445818143E+02 -0.39682576564E+00 -0.58822667535E+00  0.10470423201E+02  0.10566000000E+00 0.  1.
         13    1    1    0    0    0  0.51919040621E+02 -0.12488652700E+01 -0.31624641769E+01  0.52030364088E+02  0.10566000000E+00 0.  1.
         22    1    1    0    0    0 -0.62364858763E+02  0.16456910356E+01  0.37506908522E+01  0.62499212711E+02  0.00000000000E+00 0.  1.
</event>
<event>
 4    1  0.9897231E-003  0.9118800E+02  0.7818608E-02  0.1130116E+00
         25   -1    0    0    0    0  0.00000000000E+00  0.00000000000E+00  0.99999998245E-14  0.12500000000E+03  0.12500000000E+03 0.  0.
        -13    1    1    0    0    0 -0.79441314534E+01 -0.16261512629E+01 -0.43161324350E+01  0.91866074103E+01  0.10566000000E+00 0.  1.
         13    1    1    0    0    0 -0.47908678077E+02 -0.13998109126E+02 -0.18861062640E+02  0.53356717873E+02  0.10566000000E+00 0. -1.
         22    1    1    0    0    0  0.55852809530E+02  0.15624260389E+02  0.23177195075E+02  0.62456674717E+02  0.00000000000E+00 0. -1.
</event>
<event>
 4    1  0.9897231E-003  0.9118800E+02  0.7818608E-02  0.1130116E+00
         25   -1    0    0    0    0  0.00000000000E+00  0.00000000000E+00  0.99999998245E-14  0.12500000000E+03  0.12500000000E+03 0.  0.
        -13    1    1    0    0    0 -0.40502537347E+02  0.22435869443E+02 -0.27600826099E+02  0.53903993679E+02  0.10566000000E+00 0.  1.
         13    1    1    0    0    0 -0.62867365918E+01  0.39794838457E+01 -0.43142707233E+01  0.86013629479E+01  0.10566000000E+00 0. -1.
         22    1    1    0    0    0  0.46789273939E+02 -0.26415353288E+02  0.31915096823E+02  0.62494643373E+02  0.00000000000E+00 0.  1.
</event>
<event>
 4    1  0.9897231E-003  0.9118800E+02  0.7818608E-02  0.1130116E+00
         25   -1    0    0    0    0  0.00000000000E+00  0.00000000000E+00  0.99999998245E-14  0.12500000000E+03  0.12500000000E+03 0.  0.
        -13    1    1    0    0    0  0.11100727737E+02  0.10650282735E+02  0.26958973787E+02  0.31039524969E+02  0.10566000000E+00 0.  1.
         13    1    1    0    0    0  0.13508712803E+02  0.53358923689E+01  0.28064571022E+02  0.31600449041E+02  0.10566000000E+00 0. -1.
         22    1    1    0    0    0 -0.24609440540E+02 -0.15986175104E+02 -0.55023544808E+02  0.62360025990E+02  0.00000000000E+00 0.  1.
</event>
<event>
 4    1  0.9897231E-003  0.9118800E+02  0.7818608E-02  0.1130116E+00
         25   -1    0    0    0    0  0.00000000000E+00  0.00000000000E+00  0.99999998245E-14  0.12500000000E+03  0.12500000000E+03 0.  0.
        -13    1    1    0    0    0  0.10296699603E+02 -0.14978926947E+02  0.18898441787E+02  0.26221223107E+02  0.10566000000E+00 0.  1.
         13    1    1    0    0    0  0.13542617600E+02 -0.21655783879E+02  0.25769983036E+02  0.36283310992E+02  0.10566000000E+00 0. -1.
         22    1    1    0    0    0 -0.23839317203E+02  0.36634710826E+02 -0.44668424823E+02  0.62495465901E+02  0.00000000000E+00 0. -1.
</event>
<event>
 4    1  0.9897231E-003  0.9118800E+02  0.7818608E-02  0.1130116E+00
         25   -1    0    0    0    0  0.00000000000E+00  0.00000000000E+00  0.99999998245E-14  0.12500000000E+03  0.12500000000E+03 0.  0.
        -13    1    1    0    0    0 -0.23898608030E+02  0.15196339349E+02  0.48847667461E+02  0.56463952888E+02  0.10566000000E+00 0. -1.
         13    1    1    0    0    0 -0.49735331335E+01  0.18535299345E+01  0.35083630060E+01  0.63632837487E+01  0.10566000000E+00 0.  1.
         22    1    1    0    0    0  0.28872141163E+02 -0.17049869283E+02 -0.52356030467E+02  0.62172763363E+02  0.00000000000E+00 0. -1.
</event>
<event>
 4    1  0.9897231E-003  0.9118800E+02  0.7818608E-02  0.1130116E+00
         25   -1    0    0    0    0  0.00000000000E+00  0.00000000000E+00  0.99999998245E-14  0.12500000000E+03  0.12500000000E+03 0.  0.
        -13    1    1    0    0    0 -0.53167362875E-01 -0.16883253207E+01  0.13281458482E+02  0.13388860019E+02  0.10566000000E+00 0.  1.
         13    1    1    0    0    0 -0.49521065988E+00 -0.50085967947E+01  0.48854371193E+02  0.49113053501E+02  0.10566000000E+00 0. -1.
         22    1    1    0    0    0  0.54837802275E+00  0.66969221154E+01 -0.62135829675E+02  0.62498086480E+02  0.00000000000E+00 0. -1.
</event>
<event>
 4    1  0.9897231E-003  0.9118800E+02  0.7818608E-02  0.1130116E+00
         25   -1    0    0    0    0  0.00000000000E+00  0.00000000000E+00  0.99999998245E-14  0.12500000000E+03  0.12500000000E+03 0.  0.
        -13    1    1    0    0    0  0.35999956927E+02 -0.34954577396E+02  0.54458924601E+01  0.50472648914E+02  0.10566000000E+00 0.  1.
         13    1    1    0    0    0  0.82489195750E+01 -0.83479322098E+01  0.28083188526E+01  0.12067744824E+02  0.10566000000E+00 0. -1.
         22    1    1    0    0    0 -0.44248876502E+02  0.43302509606E+02 -0.82542113127E+01  0.62459606261E+02  0.00000000000E+00 0.  1.
</event>
<event>
 4    1  0.9897231E-003  0.9118800E+02  0.7818608E-02  0.1130116E+00
         25   -1    0    0    0    0  0.00000000000E+00  0.00000000000E+00  0.99999998245E-14  0.12500000000E+03  0.12500000000E+03 0.  0.
        -13    1    1    0    0    0  0.42719099623E+01  0.59628803693E+01 -0.74934955517E+01  0.10486600815E+02  0.10566000000E+00 0. -1.
         13    1    1    0    0    0  0.13291850334E+02  0.30286735437E+02 -0.40218328404E+02  0.52071918846E+02  0.10566000000E+00 0.  1.
         22    1    1    0    0    0 -0.17563760296E+02 -0.36249615806E+02  0.47711823955E+02  0.62441480339E+02  0.00000000000E+00 0.  1.
</event>
<event>
 4    1  0.9897231E-003  0.9118800E+02  0.7818608E-02  0.1130116E+00
         25   -1    0    0    0    0  0.00000000000E+00  0.00000000000E+00  0.99999998245E-14  0.12500000000E+03  0.12500000000E+03 0.  0.
        -13    1    1    0    0    0  0.28450463642E+02 -0.25450682501E+02 -0.39299126566E+02  0.54786847273E+02  0.10566000000E+00 0.  1.
         13    1    1    0    0    0  0.34701909230E+01 -0.71227155368E+01  0.18424929694E+02  0.20056532599E+02  0.10566000000E+00 0. -1.
         22    1    1    0    0    0 -0.31920654565E+02  0.32573398038E+02  0.20874196873E+02  0.50156620128E+02  0.00000000000E+00 0.  1.
</event>
<event>
 4    1  0.9897231E-003  0.9118800E+02  0.7818608E-02  0.1130116E+00
         25   -1    0    0    0    0  0.00000000000E+00  0.00000000000E+00  0.99999998245E-14  0.12500000000E+03  0.12500000000E+03 0.  0.
        -13    1    1    0    0    0 -0.16316759480E+02  0.27797565161E+01 -0.17112869571E+02  0.23808090121E+02  0.10566000000E+00 0. -1.
         13    1    1    0    0    0 -0.25706494938E+02  0.30569388277E+01 -0.28768119124E+02  0.38701222189E+02  0.10566000000E+00 0.  1.
         22    1    1    0    0    0  0.42023254417E+02 -0.58366953438E+01  0.45880988695E+02  0.62490687690E+02  0.00000000000E+00 0. -1.
</event>
<event>
 4    1  0.9897231E-003  0.9118800E+02  0.7818608E-02  0.1130116E+00
         25   -1    0    0    0    0  0.00000000000E+00  0.00000000000E+00  0.99999998245E-14  0.12500000000E+03  0.12500000000E+03 0.  0.
        -13    1    1    0    0    0  0.51809907385E+02 -0.22748462701E+02  0.11583166024E+02  0.57757596537E+02  0.10566000000E+00 0. -1.
         13    1    1    0    0    0  0.38111073373E+01  0.24224333122E+01 -0.63504031460E+01  0.77930421814E+01  0.10566000000E+00 0.  1.
         22    1    1    0    0    0 -0.55621014723E+02  0.20326029389E+02 -0.52327628776E+01  0.59449361282E+02  0.00000000000E+00 0. -1.
</event>
<event>
 4    1  0.9897231E-003  0.9118800E+02  0.7818608E-02  0.1130116E+00
         25   -1    0    0    0    0  0.00000000000E+00  0.00000000000E+00  0.99999998245E-14  0.12500000000E+03  0.12500000000E+03 0.  0.
        -13    1    1    0    0    0 -0.32418726475E+02  0.24223259335E+02 -0.44377642541E+01  0.40711730922E+02  0.10566000000E+00 0. -1.
         13    1    1    0    0    0 -0.17362015059E+02  0.13021836978E+02 -0.19441877451E+01  0.21789879192E+02  0.10566000000E+00 0. -1.
         22    1    1    0    0    0  0.49780741534E+02 -0.37245096313E+02  0.63819519992E+01  0.62498389886E+02  0.00000000000E+00 0. -1.
</event>
<event>
 4    1  0.9897231E-003  0.9118800E+02  0.7818608E-02  0.1130116E+00
         25   -1    0    0    0    0  0.00000000000E+00  0.00000000000E+00  0.99999998245E-14  0.12500000000E+03  0.12500000000E+03 0.  0.
        -13    1    1    0    0    0  0.52272031719E+02  0.22645486768E+02 -0.84766967010E+01  0.57593827117E+02  0.10566000000E+00 0. -1.
         13    1    1    0    0    0  0.44145694077E+01  0.20020171121E+01 -0.75670935440E+00  0.49071650324E+01  0.10566000000E+00 0.  1.
         22    1    1    0    0    0 -0.56686601127E+02 -0.24647503880E+02  0.92334060554E+01  0.62499007850E+02  0.00000000000E+00 0. -1.
</event>
<event>
 4    1  0.9897231E-003  0.9118800E+02  0.7818608E-02  0.1130116E+00
         25   -1    0    0    0    0  0.00000000000E+00  0.00000000000E+00  0.99999998245E-14  0.12500000000E+03  0.12500000000E+03 0.  0.
        -13    1    1    0    0    0  0.18669604827E+01 -0.32361811049E+00 -0.10493271482E+02  0.10663497576E+02  0.10566000000E+00 0. -1.
         13    1    1    0    0    0  0.27555858217E+02 -0.96818054129E+01 -0.43289084080E+02  0.52220864055E+02  0.10566000000E+00 0.  1.
         22    1    1    0    0    0 -0.29422818700E+02  0.10005423523E+02  0.53782355562E+02  0.62115638369E+02  0.00000000000E+00 0.  1.
</event>
<event>
 4    1  0.9897231E-003  0.9118800E+02  0.7818608E-02  0.1130116E+00
         25   -1    0    0    0    0  0.00000000000E+00  0.00000000000E+00  0.99999998245E-14  0.12500000000E+03  0.12500000000E+03 0.  0.
        -13    1    1    0    0    0 -0.29551778534E+02  0.43141326223E+01 -0.43604977835E+02  0.52851912083E+02  0.10566000000E+00 0. -1.
         13    1    1    0    0    0 -0.51661824241E+01  0.78168452235E+00 -0.81124890157E+01  0.96500836057E+01  0.10566000000E+00 0.  1.
         22    1    1    0    0    0  0.34717960958E+02 -0.50958171446E+01  0.51717466851E+02  0.62498004311E+02  0.00000000000E+00 0. -1.
</event>
<event>
 4    1  0.9897231E-003  0.9118800E+02  0.7818608E-02  0.1130116E+00
         25   -1    0    0    0    0  0.00000000000E+00  0.00000000000E+00  0.99999998245E-14  0.12500000000E+03  0.12500000000E+03 0.  0.
        -13    1    1    0    0    0  0.62747204896E+00 -0.25409799006E+00  0.46629453773E+00  0.82878319981E+00  0.10566000000E+00 0.  1.
         13    1    1    0    0    0  0.23409707383E+02  0.42091543304E+02 -0.39356547791E+02  0.62198564577E+02  0.10566000000E+00 0. -1.
         22    1    1    0    0    0 -0.24037179431E+02 -0.41837445314E+02  0.38890253254E+02  0.61972652223E+02  0.00000000000E+00 0. -1.
</event>
<event>
 4    1  0.9897231E-003  0.9118800E+02  0.7818608E-02  0.1130116E+00
         25   -1    0    0    0    0  0.00000000000E+00  0.00000000000E+00  0.99999998245E-14  0.12500000000E+03  0.12500000000E+03 0.  0.
        -13    1    1    0    0    0  0.48320609252E+01 -0.97683651345E+01 -0.12416500086E+02  0.16521210870E+02  0.10566000000E+00 0. -1.
         13    1    1    0    0    0  0.11461340861E+02 -0.40423331417E+02 -0.20013868918E+02  0.46540027614E+02  0.10566000000E+00 0.  1.
         22    1    1    0    0    0 -0.16293401786E+02  0.50191696552E+02  0.32430369003E+02  0.61938761517E+02  0.00000000000E+00 0.  1.
</event>
<event>
 4    1  0.9897231E-003  0.9118800E+02  0.7818608E-02  0.1130116E+00
         25   -1    0    0    0    0  0.00000000000E+00  0.00000000000E+00  0.99999998245E-14  0.12500000000E+03  0.12500000000E+03 0.  0.
        -13    1    1    0    0    0 -0.18760652025E+01 -0.55244788130E+01 -0.61771467526E+01  0.84975168631E+01  0.10566000000E+00 0.  1.
         13    1    1    0    0    0 -0.29407996981E+02 -0.30633655169E+02 -0.33724176313E+02  0.54227136633E+02  0.10566000000E+00 0. -1.
         22    1    1    0    0    0  0.31284062184E+02  0.36158133982E+02  0.39901323065E+02  0.62275346504E+02  0.00000000000E+00 0. -1.
</event>
<event>
 4    1  0.9897231E-003  0.9118800E+02  0.7818608E-02  0.1130116E+00
         25   -1    0    0    0    0  0.00000000000E+00  0.00000000000E+00  0.99999998245E-14  0.12500000000E+03  0.12500000000E+03 0.  0.
        -13    1    1    0    0    0  0.29597844544E+02  0.21894297153E+02  0.13845404140E+02  0.39333179751E+02  0.10566000000E+00 0.  1.
         13    1    1    0    0    0  0.12169021072E+02  0.16360309013E+02  0.11728421060E+02  0.23522580841E+02  0.10566000000E+00 0. -1.
         22    1    1    0    0    0 -0.41766865616E+02 -0.38254606166E+02 -0.25573825199E+02  0.62144239408E+02  0.00000000000E+00 0.  1.
</event>
<event>
 4    1  0.9897231E-003  0.9118800E+02  0.7818608E-02  0.1130116E+00
         25   -1    0    0    0    0  0.00000000000E+00  0.00000000000E+00  0.99999998245E-14  0.12500000000E+03  0.12500000000E+03 0.  0.
        -13    1    1    0    0    0 -0.23458912333E+02 -0.36632681791E+02 -0.34211756970E+02  0.55341931861E+02  0.10566000000E+00 0. -1.
         13    1    1    0    0    0 -0.17955525870E+00 -0.47101109252E+01 -0.57878088889E+01  0.74650707156E+01  0.10566000000E+00 0.  1.
         22    1    1    0    0    0  0.23638467591E+02  0.41342792716E+02  0.39999565859E+02  0.62192997424E+02  0.00000000000E+00 0. -1.
</event>
<event>
 4    1  0.9897231E-003  0.9118800E+02  0.7818608E-02  0.1130116E+00
         25   -1    0    0    0    0  0.00000000000E+00  0.00000000000E+00  0.99999998245E-14  0.12500000000E+03  0.12500000000E+03 0.  0.
        -13    1    1    0    0    0  0.46852286703E+02  0.19872587243E+02 -0.11471237936E+02  0.52169502172E+02  0.10566000000E+00 0. -1.
         13    1    1    0    0    0  0.91120481103E+01  0.23250931190E+01 -0.46674314509E+01  0.10499121828E+02  0.10566000000E+00 0.  1.
         22    1    1    0    0    0 -0.55964334813E+02 -0.22197680362E+02  0.16138669387E+02  0.62331376000E+02  0.00000000000E+00 0. -1.
</event>
<event>
 4    1  0.9897231E-003  0.9118800E+02  0.7818608E-02  0.1130116E+00
         25   -1    0    0    0    0  0.00000000000E+00  0.00000000000E+00  0.99999998245E-14  0.12500000000E+03  0.12500000000E+03 0.  0.
        -13    1    1    0    0    0  0.11738360270E+02 -0.86345818556E+01 -0.83894673030E+01  0.16814857457E+02  0.10566000000E+00 0. -1.
         13    1    1    0    0    0  0.38741854936E+02 -0.24963208834E+02 -0.41120225597E+01  0.46271081820E+02  0.10566000000E+00 0.  1.
         22    1    1    0    0    0 -0.50480215206E+02  0.33597790690E+02  0.12501489863E+02  0.61914060723E+02  0.00000000000E+00 0.  1.
</event>
<event>
 4    1  0.9897231E-003  0.9118800E+02  0.7818608E-02  0.1130116E+00
         25   -1    0    0    0    0  0.00000000000E+00  0.00000000000E+00  0.99999998245E-14  0.12500000000E+03  0.12500000000E+03 0.  0.
        -13    1    1    0    0    0  0.26083346124E+02 -0.36518650300E+02 -0.11449063616E+02  0.46314630372E+02  0.10566000000E+00 0. -1.
         13    1    1    0    0    0  0.11373448539E+02 -0.11894094813E+02  0.46272933454E+01  0.17095257554E+02  0.10566000000E+00 0.  1.
         22    1    1    0    0    0 -0.37456794663E+02  0.48412745113E+02  0.68217702709E+01  0.61590112075E+02  0.00000000000E+00 0. -1.
</event>
<event>
 4    1  0.9897231E-003  0.9118800E+02  0.7818608E-02  0.1130116E+00
         25   -1    0    0    0    0  0.00000000000E+00  0.00000000000E+00  0.99999998245E-14  0.12500000000E+03  0.12500000000E+03 0.  0.
        -13    1    1    0    0    0  0.18163823370E+02 -0.18460785688E+02 -0.15384183044E+02  0.30123235875E+02  0.10566000000E+00 0.  1.
         13    1    1    0    0    0  0.19554494597E+02 -0.19690905833E+02 -0.16678006435E+02  0.32377107563E+02  0.10566000000E+00 0.  1.
         22    1    1    0    0    0 -0.37718317967E+02  0.38151691521E+02  0.32062189479E+02  0.62499656562E+02  0.00000000000E+00 0.  1.
</event>
<event>
 4    1  0.9897231E-003  0.9118800E+02  0.7818608E-02  0.1130116E+00
         25   -1    0    0    0    0  0.00000000000E+00  0.00000000000E+00  0.99999998245E-14  0.12500000000E+03  0.12500000000E+03 0.  0.
        -13    1    1    0    0    0  0.26034490640E+01  0.12106812484E+02  0.25062168249E+02  0.27954897548E+02  0.10566000000E+00 0. -1.
         13    1    1    0    0    0  0.31036414201E+02  0.27659748083E+02 -0.89777145470E+01  0.42531531750E+02  0.10566000000E+00 0.  1.
         22    1    1    0    0    0 -0.33639863265E+02 -0.39766560567E+02 -0.16084453702E+02  0.54513570702E+02  0.00000000000E+00 0.  1.
</event>
<event>
 4    1  0.9897231E-003  0.9118800E+02  0.7818608E-02  0.1130116E+00
         25   -1    0    0    0    0  0.00000000000E+00  0.00000000000E+00  0.99999998245E-14  0.12500000000E+03  0.12500000000E+03 0.  0.
        -13    1    1    0    0    0 -0.16899349826E+02 -0.17259223594E+02 -0.27840591164E+02  0.36858899930E+02  0.10566000000E+00 0. -1.
         13    1    1    0    0    0 -0.15737925706E+02  0.30012180509E+02 -0.11190904924E+02  0.35688384686E+02  0.10566000000E+00 0.  1.
         22    1    1    0    0    0  0.32637275532E+02 -0.12752956914E+02  0.39031496089E+02  0.52452715384E+02  0.00000000000E+00 0. -1.
</event>
<event>
 4    1  0.9897231E-003  0.9118800E+02  0.7818608E-02  0.1130116E+00
         25   -1    0    0    0    0  0.00000000000E+00  0.00000000000E+00  0.99999998245E-14  0.12500000000E+03  0.12500000000E+03 0.  0.
        -13    1    1    0    0    0 -0.86050147904E+01  0.59912887465E+00 -0.94568205624E+01  0.12800306799E+02  0.10566000000E+00 0.  1.
         13    1    1    0    0    0 -0.42957301381E+02  0.16532956172E+02 -0.20236776074E+02  0.50281275358E+02  0.10566000000E+00 0. -1.
         22    1    1    0    0    0  0.51562316171E+02 -0.17132085047E+02  0.29693596636E+02  0.61918417843E+02  0.00000000000E+00 0. -1.
</event>
<event>
 4    1  0.9897231E-003  0.9118800E+02  0.7818608E-02  0.1130116E+00
         25   -1    0    0    0    0  0.00000000000E+00  0.00000000000E+00  0.99999998245E-14  0.12500000000E+03  0.12500000000E+03 0.  0.
        -13    1    1    0    0    0  0.33862242801E+02 -0.36741492308E+02  0.33894901586E+00  0.49967137151E+02  0.10566000000E+00 0. -1.
         13    1    1    0    0    0  0.85530820279E+01 -0.91526743736E+01 -0.55593335080E+00  0.12539812052E+02  0.10566000000E+00 0.  1.
         22    1    1    0    0    0 -0.42415324829E+02  0.45894166682E+02  0.21698433494E+00  0.62493050798E+02  0.00000000000E+00 0. -1.
</event>
<event>
 4    1  0.9897231E-003  0.9118800E+02  0.7818608E-02  0.1130116E+00
         25   -1    0    0    0    0  0.00000000000E+00  0.00000000000E+00  0.99999998245E-14  0.12500000000E+03  0.12500000000E+03 0.  0.
        -13    1    1    0    0    0  0.95739220501E+01 -0.41182911057E+02 -0.34384749083E+02  0.54497837389E+02  0.10566000000E+00 0. -1.
         13    1    1    0    0    0  0.12493024375E+01 -0.61063812169E+01 -0.50193411737E+01  0.80033491739E+01  0.10566000000E+00 0.  1.
         22    1    1    0    0    0 -0.10823224488E+02  0.47289292274E+02  0.39404090256E+02  0.62498813437E+02  0.00000000000E+00 0. -1.
</event>
<event>
 4    1  0.9897231E-003  0.9118800E+02  0.7818608E-02  0.1130116E+00
         25   -1    0    0    0    0  0.00000000000E+00  0.00000000000E+00  0.99999998245E-14  0.12500000000E+03  0.12500000000E+03 0.  0.
        -13    1    1    0    0    0  0.76843019468E+00 -0.53587625011E+01  0.20285224078E+01  0.57821179253E+01  0.10566000000E+00 0.  1.
         13    1    1    0    0    0 -0.25433208822E+02 -0.42017488627E+02  0.29402781488E+02  0.57243796037E+02  0.10566000000E+00 0. -1.
         22    1    1    0    0    0  0.24664778627E+02  0.47376251128E+02 -0.31431303896E+02  0.61974086038E+02  0.00000000000E+00 0. -1.
</event>
<event>
 4    1  0.9897231E-003  0.9118800E+02  0.7818608E-02  0.1130116E+00
         25   -1    0    0    0    0  0.00000000000E+00  0.00000000000E+00  0.99999998245E-14  0.12500000000E+03  0.12500000000E+03 0.  0.
        -13    1    1    0    0    0  0.22142603969E+00  0.22888442349E+02  0.54649171606E+02  0.59249244248E+02  0.10566000000E+00 0. -1.
         13    1    1    0    0    0 -0.25172439901E+00  0.11813443688E+01  0.30231010574E+01  0.32571834044E+01  0.10566000000E+00 0.  1.
         22    1    1    0    0    0  0.30298359324E-01 -0.24069786718E+02 -0.57672272663E+02  0.62493572348E+02  0.00000000000E+00 0. -1.
</event>
<event>
 4    1  0.9897231E-003  0.9118800E+02  0.7818608E-02  0.1130116E+00
         25   -1    0    0    0    0  0.00000000000E+00  0.00000000000E+00  0.99999998245E-14  0.12500000000E+03  0.12500000000E+03 0.  0.
        -13    1    1    0    0    0  0.31917765215E+01 -0.29888608737E+01 -0.35278733214E+01  0.56194110807E+01  0.10566000000E+00 0.  1.
         13    1    1    0    0    0 -0.29752796889E+02  0.32987362809E+02 -0.40313449818E+02  0.59988169067E+02  0.10566000000E+00 0. -1.
         22    1    1    0    0    0  0.26561020367E+02 -0.29998501935E+02  0.43841323139E+02  0.59392419852E+02  0.00000000000E+00 0. -1.
</event>
<event>
 4    1  0.9897231E-003  0.9118800E+02  0.7818608E-02  0.1130116E+00
         25   -1    0    0    0    0  0.00000000000E+00  0.00000000000E+00  0.99999998245E-14  0.12500000000E+03  0.12500000000E+03 0.  0.
        -13    1    1    0    0    0 -0.20908384221E+02  0.28061877307E+02  0.25574992908E+02  0.43344214320E+02  0.10566000000E+00 0. -1.
         13    1    1    0    0    0 -0.91492581722E+01  0.12605629198E+02  0.11151475911E+02  0.19156653978E+02  0.10566000000E+00 0.  1.
         22    1    1    0    0    0  0.30057642393E+02 -0.40667506506E+02 -0.36726468819E+02  0.62499131702E+02  0.00000000000E+00 0. -1.
</event>
<event>
 4    1  0.9897231E-003  0.9118800E+02  0.7818608E-02  0.1130116E+00
         25   -1    0    0    0    0  0.00000000000E+00  0.00000000000E+00  0.99999998245E-14  0.12500000000E+03  0.12500000000E+03 0.  0.
        -13    1    1    0    0    0  0.43295716339E+01 -0.12946944557E+02 -0.23137224881E+01  0.13846770009E+02  0.10566000000E+00 0.  1.
         13    1    1    0    0    0  0.28802312113E+02 -0.39227696103E+02 -0.49734990504E+01  0.48919650259E+02  0.10566000000E+00 0. -1.
         22    1    1    0    0    0 -0.33131883747E+02  0.52174640660E+02  0.72872215385E+01  0.62233579733E+02  0.00000000000E+00 0. -1.
</event>
<event>
 4    1  0.9897231E-003  0.9118800E+02  0.7818608E-02  0.1130116E+00
         25   -1    0    0    0    0  0.00000000000E+00  0.00000000000E+00  0.99999998245E-14  0.12500000000E+03  0.12500000000E+03 0.  0.
        -13    1    1    0    0    0 -0.59291887080E+00 -0.40478868092E+02  0.17560949048E+02  0.44128090944E+02  0.10566000000E+00 0. -1.
         13    1    1    0    0    0  0.71072389076E+00 -0.13008649145E+02  0.13710613036E+02  0.18913544218E+02  0.10566000000E+00 0.  1.
         22    1    1    0    0    0 -0.11780501996E+00  0.53487517237E+02 -0.31271562085E+02  0.61958364838E+02  0.00000000000E+00 0. -1.
</event>
<event>
 4    1  0.9897231E-003  0.9118800E+02  0.7818608E-02  0.1130116E+00
         25   -1    0    0    0    0  0.00000000000E+00  0.00000000000E+00  0.99999998245E-14  0.12500000000E+03  0.12500000000E+03 0.  0.
        -13    1    1    0    0    0 -0.97103116284E+01  0.15535742690E+01  0.33927349241E+01  0.10403151409E+02  0.10566000000E+00 0. -1.
         13    1    1    0    0    0 -0.47417481229E+02  0.13844322210E+02  0.16649752380E+02  0.52127806418E+02  0.10566000000E+00 0.  1.
         22    1    1    0    0    0  0.57127792857E+02 -0.15397896480E+02 -0.20042487304E+02  0.62469042174E+02  0.00000000000E+00 0.  1.
</event>
<event>
 4    1  0.9897231E-003  0.9118800E+02  0.7818608E-02  0.1130116E+00
         25   -1    0    0    0    0  0.00000000000E+00  0.00000000000E+00  0.99999998245E-14  0.12500000000E+03  0.12500000000E+03 0.  0.
        -13    1    1    0    0    0  0.33661131902E+02 -0.17207230805E+02 -0.37391619519E+02  0.53172407950E+02  0.10566000000E+00 0. -1.
         13    1    1    0    0    0  0.58015295035E+01 -0.72360090546E+00 -0.74435515693E+01  0.94656730796E+01  0.10566000000E+00 0.  1.
         22    1    1    0    0    0 -0.39462661406E+02  0.17930831710E+02  0.44835171089E+02  0.62361918970E+02  0.00000000000E+00 0. -1.
</event>
<event>
 4    1  0.9897231E-003  0.9118800E+02  0.7818608E-02  0.1130116E+00
         25   -1    0    0    0    0  0.00000000000E+00  0.00000000000E+00  0.99999998245E-14  0.12500000000E+03  0.12500000000E+03 0.  0.
        -13    1    1    0    0    0  0.13345907189E+02 -0.18162544837E+00  0.60032668783E+01  0.14635457073E+02  0.10566000000E+00 0.  1.
         13    1    1    0    0    0 -0.17316126533E+02  0.15529679821E+02 -0.54546166703E+02  0.59298521562E+02  0.10566000000E+00 0. -1.
         22    1    1    0    0    0  0.39702193441E+01 -0.15348054373E+02  0.48542899824E+02  0.51066021365E+02  0.00000000000E+00 0. -1.
</event>
<event>
 4    1  0.9897231E-003  0.9118800E+02  0.7818608E-02  0.1130116E+00
         25   -1    0    0    0    0  0.00000000000E+00  0.00000000000E+00  0.99999998245E-14  0.12500000000E+03  0.12500000000E+03 0.  0.
        -13    1    1    0    0    0 -0.17877686508E+02  0.20496906861E+02  0.34213910303E+02  0.43707409989E+02  0.10566000000E+00 0.  1.
         13    1    1    0    0    0 -0.50232923732E+01  0.10944172567E+02  0.14568231309E+02  0.18901135071E+02  0.10566000000E+00 0. -1.
         22    1    1    0    0    0  0.22900978881E+02 -0.31441079428E+02 -0.48782141612E+02  0.62391454940E+02  0.00000000000E+00 0. -1.
</event>
<event>
 4    1  0.9897231E-003  0.9118800E+02  0.7818608E-02  0.1130116E+00
         25   -1    0    0    0    0  0.00000000000E+00  0.00000000000E+00  0.99999998245E-14  0.12500000000E+03  0.12500000000E+03 0.  0.
        -13    1    1    0    0    0  0.13213988682E+01  0.12086693330E+02 -0.36810767512E+01  0.12704162337E+02  0.10566000000E+00 0.  1.
         13    1    1    0    0    0  0.93330142769E+01  0.47975143246E+02 -0.97439235280E+01  0.49836479959E+02  0.10566000000E+00 0. -1.
         22    1    1    0    0    0 -0.10654413145E+02 -0.60061836575E+02  0.13425000279E+02  0.62459357704E+02  0.00000000000E+00 0. -1.
</event>
<event>
 4    1  0.9897231E-003  0.9118800E+02  0.7818608E-02  0.1130116E+00
         25   -1    0    0    0    0  0.00000000000E+00  0.00000000000E+00  0.99999998245E-14  0.12500000000E+03  0.12500000000E+03 0.  0.
        -13    1    1    0    0    0 -0.37136039756E+01 -0.41858724273E+01 -0.70523439642E+01  0.90032828396E+01  0.10566000000E+00 0.  1.
         13    1    1    0    0    0 -0.15017799865E+02 -0.39782272531E+02 -0.32852811627E+02  0.53735294885E+02  0.10566000000E+00 0. -1.
         22    1    1    0    0    0  0.18731403841E+02  0.43968144959E+02  0.39905155591E+02  0.62261422275E+02  0.00000000000E+00 0. -1.
</event>
<event>
 4    1  0.9897231E-003  0.9118800E+02  0.7818608E-02  0.1130116E+00
         25   -1    0    0    0    0  0.00000000000E+00  0.00000000000E+00  0.99999998245E-14  0.12500000000E+03  0.12500000000E+03 0.  0.
        -13    1    1    0    0    0  0.29693137657E+01 -0.27897601757E+01 -0.28174718170E+01  0.49546844049E+01  0.10566000000E+00 0.  1.
         13    1    1    0    0    0  0.34562340331E+02 -0.30948456001E+02 -0.34048698054E+02  0.57547261457E+02  0.10566000000E+00 0. -1.
         22    1    1    0    0    0 -0.37531654097E+02  0.33738216177E+02  0.36866169871E+02  0.62498054138E+02  0.00000000000E+00 0. -1.
</event>
<event>
 4    1  0.9897231E-003  0.9118800E+02  0.7818608E-02  0.1130116E+00
         25   -1    0    0    0    0  0.00000000000E+00  0.00000000000E+00  0.99999998245E-14  0.12500000000E+03  0.12500000000E+03 0.  0.
        -13    1    1    0    0    0 -0.45604491299E+01 -0.36649384165E+01  0.25262246355E+01  0.63735739431E+01  0.10566000000E+00 0. -1.
         13    1    1    0    0    0 -0.11075351831E+02 -0.24475927594E+01 -0.58809134930E+02  0.59893068412E+02  0.10566000000E+00 0.  1.
         22    1    1    0    0    0  0.15635800961E+02  0.61125311759E+01  0.56282910295E+02  0.58733357645E+02  0.00000000000E+00 0.  1.
</event>
<event>
 4    1  0.9897231E-003  0.9118800E+02  0.7818608E-02  0.1130116E+00
         25   -1    0    0    0    0  0.00000000000E+00  0.00000000000E+00  0.99999998245E-14  0.12500000000E+03  0.12500000000E+03 0.  0.
        -13    1    1    0    0    0  0.11689207689E+02 -0.58022347613E+01  0.21664576609E+02  0.25291669543E+02  0.10566000000E+00 0. -1.
         13    1    1    0    0    0  0.17351227771E+02 -0.80542239493E+01  0.31915184977E+02  0.37209216933E+02  0.10566000000E+00 0.  1.
         22    1    1    0    0    0 -0.29040435461E+02  0.13856458711E+02 -0.53579761585E+02  0.62499113524E+02  0.00000000000E+00 0.  1.
</event>
<event>
 4    1  0.9897231E-003  0.9118800E+02  0.7818608E-02  0.1130116E+00
         25   -1    0    0    0    0  0.00000000000E+00  0.00000000000E+00  0.99999998245E-14  0.12500000000E+03  0.12500000000E+03 0.  0.
        -13    1    1    0    0    0 -0.16708507318E+01 -0.19516490562E+02  0.26638803626E+02  0.33065422554E+02  0.10566000000E+00 0. -1.
         13    1    1    0    0    0  0.26074752343E+02  0.43571591430E+02 -0.27320836642E+02  0.57661213726E+02  0.10566000000E+00 0.  1.
         22    1    1    0    0    0 -0.24403901611E+02 -0.24055100868E+02  0.68203301564E+00  0.34273363720E+02  0.00000000000E+00 0.  1.
</event>
<event>
 4    1  0.9897231E-003  0.9118800E+02  0.7818608E-02  0.1130116E+00
         25   -1    0    0    0    0  0.00000000000E+00  0.00000000000E+00  0.99999998245E-14  0.12500000000E+03  0.12500000000E+03 0.  0.
        -13    1    1    0    0    0 -0.20111293043E+01  0.50416178463E+01  0.92868351944E+01  0.10757277702E+02  0.10566000000E+00 0. -1.
         13    1    1    0    0    0 -0.47258589447E+01  0.24511057937E+02  0.45347075932E+02  0.51763830650E+02  0.10566000000E+00 0.  1.
         22    1    1    0    0    0  0.67369882490E+01 -0.29552675784E+02 -0.54633911126E+02  0.62478891648E+02  0.00000000000E+00 0.  1.
</event>
<event>
 4    1  0.9897231E-003  0.9118800E+02  0.7818608E-02  0.1130116E+00
         25   -1    0    0    0    0  0.00000000000E+00  0.00000000000E+00  0.99999998245E-14  0.12500000000E+03  0.12500000000E+03 0.  0.
        -13    1    1    0    0    0 -0.44244560220E+02  0.24616091535E+02 -0.11889757734E+02  0.52008754788E+02  0.10566000000E+00 0. -1.
         13    1    1    0    0    0 -0.95329010927E+01  0.46101685615E+01  0.38096128043E+01  0.11254073536E+02  0.10566000000E+00 0.  1.
         22    1    1    0    0    0  0.53777461313E+02 -0.29226260096E+02  0.80801449301E+01  0.61737171676E+02  0.00000000000E+00 0. -1.
</event>
<event>
 4    1  0.9897231E-003  0.9118800E+02  0.7818608E-02  0.1130116E+00
         25   -1    0    0    0    0  0.00000000000E+00  0.00000000000E+00  0.99999998245E-14  0.12500000000E+03  0.12500000000E+03 0.  0.
        -13    1    1    0    0    0 -0.29318595603E+02 -0.21815034621E+02 -0.50382324483E+02  0.62240385345E+02  0.10566000000E+00 0. -1.
         13    1    1    0    0    0  0.69260995780E+01  0.39187713687E+01  0.16918055699E+02  0.18696507617E+02  0.10566000000E+00 0.  1.
         22    1    1    0    0    0  0.22392496025E+02  0.17896263252E+02  0.33464268783E+02  0.44063107037E+02  0.00000000000E+00 0. -1.
</event>
<event>
 4    1  0.9897231E-003  0.9118800E+02  0.7818608E-02  0.1130116E+00
         25   -1    0    0    0    0  0.00000000000E+00  0.00000000000E+00  0.99999998245E-14  0.12500000000E+03  0.12500000000E+03 0.  0.
        -13    1    1    0    0    0 -0.25797866370E+02  0.13889632946E+02  0.80023404293E+01  0.30372692160E+02  0.10566000000E+00 0.  1.
         13    1    1    0    0    0 -0.26460091715E+02  0.14888143044E+02  0.10564996841E+02  0.32146906214E+02  0.10566000000E+00 0. -1.
         22    1    1    0    0    0  0.52257958085E+02 -0.28777775990E+02 -0.18567337270E+02  0.62480401627E+02  0.00000000000E+00 0.  1.
</event>
<event>
 4    1  0.9897231E-003  0.9118800E+02  0.7818608E-02  0.1130116E+00
         25   -1    0    0    0    0  0.00000000000E+00  0.00000000000E+00  0.99999998245E-14  0.12500000000E+03  0.12500000000E+03 0.  0.
        -13    1    1    0    0    0 -0.47039950419E+02  0.17089904045E+01 -0.81773195929E+01  0.47776116454E+02  0.10566000000E+00 0. -1.
         13    1    1    0    0    0 -0.33552886589E+01 -0.96873000043E+01 -0.17364268578E+02  0.20165086923E+02  0.10566000000E+00 0.  1.
         22    1    1    0    0    0  0.50395239078E+02  0.79783095998E+01  0.25541588171E+02  0.57058796623E+02  0.00000000000E+00 0. -1.
</event>
<event>
 4    1  0.9897231E-003  0.9118800E+02  0.7818608E-02  0.1130116E+00
         25   -1    0    0    0    0  0.00000000000E+00  0.00000000000E+00  0.99999998245E-14  0.12500000000E+03  0.12500000000E+03 0.  0.
        -13    1    1    0    0    0 -0.63877685015E+01 -0.12050711144E+01  0.53615597814E+02  0.54008325986E+02  0.10566000000E+00 0.  1.
         13    1    1    0    0    0 -0.96404079426E+01 -0.15828478759E+01  0.44167671670E+01  0.10722027278E+02  0.10566000000E+00 0. -1.
         22    1    1    0    0    0  0.16028176444E+02  0.27879189903E+01 -0.58032364981E+02  0.60269646736E+02  0.00000000000E+00 0.  1.
</event>
<event>
 4    1  0.9897231E-003  0.9118800E+02  0.7818608E-02  0.1130116E+00
         25   -1    0    0    0    0  0.00000000000E+00  0.00000000000E+00  0.99999998245E-14  0.12500000000E+03  0.12500000000E+03 0.  0.
        -13    1    1    0    0    0 -0.12658426642E+02  0.14155743895E+02  0.58691613913E+01  0.19876596030E+02  0.10566000000E+00 0.  1.
         13    1    1    0    0    0 -0.25744266569E+02  0.31822950536E+02  0.11917169434E+02  0.42632118564E+02  0.10566000000E+00 0. -1.
         22    1    1    0    0    0  0.38402693211E+02 -0.45978694431E+02 -0.17786330825E+02  0.62491285405E+02  0.00000000000E+00 0. -1.
</event>
<event>
 4    1  0.9897231E-003  0.9118800E+02  0.7818608E-02  0.1130116E+00
         25   -1    0    0    0    0  0.00000000000E+00  0.00000000000E+00  0.99999998245E-14  0.12500000000E+03  0.12500000000E+03 0.  0.
        -13    1    1    0    0    0  0.85079159216E+01 -0.11680157375E+01  0.37365449394E+01  0.93659930713E+01  0.10566000000E+00 0.  1.
         13    1    1    0    0    0  0.49641454213E+02 -0.68844901325E+01  0.17681956436E+02  0.53144453410E+02  0.10566000000E+00 0. -1.
         22    1    1    0    0    0 -0.58149370135E+02  0.80525058701E+01 -0.21418501375E+02  0.62489553519E+02  0.00000000000E+00 0. -1.
</event>
<event>
 4    1  0.9897231E-003  0.9118800E+02  0.7818608E-02  0.1130116E+00
         25   -1    0    0    0    0  0.00000000000E+00  0.00000000000E+00  0.99999998245E-14  0.12500000000E+03  0.12500000000E+03 0.  0.
        -13    1    1    0    0    0  0.20347912087E+02 -0.91258614452E+01 -0.18317819760E+01  0.22376001936E+02  0.10566000000E+00 0.  1.
         13    1    1    0    0    0  0.16265745208E+01 -0.44425120461E+02  0.44733182601E+01  0.44679512228E+02  0.10566000000E+00 0. -1.
         22    1    1    0    0    0 -0.21974486608E+02  0.53550981906E+02 -0.26415362841E+01  0.57944485835E+02  0.00000000000E+00 0. -1.
</event>
<event>
 4    1  0.9897231E-003  0.9118800E+02  0.7818608E-02  0.1130116E+00
         25   -1    0    0    0    0  0.00000000000E+00  0.00000000000E+00  0.99999998245E-14  0.12500000000E+03  0.12500000000E+03 0.  0.
        -13    1    1    0    0    0  0.19368090467E+01 -0.95425410424E+00 -0.20535806036E+01  0.29816417474E+01  0.10566000000E+00 0. -1.
         13    1    1    0    0    0  0.56543753288E+02 -0.55580315987E+01 -0.18402044712E+02  0.59722141328E+02  0.10566000000E+00 0.  1.
         22    1    1    0    0    0 -0.58480562335E+02  0.65122857030E+01  0.20455625316E+02  0.62296216925E+02  0.00000000000E+00 0.  1.
</event>
<event>
 4    1  0.9897231E-003  0.9118800E+02  0.7818608E-02  0.1130116E+00
         25   -1    0    0    0    0  0.00000000000E+00  0.00000000000E+00  0.99999998245E-14  0.12500000000E+03  0.12500000000E+03 0.  0.
        -13    1    1    0    0    0 -0.74598669669E+01 -0.21074672934E+02 -0.14375205435E+02  0.26579111155E+02  0.10566000000E+00 0. -1.
         13    1    1    0    0    0  0.14136433154E+02  0.56710196442E+02 -0.23512304526E+01  0.58492944630E+02  0.10566000000E+00 0.  1.
         22    1    1    0    0    0 -0.66765661867E+01 -0.35635523508E+02  0.16726435888E+02  0.39927944215E+02  0.00000000000E+00 0.  1.
</event>
<event>
 4    1  0.9897231E-003  0.9118800E+02  0.7818608E-02  0.1130116E+00
         25   -1    0    0    0    0  0.00000000000E+00  0.00000000000E+00  0.99999998245E-14  0.12500000000E+03  0.12500000000E+03 0.  0.
        -13    1    1    0    0    0 -0.42223595352E+01  0.27415156018E+02 -0.14390104890E+02  0.31249086103E+02  0.10566000000E+00 0.  1.
         13    1    1    0    0    0 -0.56059326730E+01  0.28483905802E+02 -0.11681597527E+02  0.31292654980E+02  0.10566000000E+00 0. -1.
         22    1    1    0    0    0  0.98282922082E+01 -0.55899061820E+02  0.26071702416E+02  0.62458258917E+02  0.00000000000E+00 0.  1.
</event>
<event>
 4    1  0.9897231E-003  0.9118800E+02  0.7818608E-02  0.1130116E+00
         25   -1    0    0    0    0  0.00000000000E+00  0.00000000000E+00  0.99999998245E-14  0.12500000000E+03  0.12500000000E+03 0.  0.
        -13    1    1    0    0    0 -0.76346911539E+01  0.24603193486E+02  0.40164663197E+02  0.47716003316E+02  0.10566000000E+00 0. -1.
         13    1    1    0    0    0 -0.59350124980E+01 -0.35942268093E+01  0.15102918861E+02  0.16620835173E+02  0.10566000000E+00 0.  1.
         22    1    1    0    0    0  0.13569703652E+02 -0.21008966676E+02 -0.55267582057E+02  0.60663161511E+02  0.00000000000E+00 0. -1.
</event>
<event>
 4    1  0.9897231E-003  0.9118800E+02  0.7818608E-02  0.1130116E+00
         25   -1    0    0    0    0  0.00000000000E+00  0.00000000000E+00  0.99999998245E-14  0.12500000000E+03  0.12500000000E+03 0.  0.
        -13    1    1    0    0    0 -0.21141673871E+02  0.99418747249E+01 -0.47403693889E+02  0.52848203427E+02  0.10566000000E+00 0. -1.
         13    1    1    0    0    0 -0.15868057943E+02 -0.24985860397E+01  0.95347214049E+01  0.18680478350E+02  0.10566000000E+00 0.  1.
         22    1    1    0    0    0  0.37009731814E+02 -0.74432886852E+01  0.37868972484E+02  0.53471318222E+02  0.00000000000E+00 0. -1.
</event>
<event>
 4    1  0.9897231E-003  0.9118800E+02  0.7818608E-02  0.1130116E+00
         25   -1    0    0    0    0  0.00000000000E+00  0.00000000000E+00  0.99999998245E-14  0.12500000000E+03  0.12500000000E+03 0.  0.
        -13    1    1    0    0    0 -0.53703578465E+01  0.22559885959E+01  0.99463796785E+01  0.11527005712E+02  0.10566000000E+00 0. -1.
         13    1    1    0    0    0 -0.23874477457E+02  0.11646851010E+02  0.43507530566E+02  0.50976035470E+02  0.10566000000E+00 0.  1.
         22    1    1    0    0    0  0.29244835304E+02 -0.13902839606E+02 -0.53453910244E+02  0.62496958818E+02  0.00000000000E+00 0.  1.
</event>
<event>
 4    1  0.9897231E-003  0.9118800E+02  0.7818608E-02  0.1130116E+00
         25   -1    0    0    0    0  0.00000000000E+00  0.00000000000E+00  0.99999998245E-14  0.12500000000E+03  0.12500000000E+03 0.  0.
        -13    1    1    0    0    0  0.25954762818E+01 -0.35518709125E+02  0.20720225975E+02  0.41202598505E+02  0.10566000000E+00 0. -1.
         13    1    1    0    0    0  0.12718741405E+01 -0.18434401747E+02  0.10589618852E+02  0.21297793855E+02  0.10566000000E+00 0. -1.
         22    1    1    0    0    0 -0.38673504224E+01  0.53953110872E+02 -0.31309844827E+02  0.62499607640E+02  0.00000000000E+00 0. -1.
</event>
<event>
 4    1  0.9897231E-003  0.9118800E+02  0.7818608E-02  0.1130116E+00
         25   -1    0    0    0    0  0.00000000000E+00  0.00000000000E+00  0.99999998245E-14  0.12500000000E+03  0.12500000000E+03 0.  0.
        -13    1    1    0    0    0 -0.19145299952E+01 -0.16353822471E+01 -0.11540864753E+02  0.11812816069E+02  0.10566000000E+00 0.  1.
         13    1    1    0    0    0  0.29435683961E+02 -0.65932694091E+01 -0.42423014832E+02  0.52054337411E+02  0.10566000000E+00 0. -1.
         22    1    1    0    0    0 -0.27521153966E+02  0.82286516561E+01  0.53963879586E+02  0.61132846520E+02  0.00000000000E+00 0. -1.
</event>
<event>
 4    1  0.9897231E-003  0.9118800E+02  0.7818608E-02  0.1130116E+00
         25   -1    0    0    0    0  0.00000000000E+00  0.00000000000E+00  0.99999998245E-14  0.12500000000E+03  0.12500000000E+03 0.  0.
        -13    1    1    0    0    0  0.37540517488E+02 -0.31123241333E+02 -0.17933136021E+02  0.51957243344E+02  0.10566000000E+00 0. -1.
         13    1    1    0    0    0  0.73026792384E+01 -0.51848370011E+01 -0.57811494214E+01  0.10660417977E+02  0.10566000000E+00 0.  1.
         22    1    1    0    0    0 -0.44843196727E+02  0.36308078334E+02  0.23714285442E+02  0.62382338678E+02  0.00000000000E+00 0. -1.
</event>
<event>
 4    1  0.9897231E-003  0.9118800E+02  0.7818608E-02  0.1130116E+00
         25   -1    0    0    0    0  0.00000000000E+00  0.00000000000E+00  0.99999998245E-14  0.12500000000E+03  0.12500000000E+03 0.  0.
        -13    1    1    0    0    0 -0.11598603480E+02 -0.83706373022E+01  0.66756631669E+01  0.15785145368E+02  0.10566000000E+00 0. -1.
         13    1    1    0    0    0 -0.28922897535E+02 -0.32395783648E+02  0.17547704975E+02  0.46839661761E+02  0.10566000000E+00 0.  1.
         22    1    1    0    0    0  0.40521501015E+02  0.40766420950E+02 -0.24223368141E+02  0.62375192871E+02  0.00000000000E+00 0.  1.
</event>
<event>
 4    1  0.9897231E-003  0.9118800E+02  0.7818608E-02  0.1130116E+00
         25   -1    0    0    0    0  0.00000000000E+00  0.00000000000E+00  0.99999998245E-14  0.12500000000E+03  0.12500000000E+03 0.  0.
        -13    1    1    0    0    0 -0.54064755884E+00  0.11321408877E+02 -0.39463261976E+02  0.41058821325E+02  0.10566000000E+00 0.  1.
         13    1    1    0    0    0 -0.20157722039E+01  0.20472125023E+01 -0.21391015589E+02  0.21583353043E+02  0.10566000000E+00 0. -1.
         22    1    1    0    0    0  0.25564197628E+01 -0.13368621379E+02  0.60854277565E+02  0.62357825632E+02  0.00000000000E+00 0.  1.
</event>
<event>
 4    1  0.9897231E-003  0.9118800E+02  0.7818608E-02  0.1130116E+00
         25   -1    0    0    0    0  0.00000000000E+00  0.00000000000E+00  0.99999998245E-14  0.12500000000E+03  0.12500000000E+03 0.  0.
        -13    1    1    0    0    0 -0.11219609396E+02  0.12675968939E+02  0.19920700162E+02  0.26142021392E+02  0.10566000000E+00 0. -1.
         13    1    1    0    0    0 -0.15911092837E+02  0.17372392352E+02  0.27694321964E+02  0.36358623796E+02  0.10566000000E+00 0.  1.
         22    1    1    0    0    0  0.27130702233E+02 -0.30048361290E+02 -0.47615022125E+02  0.62499354811E+02  0.00000000000E+00 0.  1.
</event>
<event>
 4    1  0.9897231E-003  0.9118800E+02  0.7818608E-02  0.1130116E+00
         25   -1    0    0    0    0  0.00000000000E+00  0.00000000000E+00  0.99999998245E-14  0.12500000000E+03  0.12500000000E+03 0.  0.
        -13    1    1    0    0    0 -0.16185912409E+02 -0.18766369974E+02  0.67324775322E+01  0.25680689638E+02  0.10566000000E+00 0. -1.
         13    1    1    0    0    0 -0.17851011837E+02 -0.32387527415E+02  0.30315092207E+01  0.37105414266E+02  0.10566000000E+00 0.  1.
         22    1    1    0    0    0  0.34036924246E+02  0.51153897389E+02 -0.97639867529E+01  0.62213896096E+02  0.00000000000E+00 0.  1.
</event>
<event>
 4    1  0.9897231E-003  0.9118800E+02  0.7818608E-02  0.1130116E+00
         25   -1    0    0    0    0  0.00000000000E+00  0.00000000000E+00  0.99999998245E-14  0.12500000000E+03  0.12500000000E+03 0.  0.
        -13    1    1    0    0    0 -0.36228717025E+00 -0.92393868858E+00 -0.86824677744E+00  0.13228496499E+01  0.10566000000E+00 0.  1.
         13    1    1    0    0    0  0.38476002991E+02 -0.38953681381E+02  0.28779839251E+02  0.61855334537E+02  0.10566000000E+00 0. -1.
         22    1    1    0    0    0 -0.38113715821E+02  0.39877620070E+02 -0.27911592474E+02  0.61821815814E+02  0.00000000000E+00 0. -1.
</event>
<event>
 4    1  0.9897231E-003  0.9118800E+02  0.7818608E-02  0.1130116E+00
         25   -1    0    0    0    0  0.00000000000E+00  0.00000000000E+00  0.99999998245E-14  0.12500000000E+03  0.12500000000E+03 0.  0.
        -13    1    1    0    0    0  0.45627150637E+02  0.20925955871E+02 -0.32766886072E+02  0.59945078958E+02  0.10566000000E+00 0. -1.
         13    1    1    0    0    0 -0.42043675729E+01 -0.71457740471E+01 -0.27936866157E+01  0.87495509807E+01  0.10566000000E+00 0.  1.
         22    1    1    0    0    0 -0.41422783064E+02 -0.13780181824E+02  0.35560572688E+02  0.56305370062E+02  0.00000000000E+00 0. -1.
</event>
<event>
 4    1  0.9897231E-003  0.9118800E+02  0.7818608E-02  0.1130116E+00
         25   -1    0    0    0    0  0.00000000000E+00  0.00000000000E+00  0.99999998245E-14  0.12500000000E+03  0.12500000000E+03 0.  0.
        -13    1    1    0    0    0  0.41408724341E+02 -0.94317909529E+01  0.35403843951E+02  0.55290907595E+02  0.10566000000E+00 0.  1.
         13    1    1    0    0    0  0.18794561353E+01 -0.35342258196E+01  0.67909800592E+01  0.78836337883E+01  0.10566000000E+00 0. -1.
         22    1    1    0    0    0 -0.43288180476E+02  0.12966016773E+02 -0.42194824010E+02  0.61825458617E+02  0.00000000000E+00 0.  1.
</event>
<event>
 4    1  0.9897231E-003  0.9118800E+02  0.7818608E-02  0.1130116E+00
         25   -1    0    0    0    0  0.00000000000E+00  0.00000000000E+00  0.99999998245E-14  0.12500000000E+03  0.12500000000E+03 0.  0.
        -13    1    1    0    0    0  0.15412744743E+02 -0.12146328540E+02  0.23703738878E+01  0.19766533179E+02  0.10566000000E+00 0. -1.
         13    1    1    0    0    0  0.33310075752E+02 -0.26299362730E+02  0.49940974394E+01  0.42733708005E+02  0.10566000000E+00 0. -1.
         22    1    1    0    0    0 -0.48722820495E+02  0.38445691270E+02 -0.73644713273E+01  0.62499758816E+02  0.00000000000E+00 0. -1.
</event>
<event>
 4    1  0.9897231E-003  0.9118800E+02  0.7818608E-02  0.1130116E+00
         25   -1    0    0    0    0  0.00000000000E+00  0.00000000000E+00  0.99999998245E-14  0.12500000000E+03  0.12500000000E+03 0.  0.
        -13    1    1    0    0    0 -0.93399920402E+01  0.45115150963E+01  0.15013116259E+02  0.18248124387E+02  0.10566000000E+00 0.  1.
         13    1    1    0    0    0 -0.17819362807E+02  0.12338745721E+02  0.38637833685E+02  0.44302005516E+02  0.10566000000E+00 0. -1.
         22    1    1    0    0    0  0.27159354847E+02 -0.16850260817E+02 -0.53650949944E+02  0.62449870098E+02  0.00000000000E+00 0. -1.
</event>
<event>
 4    1  0.9897231E-003  0.9118800E+02  0.7818608E-02  0.1130116E+00
         25   -1    0    0    0    0  0.00000000000E+00  0.00000000000E+00  0.99999998245E-14  0.12500000000E+03  0.12500000000E+03 0.  0.
        -13    1    1    0    0    0  0.25454484217E+02  0.50601874601E+01 -0.54614435370E+01  0.26521214026E+02  0.10566000000E+00 0.  1.
         13    1    1    0    0    0  0.34616776194E+02  0.75913436866E+01 -0.62393286862E+01  0.35984581136E+02  0.10566000000E+00 0. -1.
         22    1    1    0    0    0 -0.60071260411E+02 -0.12651531147E+02  0.11700772223E+02  0.62494204838E+02  0.00000000000E+00 0.  1.
</event>
<event>
 4    1  0.9897231E-003  0.9118800E+02  0.7818608E-02  0.1130116E+00
         25   -1    0    0    0    0  0.00000000000E+00  0.00000000000E+00  0.99999998245E-14  0.12500000000E+03  0.12500000000E+03 0.  0.
        -13    1    1    0    0    0 -0.36028314716E+00 -0.45586311685E+01  0.28450336836E+02  0.28815685870E+02  0.10566000000E+00 0. -1.
         13    1    1    0    0    0  0.91856499329E+00  0.93070269730E+01  0.33126820655E+02  0.34421823361E+02  0.10566000000E+00 0.  1.
         22    1    1    0    0    0 -0.55828184612E+00 -0.47483958046E+01 -0.61577157491E+02  0.61762490769E+02  0.00000000000E+00 0.  1.
</event>
<event>
 4    1  0.9897231E-003  0.9118800E+02  0.7818608E-02  0.1130116E+00
         25   -1    0    0    0    0  0.00000000000E+00  0.00000000000E+00  0.99999998245E-14  0.12500000000E+03  0.12500000000E+03 0.  0.
        -13    1    1    0    0    0 -0.11303316195E+02 -0.12269987067E+02 -0.43983370490E+01  0.17253233682E+02  0.10566000000E+00 0. -1.
         13    1    1    0    0    0 -0.30116800670E+02 -0.31865166496E+02 -0.11177232943E+02  0.45247676391E+02  0.10566000000E+00 0.  1.
         22    1    1    0    0    0  0.41420116866E+02  0.44135153564E+02  0.15575569992E+02  0.62499089928E+02  0.00000000000E+00 0.  1.
</event>
<event>
 4    1  0.9897231E-003  0.9118800E+02  0.7818608E-02  0.1130116E+00
         25   -1    0    0    0    0  0.00000000000E+00  0.00000000000E+00  0.99999998245E-14  0.12500000000E+03  0.12500000000E+03 0.  0.
        -13    1    1    0    0    0 -0.26334880362E+02 -0.85356831826E+00  0.12496536845E+02  0.29162117545E+02  0.10566000000E+00 0. -1.
         13    1    1    0    0    0 -0.28830806394E+02 -0.14003041530E+02  0.11249128101E+02  0.33968435591E+02  0.10566000000E+00 0.  1.
         22    1    1    0    0    0  0.55165686756E+02  0.14856609848E+02 -0.23745664947E+02  0.61869446864E+02  0.00000000000E+00 0. -1.
</event>
<event>
 4    1  0.9897231E-003  0.9118800E+02  0.7818608E-02  0.1130116E+00
         25   -1    0    0    0    0  0.00000000000E+00  0.00000000000E+00  0.99999998245E-14  0.12500000000E+03  0.12500000000E+03 0.  0.
        -13    1    1    0    0    0  0.34748426286E+02  0.29600595511E+01  0.29966275894E+02  0.45980473431E+02  0.10566000000E+00 0. -1.
         13    1    1    0    0    0  0.55832627528E+01  0.43721752525E+01  0.15956803339E+02  0.17461943656E+02  0.10566000000E+00 0.  1.
         22    1    1    0    0    0 -0.40331689039E+02 -0.73322348037E+01 -0.45923079233E+02  0.61557582914E+02  0.00000000000E+00 0.  1.
</event>
<event>
 4    1  0.9897231E-003  0.9118800E+02  0.7818608E-02  0.1130116E+00
         25   -1    0    0    0    0  0.00000000000E+00  0.00000000000E+00  0.99999998245E-14  0.12500000000E+03  0.12500000000E+03 0.  0.
        -13    1    1    0    0    0  0.44589634792E+02 -0.40496629399E+02 -0.15292244351E+02  0.62145606642E+02  0.10566000000E+00 0. -1.
         13    1    1    0    0    0  0.18916056662E+00 -0.12182602565E+00 -0.32889839963E+00  0.41226386377E+00  0.10566000000E+00 0.  1.
         22    1    1    0    0    0 -0.44778795359E+02  0.40618455425E+02  0.15621142750E+02  0.62442129494E+02  0.00000000000E+00 0. -1.
</event>
<event>
 4    1  0.9897231E-003  0.9118800E+02  0.7818608E-02  0.1130116E+00
         25   -1    0    0    0    0  0.00000000000E+00  0.00000000000E+00  0.99999998245E-14  0.12500000000E+03  0.12500000000E+03 0.  0.
        -13    1    1    0    0    0 -0.10335074155E+02 -0.31218289038E+02  0.15696359737E+02  0.36438745880E+02  0.10566000000E+00 0.  1.
         13    1    1    0    0    0 -0.75220261441E+01 -0.22192898790E+02  0.11406201293E+02  0.26061815478E+02  0.10566000000E+00 0.  1.
         22    1    1    0    0    0  0.17857100299E+02  0.53411187828E+02 -0.27102561029E+02  0.62499438643E+02  0.00000000000E+00 0.  1.
</event>
<event>
 4    1  0.9897231E-003  0.9118800E+02  0.7818608E-02  0.1130116E+00
         25   -1    0    0    0    0  0.00000000000E+00  0.00000000000E+00  0.99999998245E-14  0.12500000000E+03  0.12500000000E+03 0.  0.
        -13    1    1    0    0    0 -0.45917327460E+01  0.15686325755E+02 -0.25406710635E+02  0.30210212422E+02  0.10566000000E+00 0. -1.
         13    1    1    0    0    0 -0.51035029665E+01  0.16696054036E+02 -0.27163159953E+02  0.32290128299E+02  0.10566000000E+00 0. -1.
         22    1    1    0    0    0  0.96952357125E+01 -0.32382379791E+02  0.52569870587E+02  0.62499659279E+02  0.00000000000E+00 0. -1.
</event>
<event>
 4    1  0.9897231E-003  0.9118800E+02  0.7818608E-02  0.1130116E+00
         25   -1    0    0    0    0  0.00000000000E+00  0.00000000000E+00  0.99999998245E-14  0.12500000000E+03  0.12500000000E+03 0.  0.
        -13    1    1    0    0    0 -0.32475700283E+01  0.53547605406E+01 -0.54446369889E+01  0.82991208879E+01  0.10566000000E+00 0.  1.
         13    1    1    0    0    0 -0.35481040991E+02  0.41110151204E+02 -0.75654489190E+01  0.54828787906E+02  0.10566000000E+00 0. -1.
         22    1    1    0    0    0  0.38728611019E+02 -0.46464911745E+02  0.13010085908E+02  0.61872091206E+02  0.00000000000E+00 0. -1.
</event>
<event>
 4    1  0.9897231E-003  0.9118800E+02  0.7818608E-02  0.1130116E+00
         25   -1    0    0    0    0  0.00000000000E+00  0.00000000000E+00  0.99999998245E-14  0.12500000000E+03  0.12500000000E+03 0.  0.
        -13    1    1    0    0    0  0.16190543603E+02  0.14266913816E+02 -0.64588812158E+00  0.21589508274E+02  0.10566000000E+00 0.  1.
         13    1    1    0    0    0  0.30812922634E+02  0.26891354777E+02 -0.10506932748E+01  0.40910833325E+02  0.10566000000E+00 0.  1.
         22    1    1    0    0    0 -0.47003466237E+02 -0.41158268593E+02  0.16965813964E+01  0.62499658401E+02  0.00000000000E+00 0.  1.
</event>
<event>
 4    1  0.9897231E-003  0.9118800E+02  0.7818608E-02  0.1130116E+00
         25   -1    0    0    0    0  0.00000000000E+00  0.00000000000E+00  0.99999998245E-14  0.12500000000E+03  0.12500000000E+03 0.  0.
        -13    1    1    0    0    0  0.15156401011E+02 -0.14440832714E+02  0.10715485438E+02  0.23517800350E+02  0.10566000000E+00 0. -1.
         13    1    1    0    0    0  0.24938966681E+02 -0.24039725641E+02  0.17882006935E+02  0.38982532038E+02  0.10566000000E+00 0. -1.
         22    1    1    0    0    0 -0.40095367693E+02  0.38480558354E+02 -0.28597492373E+02  0.62499667613E+02  0.00000000000E+00 0. -1.
</event>
<event>
 4    1  0.9897231E-003  0.9118800E+02  0.7818608E-02  0.1130116E+00
         25   -1    0    0    0    0  0.00000000000E+00  0.00000000000E+00  0.99999998245E-14  0.12500000000E+03  0.12500000000E+03 0.  0.
        -13    1    1    0    0    0  0.52820950332E+01 -0.53954302750E+00  0.53001117109E+01  0.75029316138E+01  0.10566000000E+00 0. -1.
         13    1    1    0    0    0  0.38024789988E+02 -0.52317677263E+01  0.39390367522E+02  0.54998802393E+02  0.10566000000E+00 0.  1.
         22    1    1    0    0    0 -0.43306885021E+02  0.57713107538E+01 -0.44690479233E+02  0.62498265993E+02  0.00000000000E+00 0.  1.
</event>
<event>
 4    1  0.9897231E-003  0.9118800E+02  0.7818608E-02  0.1130116E+00
         25   -1    0    0    0    0  0.00000000000E+00  0.00000000000E+00  0.99999998245E-14  0.12500000000E+03  0.12500000000E+03 0.  0.
        -13    1    1    0    0    0  0.13754637850E+02 -0.86295526582E+01 -0.97563524239E+01  0.18943516519E+02  0.10566000000E+00 0.  1.
         13    1    1    0    0    0  0.33685230022E+02 -0.19664525868E+02 -0.19436928538E+02  0.43579739034E+02  0.10566000000E+00 0. -1.
         22    1    1    0    0    0 -0.47439867872E+02  0.28294078527E+02  0.29193280962E+02  0.62476744447E+02  0.00000000000E+00 0.  1.
</event>
<event>
 4    1  0.9897231E-003  0.9118800E+02  0.7818608E-02  0.1130116E+00
         25   -1    0    0    0    0  0.00000000000E+00  0.00000000000E+00  0.99999998245E-14  0.12500000000E+03  0.12500000000E+03 0.  0.
        -13    1    1    0    0    0 -0.81901023288E+01 -0.32965854030E+02  0.13477766949E+02  0.36544311103E+02  0.10566000000E+00 0. -1.
         13    1    1    0    0    0 -0.60659633621E+01 -0.23404892231E+02  0.94411055088E+01  0.25956319638E+02  0.10566000000E+00 0.  1.
         22    1    1    0    0    0  0.14256065691E+02  0.56370746261E+02 -0.22918872458E+02  0.62499369259E+02  0.00000000000E+00 0.  1.
</event>
<event>
 4    1  0.9897231E-003  0.9118800E+02  0.7818608E-02  0.1130116E+00
         25   -1    0    0    0    0  0.00000000000E+00  0.00000000000E+00  0.99999998245E-14  0.12500000000E+03  0.12500000000E+03 0.  0.
        -13    1    1    0    0    0  0.63040039078E+01 -0.19164477567E+02  0.11208706536E+02  0.23079513251E+02  0.10566000000E+00 0. -1.
         13    1    1    0    0    0  0.13645708040E+02 -0.31078409469E+02  0.20102518193E+02  0.39448641102E+02  0.10566000000E+00 0.  1.
         22    1    1    0    0    0 -0.19949711948E+02  0.50242887036E+02 -0.31311224729E+02  0.62471845647E+02  0.00000000000E+00 0.  1.
</event>
<event>
 4    1  0.9897231E-003  0.9118800E+02  0.7818608E-02  0.1130116E+00
         25   -1    0    0    0    0  0.00000000000E+00  0.00000000000E+00  0.99999998245E-14  0.12500000000E+03  0.12500000000E+03 0.  0.
        -13    1    1    0    0    0 -0.93677509111E+01 -0.86126533325E+01 -0.22953197446E+02  0.26244866004E+02  0.10566000000E+00 0.  1.
         13    1    1    0    0    0 -0.15473861679E+02 -0.51024942751E+01 -0.32560318942E+02  0.36409633021E+02  0.10566000000E+00 0. -1.
         22    1    1    0    0    0  0.24841612590E+02  0.13715147608E+02  0.55513516388E+02  0.62345500974E+02  0.00000000000E+00 0.  1.
</event>
<event>
 4    1  0.9897231E-003  0.9118800E+02  0.7818608E-02  0.1130116E+00
         25   -1    0    0    0    0  0.00000000000E+00  0.00000000000E+00  0.99999998245E-14  0.12500000000E+03  0.12500000000E+03 0.  0.
        -13    1    1    0    0    0  0.53407651346E+01  0.23075547867E+01 -0.17107809224E+01  0.60651889267E+01  0.10566000000E+00 0. -1.
         13    1    1    0    0    0  0.50305167491E+02  0.20948825006E+02 -0.14682525689E+02  0.56436254926E+02  0.10566000000E+00 0. -1.
         22    1    1    0    0    0 -0.55645932626E+02 -0.23256379792E+02  0.16393306611E+02  0.62498556147E+02  0.00000000000E+00 0. -1.
</event>
<event>
 4    1  0.9897231E-003  0.9118800E+02  0.7818608E-02  0.1130116E+00
         25   -1    0    0    0    0  0.00000000000E+00  0.00000000000E+00  0.99999998245E-14  0.12500000000E+03  0.12500000000E+03 0.  0.
        -13    1    1    0    0    0 -0.18652062414E+01  0.12003225953E+00 -0.16046608475E+01  0.24656647253E+01  0.10566000000E+00 0.  1.
         13    1    1    0    0    0 -0.51319806476E+02 -0.27573054048E+01 -0.31072704745E+02  0.60057051327E+02  0.10566000000E+00 0. -1.
         22    1    1    0    0    0  0.53185012718E+02  0.26372731453E+01  0.32677365592E+02  0.62477283948E+02  0.00000000000E+00 0. -1.
</event>
<event>
 4    1  0.9897231E-003  0.9118800E+02  0.7818608E-02  0.1130116E+00
         25   -1    0    0    0    0  0.00000000000E+00  0.00000000000E+00  0.99999998245E-14  0.12500000000E+03  0.12500000000E+03 0.  0.
        -13    1    1    0    0    0  0.42172556140E+02 -0.36808858889E+00  0.32431228769E+02  0.53202027631E+02  0.10566000000E+00 0.  1.
         13    1    1    0    0    0  0.76628704940E+01 -0.44590336613E+00  0.52628449714E+01  0.93073688682E+01  0.10566000000E+00 0. -1.
         22    1    1    0    0    0 -0.49835426634E+02  0.81399195503E+00 -0.37694073740E+02  0.62490603500E+02  0.00000000000E+00 0.  1.
</event>
<event>
 4    1  0.9897231E-003  0.9118800E+02  0.7818608E-02  0.1130116E+00
         25   -1    0    0    0    0  0.00000000000E+00  0.00000000000E+00  0.99999998245E-14  0.12500000000E+03  0.12500000000E+03 0.  0.
        -13    1    1    0    0    0 -0.69499169964E+01  0.12021154330E+02 -0.20770829016E+02  0.24984955468E+02  0.10566000000E+00 0.  1.
         13    1    1    0    0    0 -0.24747707070E+02 -0.38764097077E+01 -0.30327242733E+02  0.39334823926E+02  0.10566000000E+00 0. -1.
         22    1    1    0    0    0  0.31697624066E+02 -0.81447446220E+01  0.51098071749E+02  0.60680220607E+02  0.00000000000E+00 0. -1.
</event>
<event>
 4    1  0.9897231E-003  0.9118800E+02  0.7818608E-02  0.1130116E+00
         25   -1    0    0    0    0  0.00000000000E+00  0.00000000000E+00  0.99999998245E-14  0.12500000000E+03  0.12500000000E+03 0.  0.
        -13    1    1    0    0    0 -0.95415906200E+01  0.29664473582E+02  0.30529541665E+02  0.43624385643E+02  0.10566000000E+00 0. -1.
         13    1    1    0    0    0 -0.44680622305E+01  0.15877305873E+02  0.95962284478E+01  0.19082745776E+02  0.10566000000E+00 0.  1.
         22    1    1    0    0    0  0.14009652851E+02 -0.45541779455E+02 -0.40125770113E+02  0.62292868581E+02  0.00000000000E+00 0. -1.
</event>
<event>
 4    1  0.9897231E-003  0.9118800E+02  0.7818608E-02  0.1130116E+00
         25   -1    0    0    0    0  0.00000000000E+00  0.00000000000E+00  0.99999998245E-14  0.12500000000E+03  0.12500000000E+03 0.  0.
        -13    1    1    0    0    0 -0.10155067330E+02  0.27302617366E+02  0.37466243292E+02  0.47458285451E+02  0.10566000000E+00 0.  1.
         13    1    1    0    0    0  0.18049640602E+01 -0.55140477494E+01  0.17173916511E+02  0.18127801583E+02  0.10566000000E+00 0. -1.
         22    1    1    0    0    0  0.83501032695E+01 -0.21788569617E+02 -0.54640159804E+02  0.59413912966E+02  0.00000000000E+00 0.  1.
</event>
<event>
 4    1  0.9897231E-003  0.9118800E+02  0.7818608E-02  0.1130116E+00
         25   -1    0    0    0    0  0.00000000000E+00  0.00000000000E+00  0.99999998245E-14  0.12500000000E+03  0.12500000000E+03 0.  0.
        -13    1    1    0    0    0 -0.11731874648E+02 -0.21013098322E+02 -0.32752996056E+02  0.40644275102E+02  0.10566000000E+00 0.  1.
         13    1    1    0    0    0 -0.66330850625E+01 -0.11303884624E+02 -0.17490955886E+02  0.21856814198E+02  0.10566000000E+00 0. -1.
         22    1    1    0    0    0  0.18364959710E+02  0.32316982946E+02  0.50243951943E+02  0.62498910700E+02  0.00000000000E+00 0.  1.
</event>
<event>
 4    1  0.9897231E-003  0.9118800E+02  0.7818608E-02  0.1130116E+00
         25   -1    0    0    0    0  0.00000000000E+00  0.00000000000E+00  0.99999998245E-14  0.12500000000E+03  0.12500000000E+03 0.  0.
        -13    1    1    0    0    0 -0.21486087096E+02 -0.12250857373E+02  0.19746589803E+02  0.31649240401E+02  0.10566000000E+00 0. -1.
         13    1    1    0    0    0 -0.21190665547E+02 -0.89895339534E+01  0.20605906920E+02  0.30894507457E+02  0.10566000000E+00 0.  1.
         22    1    1    0    0    0  0.42676752643E+02  0.21240391327E+02 -0.40352496723E+02  0.62456252142E+02  0.00000000000E+00 0. -1.
</event>
<event>
 4    1  0.9897231E-003  0.9118800E+02  0.7818608E-02  0.1130116E+00
         25   -1    0    0    0    0  0.00000000000E+00  0.00000000000E+00  0.99999998245E-14  0.12500000000E+03  0.12500000000E+03 0.  0.
        -13    1    1    0    0    0 -0.25440251826E+02 -0.83986604784E+01 -0.12059580484E+02  0.29380070733E+02  0.10566000000E+00 0. -1.
         13    1    1    0    0    0 -0.28214406860E+02 -0.94648658732E+01 -0.14544996187E+02  0.33124077626E+02  0.10566000000E+00 0.  1.
         22    1    1    0    0    0  0.53654658686E+02  0.17863526352E+02  0.26604576671E+02  0.62495851641E+02  0.00000000000E+00 0.  1.
</event>
<event>
 4    1  0.9897231E-003  0.9118800E+02  0.7818608E-02  0.1130116E+00
         25   -1    0    0    0    0  0.00000000000E+00  0.00000000000E+00  0.99999998245E-14  0.12500000000E+03  0.12500000000E+03 0.  0.
        -13    1    1    0    0    0  0.80958868411E+01  0.23601112337E+02 -0.29906489451E+02  0.38948236964E+02  0.10566000000E+00 0.  1.
         13    1    1    0    0    0  0.14968503049E+02  0.13111672093E+02 -0.14012051320E+02  0.24337641111E+02  0.10566000000E+00 0. -1.
         22    1    1    0    0    0 -0.23064389890E+02 -0.36712784431E+02  0.43918540770E+02  0.61714121926E+02  0.00000000000E+00 0.  1.
</event>
<event>
 4    1  0.9897231E-003  0.9118800E+02  0.7818608E-02  0.1130116E+00
         25   -1    0    0    0    0  0.00000000000E+00  0.00000000000E+00  0.99999998245E-14  0.12500000000E+03  0.12500000000E+03 0.  0.
        -13    1    1    0    0    0  0.11207277187E+02 -0.19182190669E+02  0.16297756556E+02  0.27553357937E+02  0.10566000000E+00 0. -1.
         13    1    1    0    0    0  0.22779770655E+02 -0.18380652161E+02  0.19717201946E+02  0.35292287281E+02  0.10566000000E+00 0.  1.
         22    1    1    0    0    0 -0.33987047841E+02  0.37562842830E+02 -0.36014958502E+02  0.62154354782E+02  0.00000000000E+00 0. -1.
</event>
<event>
 4    1  0.9897231E-003  0.9118800E+02  0.7818608E-02  0.1130116E+00
         25   -1    0    0    0    0  0.00000000000E+00  0.00000000000E+00  0.99999998245E-14  0.12500000000E+03  0.12500000000E+03 0.  0.
        -13    1    1    0    0    0  0.10667382013E+02  0.26632895312E+02  0.43905622814E+02  0.52448250976E+02  0.10566000000E+00 0. -1.
         13    1    1    0    0    0  0.41755253131E+01  0.33597066970E+01  0.86913752935E+01  0.10211454806E+02  0.10566000000E+00 0.  1.
         22    1    1    0    0    0 -0.14842907326E+02 -0.29992602009E+02 -0.52596998108E+02  0.62340294218E+02  0.00000000000E+00 0. -1.
</event>
<event>
 4    1  0.9897231E-003  0.9118800E+02  0.7818608E-02  0.1130116E+00
         25   -1    0    0    0    0  0.00000000000E+00  0.00000000000E+00  0.99999998245E-14  0.12500000000E+03  0.12500000000E+03 0.  0.
        -13    1    1    0    0    0  0.31570731571E+02  0.16845813431E+02 -0.30535260221E+02  0.47041532744E+02  0.10566000000E+00 0. -1.
         13    1    1    0    0    0  0.11369360598E+02  0.40688107174E+01 -0.97141497358E+01  0.15498175705E+02  0.10566000000E+00 0.  1.
         22    1    1    0    0    0 -0.42940092169E+02 -0.20914624148E+02  0.40249409957E+02  0.62460291551E+02  0.00000000000E+00 0. -1.
</event>
<event>
 4    1  0.9897231E-003  0.9118800E+02  0.7818608E-02  0.1130116E+00
         25   -1    0    0    0    0  0.00000000000E+00  0.00000000000E+00  0.99999998245E-14  0.12500000000E+03  0.12500000000E+03 0.  0.
        -13    1    1    0    0    0  0.82758982765E+01 -0.32714017645E+02 -0.36647774491E+02  0.49817346195E+02  0.10566000000E+00 0. -1.
         13    1    1    0    0    0  0.23291960113E+01 -0.70009036374E+01 -0.10371270290E+02  0.12728401992E+02  0.10566000000E+00 0.  1.
         22    1    1    0    0    0 -0.10605094288E+02  0.39714921283E+02  0.47019044781E+02  0.62454251813E+02  0.00000000000E+00 0.  1.
</event>
<event>
 4    1  0.9897231E-003  0.9118800E+02  0.7818608E-02  0.1130116E+00
         25   -1    0    0    0    0  0.00000000000E+00  0.00000000000E+00  0.99999998245E-14  0.12500000000E+03  0.12500000000E+03 0.  0.
        -13    1    1    0    0    0  0.43994094704E+01 -0.22484823344E+01 -0.23224106102E+02  0.23744067570E+02  0.10566000000E+00 0. -1.
         13    1    1    0    0    0  0.71763926435E+01 -0.20491714927E+01 -0.38037197794E+02  0.38762601761E+02  0.10566000000E+00 0.  1.
         22    1    1    0    0    0 -0.11575802114E+02  0.42976538270E+01  0.61261303897E+02  0.62493330669E+02  0.00000000000E+00 0. -1.
</event>
<event>
 4    1  0.9897231E-003  0.9118800E+02  0.7818608E-02  0.1130116E+00
         25   -1    0    0    0    0  0.00000000000E+00  0.00000000000E+00  0.99999998245E-14  0.12500000000E+03  0.12500000000E+03 0.  0.
        -13    1    1    0    0    0 -0.26001238695E+01  0.14313464732E+02 -0.23365353339E+02  0.27524295040E+02  0.10566000000E+00 0.  1.
         13    1    1    0    0    0 -0.35298417461E+01  0.18230531468E+02 -0.29639527432E+02  0.34976060539E+02  0.10566000000E+00 0.  1.
         22    1    1    0    0    0  0.61299656156E+01 -0.32543996200E+02  0.53004880771E+02  0.62499644421E+02  0.00000000000E+00 0.  1.
</event>
<event>
 4    1  0.9897231E-003  0.9118800E+02  0.7818608E-02  0.1130116E+00
         25   -1    0    0    0    0  0.00000000000E+00  0.00000000000E+00  0.99999998245E-14  0.12500000000E+03  0.12500000000E+03 0.  0.
        -13    1    1    0    0    0 -0.15631741710E+02  0.77645812255E+01  0.11195289286E+02  0.20736097432E+02  0.10566000000E+00 0.  1.
         13    1    1    0    0    0 -0.32276661542E+02  0.15338839260E+02  0.21620094537E+02  0.41767242211E+02  0.10566000000E+00 0. -1.
         22    1    1    0    0    0  0.47908403251E+02 -0.23103420486E+02 -0.32815383823E+02  0.62496660356E+02  0.00000000000E+00 0. -1.
</event>
<event>
 4    1  0.9897231E-003  0.9118800E+02  0.7818608E-02  0.1130116E+00
         25   -1    0    0    0    0  0.00000000000E+00  0.00000000000E+00  0.99999998245E-14  0.12500000000E+03  0.12500000000E+03 0.  0.
        -13    1    1    0    0    0  0.63903728279E+00  0.24939302530E+01 -0.19092540959E+01  0.32069412208E+01  0.10566000000E+00 0.  1.
         13    1    1    0    0    0  0.13076280857E+02  0.44136273143E+02 -0.37376678818E+02  0.59296096090E+02  0.10566000000E+00 0. -1.
         22    1    1    0    0    0 -0.13715318139E+02 -0.46630203396E+02  0.39285932914E+02  0.62496962689E+02  0.00000000000E+00 0. -1.
</event>
<event>
 4    1  0.9897231E-003  0.9118800E+02  0.7818608E-02  0.1130116E+00
         25   -1    0    0    0    0  0.00000000000E+00  0.00000000000E+00  0.99999998245E-14  0.12500000000E+03  0.12500000000E+03 0.  0.
        -13    1    1    0    0    0  0.19061626010E+01  0.32876854271E+02  0.11401795953E+02  0.34850152333E+02  0.10566000000E+00 0.  1.
         13    1    1    0    0    0  0.15772832507E+01  0.25926369100E+02  0.94820674707E+01  0.27651133878E+02  0.10566000000E+00 0. -1.
         22    1    1    0    0    0 -0.34834458516E+01 -0.58803223371E+02 -0.20883863424E+02  0.62498713790E+02  0.00000000000E+00 0. -1.
</event>
<event>
 4    1  0.9897231E-003  0.9118800E+02  0.7818608E-02  0.1130116E+00
         25   -1    0    0    0    0  0.00000000000E+00  0.00000000000E+00  0.99999998245E-14  0.12500000000E+03  0.12500000000E+03 0.  0.
        -13    1    1    0    0    0  0.11344754257E+02  0.50536230967E+02  0.17098829991E+02  0.54543516944E+02  0.10566000000E+00 0.  1.
         13    1    1    0    0    0  0.15083026584E+01  0.71899780074E+01  0.30830598796E+01  0.79678844691E+01  0.10566000000E+00 0. -1.
         22    1    1    0    0    0 -0.12853056916E+02 -0.57726208974E+02 -0.20181889870E+02  0.62488598587E+02  0.00000000000E+00 0.  1.
</event>
<event>
 4    1  0.9897231E-003  0.9118800E+02  0.7818608E-02  0.1130116E+00
         25   -1    0    0    0    0  0.00000000000E+00  0.00000000000E+00  0.99999998245E-14  0.12500000000E+03  0.12500000000E+03 0.  0.
        -13    1    1    0    0    0  0.26130436834E+02 -0.14797717562E+02  0.24095256459E+02  0.38501489868E+02  0.10566000000E+00 0. -1.
         13    1    1    0    0    0  0.16322665793E+02 -0.91651093707E+01  0.15016629962E+02  0.23998728879E+02  0.10566000000E+00 0. -1.
         22    1    1    0    0    0 -0.42453102627E+02  0.23962826933E+02 -0.39111886421E+02  0.62499781253E+02  0.00000000000E+00 0. -1.
</event>
<event>
 4    1  0.9897231E-003  0.9118800E+02  0.7818608E-02  0.1130116E+00
         25   -1    0    0    0    0  0.00000000000E+00  0.00000000000E+00  0.99999998245E-14  0.12500000000E+03  0.12500000000E+03 0.  0.
        -13    1    1    0    0    0  0.27726184479E+02 -0.27990717193E+02 -0.45664581591E+02  0.60311580402E+02  0.10566000000E+00 0.  1.
         13    1    1    0    0    0  0.90407583520E+00 -0.99320330565E+00 -0.17285053751E+01  0.21915065114E+01  0.10566000000E+00 0.  1.
         22    1    1    0    0    0 -0.28630260314E+02  0.28983920498E+02  0.47393086966E+02  0.62496913086E+02  0.00000000000E+00 0.  1.
</event>
<event>
 4    1  0.9897231E-003  0.9118800E+02  0.7818608E-02  0.1130116E+00
         25   -1    0    0    0    0  0.00000000000E+00  0.00000000000E+00  0.99999998245E-14  0.12500000000E+03  0.12500000000E+03 0.  0.
        -13    1    1    0    0    0  0.23627986416E+01  0.27777576891E-01  0.47958816038E+01  0.53474511132E+01  0.10566000000E+00 0.  1.
         13    1    1    0    0    0  0.24241058799E+02  0.11566360218E+01  0.51745403769E+02  0.57153868757E+02  0.10566000000E+00 0. -1.
         22    1    1    0    0    0 -0.26603857441E+02 -0.11844135987E+01 -0.56541285373E+02  0.62498680130E+02  0.00000000000E+00 0. -1.
</event>
<event>
 4    1  0.9897231E-003  0.9118800E+02  0.7818608E-02  0.1130116E+00
         25   -1    0    0    0    0  0.00000000000E+00  0.00000000000E+00  0.99999998245E-14  0.12500000000E+03  0.12500000000E+03 0.  0.
        -13    1    1    0    0    0  0.16307803002E+02  0.32300455714E+01  0.19557510111E+02  0.25668755305E+02  0.10566000000E+00 0.  1.
         13    1    1    0    0    0 -0.45102031991E+01  0.25737937390E+02  0.30588554729E+02  0.40230016138E+02  0.10566000000E+00 0. -1.
         22    1    1    0    0    0 -0.11797599803E+02 -0.28967982962E+02 -0.50146064840E+02  0.59101228557E+02  0.00000000000E+00 0. -1.
</event>
<event>
 4    1  0.9897231E-003  0.9118800E+02  0.7818608E-02  0.1130116E+00
         25   -1    0    0    0    0  0.00000000000E+00  0.00000000000E+00  0.99999998245E-14  0.12500000000E+03  0.12500000000E+03 0.  0.
        -13    1    1    0    0    0  0.53664654627E+01  0.24504271791E+02 -0.32260376966E+02  0.40865650290E+02  0.10566000000E+00 0.  1.
         13    1    1    0    0    0  0.12384174045E+01  0.12113668257E+02 -0.17918704668E+02  0.21664851196E+02  0.10566000000E+00 0. -1.
         22    1    1    0    0    0 -0.66048828672E+01 -0.36617940047E+02  0.50179081635E+02  0.62469498515E+02  0.00000000000E+00 0.  1.
</event>
<event>
 4    1  0.9897231E-003  0.9118800E+02  0.7818608E-02  0.1130116E+00
         25   -1    0    0    0    0  0.00000000000E+00  0.00000000000E+00  0.99999998245E-14  0.12500000000E+03  0.12500000000E+03 0.  0.
        -13    1    1    0    0    0  0.16166629218E+02 -0.24761591099E+02 -0.16185504747E+02  0.33711689693E+02  0.10566000000E+00 0. -1.
         13    1    1    0    0    0 -0.59121387444E+01 -0.19238491550E+02 -0.23650203221E+02  0.31055051410E+02  0.10566000000E+00 0.  1.
         22    1    1    0    0    0 -0.10254490473E+02  0.44000082650E+02  0.39835707968E+02  0.60233258897E+02  0.00000000000E+00 0. -1.
</event>
<event>
 4    1  0.9897231E-003  0.9118800E+02  0.7818608E-02  0.1130116E+00
         25   -1    0    0    0    0  0.00000000000E+00  0.00000000000E+00  0.99999998245E-14  0.12500000000E+03  0.12500000000E+03 0.  0.
        -13    1    1    0    0    0 -0.40950592421E+02  0.90622095059E+01 -0.31483575834E+02  0.52443315800E+02  0.10566000000E+00 0.  1.
         13    1    1    0    0    0 -0.83343561343E+01  0.15826347671E+01 -0.54250322057E+01  0.10070171967E+02  0.10566000000E+00 0. -1.
         22    1    1    0    0    0  0.49284948555E+02 -0.10644844273E+02  0.36908608039E+02  0.62486512233E+02  0.00000000000E+00 0.  1.
</event>
<event>
 4    1  0.9897231E-003  0.9118800E+02  0.7818608E-02  0.1130116E+00
         25   -1    0    0    0    0  0.00000000000E+00  0.00000000000E+00  0.99999998245E-14  0.12500000000E+03  0.12500000000E+03 0.  0.
        -13    1    1    0    0    0 -0.27817100248E+02  0.42238749274E+02  0.27869663273E+02  0.57746275217E+02  0.10566000000E+00 0.  1.
         13    1    1    0    0    0 -0.25843338263E+01  0.32855591920E+01  0.22751448498E+01  0.47603706424E+01  0.10566000000E+00 0. -1.
         22    1    1    0    0    0  0.30401434075E+02 -0.45524308466E+02 -0.30144808122E+02  0.62493354141E+02  0.00000000000E+00 0.  1.
</event>
<event>
 4    1  0.9897231E-003  0.9118800E+02  0.7818608E-02  0.1130116E+00
         25   -1    0    0    0    0  0.00000000000E+00  0.00000000000E+00  0.99999998245E-14  0.12500000000E+03  0.12500000000E+03 0.  0.
        -13    1    1    0    0    0  0.13406699964E+02 -0.37249743726E+02  0.67254373290E+01  0.40156265799E+02  0.10566000000E+00 0.  1.
         13    1    1    0    0    0  0.73889230590E+01 -0.20746794890E+02  0.37704510237E+01  0.22343973396E+02  0.10566000000E+00 0.  1.
         22    1    1    0    0    0 -0.20795623023E+02  0.57996538616E+02 -0.10495888353E+02  0.62499760805E+02  0.00000000000E+00 0.  1.
</event>
<event>
 4    1  0.9897231E-003  0.9118800E+02  0.7818608E-02  0.1130116E+00
         25   -1    0    0    0    0  0.00000000000E+00  0.00000000000E+00  0.99999998245E-14  0.12500000000E+03  0.12500000000E+03 0.  0.
        -13    1    1    0    0    0  0.31639515744E+01  0.65805307217E+01 -0.51666372322E+01  0.89453495443E+01  0.10566000000E+00 0. -1.
         13    1    1    0    0    0  0.17567157224E+02  0.41227125449E+02 -0.29332672156E+02  0.53560225033E+02  0.10566000000E+00 0.  1.
         22    1    1    0    0    0 -0.20731108798E+02 -0.47807656171E+02  0.34499309389E+02  0.62494425422E+02  0.00000000000E+00 0.  1.
</event>
<event>
 4    1  0.9897231E-003  0.9118800E+02  0.7818608E-02  0.1130116E+00
         25   -1    0    0    0    0  0.00000000000E+00  0.00000000000E+00  0.99999998245E-14  0.12500000000E+03  0.12500000000E+03 0.  0.
        -13    1    1    0    0    0 -0.50161130645E+01 -0.36757600235E+02  0.43954485262E+02  0.57517740776E+02  0.10566000000E+00 0. -1.
         13    1    1    0    0    0 -0.14247962255E+01 -0.36031249989E+01  0.32386329071E+01  0.50509861596E+01  0.10566000000E+00 0.  1.
         22    1    1    0    0    0  0.64409092899E+01  0.40360725234E+02 -0.47193118169E+02  0.62431273064E+02  0.00000000000E+00 0. -1.
</event>
<event>
 4    1  0.9897231E-003  0.9118800E+02  0.7818608E-02  0.1130116E+00
         25   -1    0    0    0    0  0.00000000000E+00  0.00000000000E+00  0.99999998245E-14  0.12500000000E+03  0.12500000000E+03 0.  0.
        -13    1    1    0    0    0  0.22113526260E+02  0.68084961651E+01  0.18207104222E+02  0.29442715090E+02  0.10566000000E+00 0.  1.
         13    1    1    0    0    0  0.24905238561E+02  0.75742806602E+01  0.20375174787E+02  0.33057518765E+02  0.10566000000E+00 0.  1.
         22    1    1    0    0    0 -0.47018764821E+02 -0.14382776825E+02 -0.38582279009E+02  0.62499766144E+02  0.00000000000E+00 0.  1.
</event>
<event>
 4    1  0.9897231E-003  0.9118800E+02  0.7818608E-02  0.1130116E+00
         25   -1    0    0    0    0  0.00000000000E+00  0.00000000000E+00  0.99999998245E-14  0.12500000000E+03  0.12500000000E+03 0.  0.
        -13    1    1    0    0    0  0.17153044626E+02 -0.49641471765E+01  0.78365975389E+01  0.19501105665E+02  0.10566000000E+00 0.  1.
         13    1    1    0    0    0  0.37914897161E+02 -0.11215899032E+02  0.16900029953E+02  0.42999511558E+02  0.10566000000E+00 0.  1.
         22    1    1    0    0    0 -0.55067941786E+02  0.16180046208E+02 -0.24736627492E+02  0.62499382777E+02  0.00000000000E+00 0.  1.
</event>
<event>
 4    1  0.9897231E-003  0.9118800E+02  0.7818608E-02  0.1130116E+00
         25   -1    0    0    0    0  0.00000000000E+00  0.00000000000E+00  0.99999998245E-14  0.12500000000E+03  0.12500000000E+03 0.  0.
        -13    1    1    0    0    0 -0.41623609186E+02 -0.17557638308E+02 -0.30442170347E+02  0.54475062222E+02  0.10566000000E+00 0.  1.
         13    1    1    0    0    0 -0.85860730123E+01 -0.66594577705E+00 -0.79153870940E+00  0.86488051843E+01  0.10566000000E+00 0. -1.
         22    1    1    0    0    0  0.50209682198E+02  0.18223584085E+02  0.31233709056E+02  0.61876132594E+02  0.00000000000E+00 0.  1.
</event>
<event>
 4    1  0.9897231E-003  0.9118800E+02  0.7818608E-02  0.1130116E+00
         25   -1    0    0    0    0  0.00000000000E+00  0.00000000000E+00  0.99999998245E-14  0.12500000000E+03  0.12500000000E+03 0.  0.
        -13    1    1    0    0    0 -0.40283490550E+01 -0.32795865485E+02 -0.20077905379E+02  0.38664322540E+02  0.10566000000E+00 0. -1.
         13    1    1    0    0    0 -0.35914086158E+02  0.75401924489E+01  0.95621157704E+01  0.37922569913E+02  0.10566000000E+00 0.  1.
         22    1    1    0    0    0  0.39942435213E+02  0.25255673037E+02  0.10515789609E+02  0.48413107547E+02  0.00000000000E+00 0.  1.
</event>
<event>
 4    1  0.9897231E-003  0.9118800E+02  0.7818608E-02  0.1130116E+00
         25   -1    0    0    0    0  0.00000000000E+00  0.00000000000E+00  0.99999998245E-14  0.12500000000E+03  0.12500000000E+03 0.  0.
        -13    1    1    0    0    0 -0.57859881615E+02  0.15620428066E+02  0.11301783464E+02  0.60987745875E+02  0.10566000000E+00 0. -1.
         13    1    1    0    0    0  0.11418280800E+01 -0.49575562703E+01  0.47735565819E+00  0.51107893713E+01  0.10566000000E+00 0.  1.
         22    1    1    0    0    0  0.56718053535E+02 -0.10662871796E+02 -0.11779139122E+02  0.58901464754E+02  0.00000000000E+00 0. -1.
</event>
<event>
 4    1  0.9897231E-003  0.9118800E+02  0.7818608E-02  0.1130116E+00
         25   -1    0    0    0    0  0.00000000000E+00  0.00000000000E+00  0.99999998245E-14  0.12500000000E+03  0.12500000000E+03 0.  0.
        -13    1    1    0    0    0  0.43658809003E+01 -0.18852263438E+01  0.14388262478E+02  0.15154149781E+02  0.10566000000E+00 0.  1.
         13    1    1    0    0    0  0.13612599391E+02 -0.59740102831E+01  0.44951648231E+02  0.47346103364E+02  0.10566000000E+00 0.  1.
         22    1    1    0    0    0 -0.17978480291E+02  0.78592366269E+01 -0.59339910709E+02  0.62499746855E+02  0.00000000000E+00 0.  1.
</event>
<event>
 4    1  0.9897231E-003  0.9118800E+02  0.7818608E-02  0.1130116E+00
         25   -1    0    0    0    0  0.00000000000E+00  0.00000000000E+00  0.99999998245E-14  0.12500000000E+03  0.12500000000E+03 0.  0.
        -13    1    1    0    0    0  0.58422657635E+00 -0.35626458336E+02 -0.38520021568E+02  0.52472746068E+02  0.10566000000E+00 0.  1.
         13    1    1    0    0    0 -0.44446809410E+00 -0.64459189161E+01 -0.76825939507E+01  0.10038965903E+02  0.10566000000E+00 0. -1.
         22    1    1    0    0    0 -0.13975848226E+00  0.42072377252E+02  0.46202615519E+02  0.62488288029E+02  0.00000000000E+00 0.  1.
</event>
<event>
 4    1  0.9897231E-003  0.9118800E+02  0.7818608E-02  0.1130116E+00
         25   -1    0    0    0    0  0.00000000000E+00  0.00000000000E+00  0.99999998245E-14  0.12500000000E+03  0.12500000000E+03 0.  0.
        -13    1    1    0    0    0 -0.67118200113E+01  0.71311756289E+01 -0.80936165743E+01  0.12705116568E+02  0.10566000000E+00 0.  1.
         13    1    1    0    0    0 -0.26587799108E+02  0.27642770131E+02 -0.31757372045E+02  0.49795337585E+02  0.10566000000E+00 0. -1.
         22    1    1    0    0    0  0.33299619120E+02 -0.34773945760E+02  0.39850988619E+02  0.62499545848E+02  0.00000000000E+00 0. -1.
</event>
<event>
 4    1  0.9897231E-003  0.9118800E+02  0.7818608E-02  0.1130116E+00
         25   -1    0    0    0    0  0.00000000000E+00  0.00000000000E+00  0.99999998245E-14  0.12500000000E+03  0.12500000000E+03 0.  0.
        -13    1    1    0    0    0 -0.62006771943E+01  0.58400197382E+01 -0.41424925769E+00  0.85285986359E+01  0.10566000000E+00 0. -1.
         13    1    1    0    0    0 -0.39399876650E+02  0.36822280373E+02 -0.21743805815E+01  0.53971934437E+02  0.10566000000E+00 0.  1.
         22    1    1    0    0    0  0.45600553844E+02 -0.42662300112E+02  0.25886298392E+01  0.62499466927E+02  0.00000000000E+00 0.  1.
</event>
<event>
 4    1  0.9897231E-003  0.9118800E+02  0.7818608E-02  0.1130116E+00
         25   -1    0    0    0    0  0.00000000000E+00  0.00000000000E+00  0.99999998245E-14  0.12500000000E+03  0.12500000000E+03 0.  0.
        -13    1    1    0    0    0  0.99545581777E+01  0.47040770926E+01  0.18584081433E+02  0.21600944807E+02  0.10566000000E+00 0.  1.
         13    1    1    0    0    0  0.10617637574E+02  0.38986984127E+02 -0.33891882205E+02  0.52738885108E+02  0.10566000000E+00 0. -1.
         22    1    1    0    0    0 -0.20572195752E+02 -0.43691061220E+02  0.15307800772E+02  0.50660170085E+02  0.00000000000E+00 0. -1.
</event>
<event>
 4    1  0.9897231E-003  0.9118800E+02  0.7818608E-02  0.1130116E+00
         25   -1    0    0    0    0  0.00000000000E+00  0.00000000000E+00  0.99999998245E-14  0.12500000000E+03  0.12500000000E+03 0.  0.
        -13    1    1    0    0    0 -0.21794462715E+01  0.91115893083E+00 -0.15524923799E+01  0.28287087642E+01  0.10566000000E+00 0. -1.
         13    1    1    0    0    0 -0.46488683894E+02  0.19332394821E+02 -0.32028954909E+02  0.59672475533E+02  0.10566000000E+00 0. -1.
         22    1    1    0    0    0  0.48668130165E+02 -0.20243553752E+02  0.33581447289E+02  0.62498815703E+02  0.00000000000E+00 0. -1.
</event>
<event>
 4    1  0.9897231E-003  0.9118800E+02  0.7818608E-02  0.1130116E+00
         25   -1    0    0    0    0  0.00000000000E+00  0.00000000000E+00  0.99999998245E-14  0.12500000000E+03  0.12500000000E+03 0.  0.
        -13    1    1    0    0    0 -0.12224293747E+02  0.73560936212E+01  0.11108722500E+02  0.18082044979E+02  0.10566000000E+00 0.  1.
         13    1    1    0    0    0 -0.97715158358E+01  0.40692713395E+02 -0.29236916819E+02  0.51050836569E+02  0.10566000000E+00 0. -1.
         22    1    1    0    0    0  0.21995809583E+02 -0.48048807017E+02  0.18128194319E+02  0.55867118453E+02  0.00000000000E+00 0. -1.
</event>
<event>
 4    1  0.9897231E-003  0.9118800E+02  0.7818608E-02  0.1130116E+00
         25   -1    0    0    0    0  0.00000000000E+00  0.00000000000E+00  0.99999998245E-14  0.12500000000E+03  0.12500000000E+03 0.  0.
        -13    1    1    0    0    0  0.17324309842E+02  0.26595340027E+02 -0.44031717202E+02  0.54279343276E+02  0.10566000000E+00 0. -1.
         13    1    1    0    0    0  0.23488679695E+01  0.43147364176E+01 -0.65962991607E+01  0.82253545664E+01  0.10566000000E+00 0.  1.
         22    1    1    0    0    0 -0.19673177811E+02 -0.30910076444E+02  0.50628016363E+02  0.62495302158E+02  0.00000000000E+00 0. -1.
</event>
<event>
 4    1  0.9897231E-003  0.9118800E+02  0.7818608E-02  0.1130116E+00
         25   -1    0    0    0    0  0.00000000000E+00  0.00000000000E+00  0.99999998245E-14  0.12500000000E+03  0.12500000000E+03 0.  0.
        -13    1    1    0    0    0 -0.18039794054E+02  0.84953573431E+01  0.26760444181E+02  0.33372710448E+02  0.10566000000E+00 0.  1.
         13    1    1    0    0    0 -0.30208199694E+02  0.15232580906E+02 -0.90976207550E+01  0.35033479947E+02  0.10566000000E+00 0. -1.
         22    1    1    0    0    0  0.48247993747E+02 -0.23727938249E+02 -0.17662823426E+02  0.56593809604E+02  0.00000000000E+00 0.  1.
</event>
<event>
 4    1  0.9897231E-003  0.9118800E+02  0.7818608E-02  0.1130116E+00
         25   -1    0    0    0    0  0.00000000000E+00  0.00000000000E+00  0.99999998245E-14  0.12500000000E+03  0.12500000000E+03 0.  0.
        -13    1    1    0    0    0 -0.11146939355E+02  0.12201652313E+02 -0.25230565779E+02  0.30161684133E+02  0.10566000000E+00 0.  1.
         13    1    1    0    0    0 -0.18358301501E+02  0.15886771768E+02 -0.21791957205E+02  0.32623876441E+02  0.10566000000E+00 0. -1.
         22    1    1    0    0    0  0.29505240856E+02 -0.28088424081E+02  0.47022522984E+02  0.62214439426E+02  0.00000000000E+00 0. -1.
</event>
<event>
 4    1  0.9897231E-003  0.9118800E+02  0.7818608E-02  0.1130116E+00
         25   -1    0    0    0    0  0.00000000000E+00  0.00000000000E+00  0.99999998245E-14  0.12500000000E+03  0.12500000000E+03 0.  0.
        -13    1    1    0    0    0 -0.20199403237E+02 -0.42519498962E+01 -0.53037411457E+01  0.21312808431E+02  0.10566000000E+00 0.  1.
         13    1    1    0    0    0  0.16297490826E+02 -0.43296521916E+02 -0.19159063590E+02  0.50072726099E+02  0.10566000000E+00 0. -1.
         22    1    1    0    0    0  0.39019124109E+01  0.47548471812E+02  0.24462804735E+02  0.53614465470E+02  0.00000000000E+00 0. -1.
</event>
<event>
 4    1  0.9897231E-003  0.9118800E+02  0.7818608E-02  0.1130116E+00
         25   -1    0    0    0    0  0.00000000000E+00  0.00000000000E+00  0.99999998245E-14  0.12500000000E+03  0.12500000000E+03 0.  0.
        -13    1    1    0    0    0  0.31961671008E+01 -0.45894888048E+01  0.77363232767E+01  0.95467666518E+01  0.10566000000E+00 0.  1.
         13    1    1    0    0    0  0.16758068323E+02 -0.24087812918E+02  0.44083269205E+02  0.52956598955E+02  0.10566000000E+00 0. -1.
         22    1    1    0    0    0 -0.19954235424E+02  0.28677301723E+02 -0.51819592482E+02  0.62496634393E+02  0.00000000000E+00 0. -1.
</event>
<event>
 4    1  0.9897231E-003  0.9118800E+02  0.7818608E-02  0.1130116E+00
         25   -1    0    0    0    0  0.00000000000E+00  0.00000000000E+00  0.99999998245E-14  0.12500000000E+03  0.12500000000E+03 0.  0.
        -13    1    1    0    0    0  0.61290058863E+01 -0.53427486193E+01 -0.42000397004E+02  0.42780301407E+02  0.10566000000E+00 0. -1.
         13    1    1    0    0    0  0.24868295453E+01 -0.29480383476E+01 -0.19341875635E+02  0.19722945227E+02  0.10566000000E+00 0. -1.
         22    1    1    0    0    0 -0.86158354316E+01  0.82907869670E+01  0.61342272639E+02  0.62496753366E+02  0.00000000000E+00 0. -1.
</event>
<event>
 4    1  0.9897231E-003  0.9118800E+02  0.7818608E-02  0.1130116E+00
         25   -1    0    0    0    0  0.00000000000E+00  0.00000000000E+00  0.99999998245E-14  0.12500000000E+03  0.12500000000E+03 0.  0.
        -13    1    1    0    0    0  0.33347980562E+02 -0.28225118023E+02 -0.69472845286E+01  0.44238230315E+02  0.10566000000E+00 0. -1.
         13    1    1    0    0    0  0.13464725253E+02 -0.12013936138E+02 -0.28169228133E+01  0.18264164526E+02  0.10566000000E+00 0.  1.
         22    1    1    0    0    0 -0.46812705815E+02  0.40239054162E+02  0.97642073419E+01  0.62497605159E+02  0.00000000000E+00 0. -1.
</event>
<event>
 4    1  0.9897231E-003  0.9118800E+02  0.7818608E-02  0.1130116E+00
         25   -1    0    0    0    0  0.00000000000E+00  0.00000000000E+00  0.99999998245E-14  0.12500000000E+03  0.12500000000E+03 0.  0.
        -13    1    1    0    0    0  0.35734715389E+02  0.11561104265E+02 -0.42738483235E+02  0.56896556390E+02  0.10566000000E+00 0. -1.
         13    1    1    0    0    0  0.33936816520E+01  0.11128427497E+01 -0.43186814580E+01  0.56051465380E+01  0.10566000000E+00 0.  1.
         22    1    1    0    0    0 -0.39128397041E+02 -0.12673947015E+02  0.47057164693E+02  0.62498297072E+02  0.00000000000E+00 0. -1.
</event>
<event>
 4    1  0.9897231E-003  0.9118800E+02  0.7818608E-02  0.1130116E+00
         25   -1    0    0    0    0  0.00000000000E+00  0.00000000000E+00  0.99999998245E-14  0.12500000000E+03  0.12500000000E+03 0.  0.
        -13    1    1    0    0    0 -0.10836516433E+02 -0.11686251868E+02 -0.31823340253E+02  0.35591216894E+02  0.10566000000E+00 0.  1.
         13    1    1    0    0    0 -0.82740785511E+01 -0.88383264396E+01 -0.24031374637E+02  0.26909004461E+02  0.10566000000E+00 0.  1.
         22    1    1    0    0    0  0.19110594984E+02  0.20524578308E+02  0.55854714889E+02  0.62499778645E+02  0.00000000000E+00 0.  1.
</event>
<event>
 4    1  0.9897231E-003  0.9118800E+02  0.7818608E-02  0.1130116E+00
         25   -1    0    0    0    0  0.00000000000E+00  0.00000000000E+00  0.99999998245E-14  0.12500000000E+03  0.12500000000E+03 0.  0.
        -13    1    1    0    0    0  0.13488528175E+02 -0.35207824674E+02 -0.14774817270E+02  0.40494909556E+02  0.10566000000E+00 0. -1.
         13    1    1    0    0    0  0.71934405602E+01 -0.18999585401E+02 -0.84595188615E+01  0.22006918365E+02  0.10566000000E+00 0. -1.
         22    1    1    0    0    0 -0.20681968735E+02  0.54207410074E+02  0.23234336132E+02  0.62498172079E+02  0.00000000000E+00 0. -1.
</event>
<event>
 4    1  0.9897231E-003  0.9118800E+02  0.7818608E-02  0.1130116E+00
         25   -1    0    0    0    0  0.00000000000E+00  0.00000000000E+00  0.99999998245E-14  0.12500000000E+03  0.12500000000E+03 0.  0.
        -13    1    1    0    0    0 -0.52573493321E+02 -0.11338398027E+01  0.12471426514E+02  0.54044476462E+02  0.10566000000E+00 0. -1.
         13    1    1    0    0    0 -0.71053839034E+01 -0.13050552031E+01  0.49262320475E+01  0.87446312512E+01  0.10566000000E+00 0.  1.
         22    1    1    0    0    0  0.59678877225E+02  0.24388950057E+01 -0.17397658562E+02  0.62210892287E+02  0.00000000000E+00 0. -1.
</event>
<event>
 4    1  0.9897231E-003  0.9118800E+02  0.7818608E-02  0.1130116E+00
         25   -1    0    0    0    0  0.00000000000E+00  0.00000000000E+00  0.99999998245E-14  0.12500000000E+03  0.12500000000E+03 0.  0.
        -13    1    1    0    0    0 -0.37677771730E+02  0.39964360618E+02  0.19455460336E+02  0.58269123067E+02  0.10566000000E+00 0.  1.
         13    1    1    0    0    0  0.82581092345E+01  0.29920403481E+01  0.39689304277E+01  0.96390998723E+01  0.10566000000E+00 0. -1.
         22    1    1    0    0    0  0.29419662495E+02 -0.42956400966E+02 -0.23424390764E+02  0.57091777060E+02  0.00000000000E+00 0.  1.
</event>
<event>
 4    1  0.9897231E-003  0.9118800E+02  0.7818608E-02  0.1130116E+00
         25   -1    0    0    0    0  0.00000000000E+00  0.00000000000E+00  0.99999998245E-14  0.12500000000E+03  0.12500000000E+03 0.  0.
        -13    1    1    0    0    0 -0.25039387115E+01 -0.71026130103E+01 -0.30657186187E+00  0.75380349553E+01  0.10566000000E+00 0.  1.
         13    1    1    0    0    0 -0.16690148897E+02 -0.52335124895E+02 -0.18709628541E+01  0.54963970326E+02  0.10566000000E+00 0. -1.
         22    1    1    0    0    0  0.19194087608E+02  0.59437737905E+02  0.21775347160E+01  0.62497994719E+02  0.00000000000E+00 0. -1.
</event>
<event>
 4    1  0.9897231E-003  0.9118800E+02  0.7818608E-02  0.1130116E+00
         25   -1    0    0    0    0  0.00000000000E+00  0.00000000000E+00  0.99999998245E-14  0.12500000000E+03  0.12500000000E+03 0.  0.
        -13    1    1    0    0    0 -0.85164085884E+01  0.54348897943E+00 -0.52842358670E+02  0.53527101821E+02  0.10566000000E+00 0. -1.
         13    1    1    0    0    0 -0.14337797809E+01  0.44795428937E+00 -0.88490934481E+01  0.89763024901E+01  0.10566000000E+00 0.  1.
         22    1    1    0    0    0  0.99501883693E+01 -0.99144326880E+00  0.61691452118E+02  0.62496595689E+02  0.00000000000E+00 0. -1.
</event>
<event>
 4    1  0.9897231E-003  0.9118800E+02  0.7818608E-02  0.1130116E+00
         25   -1    0    0    0    0  0.00000000000E+00  0.00000000000E+00  0.99999998245E-14  0.12500000000E+03  0.12500000000E+03 0.  0.
        -13    1    1    0    0    0  0.22453324719E+01 -0.16236913837E+02 -0.30838260751E+02  0.34924037267E+02  0.10566000000E+00 0.  1.
         13    1    1    0    0    0  0.16846188745E+01 -0.12908713796E+02 -0.24309761571E+02  0.27576230784E+02  0.10566000000E+00 0. -1.
         22    1    1    0    0    0 -0.39299513464E+01  0.29145627633E+02  0.55148022321E+02  0.62499731949E+02  0.00000000000E+00 0. -1.
</event>
<event>
 4    1  0.9897231E-003  0.9118800E+02  0.7818608E-02  0.1130116E+00
         25   -1    0    0    0    0  0.00000000000E+00  0.00000000000E+00  0.99999998245E-14  0.12500000000E+03  0.12500000000E+03 0.  0.
        -13    1    1    0    0    0  0.35845000831E+02  0.12736987288E+02 -0.38414418431E+02  0.54062682483E+02  0.10566000000E+00 0.  1.
         13    1    1    0    0    0  0.61472782781E+01  0.23381497068E+01 -0.53207215528E+01  0.84603319177E+01  0.10566000000E+00 0. -1.
         22    1    1    0    0    0 -0.41992279110E+02 -0.15075136995E+02  0.43735139984E+02  0.62476985600E+02  0.00000000000E+00 0.  1.
</event>
<event>
 4    1  0.9897231E-003  0.9118800E+02  0.7818608E-02  0.1130116E+00
         25   -1    0    0    0    0  0.00000000000E+00  0.00000000000E+00  0.99999998245E-14  0.12500000000E+03  0.12500000000E+03 0.  0.
        -13    1    1    0    0    0  0.66280084678E+01  0.38883814401E-01  0.16983442889E+01  0.68430655090E+01  0.10566000000E+00 0. -1.
         13    1    1    0    0    0  0.54410473835E+02  0.24017535354E+01  0.11489716942E+02  0.55662310790E+02  0.10566000000E+00 0.  1.
         22    1    1    0    0    0 -0.61038482303E+02 -0.24406373498E+01 -0.13188061231E+02  0.62494623701E+02  0.00000000000E+00 0.  1.
</event>
<event>
 4    1  0.9897231E-003  0.9118800E+02  0.7818608E-02  0.1130116E+00
         25   -1    0    0    0    0  0.00000000000E+00  0.00000000000E+00  0.99999998245E-14  0.12500000000E+03  0.12500000000E+03 0.  0.
        -13    1    1    0    0    0 -0.29134698903E+02 -0.31687982709E+02  0.27711028950E+02  0.51194445185E+02  0.10566000000E+00 0.  1.
         13    1    1    0    0    0 -0.68350917492E+01 -0.67513750925E+01  0.59675726773E+01  0.11310288792E+02  0.10566000000E+00 0. -1.
         22    1    1    0    0    0  0.35969790652E+02  0.38439357802E+02 -0.33678601627E+02  0.62495266023E+02  0.00000000000E+00 0.  1.
</event>
<event>
 4    1  0.9897231E-003  0.9118800E+02  0.7818608E-02  0.1130116E+00
         25   -1    0    0    0    0  0.00000000000E+00  0.00000000000E+00  0.99999998245E-14  0.12500000000E+03  0.12500000000E+03 0.  0.
        -13    1    1    0    0    0 -0.11881514138E+01  0.85584762826E+01 -0.19767903265E+02  0.21574067386E+02  0.10566000000E+00 0.  1.
         13    1    1    0    0    0 -0.30058301826E+01  0.16782151805E+02 -0.37207864812E+02  0.40928132161E+02  0.10566000000E+00 0. -1.
         22    1    1    0    0    0  0.41939815965E+01 -0.25340628087E+02  0.56975768077E+02  0.62497800453E+02  0.00000000000E+00 0. -1.
</event>
<event>
 4    1  0.9897231E-003  0.9118800E+02  0.7818608E-02  0.1130116E+00
         25   -1    0    0    0    0  0.00000000000E+00  0.00000000000E+00  0.99999998245E-14  0.12500000000E+03  0.12500000000E+03 0.  0.
        -13    1    1    0    0    0  0.22569505184E+02 -0.16475349609E+02  0.92989342033E+01  0.29449975387E+02  0.10566000000E+00 0. -1.
         13    1    1    0    0    0  0.25555241839E+02 -0.49863261811E+01  0.22150841566E+02  0.34184861860E+02  0.10566000000E+00 0.  1.
         22    1    1    0    0    0 -0.48124747023E+02  0.21461675790E+02 -0.31449775769E+02  0.61365162753E+02  0.00000000000E+00 0.  1.
</event>
<event>
 4    1  0.9897231E-003  0.9118800E+02  0.7818608E-02  0.1130116E+00
         25   -1    0    0    0    0  0.00000000000E+00  0.00000000000E+00  0.99999998245E-14  0.12500000000E+03  0.12500000000E+03 0.  0.
        -13    1    1    0    0    0 -0.24142086278E+02 -0.65194194684E+01 -0.30799765349E+02  0.39673415149E+02  0.10566000000E+00 0.  1.
         13    1    1    0    0    0 -0.13561121619E+02 -0.37552065057E+01 -0.17974980074E+02  0.22827979941E+02  0.10566000000E+00 0. -1.
         22    1    1    0    0    0  0.37703207897E+02  0.10274625974E+02  0.48774745423E+02  0.62498604910E+02  0.00000000000E+00 0.  1.
</event>
<event>
 4    1  0.9897231E-003  0.9118800E+02  0.7818608E-02  0.1130116E+00
         25   -1    0    0    0    0  0.00000000000E+00  0.00000000000E+00  0.99999998245E-14  0.12500000000E+03  0.12500000000E+03 0.  0.
        -13    1    1    0    0    0  0.12796635485E+02  0.16937878482E+02 -0.27207077272E+02  0.34509155668E+02  0.10566000000E+00 0.  1.
         13    1    1    0    0    0  0.10656343704E+02  0.13257010095E+02 -0.22232250253E+02  0.27992679278E+02  0.10566000000E+00 0. -1.
         22    1    1    0    0    0 -0.23452979188E+02 -0.30194888577E+02  0.49439327525E+02  0.62498165054E+02  0.00000000000E+00 0. -1.
</event>
<event>
 4    1  0.9897231E-003  0.9118800E+02  0.7818608E-02  0.1130116E+00
         25   -1    0    0    0    0  0.00000000000E+00  0.00000000000E+00  0.99999998245E-14  0.12500000000E+03  0.12500000000E+03 0.  0.
        -13    1    1    0    0    0 -0.12383639039E+01 -0.43863196400E+01  0.19984604499E+01  0.49777859886E+01  0.10566000000E+00 0.  1.
         13    1    1    0    0    0 -0.14810739002E+02 -0.36051775119E+02  0.42585034911E+02  0.57728544425E+02  0.10566000000E+00 0. -1.
         22    1    1    0    0    0  0.16049102906E+02  0.40438094759E+02 -0.44583495361E+02  0.62293669586E+02  0.00000000000E+00 0. -1.
</event>
<event>
 4    1  0.9897231E-003  0.9118800E+02  0.7818608E-02  0.1130116E+00
         25   -1    0    0    0    0  0.00000000000E+00  0.00000000000E+00  0.99999998245E-14  0.12500000000E+03  0.12500000000E+03 0.  0.
        -13    1    1    0    0    0  0.75619985677E+01 -0.45252333113E+01  0.48333596276E+00  0.88264566247E+01  0.10566000000E+00 0.  1.
         13    1    1    0    0    0  0.46355678512E+02 -0.27044112094E+02 -0.14181168816E+01  0.53686638457E+02  0.10566000000E+00 0. -1.
         22    1    1    0    0    0 -0.53917677079E+02  0.31569345406E+02  0.93478091887E+00  0.62486904919E+02  0.00000000000E+00 0. -1.
</event>
<event>
 4    1  0.9897231E-003  0.9118800E+02  0.7818608E-02  0.1130116E+00
         25   -1    0    0    0    0  0.00000000000E+00  0.00000000000E+00  0.99999998245E-14  0.12500000000E+03  0.12500000000E+03 0.  0.
        -13    1    1    0    0    0  0.36191584710E+02 -0.27924288015E+02 -0.10072719080E+02  0.46808839963E+02  0.10566000000E+00 0.  1.
         13    1    1    0    0    0  0.12084846328E+02 -0.94450994496E+01 -0.33106653526E+01  0.15691560901E+02  0.10566000000E+00 0.  1.
         22    1    1    0    0    0 -0.48276431039E+02  0.37369387464E+02  0.13383384433E+02  0.62499599136E+02  0.00000000000E+00 0.  1.
</event>
<event>
 4    1  0.9897231E-003  0.9118800E+02  0.7818608E-02  0.1130116E+00
         25   -1    0    0    0    0  0.00000000000E+00  0.00000000000E+00  0.99999998245E-14  0.12500000000E+03  0.12500000000E+03 0.  0.
        -13    1    1    0    0    0  0.71225794995E+01  0.21571989936E+01  0.76562229237E+01  0.10677713225E+02  0.10566000000E+00 0. -1.
         13    1    1    0    0    0  0.37615847983E+02  0.10227192768E+02  0.34169940421E+02  0.51837664722E+02  0.10566000000E+00 0.  1.
         22    1    1    0    0    0 -0.44738427483E+02 -0.12384391762E+02 -0.41826163345E+02  0.62484622053E+02  0.00000000000E+00 0.  1.
</event>
<event>
 4    1  0.9897231E-003  0.9118800E+02  0.7818608E-02  0.1130116E+00
         25   -1    0    0    0    0  0.00000000000E+00  0.00000000000E+00  0.99999998245E-14  0.12500000000E+03  0.12500000000E+03 0.  0.
        -13    1    1    0    0    0 -0.27149499725E+02  0.26751352865E+02 -0.26643638225E+02  0.46504030334E+02  0.10566000000E+00 0.  1.
         13    1    1    0    0    0 -0.91498802389E+01  0.90973648973E+01 -0.94569617123E+01  0.15997738757E+02  0.10566000000E+00 0. -1.
         22    1    1    0    0    0  0.36299379964E+02 -0.35848717762E+02  0.36100599937E+02  0.62498230909E+02  0.00000000000E+00 0.  1.
</event>
<event>
 4    1  0.9897231E-003  0.9118800E+02  0.7818608E-02  0.1130116E+00
         25   -1    0    0    0    0  0.00000000000E+00  0.00000000000E+00  0.99999998245E-14  0.12500000000E+03  0.12500000000E+03 0.  0.
        -13    1    1    0    0    0 -0.22303603785E+02 -0.94135447274E+01 -0.28407894541E+02  0.37324056618E+02  0.10566000000E+00 0. -1.
         13    1    1    0    0    0 -0.14897995210E+02 -0.63151184284E+01 -0.19287477577E+02  0.25176356713E+02  0.10566000000E+00 0. -1.
         22    1    1    0    0    0  0.37201598994E+02  0.15728663156E+02  0.47695372117E+02  0.62499586669E+02  0.00000000000E+00 0. -1.
</event>
<event>
 4    1  0.9897231E-003  0.9118800E+02  0.7818608E-02  0.1130116E+00
         25   -1    0    0    0    0  0.00000000000E+00  0.00000000000E+00  0.99999998245E-14  0.12500000000E+03  0.12500000000E+03 0.  0.
        -13    1    1    0    0    0  0.18028171318E+02 -0.28673869736E+02  0.10483894907E+02  0.35456014767E+02  0.10566000000E+00 0. -1.
         13    1    1    0    0    0  0.12879057716E+02 -0.22851985239E+02  0.66552004136E+01  0.27062635009E+02  0.10566000000E+00 0.  1.
         22    1    1    0    0    0 -0.30907229034E+02  0.51525854975E+02 -0.17139095320E+02  0.62481350225E+02  0.00000000000E+00 0. -1.
</event>
<event>
 4    1  0.9897231E-003  0.9118800E+02  0.7818608E-02  0.1130116E+00
         25   -1    0    0    0    0  0.00000000000E+00  0.00000000000E+00  0.99999998245E-14  0.12500000000E+03  0.12500000000E+03 0.  0.
        -13    1    1    0    0    0 -0.31644976054E+01 -0.46765181093E+01 -0.67641147861E+00  0.56879313679E+01  0.10566000000E+00 0. -1.
         13    1    1    0    0    0 -0.37056156081E+02 -0.42160278041E+02 -0.89173618786E+01  0.56834657164E+02  0.10566000000E+00 0.  1.
         22    1    1    0    0    0  0.40220653686E+02  0.46836796150E+02  0.95937733572E+01  0.62477411469E+02  0.00000000000E+00 0.  1.
</event>
<event>
 4    1  0.9897231E-003  0.9118800E+02  0.7818608E-02  0.1130116E+00
         25   -1    0    0    0    0  0.00000000000E+00  0.00000000000E+00  0.99999998245E-14  0.12500000000E+03  0.12500000000E+03 0.  0.
        -13    1    1    0    0    0 -0.16223683855E+00  0.23083214253E-01 -0.29053010857E+01  0.29118365443E+01  0.10566000000E+00 0.  1.
         13    1    1    0    0    0 -0.50328086790E+02 -0.19330831767E+02 -0.27016336161E+02  0.60303324621E+02  0.10566000000E+00 0. -1.
         22    1    1    0    0    0  0.50490323629E+02  0.19307748553E+02  0.29921637246E+02  0.61784838835E+02  0.00000000000E+00 0. -1.
</event>
<event>
 4    1  0.9897231E-003  0.9118800E+02  0.7818608E-02  0.1130116E+00
         25   -1    0    0    0    0  0.00000000000E+00  0.00000000000E+00  0.99999998245E-14  0.12500000000E+03  0.12500000000E+03 0.  0.
        -13    1    1    0    0    0 -0.29772300438E+02  0.26775593570E+02  0.18590863111E+02  0.44146955044E+02  0.10566000000E+00 0.  1.
         13    1    1    0    0    0  0.56586972113E+01  0.16443806662E+02  0.13372505193E+02  0.21937517882E+02  0.10566000000E+00 0. -1.
         22    1    1    0    0    0  0.24113603227E+02 -0.43219400232E+02 -0.31963368304E+02  0.58915527074E+02  0.00000000000E+00 0.  1.
</event>
<event>
 4    1  0.9897231E-003  0.9118800E+02  0.7818608E-02  0.1130116E+00
         25   -1    0    0    0    0  0.00000000000E+00  0.00000000000E+00  0.99999998245E-14  0.12500000000E+03  0.12500000000E+03 0.  0.
        -13    1    1    0    0    0  0.28242834358E+01  0.18229359269E+02  0.11021830807E+01  0.18480045667E+02  0.10566000000E+00 0.  1.
         13    1    1    0    0    0 -0.21917341226E+02  0.38906062397E+02  0.86771001747E+01  0.45490161234E+02  0.10566000000E+00 0. -1.
         22    1    1    0    0    0  0.19093057790E+02 -0.57135421666E+02 -0.97792832555E+01  0.61029793099E+02  0.00000000000E+00 0.  1.
</event>
<event>
 4    1  0.9897231E-003  0.9118800E+02  0.7818608E-02  0.1130116E+00
         25   -1    0    0    0    0  0.00000000000E+00  0.00000000000E+00  0.99999998245E-14  0.12500000000E+03  0.12500000000E+03 0.  0.
        -13    1    1    0    0    0 -0.19405425359E+02 -0.21836426058E+02  0.16047614630E+02  0.33330723600E+02  0.10566000000E+00 0.  1.
         13    1    1    0    0    0 -0.16906781966E+02 -0.20166782785E+02  0.12615511997E+02  0.29183911858E+02  0.10566000000E+00 0. -1.
         22    1    1    0    0    0  0.36312207325E+02  0.42003208843E+02 -0.28663126626E+02  0.62485364542E+02  0.00000000000E+00 0. -1.
</event>
<event>
 4    1  0.9897231E-003  0.9118800E+02  0.7818608E-02  0.1130116E+00
         25   -1    0    0    0    0  0.00000000000E+00  0.00000000000E+00  0.99999998245E-14  0.12500000000E+03  0.12500000000E+03 0.  0.
        -13    1    1    0    0    0 -0.17516235015E+02 -0.12930272470E+02 -0.24474405481E+02  0.32756955336E+02  0.10566000000E+00 0. -1.
         13    1    1    0    0    0 -0.16615352745E+02 -0.11454591057E+02 -0.21853150241E+02  0.29746410584E+02  0.10566000000E+00 0.  1.
         22    1    1    0    0    0  0.34131587760E+02  0.24384863526E+02  0.46327555722E+02  0.62496634080E+02  0.00000000000E+00 0.  1.
</event>
<event>
 4    1  0.9897231E-003  0.9118800E+02  0.7818608E-02  0.1130116E+00
         25   -1    0    0    0    0  0.00000000000E+00  0.00000000000E+00  0.99999998245E-14  0.12500000000E+03  0.12500000000E+03 0.  0.
        -13    1    1    0    0    0  0.15631366658E+02 -0.16009387029E+02 -0.54490698898E+01  0.23029190679E+02  0.10566000000E+00 0.  1.
         13    1    1    0    0    0  0.36896359415E+02  0.26423986860E+02  0.14538931762E+02  0.47654591809E+02  0.10566000000E+00 0. -1.
         22    1    1    0    0    0 -0.52527726072E+02 -0.10414599832E+02 -0.90898618722E+01  0.54316217512E+02  0.00000000000E+00 0. -1.
</event>
<event>
 4    1  0.9897231E-003  0.9118800E+02  0.7818608E-02  0.1130116E+00
         25   -1    0    0    0    0  0.00000000000E+00  0.00000000000E+00  0.99999998245E-14  0.12500000000E+03  0.12500000000E+03 0.  0.
        -13    1    1    0    0    0  0.26030225301E+02 -0.35780038750E+02 -0.13582718333E+02  0.46284826926E+02  0.10566000000E+00 0.  1.
         13    1    1    0    0    0  0.14459332883E+02 -0.79507444000E+01 -0.31815281094E+01  0.16805354179E+02  0.10566000000E+00 0. -1.
         22    1    1    0    0    0 -0.40489558184E+02  0.43730783150E+02  0.16764246442E+02  0.61909818895E+02  0.00000000000E+00 0.  1.
</event>
<event>
 4    1  0.9897231E-003  0.9118800E+02  0.7818608E-02  0.1130116E+00
         25   -1    0    0    0    0  0.00000000000E+00  0.00000000000E+00  0.99999998245E-14  0.12500000000E+03  0.12500000000E+03 0.  0.
        -13    1    1    0    0    0  0.36329982293E+02 -0.18069184077E+02  0.41968397792E+02  0.58375685040E+02  0.10566000000E+00 0. -1.
         13    1    1    0    0    0  0.26644878705E+01 -0.88958859017E+00  0.30315754388E+01  0.41343049172E+01  0.10566000000E+00 0.  1.
         22    1    1    0    0    0 -0.38994470163E+02  0.18958772667E+02 -0.44999973231E+02  0.62490010043E+02  0.00000000000E+00 0. -1.
</event>
<event>
 4    1  0.9897231E-003  0.9118800E+02  0.7818608E-02  0.1130116E+00
         25   -1    0    0    0    0  0.00000000000E+00  0.00000000000E+00  0.99999998245E-14  0.12500000000E+03  0.12500000000E+03 0.  0.
        -13    1    1    0    0    0  0.20214585246E+02  0.19734352246E+02 -0.84809032722E+01  0.29495948867E+02  0.10566000000E+00 0. -1.
         13    1    1    0    0    0  0.23935482397E+02  0.21222428115E+02 -0.81826472579E+01  0.33019170989E+02  0.10566000000E+00 0.  1.
         22    1    1    0    0    0 -0.44150067642E+02 -0.40956780361E+02  0.16663550530E+02  0.62484880144E+02  0.00000000000E+00 0.  1.
</event>
<event>
 4    1  0.9897231E-003  0.9118800E+02  0.7818608E-02  0.1130116E+00
         25   -1    0    0    0    0  0.00000000000E+00  0.00000000000E+00  0.99999998245E-14  0.12500000000E+03  0.12500000000E+03 0.  0.
        -13    1    1    0    0    0  0.73535239237E+01  0.22939444891E+01  0.44855788318E+01  0.89144869121E+01  0.10566000000E+00 0.  1.
         13    1    1    0    0    0  0.12260639568E+02 -0.42479407055E+01  0.53390583488E+02  0.54944825526E+02  0.10566000000E+00 0. -1.
         22    1    1    0    0    0 -0.19614163492E+02  0.19539962164E+01 -0.57876162320E+02  0.61140687562E+02  0.00000000000E+00 0. -1.
</event>
<event>
 4    1  0.9897231E-003  0.9118800E+02  0.7818608E-02  0.1130116E+00
         25   -1    0    0    0    0  0.00000000000E+00  0.00000000000E+00  0.99999998245E-14  0.12500000000E+03  0.12500000000E+03 0.  0.
        -13    1    1    0    0    0 -0.33562850905E+02  0.30748197603E+02  0.30070826564E+02  0.54554398457E+02  0.10566000000E+00 0. -1.
         13    1    1    0    0    0  0.63800355979E+00  0.96158179584E+01  0.11665155616E+01  0.97078795905E+01  0.10566000000E+00 0.  1.
         22    1    1    0    0    0  0.32924847345E+02 -0.40364015561E+02 -0.31237342126E+02  0.60737721953E+02  0.00000000000E+00 0. -1.
</event>
<event>
 4    1  0.9897231E-003  0.9118800E+02  0.7818608E-02  0.1130116E+00
         25   -1    0    0    0    0  0.00000000000E+00  0.00000000000E+00  0.99999998245E-14  0.12500000000E+03  0.12500000000E+03 0.  0.
        -13    1    1    0    0    0  0.32633855904E+01  0.88354264488E+01 -0.36976562707E+02  0.38157460603E+02  0.10566000000E+00 0. -1.
         13    1    1    0    0    0  0.37844338245E+01  0.39376526604E+01 -0.23759331777E+02  0.24379172635E+02  0.10566000000E+00 0.  1.
         22    1    1    0    0    0 -0.70478194148E+01 -0.12773079109E+02  0.60735894484E+02  0.62463366762E+02  0.00000000000E+00 0.  1.
</event>
<event>
 4    1  0.9897231E-003  0.9118800E+02  0.7818608E-02  0.1130116E+00
         25   -1    0    0    0    0  0.00000000000E+00  0.00000000000E+00  0.99999998245E-14  0.12500000000E+03  0.12500000000E+03 0.  0.
        -13    1    1    0    0    0 -0.80585047451E+01 -0.78406303047E+01 -0.46736581908E+01  0.12176585204E+02  0.10566000000E+00 0. -1.
         13    1    1    0    0    0 -0.34672891869E+02 -0.25376129454E+02 -0.26385173197E+02  0.50421680905E+02  0.10566000000E+00 0.  1.
         22    1    1    0    0    0  0.42731396614E+02  0.33216759758E+02  0.31058831388E+02  0.62401733891E+02  0.00000000000E+00 0.  1.
</event>
<event>
 4    1  0.9897231E-003  0.9118800E+02  0.7818608E-02  0.1130116E+00
         25   -1    0    0    0    0  0.00000000000E+00  0.00000000000E+00  0.99999998245E-14  0.12500000000E+03  0.12500000000E+03 0.  0.
        -13    1    1    0    0    0  0.33332480725E+01  0.52904082774E+01 -0.44028749464E+01  0.76482307943E+01  0.10566000000E+00 0.  1.
         13    1    1    0    0    0  0.24982350429E+02  0.36603121157E+02 -0.32327385175E+02  0.54854145766E+02  0.10566000000E+00 0. -1.
         22    1    1    0    0    0 -0.28315598502E+02 -0.41893529435E+02  0.36730260121E+02  0.62497623440E+02  0.00000000000E+00 0. -1.
</event>
<event>
 4    1  0.9897231E-003  0.9118800E+02  0.7818608E-02  0.1130116E+00
         25   -1    0    0    0    0  0.00000000000E+00  0.00000000000E+00  0.99999998245E-14  0.12500000000E+03  0.12500000000E+03 0.  0.
        -13    1    1    0    0    0  0.24969631147E+01  0.17375559615E+02  0.13563713358E+01  0.17606697702E+02  0.10566000000E+00 0. -1.
         13    1    1    0    0    0  0.53477029643E+01  0.44314637914E+02  0.48423375098E+01  0.44898156499E+02  0.10566000000E+00 0.  1.
         22    1    1    0    0    0 -0.78446660789E+01 -0.61690197529E+02 -0.61987088455E+01  0.62495145799E+02  0.00000000000E+00 0.  1.
</event>
<event>
 4    1  0.9897231E-003  0.9118800E+02  0.7818608E-02  0.1130116E+00
         25   -1    0    0    0    0  0.00000000000E+00  0.00000000000E+00  0.99999998245E-14  0.12500000000E+03  0.12500000000E+03 0.  0.
        -13    1    1    0    0    0  0.16668597424E+02 -0.63880111487E+01  0.12243798814E+02  0.21646491631E+02  0.10566000000E+00 0. -1.
         13    1    1    0    0    0  0.32254984841E+02 -0.11442290778E+02  0.22315639225E+02  0.40857177868E+02  0.10566000000E+00 0.  1.
         22    1    1    0    0    0 -0.48923582265E+02  0.17830301927E+02 -0.34559438039E+02  0.62496330500E+02  0.00000000000E+00 0.  1.
</event>
<event>
 4    1  0.9897231E-003  0.9118800E+02  0.7818608E-02  0.1130116E+00
         25   -1    0    0    0    0  0.00000000000E+00  0.00000000000E+00  0.99999998245E-14  0.12500000000E+03  0.12500000000E+03 0.  0.
        -13    1    1    0    0    0 -0.15613378351E+02 -0.10700306265E+02 -0.27744216033E+02  0.33586110597E+02  0.10566000000E+00 0.  1.
         13    1    1    0    0    0 -0.15476548730E+02  0.12896690874E+02 -0.23798466603E+02  0.31180544780E+02  0.10566000000E+00 0. -1.
         22    1    1    0    0    0  0.31089927081E+02 -0.21963846086E+01  0.51542682636E+02  0.60233344623E+02  0.00000000000E+00 0.  1.
</event>
<event>
 4    1  0.9897231E-003  0.9118800E+02  0.7818608E-02  0.1130116E+00
         25   -1    0    0    0    0  0.00000000000E+00  0.00000000000E+00  0.99999998245E-14  0.12500000000E+03  0.12500000000E+03 0.  0.
        -13    1    1    0    0    0  0.34659297638E+02  0.51459094731E+02 -0.43241803750E+01  0.62193368162E+02  0.10566000000E+00 0. -1.
         13    1    1    0    0    0  0.97998641410E-01  0.28748664208E+00  0.21230383487E-01  0.32228414152E+00  0.10566000000E+00 0.  1.
         22    1    1    0    0    0 -0.34757296280E+02 -0.51746581373E+02  0.43029499915E+01  0.62484347697E+02  0.00000000000E+00 0. -1.
</event>
<event>
 4    1  0.9897231E-003  0.9118800E+02  0.7818608E-02  0.1130116E+00
         25   -1    0    0    0    0  0.00000000000E+00  0.00000000000E+00  0.99999998245E-14  0.12500000000E+03  0.12500000000E+03 0.  0.
        -13    1    1    0    0    0  0.20877547465E+02  0.10430733971E+02  0.93848597076E+01  0.25154700458E+02  0.10566000000E+00 0. -1.
         13    1    1    0    0    0  0.18412404233E+02 -0.97544132052E+01  0.34895378327E+02  0.40643127331E+02  0.10566000000E+00 0.  1.
         22    1    1    0    0    0 -0.39289951698E+02 -0.67632076589E+00 -0.44280238034E+02  0.59202172212E+02  0.00000000000E+00 0.  1.
</event>
<event>
 4    1  0.9897231E-003  0.9118800E+02  0.7818608E-02  0.1130116E+00
         25   -1    0    0    0    0  0.00000000000E+00  0.00000000000E+00  0.99999998245E-14  0.12500000000E+03  0.12500000000E+03 0.  0.
        -13    1    1    0    0    0  0.10256063443E+01 -0.65734973529E+01  0.10076911145E+02  0.12075513988E+02  0.10566000000E+00 0. -1.
         13    1    1    0    0    0 -0.36071898996E+02 -0.40207335055E+02 -0.53528328706E+01  0.54281448702E+02  0.10566000000E+00 0.  1.
         22    1    1    0    0    0  0.35046292652E+02  0.46780832408E+02 -0.47240782745E+01  0.58643037310E+02  0.00000000000E+00 0.  1.
</event>
<event>
 4    1  0.9897231E-003  0.9118800E+02  0.7818608E-02  0.1130116E+00
         25   -1    0    0    0    0  0.00000000000E+00  0.00000000000E+00  0.99999998245E-14  0.12500000000E+03  0.12500000000E+03 0.  0.
        -13    1    1    0    0    0  0.12767009248E+02 -0.16201773573E+02 -0.79395044350E+01  0.22102961041E+02  0.10566000000E+00 0. -1.
         13    1    1    0    0    0  0.21083953140E+02  0.28051546107E+01 -0.38442170419E+02  0.43934196282E+02  0.10566000000E+00 0.  1.
         22    1    1    0    0    0 -0.33850962389E+02  0.13396618963E+02  0.46381674854E+02  0.58962842677E+02  0.00000000000E+00 0.  1.
</event>
<event>
 4    1  0.9897231E-003  0.9118800E+02  0.7818608E-02  0.1130116E+00
         25   -1    0    0    0    0  0.00000000000E+00  0.00000000000E+00  0.99999998245E-14  0.12500000000E+03  0.12500000000E+03 0.  0.
        -13    1    1    0    0    0  0.24998905746E+01  0.30201720550E+01  0.17505709983E+01  0.42949452829E+01  0.10566000000E+00 0.  1.
         13    1    1    0    0    0 -0.78526578607E+01  0.57653245917E+02 -0.10640635534E+02  0.59150615287E+02  0.10566000000E+00 0. -1.
         22    1    1    0    0    0  0.53527672861E+01 -0.60673417972E+02  0.88900645362E+01  0.61554439430E+02  0.00000000000E+00 0.  1.
</event>
<event>
 4    1  0.9897231E-003  0.9118800E+02  0.7818608E-02  0.1130116E+00
         25   -1    0    0    0    0  0.00000000000E+00  0.00000000000E+00  0.99999998245E-14  0.12500000000E+03  0.12500000000E+03 0.  0.
        -13    1    1    0    0    0 -0.49177905161E+01 -0.36265584906E+01 -0.23131064411E-01  0.61113246622E+01  0.10566000000E+00 0.  1.
         13    1    1    0    0    0 -0.43226151283E+02 -0.36192529266E+02  0.14325895464E+01  0.56395592081E+02  0.10566000000E+00 0. -1.
         22    1    1    0    0    0  0.48143941799E+02  0.39819087756E+02 -0.14094584820E+01  0.62493083256E+02  0.00000000000E+00 0. -1.
</event>
<event>
 4    1  0.9897231E-003  0.9118800E+02  0.7818608E-02  0.1130116E+00
         25   -1    0    0    0    0  0.00000000000E+00  0.00000000000E+00  0.99999998245E-14  0.12500000000E+03  0.12500000000E+03 0.  0.
        -13    1    1    0    0    0  0.10800880834E+02 -0.11171244246E+02 -0.27362581242E+01  0.15778276121E+02  0.10566000000E+00 0. -1.
         13    1    1    0    0    0  0.43881342056E+02 -0.17314009481E+02  0.55607007465E+01  0.47500312228E+02  0.10566000000E+00 0.  1.
         22    1    1    0    0    0 -0.54682222889E+02  0.28485253728E+02 -0.28244426223E+01  0.61721411651E+02  0.00000000000E+00 0.  1.
</event>
<event>
 4    1  0.9897231E-003  0.9118800E+02  0.7818608E-02  0.1130116E+00
         25   -1    0    0    0    0  0.00000000000E+00  0.00000000000E+00  0.99999998245E-14  0.12500000000E+03  0.12500000000E+03 0.  0.
        -13    1    1    0    0    0  0.18366037073E+02 -0.26401669493E+02 -0.43192846044E+02  0.53851579208E+02  0.10566000000E+00 0. -1.
         13    1    1    0    0    0  0.30399337595E+01 -0.41017788542E+01 -0.69812120167E+01  0.86495243967E+01  0.10566000000E+00 0.  1.
         22    1    1    0    0    0 -0.21405970833E+02  0.30503448347E+02  0.50174058061E+02  0.62498896395E+02  0.00000000000E+00 0. -1.
</event>
<event>
 4    1  0.9897231E-003  0.9118800E+02  0.7818608E-02  0.1130116E+00
         25   -1    0    0    0    0  0.00000000000E+00  0.00000000000E+00  0.99999998245E-14  0.12500000000E+03  0.12500000000E+03 0.  0.
        -13    1    1    0    0    0  0.33920074121E+02  0.26552465780E+02 -0.84434706800E+00  0.43085136108E+02  0.10566000000E+00 0. -1.
         13    1    1    0    0    0  0.15215326926E+02  0.12050483828E+02 -0.46953572284E+00  0.19415250753E+02  0.10566000000E+00 0.  1.
         22    1    1    0    0    0 -0.49135401047E+02 -0.38602949609E+02  0.13138827908E+01  0.62499613139E+02  0.00000000000E+00 0.  1.
</event>
<event>
 4    1  0.9897231E-003  0.9118800E+02  0.7818608E-02  0.1130116E+00
         25   -1    0    0    0    0  0.00000000000E+00  0.00000000000E+00  0.99999998245E-14  0.12500000000E+03  0.12500000000E+03 0.  0.
        -13    1    1    0    0    0  0.25330754603E+02 -0.23468288881E+02  0.18608269299E+02  0.39226095423E+02  0.10566000000E+00 0.  1.
         13    1    1    0    0    0  0.13109210332E+02 -0.14029978487E+02  0.13254485084E+02  0.23332043004E+02  0.10566000000E+00 0. -1.
         22    1    1    0    0    0 -0.38439964935E+02  0.37498267368E+02 -0.31862754383E+02  0.62441861573E+02  0.00000000000E+00 0.  1.
</event>
<event>
 4    1  0.9897231E-003  0.9118800E+02  0.7818608E-02  0.1130116E+00
         25   -1    0    0    0    0  0.00000000000E+00  0.00000000000E+00  0.99999998245E-14  0.12500000000E+03  0.12500000000E+03 0.  0.
        -13    1    1    0    0    0  0.48848976217E+02 -0.32077613484E+02 -0.20230819445E+02  0.61842485264E+02  0.10566000000E+00 0. -1.
         13    1    1    0    0    0 -0.86380398882E+00 -0.69218855530E+00 -0.79109677585E+00  0.13646539750E+01  0.10566000000E+00 0.  1.
         22    1    1    0    0    0 -0.47985172228E+02  0.32769802039E+02  0.21021916221E+02  0.61792860761E+02  0.00000000000E+00 0. -1.
</event>
<event>
 4    1  0.9897231E-003  0.9118800E+02  0.7818608E-02  0.1130116E+00
         25   -1    0    0    0    0  0.00000000000E+00  0.00000000000E+00  0.99999998245E-14  0.12500000000E+03  0.12500000000E+03 0.  0.
        -13    1    1    0    0    0  0.83972671050E+01 -0.10455080740E+02  0.51947201811E+01  0.14381206135E+02  0.10566000000E+00 0. -1.
         13    1    1    0    0    0  0.24603808092E+02 -0.39530227950E+02  0.12412620953E+02  0.48187867948E+02  0.10566000000E+00 0.  1.
         22    1    1    0    0    0 -0.33001075197E+02  0.49985308690E+02 -0.17607341134E+02  0.62430925917E+02  0.00000000000E+00 0.  1.
</event>
<event>
 4    1  0.9897231E-003  0.9118800E+02  0.7818608E-02  0.1130116E+00
         25   -1    0    0    0    0  0.00000000000E+00  0.00000000000E+00  0.99999998245E-14  0.12500000000E+03  0.12500000000E+03 0.  0.
        -13    1    1    0    0    0  0.31121764689E+02  0.50136435808E+01 -0.14214758914E+02  0.34579927622E+02  0.10566000000E+00 0.  1.
         13    1    1    0    0    0  0.25060928471E+02  0.41585840054E+01 -0.11584179029E+02  0.27920392630E+02  0.10566000000E+00 0. -1.
         22    1    1    0    0    0 -0.56182693160E+02 -0.91722275862E+01  0.25798937944E+02  0.62499679748E+02  0.00000000000E+00 0.  1.
</event>
<event>
 4    1  0.9897231E-003  0.9118800E+02  0.7818608E-02  0.1130116E+00
         25   -1    0    0    0    0  0.00000000000E+00  0.00000000000E+00  0.99999998245E-14  0.12500000000E+03  0.12500000000E+03 0.  0.
        -13    1    1    0    0    0 -0.19523332202E+02  0.44190371578E+02 -0.39697244193E+01  0.48473903458E+02  0.10566000000E+00 0. -1.
         13    1    1    0    0    0 -0.52886002955E+01  0.12884179732E+02 -0.17127658093E+01  0.14032680115E+02  0.10566000000E+00 0.  1.
         22    1    1    0    0    0  0.24811932498E+02 -0.57074551310E+02  0.56824902286E+01  0.62493416427E+02  0.00000000000E+00 0.  1.
</event>
<event>
 4    1  0.9897231E-003  0.9118800E+02  0.7818608E-02  0.1130116E+00
         25   -1    0    0    0    0  0.00000000000E+00  0.00000000000E+00  0.99999998245E-14  0.12500000000E+03  0.12500000000E+03 0.  0.
        -13    1    1    0    0    0 -0.52079738550E+02 -0.29806822159E+02 -0.11720089435E+02  0.61140146181E+02  0.10566000000E+00 0. -1.
         13    1    1    0    0    0 -0.63365254453E+00  0.12022066389E+01 -0.19193128021E+01  0.23540904863E+01  0.10566000000E+00 0.  1.
         22    1    1    0    0    0  0.52713391094E+02  0.28604615521E+02  0.13639402237E+02  0.61505763333E+02  0.00000000000E+00 0. -1.
</event>
<event>
 4    1  0.9897231E-003  0.9118800E+02  0.7818608E-02  0.1130116E+00
         25   -1    0    0    0    0  0.00000000000E+00  0.00000000000E+00  0.99999998245E-14  0.12500000000E+03  0.12500000000E+03 0.  0.
        -13    1    1    0    0    0 -0.68623804067E-01 -0.37713642010E+01 -0.23751523058E+01  0.44587453027E+01  0.10566000000E+00 0. -1.
         13    1    1    0    0    0  0.56527578547E+02 -0.14966466185E+02  0.13522690645E+02  0.60018635213E+02  0.10566000000E+00 0.  1.
         22    1    1    0    0    0 -0.56458954743E+02  0.18737830386E+02 -0.11147538339E+02  0.60522619485E+02  0.00000000000E+00 0.  1.
</event>
<event>
 4    1  0.9897231E-003  0.9118800E+02  0.7818608E-02  0.1130116E+00
         25   -1    0    0    0    0  0.00000000000E+00  0.00000000000E+00  0.99999998245E-14  0.12500000000E+03  0.12500000000E+03 0.  0.
        -13    1    1    0    0    0 -0.10917798492E+02 -0.45854376429E+02 -0.37657055778E+02  0.60331477484E+02  0.10566000000E+00 0.  1.
         13    1    1    0    0    0 -0.32051018886E+01  0.20042005993E+01  0.10571905755E+02  0.11227905124E+02  0.10566000000E+00 0. -1.
         22    1    1    0    0    0  0.14122900380E+02  0.43850175829E+02  0.27085150023E+02  0.53440617391E+02  0.00000000000E+00 0.  1.
</event>
<event>
 4    1  0.9897231E-003  0.9118800E+02  0.7818608E-02  0.1130116E+00
         25   -1    0    0    0    0  0.00000000000E+00  0.00000000000E+00  0.99999998245E-14  0.12500000000E+03  0.12500000000E+03 0.  0.
        -13    1    1    0    0    0  0.18986990907E+01 -0.10621174486E+02 -0.58362453247E+01  0.12267327713E+02  0.10566000000E+00 0. -1.
         13    1    1    0    0    0  0.49661665156E+01 -0.44925974524E+02 -0.21947265157E+02  0.50246389012E+02  0.10566000000E+00 0.  1.
         22    1    1    0    0    0 -0.68648656064E+01  0.55547149010E+02  0.27783510482E+02  0.62486283275E+02  0.00000000000E+00 0.  1.
</event>
<event>
 4    1  0.9897231E-003  0.9118800E+02  0.7818608E-02  0.1130116E+00
         25   -1    0    0    0    0  0.00000000000E+00  0.00000000000E+00  0.99999998245E-14  0.12500000000E+03  0.12500000000E+03 0.  0.
        -13    1    1    0    0    0  0.95415508486E+01  0.53410138417E+02 -0.27610215035E+02  0.60877082852E+02  0.10566000000E+00 0.  1.
         13    1    1    0    0    0  0.31223583948E+00  0.14847950186E+01 -0.58398769970E+00  0.16292062901E+01  0.10566000000E+00 0. -1.
         22    1    1    0    0    0 -0.98537866881E+01 -0.54894933435E+02  0.28194202735E+02  0.62493710858E+02  0.00000000000E+00 0.  1.
</event>
<event>
 4    1  0.9897231E-003  0.9118800E+02  0.7818608E-02  0.1130116E+00
         25   -1    0    0    0    0  0.00000000000E+00  0.00000000000E+00  0.99999998245E-14  0.12500000000E+03  0.12500000000E+03 0.  0.
        -13    1    1    0    0    0  0.14482044076E+02  0.32514997727E+02 -0.44543318544E+00  0.35597250632E+02  0.10566000000E+00 0. -1.
         13    1    1    0    0    0  0.26043752960E+02  0.27594439455E+01 -0.18901564457E+02  0.32298171807E+02  0.10566000000E+00 0.  1.
         22    1    1    0    0    0 -0.40525797036E+02 -0.35274441672E+02  0.19346997642E+02  0.57104577561E+02  0.00000000000E+00 0. -1.
</event>
<event>
 4    1  0.9897231E-003  0.9118800E+02  0.7818608E-02  0.1130116E+00
         25   -1    0    0    0    0  0.00000000000E+00  0.00000000000E+00  0.99999998245E-14  0.12500000000E+03  0.12500000000E+03 0.  0.
        -13    1    1    0    0    0  0.87632781019E+01  0.21915559673E+02  0.52162416045E+02  0.57253957160E+02  0.10566000000E+00 0.  1.
         13    1    1    0    0    0 -0.55284211998E+00 -0.18602597930E+01  0.56662079643E+01  0.59902652393E+01  0.10566000000E+00 0. -1.
         22    1    1    0    0    0 -0.82104359820E+01 -0.20055299880E+02 -0.57828624009E+02  0.61755777600E+02  0.00000000000E+00 0.  1.
</event>
<event>
 4    1  0.9897231E-003  0.9118800E+02  0.7818608E-02  0.1130116E+00
         25   -1    0    0    0    0  0.00000000000E+00  0.00000000000E+00  0.99999998245E-14  0.12500000000E+03  0.12500000000E+03 0.  0.
        -13    1    1    0    0    0 -0.13471634632E+02 -0.29241125625E+02 -0.26613400029E+02  0.41770953935E+02  0.10566000000E+00 0. -1.
         13    1    1    0    0    0  0.15651314936E+02 -0.15827269443E+02 -0.10681954333E+02  0.24689702907E+02  0.10566000000E+00 0.  1.
         22    1    1    0    0    0 -0.21796803034E+01  0.45068395069E+02  0.37295354362E+02  0.58539343157E+02  0.00000000000E+00 0.  1.
</event>
<event>
 4    1  0.9897231E-003  0.9118800E+02  0.7818608E-02  0.1130116E+00
         25   -1    0    0    0    0  0.00000000000E+00  0.00000000000E+00  0.99999998245E-14  0.12500000000E+03  0.12500000000E+03 0.  0.
        -13    1    1    0    0    0 -0.28268557502E+00  0.73603310782E+00 -0.14647987985E+01  0.16668699487E+01  0.10566000000E+00 0. -1.
         13    1    1    0    0    0 -0.96982971191E+01  0.28377563209E+02 -0.52929804969E+02  0.60835174684E+02  0.10566000000E+00 0.  1.
         22    1    1    0    0    0  0.99809826941E+01 -0.29113596317E+02  0.54394603768E+02  0.62497955367E+02  0.00000000000E+00 0.  1.
</event>
<event>
 4    1  0.9897231E-003  0.9118800E+02  0.7818608E-02  0.1130116E+00
         25   -1    0    0    0    0  0.00000000000E+00  0.00000000000E+00  0.99999998245E-14  0.12500000000E+03  0.12500000000E+03 0.  0.
        -13    1    1    0    0    0 -0.23560870935E+02  0.25921703394E+02  0.28273749797E+02  0.45016279696E+02  0.10566000000E+00 0. -1.
         13    1    1    0    0    0 -0.76806187823E+00  0.14202812522E+02  0.11640529265E+02  0.18379958873E+02  0.10566000000E+00 0.  1.
         22    1    1    0    0    0  0.24328932813E+02 -0.40124515915E+02 -0.39914279063E+02  0.61603761430E+02  0.00000000000E+00 0. -1.
</event>
<event>
 4    1  0.9897231E-003  0.9118800E+02  0.7818608E-02  0.1130116E+00
         25   -1    0    0    0    0  0.00000000000E+00  0.00000000000E+00  0.99999998245E-14  0.12500000000E+03  0.12500000000E+03 0.  0.
        -13    1    1    0    0    0  0.35868213278E+02 -0.35619057359E+02 -0.22728989089E+02  0.55424399680E+02  0.10566000000E+00 0.  1.
         13    1    1    0    0    0  0.47571850079E+01 -0.43549479142E+01 -0.29143455961E+01  0.70782027962E+01  0.10566000000E+00 0.  1.
         22    1    1    0    0    0 -0.40625398286E+02  0.39974005273E+02  0.25643334685E+02  0.62497397524E+02  0.00000000000E+00 0.  1.
</event>
<event>
 4    1  0.9897231E-003  0.9118800E+02  0.7818608E-02  0.1130116E+00
         25   -1    0    0    0    0  0.00000000000E+00  0.00000000000E+00  0.99999998245E-14  0.12500000000E+03  0.12500000000E+03 0.  0.
        -13    1    1    0    0    0  0.38124865374E+00  0.45495752932E+01 -0.50619329736E+01  0.68175006673E+01  0.10566000000E+00 0. -1.
         13    1    1    0    0    0  0.58487696969E+01  0.35529889215E+02 -0.42480852803E+02  0.55688554960E+02  0.10566000000E+00 0.  1.
         22    1    1    0    0    0 -0.62300183506E+01 -0.40079464509E+02  0.47542785776E+02  0.62493944373E+02  0.00000000000E+00 0.  1.
</event>
<event>
 4    1  0.9897231E-003  0.9118800E+02  0.7818608E-02  0.1130116E+00
         25   -1    0    0    0    0  0.00000000000E+00  0.00000000000E+00  0.99999998245E-14  0.12500000000E+03  0.12500000000E+03 0.  0.
        -13    1    1    0    0    0  0.25660144277E+02 -0.14315276466E+02  0.51037263401E+00  0.29387782987E+02  0.10566000000E+00 0. -1.
         13    1    1    0    0    0  0.28608382104E+02 -0.15166198846E+02  0.77725482142E+01  0.33299801558E+02  0.10566000000E+00 0.  1.
         22    1    1    0    0    0 -0.54268526381E+02  0.29481475312E+02 -0.82829208483E+01  0.62312415455E+02  0.00000000000E+00 0. -1.
</event>
<event>
 4    1  0.9897231E-003  0.9118800E+02  0.7818608E-02  0.1130116E+00
         25   -1    0    0    0    0  0.00000000000E+00  0.00000000000E+00  0.99999998245E-14  0.12500000000E+03  0.12500000000E+03 0.  0.
        -13    1    1    0    0    0  0.45754905110E+01 -0.18868509301E+02  0.13927662831E+02  0.23894491261E+02  0.10566000000E+00 0. -1.
         13    1    1    0    0    0  0.85368203045E+01 -0.35928954860E+02  0.12343221848E+02  0.38937557549E+02  0.10566000000E+00 0.  1.
         22    1    1    0    0    0 -0.13112310815E+02  0.54797464161E+02 -0.26270884678E+02  0.62167951190E+02  0.00000000000E+00 0.  1.
</event>
<event>
 4    1  0.9897231E-003  0.9118800E+02  0.7818608E-02  0.1130116E+00
         25   -1    0    0    0    0  0.00000000000E+00  0.00000000000E+00  0.99999998245E-14  0.12500000000E+03  0.12500000000E+03 0.  0.
        -13    1    1    0    0    0  0.52620565135E-01  0.10650170420E+02  0.26889246669E+01  0.10985007000E+02  0.10566000000E+00 0.  1.
         13    1    1    0    0    0 -0.10819822491E+01  0.48889898640E+02  0.16243008138E+02  0.51529014662E+02  0.10566000000E+00 0. -1.
         22    1    1    0    0    0  0.10293616840E+01 -0.59540069060E+02 -0.18931932805E+02  0.62485978338E+02  0.00000000000E+00 0. -1.
</event>
<event>
 4    1  0.9897231E-003  0.9118800E+02  0.7818608E-02  0.1130116E+00
         25   -1    0    0    0    0  0.00000000000E+00  0.00000000000E+00  0.99999998245E-14  0.12500000000E+03  0.12500000000E+03 0.  0.
        -13    1    1    0    0    0 -0.32804972688E+02 -0.15749953399E+02  0.31803476781E+02  0.48329075767E+02  0.10566000000E+00 0.  1.
         13    1    1    0    0    0 -0.54603342049E+01  0.18459029502E+02  0.84881400416E+01  0.21038315170E+02  0.10566000000E+00 0. -1.
         22    1    1    0    0    0  0.38265306893E+02 -0.27090761031E+01 -0.40291616822E+02  0.55632609063E+02  0.00000000000E+00 0.  1.
</event>
<event>
 4    1  0.9897231E-003  0.9118800E+02  0.7818608E-02  0.1130116E+00
         25   -1    0    0    0    0  0.00000000000E+00  0.00000000000E+00  0.99999998245E-14  0.12500000000E+03  0.12500000000E+03 0.  0.
        -13    1    1    0    0    0  0.84797901878E+01 -0.21955469542E+02  0.30930864545E+02  0.38867454637E+02  0.10566000000E+00 0. -1.
         13    1    1    0    0    0  0.69118412839E+01 -0.13344027028E+02  0.18267671561E+02  0.23654927511E+02  0.10566000000E+00 0.  1.
         22    1    1    0    0    0 -0.15391631472E+02  0.35299496570E+02 -0.49198536106E+02  0.62477617852E+02  0.00000000000E+00 0.  1.
</event>
<event>
 4    1  0.9897231E-003  0.9118800E+02  0.7818608E-02  0.1130116E+00
         25   -1    0    0    0    0  0.00000000000E+00  0.00000000000E+00  0.99999998245E-14  0.12500000000E+03  0.12500000000E+03 0.  0.
        -13    1    1    0    0    0 -0.17827451949E+02  0.36381008987E+02 -0.44638322953E+02  0.60282558821E+02  0.10566000000E+00 0. -1.
         13    1    1    0    0    0 -0.48405208338E+00  0.16445880269E+01 -0.14329802512E+01  0.22368667000E+01  0.10566000000E+00 0.  1.
         22    1    1    0    0    0  0.18311504032E+02 -0.38025597014E+02  0.46071303205E+02  0.62480574479E+02  0.00000000000E+00 0. -1.
</event>
<event>
 4    1  0.9897231E-003  0.9118800E+02  0.7818608E-02  0.1130116E+00
         25   -1    0    0    0    0  0.00000000000E+00  0.00000000000E+00  0.99999998245E-14  0.12500000000E+03  0.12500000000E+03 0.  0.
        -13    1    1    0    0    0  0.43928256869E+02  0.92013349710E+01 -0.25730042142E+02  0.51733959345E+02  0.10566000000E+00 0.  1.
         13    1    1    0    0    0  0.79876621545E+01  0.26771134254E+01 -0.68284644899E+01  0.10844757919E+02  0.10566000000E+00 0. -1.
         22    1    1    0    0    0 -0.51915919024E+02 -0.11878448396E+02  0.32558506632E+02  0.62421282737E+02  0.00000000000E+00 0.  1.
</event>
<event>
 4    1  0.9897231E-003  0.9118800E+02  0.7818608E-02  0.1130116E+00
         25   -1    0    0    0    0  0.00000000000E+00  0.00000000000E+00  0.99999998245E-14  0.12500000000E+03  0.12500000000E+03 0.  0.
        -13    1    1    0    0    0 -0.91871436230E+01 -0.36360789436E+02  0.97503616115E+01  0.38750372024E+02  0.10566000000E+00 0. -1.
         13    1    1    0    0    0 -0.97680049831E+01 -0.21438970113E+02  0.39730622842E+01  0.23892252903E+02  0.10566000000E+00 0.  1.
         22    1    1    0    0    0  0.18955148606E+02  0.57799759549E+02 -0.13723423896E+02  0.62357375073E+02  0.00000000000E+00 0. -1.
</event>
<event>
 4    1  0.9897231E-003  0.9118800E+02  0.7818608E-02  0.1130116E+00
         25   -1    0    0    0    0  0.00000000000E+00  0.00000000000E+00  0.99999998245E-14  0.12500000000E+03  0.12500000000E+03 0.  0.
        -13    1    1    0    0    0 -0.74419274740E+01 -0.24251365428E+02 -0.98603610949E+01  0.27216702493E+02  0.10566000000E+00 0.  1.
         13    1    1    0    0    0 -0.96585738359E+01 -0.31199362982E+02 -0.13353194910E+02  0.35284660652E+02  0.10566000000E+00 0. -1.
         22    1    1    0    0    0  0.17100501310E+02  0.55450728410E+02  0.23213556005E+02  0.62498636854E+02  0.00000000000E+00 0. -1.
</event>
<event>
 4    1  0.9897231E-003  0.9118800E+02  0.7818608E-02  0.1130116E+00
         25   -1    0    0    0    0  0.00000000000E+00  0.00000000000E+00  0.99999998245E-14  0.12500000000E+03  0.12500000000E+03 0.  0.
        -13    1    1    0    0    0  0.23104896443E+02 -0.13572052466E+01 -0.18441283212E+01  0.23218316455E+02  0.10566000000E+00 0. -1.
         13    1    1    0    0    0  0.37324119857E+02 -0.13198502800E+02  0.16632345139E+01  0.39624082479E+02  0.10566000000E+00 0.  1.
         22    1    1    0    0    0 -0.60429016299E+02  0.14555708047E+02  0.18089380732E+00  0.62157601066E+02  0.00000000000E+00 0.  1.
</event>
<event>
 4    1  0.9897231E-003  0.9118800E+02  0.7818608E-02  0.1130116E+00
         25   -1    0    0    0    0  0.00000000000E+00  0.00000000000E+00  0.99999998245E-14  0.12500000000E+03  0.12500000000E+03 0.  0.
        -13    1    1    0    0    0  0.28612024522E+00 -0.48515116782E+01 -0.10813263430E+01  0.49799057274E+01  0.10566000000E+00 0. -1.
         13    1    1    0    0    0  0.27159669335E+02  0.52768835694E+02 -0.17303426154E+02  0.61819231471E+02  0.10566000000E+00 0.  1.
         22    1    1    0    0    0 -0.27445789580E+02 -0.47917324016E+02  0.18384752497E+02  0.58200862802E+02  0.00000000000E+00 0.  1.
</event>
<event>
 4    1  0.9897231E-003  0.9118800E+02  0.7818608E-02  0.1130116E+00
         25   -1    0    0    0    0  0.00000000000E+00  0.00000000000E+00  0.99999998245E-14  0.12500000000E+03  0.12500000000E+03 0.  0.
        -13    1    1    0    0    0  0.30948872355E+02  0.17942901676E+02 -0.10754729001E+02  0.37355799824E+02  0.10566000000E+00 0. -1.
         13    1    1    0    0    0  0.20227727425E+02  0.13195640256E+02 -0.70312725207E+01  0.25154240912E+02  0.10566000000E+00 0.  1.
         22    1    1    0    0    0 -0.51176599780E+02 -0.31138541933E+02  0.17786001522E+02  0.62489959264E+02  0.00000000000E+00 0.  1.
</event>
<event>
 4    1  0.9897231E-003  0.9118800E+02  0.7818608E-02  0.1130116E+00
         25   -1    0    0    0    0  0.00000000000E+00  0.00000000000E+00  0.99999998245E-14  0.12500000000E+03  0.12500000000E+03 0.  0.
        -13    1    1    0    0    0  0.22162035397E+01  0.31487221272E+02  0.40287003124E+02  0.51180176302E+02  0.10566000000E+00 0. -1.
         13    1    1    0    0    0  0.72191633653E+01  0.33408264995E+00  0.10741493617E+02  0.12946767167E+02  0.10566000000E+00 0.  1.
         22    1    1    0    0    0 -0.94353669050E+01 -0.31821303922E+02 -0.51028496740E+02  0.60873056532E+02  0.00000000000E+00 0. -1.
</event>
<event>
 4    1  0.9897231E-003  0.9118800E+02  0.7818608E-02  0.1130116E+00
         25   -1    0    0    0    0  0.00000000000E+00  0.00000000000E+00  0.99999998245E-14  0.12500000000E+03  0.12500000000E+03 0.  0.
        -13    1    1    0    0    0  0.34569917094E+01  0.26066095796E+01 -0.31459491361E+01  0.53528838192E+01  0.10566000000E+00 0. -1.
         13    1    1    0    0    0  0.34786630073E+02  0.32529861113E+02 -0.31604632963E+02  0.57159124246E+02  0.10566000000E+00 0.  1.
         22    1    1    0    0    0 -0.38243621783E+02 -0.35136470692E+02  0.34750582099E+02  0.62487991934E+02  0.00000000000E+00 0.  1.
</event>
<event>
 4    1  0.9897231E-003  0.9118800E+02  0.7818608E-02  0.1130116E+00
         25   -1    0    0    0    0  0.00000000000E+00  0.00000000000E+00  0.99999998245E-14  0.12500000000E+03  0.12500000000E+03 0.  0.
        -13    1    1    0    0    0  0.29198067331E+02 -0.24083281300E+01 -0.10346774345E+02  0.31070791487E+02  0.10566000000E+00 0.  1.
         13    1    1    0    0    0  0.30159882391E+02 -0.18210568970E+00  0.16184506164E+02  0.34228658638E+02  0.10566000000E+00 0. -1.
         22    1    1    0    0    0 -0.59357949722E+02  0.25904338197E+01 -0.58377318184E+01  0.59700549875E+02  0.00000000000E+00 0.  1.
</event>
<event>
 4    1  0.9897231E-003  0.9118800E+02  0.7818608E-02  0.1130116E+00
         25   -1    0    0    0    0  0.00000000000E+00  0.00000000000E+00  0.99999998245E-14  0.12500000000E+03  0.12500000000E+03 0.  0.
        -13    1    1    0    0    0  0.17038355741E+02  0.36396109895E+01  0.44920657226E+02  0.48181209451E+02  0.10566000000E+00 0.  1.
         13    1    1    0    0    0  0.59994619462E+01  0.11916390765E+01  0.12961894013E+02  0.14333018098E+02  0.10566000000E+00 0. -1.
         22    1    1    0    0    0 -0.23037817687E+02 -0.48312500660E+01 -0.57882551239E+02  0.62485772452E+02  0.00000000000E+00 0.  1.
</event>
<event>
 4    1  0.9897231E-003  0.9118800E+02  0.7818608E-02  0.1130116E+00
         25   -1    0    0    0    0  0.00000000000E+00  0.00000000000E+00  0.99999998245E-14  0.12500000000E+03  0.12500000000E+03 0.  0.
        -13    1    1    0    0    0  0.30992460443E+01 -0.40646832346E+02  0.38090244238E+02  0.55791111980E+02  0.10566000000E+00 0. -1.
         13    1    1    0    0    0  0.43225008244E+00 -0.51134020152E+01  0.43270654908E+01  0.67132987495E+01  0.10566000000E+00 0.  1.
         22    1    1    0    0    0 -0.35314961267E+01  0.45760234361E+02 -0.42417309729E+02  0.62495589271E+02  0.00000000000E+00 0. -1.
</event>
<event>
 4    1  0.9897231E-003  0.9118800E+02  0.7818608E-02  0.1130116E+00
         25   -1    0    0    0    0  0.00000000000E+00  0.00000000000E+00  0.99999998245E-14  0.12500000000E+03  0.12500000000E+03 0.  0.
        -13    1    1    0    0    0 -0.73073679709E+01 -0.32707147202E+01  0.84518358608E+01  0.11642160233E+02  0.10566000000E+00 0.  1.
         13    1    1    0    0    0 -0.29618083088E+02 -0.20701519787E+02  0.35849533356E+02  0.50901708942E+02  0.10566000000E+00 0. -1.
         22    1    1    0    0    0  0.36925451059E+02  0.23972234507E+02 -0.44301369217E+02  0.62456130825E+02  0.00000000000E+00 0. -1.
</event>
<event>
 4    1  0.9897231E-003  0.9118800E+02  0.7818608E-02  0.1130116E+00
         25   -1    0    0    0    0  0.00000000000E+00  0.00000000000E+00  0.99999998245E-14  0.12500000000E+03  0.12500000000E+03 0.  0.
        -13    1    1    0    0    0 -0.15112588969E+01 -0.13397152687E+01 -0.14558437505E+01  0.24918638639E+01  0.10566000000E+00 0.  1.
         13    1    1    0    0    0 -0.54913856765E+02 -0.20938504523E+02 -0.12898147449E+02  0.60169144984E+02  0.10566000000E+00 0. -1.
         22    1    1    0    0    0  0.56425115662E+02  0.22278219792E+02  0.14353991199E+02  0.62338991152E+02  0.00000000000E+00 0. -1.
</event>
<event>
 4    1  0.9897231E-003  0.9118800E+02  0.7818608E-02  0.1130116E+00
         25   -1    0    0    0    0  0.00000000000E+00  0.00000000000E+00  0.99999998245E-14  0.12500000000E+03  0.12500000000E+03 0.  0.
        -13    1    1    0    0    0  0.61747649353E+00  0.47252114489E+01 -0.29616425616E+01  0.56117190909E+01  0.10566000000E+00 0. -1.
         13    1    1    0    0    0  0.28875284022E+02  0.41960152793E+02 -0.25831644865E+02  0.57111482998E+02  0.10566000000E+00 0.  1.
         22    1    1    0    0    0 -0.29492760515E+02 -0.46685364242E+02  0.28793287427E+02  0.62276797911E+02  0.00000000000E+00 0.  1.
</event>
<event>
 4    1  0.9897231E-003  0.9118800E+02  0.7818608E-02  0.1130116E+00
         25   -1    0    0    0    0  0.00000000000E+00  0.00000000000E+00  0.99999998245E-14  0.12500000000E+03  0.12500000000E+03 0.  0.
        -13    1    1    0    0    0 -0.19552320568E+02 -0.31588874670E+02 -0.10573423164E+01  0.37165567120E+02  0.10566000000E+00 0. -1.
         13    1    1    0    0    0 -0.13434286146E+02 -0.21477281739E+02 -0.35074063147E+00  0.25335505880E+02  0.10566000000E+00 0.  1.
         22    1    1    0    0    0  0.32986606714E+02  0.53066156410E+02  0.14080829479E+01  0.62498927000E+02  0.00000000000E+00 0. -1.
</event>
<event>
 4    1  0.9897231E-003  0.9118800E+02  0.7818608E-02  0.1130116E+00
         25   -1    0    0    0    0  0.00000000000E+00  0.00000000000E+00  0.99999998245E-14  0.12500000000E+03  0.12500000000E+03 0.  0.
        -13    1    1    0    0    0  0.21253741639E+02  0.22549646466E+02  0.35961952149E+02  0.47470846378E+02  0.10566000000E+00 0. -1.
         13    1    1    0    0    0  0.67878423648E+01  0.70538052709E+01  0.11403722412E+02  0.15029538305E+02  0.10566000000E+00 0. -1.
         22    1    1    0    0    0 -0.28041584004E+02 -0.29603451737E+02 -0.47365674562E+02  0.62499615317E+02  0.00000000000E+00 0. -1.
</event>
<event>
 4    1  0.9897231E-003  0.9118800E+02  0.7818608E-02  0.1130116E+00
         25   -1    0    0    0    0  0.00000000000E+00  0.00000000000E+00  0.99999998245E-14  0.12500000000E+03  0.12500000000E+03 0.  0.
        -13    1    1    0    0    0 -0.18208466822E+02 -0.29706075279E+02  0.28281172838E+02  0.44875773795E+02  0.10566000000E+00 0.  1.
         13    1    1    0    0    0 -0.63630340920E+01 -0.12178349931E+02  0.11051140177E+02  0.17633470253E+02  0.10566000000E+00 0. -1.
         22    1    1    0    0    0  0.24571500914E+02  0.41884425211E+02 -0.39332313015E+02  0.62490755953E+02  0.00000000000E+00 0.  1.
</event>
<event>
 4    1  0.9897231E-003  0.9118800E+02  0.7818608E-02  0.1130116E+00
         25   -1    0    0    0    0  0.00000000000E+00  0.00000000000E+00  0.99999998245E-14  0.12500000000E+03  0.12500000000E+03 0.  0.
        -13    1    1    0    0    0 -0.82185328306E+01 -0.12160494293E+02  0.52795576107E+01  0.15598294648E+02  0.10566000000E+00 0. -1.
         13    1    1    0    0    0 -0.32988754973E+02 -0.57316260059E+01  0.35449975878E+02  0.48762910549E+02  0.10566000000E+00 0.  1.
         22    1    1    0    0    0  0.41207287804E+02  0.17892120299E+02 -0.40729533489E+02  0.60638794803E+02  0.00000000000E+00 0.  1.
</event>
<event>
 4    1  0.9897231E-003  0.9118800E+02  0.7818608E-02  0.1130116E+00
         25   -1    0    0    0    0  0.00000000000E+00  0.00000000000E+00  0.99999998245E-14  0.12500000000E+03  0.12500000000E+03 0.  0.
        -13    1    1    0    0    0 -0.60752223104E+01 -0.39759389366E+02  0.38659454943E+02  0.55787830120E+02  0.10566000000E+00 0.  1.
         13    1    1    0    0    0 -0.16582626528E+01 -0.49809746266E+01  0.42386614833E+01  0.67481374069E+01  0.10566000000E+00 0. -1.
         22    1    1    0    0    0  0.77334849632E+01  0.44740363993E+02 -0.42898116427E+02  0.62464032473E+02  0.00000000000E+00 0. -1.
</event>
<event>
 4    1  0.9897231E-003  0.9118800E+02  0.7818608E-02  0.1130116E+00
         25   -1    0    0    0    0  0.00000000000E+00  0.00000000000E+00  0.99999998245E-14  0.12500000000E+03  0.12500000000E+03 0.  0.
        -13    1    1    0    0    0  0.28966739939E+02  0.10206438572E+02 -0.13215199197E+02  0.33434952742E+02  0.10566000000E+00 0. -1.
         13    1    1    0    0    0 -0.43491108864E+02 -0.31854520399E+02 -0.12074383122E+02  0.55244808914E+02  0.10566000000E+00 0.  1.
         22    1    1    0    0    0  0.14524368925E+02  0.21648081827E+02  0.25289582319E+02  0.36320238344E+02  0.00000000000E+00 0.  1.
</event>
<event>
 4    1  0.9897231E-003  0.9118800E+02  0.7818608E-02  0.1130116E+00
         25   -1    0    0    0    0  0.00000000000E+00  0.00000000000E+00  0.99999998245E-14  0.12500000000E+03  0.12500000000E+03 0.  0.
        -13    1    1    0    0    0 -0.12852999444E+02 -0.23356682047E+02  0.40520923887E+02  0.48504542340E+02  0.10566000000E+00 0. -1.
         13    1    1    0    0    0 -0.58399533679E+01 -0.62730649621E+01  0.11152376773E+02  0.14065669948E+02  0.10566000000E+00 0.  1.
         22    1    1    0    0    0  0.18692952811E+02  0.29629747009E+02 -0.51673300660E+02  0.62429787712E+02  0.00000000000E+00 0. -1.
</event>
<event>
 4    1  0.9897231E-003  0.9118800E+02  0.7818608E-02  0.1130116E+00
         25   -1    0    0    0    0  0.00000000000E+00  0.00000000000E+00  0.99999998245E-14  0.12500000000E+03  0.12500000000E+03 0.  0.
        -13    1    1    0    0    0 -0.10695726114E+02 -0.48824636124E+02  0.11864889008E+02  0.51371494089E+02  0.10566000000E+00 0. -1.
         13    1    1    0    0    0 -0.53274093543E+01 -0.99277300837E+01  0.12429929885E+01  0.11335665426E+02  0.10566000000E+00 0.  1.
         22    1    1    0    0    0  0.16023135468E+02  0.58752366208E+02 -0.13107881997E+02  0.62292840485E+02  0.00000000000E+00 0. -1.
</event>
<event>
 4    1  0.9897231E-003  0.9118800E+02  0.7818608E-02  0.1130116E+00
         25   -1    0    0    0    0  0.00000000000E+00  0.00000000000E+00  0.99999998245E-14  0.12500000000E+03  0.12500000000E+03 0.  0.
        -13    1    1    0    0    0  0.56529488279E+01  0.91060751059E+01 -0.40624811122E+01  0.11462606645E+02  0.10566000000E+00 0.  1.
         13    1    1    0    0    0  0.24622123915E+02  0.41079378513E+02 -0.17639236349E+02  0.51038398761E+02  0.10566000000E+00 0.  1.
         22    1    1    0    0    0 -0.30275072742E+02 -0.50185453619E+02  0.21701717461E+02  0.62498994594E+02  0.00000000000E+00 0.  1.
</event>
<event>
 4    1  0.9897231E-003  0.9118800E+02  0.7818608E-02  0.1130116E+00
         25   -1    0    0    0    0  0.00000000000E+00  0.00000000000E+00  0.99999998245E-14  0.12500000000E+03  0.12500000000E+03 0.  0.
        -13    1    1    0    0    0 -0.11704732804E+02  0.10873509309E+02 -0.98579375574E+01  0.18772961184E+02  0.10566000000E+00 0.  1.
         13    1    1    0    0    0 -0.37948983028E+01  0.42067818595E+02 -0.16174097098E+02  0.45229583189E+02  0.10566000000E+00 0. -1.
         22    1    1    0    0    0  0.15499631107E+02 -0.52941327904E+02  0.26032034655E+02  0.60997455627E+02  0.00000000000E+00 0. -1.
</event>
<event>
 4    1  0.9897231E-003  0.9118800E+02  0.7818608E-02  0.1130116E+00
         25   -1    0    0    0    0  0.00000000000E+00  0.00000000000E+00  0.99999998245E-14  0.12500000000E+03  0.12500000000E+03 0.  0.
        -13    1    1    0    0    0  0.15474427377E+02  0.22508896894E+02 -0.36125180459E+02  0.45289603324E+02  0.10566000000E+00 0. -1.
         13    1    1    0    0    0  0.53320928888E+01  0.79843689807E+01 -0.14295313123E+02  0.17220583728E+02  0.10566000000E+00 0.  1.
         22    1    1    0    0    0 -0.20806520266E+02 -0.30493265875E+02  0.50420493582E+02  0.62489812948E+02  0.00000000000E+00 0. -1.
</event>
<event>
 4    1  0.9897231E-003  0.9118800E+02  0.7818608E-02  0.1130116E+00
         25   -1    0    0    0    0  0.00000000000E+00  0.00000000000E+00  0.99999998245E-14  0.12500000000E+03  0.12500000000E+03 0.  0.
        -13    1    1    0    0    0 -0.23026119913E+02  0.13835064705E+01  0.63913883343E+01  0.23936944193E+02  0.10566000000E+00 0.  1.
         13    1    1    0    0    0 -0.33565768280E+02 -0.38678219704E+01  0.19246227119E+02  0.38885077721E+02  0.10566000000E+00 0. -1.
         22    1    1    0    0    0  0.56591888193E+02  0.24843154999E+01 -0.25637615454E+02  0.62177978086E+02  0.00000000000E+00 0. -1.
</event>
<event>
 4    1  0.9897231E-003  0.9118800E+02  0.7818608E-02  0.1130116E+00
         25   -1    0    0    0    0  0.00000000000E+00  0.00000000000E+00  0.99999998245E-14  0.12500000000E+03  0.12500000000E+03 0.  0.
        -13    1    1    0    0    0  0.31787486498E+02  0.26484642228E+02 -0.37585723395E+02  0.55897927859E+02  0.10566000000E+00 0. -1.
         13    1    1    0    0    0  0.39309743947E+01  0.33446902200E+01 -0.41257498104E+01  0.66085163155E+01  0.10566000000E+00 0.  1.
         22    1    1    0    0    0 -0.35718460892E+02 -0.29829332448E+02  0.41711473205E+02  0.62493555826E+02  0.00000000000E+00 0. -1.
</event>
<event>
 4    1  0.9897231E-003  0.9118800E+02  0.7818608E-02  0.1130116E+00
         25   -1    0    0    0    0  0.00000000000E+00  0.00000000000E+00  0.99999998245E-14  0.12500000000E+03  0.12500000000E+03 0.  0.
        -13    1    1    0    0    0  0.23286315384E+02  0.21321847249E+01 -0.35540824091E+02  0.42543625104E+02  0.10566000000E+00 0.  1.
         13    1    1    0    0    0  0.31866886784E+01  0.73931270001E+01 -0.19249091333E+02  0.20865090288E+02  0.10566000000E+00 0. -1.
         22    1    1    0    0    0 -0.26473004063E+02 -0.95253117249E+01  0.54789915423E+02  0.61591284608E+02  0.00000000000E+00 0.  1.
</event>
<event>
 4    1  0.9897231E-003  0.9118800E+02  0.7818608E-02  0.1130116E+00
         25   -1    0    0    0    0  0.00000000000E+00  0.00000000000E+00  0.99999998245E-14  0.12500000000E+03  0.12500000000E+03 0.  0.
        -13    1    1    0    0    0  0.13668749260E+01 -0.98888508530E+00  0.97560763617E+01  0.99014357942E+01  0.10566000000E+00 0. -1.
         13    1    1    0    0    0  0.11540638798E+02 -0.15829078220E+02  0.48927224704E+02  0.52703230853E+02  0.10566000000E+00 0.  1.
         22    1    1    0    0    0 -0.12907513724E+02  0.16817963305E+02 -0.58683301065E+02  0.62395333353E+02  0.00000000000E+00 0.  1.
</event>
<event>
 4    1  0.9897231E-003  0.9118800E+02  0.7818608E-02  0.1130116E+00
         25   -1    0    0    0    0  0.00000000000E+00  0.00000000000E+00  0.99999998245E-14  0.12500000000E+03  0.12500000000E+03 0.  0.
        -13    1    1    0    0    0 -0.18576580495E+02 -0.55237732613E+01 -0.19194848649E+01  0.19475548776E+02  0.10566000000E+00 0.  1.
         13    1    1    0    0    0 -0.41892848417E+02 -0.34764864903E+01  0.11645103839E+02  0.43620136569E+02  0.10566000000E+00 0. -1.
         22    1    1    0    0    0  0.60469428912E+02  0.90002597517E+01 -0.97256189741E+01  0.61904314656E+02  0.00000000000E+00 0. -1.
</event>
<event>
 4    1  0.9897231E-003  0.9118800E+02  0.7818608E-02  0.1130116E+00
         25   -1    0    0    0    0  0.00000000000E+00  0.00000000000E+00  0.99999998245E-14  0.12500000000E+03  0.12500000000E+03 0.  0.
        -13    1    1    0    0    0  0.16418967307E+02 -0.21753718156E+02  0.38696466679E+01  0.27528023365E+02  0.10566000000E+00 0.  1.
         13    1    1    0    0    0  0.18071324744E+02 -0.29517639968E+02  0.52626098023E+01  0.35008142956E+02  0.10566000000E+00 0. -1.
         22    1    1    0    0    0 -0.34490292051E+02  0.51271358124E+02 -0.91322564702E+01  0.62463833679E+02  0.00000000000E+00 0. -1.
</event>
<event>
 4    1  0.9897231E-003  0.9118800E+02  0.7818608E-02  0.1130116E+00
         25   -1    0    0    0    0  0.00000000000E+00  0.00000000000E+00  0.99999998245E-14  0.12500000000E+03  0.12500000000E+03 0.  0.
        -13    1    1    0    0    0 -0.10991842390E+02  0.20064757268E+02  0.47001861238E+02  0.52274288204E+02  0.10566000000E+00 0.  1.
         13    1    1    0    0    0  0.31863900256E+00 -0.45968672472E+01  0.10908549057E+02  0.11842310833E+02  0.10566000000E+00 0. -1.
         22    1    1    0    0    0  0.10673203387E+02 -0.15467890021E+02 -0.57910410295E+02  0.60883400963E+02  0.00000000000E+00 0.  1.
</event>
<event>
 4    1  0.9897231E-003  0.9118800E+02  0.7818608E-02  0.1130116E+00
         25   -1    0    0    0    0  0.00000000000E+00  0.00000000000E+00  0.99999998245E-14  0.12500000000E+03  0.12500000000E+03 0.  0.
        -13    1    1    0    0    0 -0.48854985023E+01 -0.51354837582E+01  0.49939472326E+02  0.50440096642E+02  0.10566000000E+00 0.  1.
         13    1    1    0    0    0 -0.70583612576E+00 -0.29825967428E+01  0.11721468479E+02  0.12116025557E+02  0.10566000000E+00 0. -1.
         22    1    1    0    0    0  0.55913346280E+01  0.81180805010E+01 -0.61660940804E+02  0.62443877801E+02  0.00000000000E+00 0.  1.
</event>
<event>
 4    1  0.9897231E-003  0.9118800E+02  0.7818608E-02  0.1130116E+00
         25   -1    0    0    0    0  0.00000000000E+00  0.00000000000E+00  0.99999998245E-14  0.12500000000E+03  0.12500000000E+03 0.  0.
        -13    1    1    0    0    0  0.96962579399E+01  0.35705133104E+02  0.17686936122E+02  0.41008692022E+02  0.10566000000E+00 0. -1.
         13    1    1    0    0    0  0.95212419379E+00  0.14025166318E+02  0.17277576733E+02  0.22274147627E+02  0.10566000000E+00 0.  1.
         22    1    1    0    0    0 -0.10648382134E+02 -0.49730299421E+02 -0.34964512854E+02  0.61717160351E+02  0.00000000000E+00 0. -1.
</event>
<event>
 4    1  0.9897231E-003  0.9118800E+02  0.7818608E-02  0.1130116E+00
         25   -1    0    0    0    0  0.00000000000E+00  0.00000000000E+00  0.99999998245E-14  0.12500000000E+03  0.12500000000E+03 0.  0.
        -13    1    1    0    0    0  0.89240226659E+01 -0.12300286416E+02  0.34238651943E+02  0.37459734080E+02  0.10566000000E+00 0. -1.
         13    1    1    0    0    0  0.59458103356E+01 -0.81815135435E+01  0.22906854218E+02  0.25040466421E+02  0.10566000000E+00 0. -1.
         22    1    1    0    0    0 -0.14869833002E+02  0.20481799959E+02 -0.57145506160E+02  0.62499799499E+02  0.00000000000E+00 0. -1.
</event>
<event>
 4    1  0.9897231E-003  0.9118800E+02  0.7818608E-02  0.1130116E+00
         25   -1    0    0    0    0  0.00000000000E+00  0.00000000000E+00  0.99999998245E-14  0.12500000000E+03  0.12500000000E+03 0.  0.
        -13    1    1    0    0    0 -0.13445000861E+01 -0.27238280734E+01 -0.77513148852E+00  0.31367041166E+01  0.10566000000E+00 0. -1.
         13    1    1    0    0    0 -0.27745448889E+02 -0.47762678625E+02 -0.21789503556E+02  0.59379095923E+02  0.10566000000E+00 0.  1.
         22    1    1    0    0    0  0.29089948975E+02  0.50486506698E+02  0.22564635044E+02  0.62484199960E+02  0.00000000000E+00 0.  1.
</event>
<event>
 4    1  0.9897231E-003  0.9118800E+02  0.7818608E-02  0.1130116E+00
         25   -1    0    0    0    0  0.00000000000E+00  0.00000000000E+00  0.99999998245E-14  0.12500000000E+03  0.12500000000E+03 0.  0.
        -13    1    1    0    0    0  0.14324402941E+02  0.74276060478E+01 -0.66297926068E+01  0.17444860712E+02  0.10566000000E+00 0. -1.
         13    1    1    0    0    0  0.37802126966E+02 -0.14469318804E+02 -0.23632718619E+02  0.46870870945E+02  0.10566000000E+00 0.  1.
         22    1    1    0    0    0 -0.52126529907E+02  0.70417127564E+01  0.30262511226E+02  0.60684268343E+02  0.00000000000E+00 0. -1.
</event>
<event>
 4    1  0.9897231E-003  0.9118800E+02  0.7818608E-02  0.1130116E+00
         25   -1    0    0    0    0  0.00000000000E+00  0.00000000000E+00  0.99999998245E-14  0.12500000000E+03  0.12500000000E+03 0.  0.
        -13    1    1    0    0    0  0.11617992491E+02  0.10234073138E+02 -0.11493881965E+02  0.19283010377E+02  0.10566000000E+00 0.  1.
         13    1    1    0    0    0  0.27762524612E+02  0.22185436056E+02 -0.24607205683E+02  0.43225884391E+02  0.10566000000E+00 0. -1.
         22    1    1    0    0    0 -0.39380517103E+02 -0.32419509194E+02  0.36101087649E+02  0.62491105232E+02  0.00000000000E+00 0. -1.
</event>
<event>
 4    1  0.9897231E-003  0.9118800E+02  0.7818608E-02  0.1130116E+00
         25   -1    0    0    0    0  0.00000000000E+00  0.00000000000E+00  0.99999998245E-14  0.12500000000E+03  0.12500000000E+03 0.  0.
        -13    1    1    0    0    0  0.32243810113E+02 -0.21410690220E+01 -0.36433780801E+02  0.48699887215E+02  0.10566000000E+00 0. -1.
         13    1    1    0    0    0  0.76073008891E+01  0.26682239178E+01 -0.11447952978E+02  0.14002044034E+02  0.10566000000E+00 0.  1.
         22    1    1    0    0    0 -0.39851111002E+02 -0.52715489582E+00  0.47881733780E+02  0.62298068752E+02  0.00000000000E+00 0. -1.
</event>
<event>
 4    1  0.9897231E-003  0.9118800E+02  0.7818608E-02  0.1130116E+00
         25   -1    0    0    0    0  0.00000000000E+00  0.00000000000E+00  0.99999998245E-14  0.12500000000E+03  0.12500000000E+03 0.  0.
        -13    1    1    0    0    0  0.90646651353E+01 -0.11737105842E+01  0.86520944111E-01  0.91413565984E+01  0.10566000000E+00 0.  1.
         13    1    1    0    0    0  0.51297768571E+02  0.14369252263E+02  0.67302248668E+01  0.53695843058E+02  0.10566000000E+00 0. -1.
         22    1    1    0    0    0 -0.60362433706E+02 -0.13195541679E+02 -0.68167458109E+01  0.62162800344E+02  0.00000000000E+00 0. -1.
</event>
<event>
 4    1  0.9897231E-003  0.9118800E+02  0.7818608E-02  0.1130116E+00
         25   -1    0    0    0    0  0.00000000000E+00  0.00000000000E+00  0.99999998245E-14  0.12500000000E+03  0.12500000000E+03 0.  0.
        -13    1    1    0    0    0  0.16216971982E+02  0.17614576834E+02 -0.29212256102E+01  0.24120701076E+02  0.10566000000E+00 0. -1.
         13    1    1    0    0    0  0.21547636885E+02  0.31619229928E+02 -0.38733905367E+01  0.38458947917E+02  0.10566000000E+00 0.  1.
         22    1    1    0    0    0 -0.37764608867E+02 -0.49233806763E+02  0.67946161469E+01  0.62420351007E+02  0.00000000000E+00 0.  1.
</event>
<event>
 4    1  0.9897231E-003  0.9118800E+02  0.7818608E-02  0.1130116E+00
         25   -1    0    0    0    0  0.00000000000E+00  0.00000000000E+00  0.99999998245E-14  0.12500000000E+03  0.12500000000E+03 0.  0.
        -13    1    1    0    0    0 -0.14787701104E+02  0.28809922673E+01 -0.20821311744E+02  0.25700474843E+02  0.10566000000E+00 0.  1.
         13    1    1    0    0    0  0.27428933410E+02  0.78060527373E-01 -0.33586714242E+02  0.43363936849E+02  0.10566000000E+00 0. -1.
         22    1    1    0    0    0 -0.12641232306E+02 -0.29590527947E+01  0.54408025986E+02  0.55935588308E+02  0.00000000000E+00 0. -1.
</event>
<event>
 4    1  0.9897231E-003  0.9118800E+02  0.7818608E-02  0.1130116E+00
         25   -1    0    0    0    0  0.00000000000E+00  0.00000000000E+00  0.99999998245E-14  0.12500000000E+03  0.12500000000E+03 0.  0.
        -13    1    1    0    0    0 -0.37289016294E+02  0.16836540256E+02 -0.48452527737E+01  0.41199847845E+02  0.10566000000E+00 0.  1.
         13    1    1    0    0    0 -0.17317254617E+02  0.11221135587E+02 -0.59267181388E+01  0.21469474686E+02  0.10566000000E+00 0. -1.
         22    1    1    0    0    0  0.54606270911E+02 -0.28057675843E+02  0.10771970912E+02  0.62330677470E+02  0.00000000000E+00 0.  1.
</event>
<event>
 4    1  0.9897231E-003  0.9118800E+02  0.7818608E-02  0.1130116E+00
         25   -1    0    0    0    0  0.00000000000E+00  0.00000000000E+00  0.99999998245E-14  0.12500000000E+03  0.12500000000E+03 0.  0.
        -13    1    1    0    0    0 -0.80379250215E+01 -0.48582830796E+01 -0.47046366502E+01  0.10505042750E+02  0.10566000000E+00 0.  1.
         13    1    1    0    0    0 -0.37227401579E+02 -0.25973836656E+02 -0.25381267393E+02  0.52007110258E+02  0.10566000000E+00 0. -1.
         22    1    1    0    0    0  0.45265326600E+02  0.30832119735E+02  0.30085904043E+02  0.62487846992E+02  0.00000000000E+00 0. -1.
</event>
<event>
 4    1  0.9897231E-003  0.9118800E+02  0.7818608E-02  0.1130116E+00
         25   -1    0    0    0    0  0.00000000000E+00  0.00000000000E+00  0.99999998245E-14  0.12500000000E+03  0.12500000000E+03 0.  0.
        -13    1    1    0    0    0 -0.39024194979E+01  0.56411116159E+01  0.25492419457E+00  0.68649230573E+01  0.10566000000E+00 0.  1.
         13    1    1    0    0    0 -0.30240488835E+02  0.46563156138E+02  0.36001126039E+01  0.55637996452E+02  0.10566000000E+00 0. -1.
         22    1    1    0    0    0  0.34142908333E+02 -0.52204267753E+02 -0.38550367985E+01  0.62497080490E+02  0.00000000000E+00 0. -1.
</event>
<event>
 4    1  0.9897231E-003  0.9118800E+02  0.7818608E-02  0.1130116E+00
         25   -1    0    0    0    0  0.00000000000E+00  0.00000000000E+00  0.99999998245E-14  0.12500000000E+03  0.12500000000E+03 0.  0.
        -13    1    1    0    0    0 -0.40288554399E+02 -0.34700859905E+02  0.79561545688E+00  0.53178580854E+02  0.10566000000E+00 0.  1.
         13    1    1    0    0    0 -0.16462513806E+01 -0.97734226760E+01  0.35795011500E+01  0.10538212701E+02  0.10566000000E+00 0. -1.
         22    1    1    0    0    0  0.41934805780E+02  0.44474282581E+02 -0.43751166069E+01  0.61283206445E+02  0.00000000000E+00 0.  1.
</event>
<event>
 4    1  0.9897231E-003  0.9118800E+02  0.7818608E-02  0.1130116E+00
         25   -1    0    0    0    0  0.00000000000E+00  0.00000000000E+00  0.99999998245E-14  0.12500000000E+03  0.12500000000E+03 0.  0.
        -13    1    1    0    0    0 -0.28505027960E+02 -0.14081556602E+02 -0.18017925986E+02  0.36544270088E+02  0.10566000000E+00 0.  1.
         13    1    1    0    0    0  0.64752363154E+01 -0.17495081591E+02  0.39988733927E+02  0.44126143842E+02  0.10566000000E+00 0. -1.
         22    1    1    0    0    0  0.22029791645E+02  0.31576638194E+02 -0.21970807941E+02  0.44329586070E+02  0.00000000000E+00 0. -1.
</event>
<event>
 4    1  0.9897231E-003  0.9118800E+02  0.7818608E-02  0.1130116E+00
         25   -1    0    0    0    0  0.00000000000E+00  0.00000000000E+00  0.99999998245E-14  0.12500000000E+03  0.12500000000E+03 0.  0.
        -13    1    1    0    0    0  0.40918775133E+02  0.50364519976E+00  0.45520837247E+02  0.61210763797E+02  0.10566000000E+00 0. -1.
         13    1    1    0    0    0  0.89446961411E+00 -0.65803361230E-01  0.92530829743E+00  0.12929676925E+01  0.10566000000E+00 0. -1.
         22    1    1    0    0    0 -0.41813244748E+02 -0.43784183853E+00 -0.46446145545E+02  0.62496268510E+02  0.00000000000E+00 0. -1.
</event>
<event>
 4    1  0.9897231E-003  0.9118800E+02  0.7818608E-02  0.1130116E+00
         25   -1    0    0    0    0  0.00000000000E+00  0.00000000000E+00  0.99999998245E-14  0.12500000000E+03  0.12500000000E+03 0.  0.
        -13    1    1    0    0    0  0.40658432829E+02  0.12393782261E+02 -0.79784613254E+01  0.43247901776E+02  0.10566000000E+00 0.  1.
         13    1    1    0    0    0  0.18097664613E+02  0.57114899104E+01 -0.32463704079E+01  0.19253484524E+02  0.10566000000E+00 0. -1.
         22    1    1    0    0    0 -0.58756097442E+02 -0.18105272171E+02  0.11224831733E+02  0.62498613700E+02  0.00000000000E+00 0.  1.
</event>
<event>
 4    1  0.9897231E-003  0.9118800E+02  0.7818608E-02  0.1130116E+00
         25   -1    0    0    0    0  0.00000000000E+00  0.00000000000E+00  0.99999998245E-14  0.12500000000E+03  0.12500000000E+03 0.  0.
        -13    1    1    0    0    0 -0.13079161700E+02 -0.19353822422E+02 -0.12253807453E+01  0.23391187126E+02  0.10566000000E+00 0. -1.
         13    1    1    0    0    0 -0.21739492038E+02 -0.32443473231E+02 -0.20792120333E+01  0.39109062327E+02  0.10566000000E+00 0. -1.
         22    1    1    0    0    0  0.34818653738E+02  0.51797295653E+02  0.33045927785E+01  0.62499750548E+02  0.00000000000E+00 0. -1.
</event>
<event>
 4    1  0.9897231E-003  0.9118800E+02  0.7818608E-02  0.1130116E+00
         25   -1    0    0    0    0  0.00000000000E+00  0.00000000000E+00  0.99999998245E-14  0.12500000000E+03  0.12500000000E+03 0.  0.
        -13    1    1    0    0    0 -0.49015604244E+00  0.24505114535E+01  0.87258467212E+00  0.26491182260E+01  0.10566000000E+00 0. -1.
         13    1    1    0    0    0 -0.87496407645E+01  0.54724644602E+02  0.22609876628E+02  0.59854495449E+02  0.10566000000E+00 0.  1.
         22    1    1    0    0    0  0.92397968069E+01 -0.57175156055E+02 -0.23482461300E+02  0.62496386325E+02  0.00000000000E+00 0.  1.
</event>
<event>
 4    1  0.9897231E-003  0.9118800E+02  0.7818608E-02  0.1130116E+00
         25   -1    0    0    0    0  0.00000000000E+00  0.00000000000E+00  0.99999998245E-14  0.12500000000E+03  0.12500000000E+03 0.  0.
        -13    1    1    0    0    0 -0.52310058623E+01 -0.36979017603E+02 -0.45918657956E+02  0.59189065525E+02  0.10566000000E+00 0.  1.
         13    1    1    0    0    0 -0.79625210279E+00 -0.25707430740E+01 -0.20238798002E+01  0.33689747469E+01  0.10566000000E+00 0. -1.
         22    1    1    0    0    0  0.60272579651E+01  0.39549760677E+02  0.47942537756E+02  0.62441959728E+02  0.00000000000E+00 0.  1.
</event>
<event>
 4    1  0.9897231E-003  0.9118800E+02  0.7818608E-02  0.1130116E+00
         25   -1    0    0    0    0  0.00000000000E+00  0.00000000000E+00  0.99999998245E-14  0.12500000000E+03  0.12500000000E+03 0.  0.
        -13    1    1    0    0    0  0.16763395951E+02 -0.12896810141E+00 -0.75054139084E+01  0.18367647605E+02  0.10566000000E+00 0.  1.
         13    1    1    0    0    0  0.40210183802E+02  0.55093389607E+00 -0.18183035856E+02  0.44133846043E+02  0.10566000000E+00 0. -1.
         22    1    1    0    0    0 -0.56973579753E+02 -0.42196579465E+00  0.25688449765E+02  0.62498506352E+02  0.00000000000E+00 0. -1.
</event>
<event>
 4    1  0.9897231E-003  0.9118800E+02  0.7818608E-02  0.1130116E+00
         25   -1    0    0    0    0  0.00000000000E+00  0.00000000000E+00  0.99999998245E-14  0.12500000000E+03  0.12500000000E+03 0.  0.
        -13    1    1    0    0    0 -0.38140353891E+02 -0.22449346699E+02 -0.31264205759E+02  0.54185989775E+02  0.10566000000E+00 0.  1.
         13    1    1    0    0    0 -0.60500924375E+01 -0.44194364090E+01 -0.37293354367E+01  0.83698353335E+01  0.10566000000E+00 0. -1.
         22    1    1    0    0    0  0.44190446328E+02  0.26868783108E+02  0.34993541196E+02  0.62444174891E+02  0.00000000000E+00 0.  1.
</event>
<event>
 4    1  0.9897231E-003  0.9118800E+02  0.7818608E-02  0.1130116E+00
         25   -1    0    0    0    0  0.00000000000E+00  0.00000000000E+00  0.99999998245E-14  0.12500000000E+03  0.12500000000E+03 0.  0.
        -13    1    1    0    0    0  0.90499719364E+01  0.13069133984E+02  0.40381307852E+02  0.43397758502E+02  0.10566000000E+00 0.  1.
         13    1    1    0    0    0  0.40177230059E+01  0.59150883120E+01  0.17713638735E+02  0.19102736169E+02  0.10566000000E+00 0.  1.
         22    1    1    0    0    0 -0.13067694942E+02 -0.18984222296E+02 -0.58094946587E+02  0.62499505328E+02  0.00000000000E+00 0.  1.
</event>
<event>
 4    1  0.9897231E-003  0.9118800E+02  0.7818608E-02  0.1130116E+00
         25   -1    0    0    0    0  0.00000000000E+00  0.00000000000E+00  0.99999998245E-14  0.12500000000E+03  0.12500000000E+03 0.  0.
        -13    1    1    0    0    0  0.18637401692E+02  0.54205157629E+02 -0.66715328510E+01  0.57706779238E+02  0.10566000000E+00 0. -1.
         13    1    1    0    0    0 -0.35305349601E+01  0.47851894808E+01 -0.54782398788E+00  0.59727707664E+01  0.10566000000E+00 0.  1.
         22    1    1    0    0    0 -0.15106866732E+02 -0.58990347109E+02  0.72193568389E+01  0.61320449996E+02  0.00000000000E+00 0. -1.
</event>
<event>
 4    1  0.9897231E-003  0.9118800E+02  0.7818608E-02  0.1130116E+00
         25   -1    0    0    0    0  0.00000000000E+00  0.00000000000E+00  0.99999998245E-14  0.12500000000E+03  0.12500000000E+03 0.  0.
        -13    1    1    0    0    0  0.26032681766E+02 -0.42412551643E+02 -0.25002146965E+02  0.55692401400E+02  0.10566000000E+00 0.  1.
         13    1    1    0    0    0  0.29075252332E+01 -0.58517864108E+01 -0.20746186461E+01  0.68565526135E+01  0.10566000000E+00 0. -1.
         22    1    1    0    0    0 -0.28940206999E+02  0.48264338053E+02  0.27076765611E+02  0.62451045987E+02  0.00000000000E+00 0.  1.
</event>
<event>
 4    1  0.9897231E-003  0.9118800E+02  0.7818608E-02  0.1130116E+00
         25   -1    0    0    0    0  0.00000000000E+00  0.00000000000E+00  0.99999998245E-14  0.12500000000E+03  0.12500000000E+03 0.  0.
        -13    1    1    0    0    0 -0.97216434838E+01 -0.15931820867E+02 -0.41242553097E+02  0.45269113291E+02  0.10566000000E+00 0. -1.
         13    1    1    0    0    0 -0.50146465569E+01 -0.49126571008E+01 -0.15771095945E+02  0.17263241620E+02  0.10566000000E+00 0.  1.
         22    1    1    0    0    0  0.14736290041E+02  0.20844477968E+02  0.57013649042E+02  0.62467645089E+02  0.00000000000E+00 0. -1.
</event>
<event>
 4    1  0.9897231E-003  0.9118800E+02  0.7818608E-02  0.1130116E+00
         25   -1    0    0    0    0  0.00000000000E+00  0.00000000000E+00  0.99999998245E-14  0.12500000000E+03  0.12500000000E+03 0.  0.
        -13    1    1    0    0    0  0.68441689889E+01  0.11070200312E+02  0.97982149234E+01  0.16291352424E+02  0.10566000000E+00 0. -1.
         13    1    1    0    0    0  0.20936469728E+02  0.31269552362E+02  0.26824529582E+02  0.46213496091E+02  0.10566000000E+00 0.  1.
         22    1    1    0    0    0 -0.27780638717E+02 -0.42339752674E+02 -0.36622744505E+02  0.62495151485E+02  0.00000000000E+00 0.  1.
</event>
<event>
 4    1  0.9897231E-003  0.9118800E+02  0.7818608E-02  0.1130116E+00
         25   -1    0    0    0    0  0.00000000000E+00  0.00000000000E+00  0.99999998245E-14  0.12500000000E+03  0.12500000000E+03 0.  0.
        -13    1    1    0    0    0 -0.35772177332E+02 -0.18618077821E+02 -0.30285110169E+02  0.50432931253E+02  0.10566000000E+00 0. -1.
         13    1    1    0    0    0 -0.89628149871E+01 -0.46772630765E+01 -0.66069479168E+01  0.12077738496E+02  0.10566000000E+00 0.  1.
         22    1    1    0    0    0  0.44734992319E+02  0.23295340897E+02  0.36892058086E+02  0.62489330250E+02  0.00000000000E+00 0. -1.
</event>
<event>
 4    1  0.9897231E-003  0.9118800E+02  0.7818608E-02  0.1130116E+00
         25   -1    0    0    0    0  0.00000000000E+00  0.00000000000E+00  0.99999998245E-14  0.12500000000E+03  0.12500000000E+03 0.  0.
        -13    1    1    0    0    0  0.48673047515E+02 -0.10883763456E+02 -0.13383309736E+01  0.49893127334E+02  0.10566000000E+00 0. -1.
         13    1    1    0    0    0  0.12290418674E+02 -0.27229687340E+01 -0.72020720658E+00  0.12609473120E+02  0.10566000000E+00 0.  1.
         22    1    1    0    0    0 -0.60963466189E+02  0.13606732190E+02  0.20585381802E+01  0.62497399546E+02  0.00000000000E+00 0. -1.
</event>
<event>
 4    1  0.9897231E-003  0.9118800E+02  0.7818608E-02  0.1130116E+00
         25   -1    0    0    0    0  0.00000000000E+00  0.00000000000E+00  0.99999998245E-14  0.12500000000E+03  0.12500000000E+03 0.  0.
        -13    1    1    0    0    0  0.20246189528E+01 -0.78135558958E+00  0.46874731281E+01  0.51665430244E+01  0.10566000000E+00 0. -1.
         13    1    1    0    0    0  0.22688151626E+02 -0.94812384914E+01  0.51793501313E+02  0.57334318255E+02  0.10566000000E+00 0. -1.
         22    1    1    0    0    0 -0.24712770579E+02  0.10262594081E+02 -0.56480974441E+02  0.62499138720E+02  0.00000000000E+00 0. -1.
</event>
<event>
 4    1  0.9897231E-003  0.9118800E+02  0.7818608E-02  0.1130116E+00
         25   -1    0    0    0    0  0.00000000000E+00  0.00000000000E+00  0.99999998245E-14  0.12500000000E+03  0.12500000000E+03 0.  0.
        -13    1    1    0    0    0  0.39497784630E+02 -0.25872054998E+02  0.18750668575E+02  0.50803906902E+02  0.10566000000E+00 0.  1.
         13    1    1    0    0    0  0.91421735049E+01 -0.59108400893E+01  0.42754460030E+01  0.11696493898E+02  0.10566000000E+00 0.  1.
         22    1    1    0    0    0 -0.48639958135E+02  0.31782895087E+02 -0.23026114578E+02  0.62499599199E+02  0.00000000000E+00 0.  1.
</event>
<event>
 4    1  0.9897231E-003  0.9118800E+02  0.7818608E-02  0.1130116E+00
         25   -1    0    0    0    0  0.00000000000E+00  0.00000000000E+00  0.99999998245E-14  0.12500000000E+03  0.12500000000E+03 0.  0.
        -13    1    1    0    0    0  0.94292598412E+01 -0.29488577198E+02 -0.13710871043E+02  0.33859803235E+02  0.10566000000E+00 0. -1.
         13    1    1    0    0    0  0.51756020698E+01 -0.25044273900E+02 -0.12996778239E+02  0.28686755142E+02  0.10566000000E+00 0.  1.
         22    1    1    0    0    0 -0.14604861911E+02  0.54532851098E+02  0.26707649282E+02  0.62453441623E+02  0.00000000000E+00 0. -1.
</event>
<event>
 4    1  0.9897231E-003  0.9118800E+02  0.7818608E-02  0.1130116E+00
         25   -1    0    0    0    0  0.00000000000E+00  0.00000000000E+00  0.99999998245E-14  0.12500000000E+03  0.12500000000E+03 0.  0.
        -13    1    1    0    0    0  0.49749015433E+02 -0.71447693416E+01  0.29858176715E+02  0.58459679663E+02  0.10566000000E+00 0.  1.
         13    1    1    0    0    0 -0.96569070388E+00 -0.77369706395E+01 -0.76118691448E+01  0.10897017442E+02  0.10566000000E+00 0. -1.
         22    1    1    0    0    0 -0.48783324730E+02  0.14881739981E+02 -0.22246307571E+02  0.55643302895E+02  0.00000000000E+00 0.  1.
</event>
<event>
 4    1  0.9897231E-003  0.9118800E+02  0.7818608E-02  0.1130116E+00
         25   -1    0    0    0    0  0.00000000000E+00  0.00000000000E+00  0.99999998245E-14  0.12500000000E+03  0.12500000000E+03 0.  0.
        -13    1    1    0    0    0 -0.16417036224E+02 -0.43149550753E+02  0.31602405712E+02  0.55947529163E+02  0.10566000000E+00 0.  1.
         13    1    1    0    0    0 -0.16978100190E+01 -0.51220232496E+01  0.37198335980E+01  0.65548460746E+01  0.10566000000E+00 0. -1.
         22    1    1    0    0    0  0.18114846243E+02  0.48271574002E+02 -0.35322239310E+02  0.62497624763E+02  0.00000000000E+00 0.  1.
</event>
<event>
 4    1  0.9897231E-003  0.9118800E+02  0.7818608E-02  0.1130116E+00
         25   -1    0    0    0    0  0.00000000000E+00  0.00000000000E+00  0.99999998245E-14  0.12500000000E+03  0.12500000000E+03 0.  0.
        -13    1    1    0    0    0  0.39920820860E+02 -0.25400513628E+02 -0.33623567119E+02  0.58046649004E+02  0.10566000000E+00 0.  1.
         13    1    1    0    0    0  0.31452541410E+01 -0.18881025841E+01 -0.25250502561E+01  0.44547275799E+01  0.10566000000E+00 0. -1.
         22    1    1    0    0    0 -0.43066075001E+02  0.27288616212E+02  0.36148617375E+02  0.62498623416E+02  0.00000000000E+00 0.  1.
</event>
<event>
 4    1  0.9897231E-003  0.9118800E+02  0.7818608E-02  0.1130116E+00
         25   -1    0    0    0    0  0.00000000000E+00  0.00000000000E+00  0.99999998245E-14  0.12500000000E+03  0.12500000000E+03 0.  0.
        -13    1    1    0    0    0  0.10809071663E+02  0.24812082733E+02 -0.12882834888E+02  0.29974223569E+02  0.10566000000E+00 0. -1.
         13    1    1    0    0    0  0.11643177570E+02  0.24280812740E+02 -0.18417746304E+02  0.32624315996E+02  0.10566000000E+00 0.  1.
         22    1    1    0    0    0 -0.22452249232E+02 -0.49092895473E+02  0.31300581192E+02  0.62401460435E+02  0.00000000000E+00 0.  1.
</event>
<event>
 4    1  0.9897231E-003  0.9118800E+02  0.7818608E-02  0.1130116E+00
         25   -1    0    0    0    0  0.00000000000E+00  0.00000000000E+00  0.99999998245E-14  0.12500000000E+03  0.12500000000E+03 0.  0.
        -13    1    1    0    0    0  0.17920363966E+02  0.34257417131E+02 -0.32126586150E+02  0.50267671269E+02  0.10566000000E+00 0. -1.
         13    1    1    0    0    0  0.54734554879E+01  0.10126050784E+02 -0.47640830494E+01  0.12458060475E+02  0.10566000000E+00 0.  1.
         22    1    1    0    0    0 -0.23393819454E+02 -0.44383467915E+02  0.36890669199E+02  0.62274268256E+02  0.00000000000E+00 0. -1.
</event>
<event>
 4    1  0.9897231E-003  0.9118800E+02  0.7818608E-02  0.1130116E+00
         25   -1    0    0    0    0  0.00000000000E+00  0.00000000000E+00  0.99999998245E-14  0.12500000000E+03  0.12500000000E+03 0.  0.
        -13    1    1    0    0    0 -0.53360375351E+01 -0.18307656901E+01 -0.51690493546E+01  0.76521392339E+01  0.10566000000E+00 0.  1.
         13    1    1    0    0    0 -0.38165777445E+02 -0.14385329502E+02 -0.36672397980E+02  0.54849249863E+02  0.10566000000E+00 0. -1.
         22    1    1    0    0    0  0.43501814980E+02  0.16216095192E+02  0.41841447334E+02  0.62498610904E+02  0.00000000000E+00 0. -1.
</event>
<event>
 4    1  0.9897231E-003  0.9118800E+02  0.7818608E-02  0.1130116E+00
         25   -1    0    0    0    0  0.00000000000E+00  0.00000000000E+00  0.99999998245E-14  0.12500000000E+03  0.12500000000E+03 0.  0.
        -13    1    1    0    0    0  0.11761948486E+02  0.73724253877E+01 -0.73471041542E+01  0.15706278737E+02  0.10566000000E+00 0.  1.
         13    1    1    0    0    0  0.31872571718E+02  0.26091031597E+02 -0.22281901155E+02  0.46830513993E+02  0.10566000000E+00 0. -1.
         22    1    1    0    0    0 -0.43634520204E+02 -0.33463456985E+02  0.29629005309E+02  0.62463207270E+02  0.00000000000E+00 0. -1.
</event>
<event>
 4    1  0.9897231E-003  0.9118800E+02  0.7818608E-02  0.1130116E+00
         25   -1    0    0    0    0  0.00000000000E+00  0.00000000000E+00  0.99999998245E-14  0.12500000000E+03  0.12500000000E+03 0.  0.
        -13    1    1    0    0    0 -0.82466229745E+01  0.11745785051E+02  0.46469421559E+02  0.48635260470E+02  0.10566000000E+00 0.  1.
         13    1    1    0    0    0 -0.21235309451E+01  0.37993257022E+01  0.13167553028E+02  0.13868665265E+02  0.10566000000E+00 0. -1.
         22    1    1    0    0    0  0.10370153920E+02 -0.15545110753E+02 -0.59636974587E+02  0.62496074265E+02  0.00000000000E+00 0.  1.
</event>
<event>
 4    1  0.9897231E-003  0.9118800E+02  0.7818608E-02  0.1130116E+00
         25   -1    0    0    0    0  0.00000000000E+00  0.00000000000E+00  0.99999998245E-14  0.12500000000E+03  0.12500000000E+03 0.  0.
        -13    1    1    0    0    0  0.90452232528E+01 -0.14799400375E+00  0.77509549266E+01  0.11913288053E+02  0.10566000000E+00 0.  1.
         13    1    1    0    0    0  0.40941947482E+02 -0.27412659476E+01  0.29620039651E+02  0.50607465018E+02  0.10566000000E+00 0. -1.
         22    1    1    0    0    0 -0.49987170735E+02  0.28892599514E+01 -0.37370994577E+02  0.62479246929E+02  0.00000000000E+00 0. -1.
</event>
<event>
 4    1  0.9897231E-003  0.9118800E+02  0.7818608E-02  0.1130116E+00
         25   -1    0    0    0    0  0.00000000000E+00  0.00000000000E+00  0.99999998245E-14  0.12500000000E+03  0.12500000000E+03 0.  0.
        -13    1    1    0    0    0  0.27107119428E+02  0.30809240440E+01 -0.32093381277E+02  0.42122254242E+02  0.10566000000E+00 0. -1.
         13    1    1    0    0    0  0.13003228948E+02  0.15563320612E+01 -0.15612546593E+02  0.20378147799E+02  0.10566000000E+00 0. -1.
         22    1    1    0    0    0 -0.40110348376E+02 -0.46372561052E+01  0.47705927870E+02  0.62499597958E+02  0.00000000000E+00 0. -1.
</event>
<event>
 4    1  0.9897231E-003  0.9118800E+02  0.7818608E-02  0.1130116E+00
         25   -1    0    0    0    0  0.00000000000E+00  0.00000000000E+00  0.99999998245E-14  0.12500000000E+03  0.12500000000E+03 0.  0.
        -13    1    1    0    0    0 -0.10251837115E+01  0.31581052126E+01  0.27457418007E+01  0.43098598872E+01  0.10566000000E+00 0. -1.
         13    1    1    0    0    0 -0.10043132269E+02  0.45543136251E+02  0.34815001176E+02  0.58199117144E+02  0.10566000000E+00 0.  1.
         22    1    1    0    0    0  0.11068315980E+02 -0.48701241464E+02 -0.37560742977E+02  0.62491022969E+02  0.00000000000E+00 0.  1.
</event>
<event>
 4    1  0.9897231E-003  0.9118800E+02  0.7818608E-02  0.1130116E+00
         25   -1    0    0    0    0  0.00000000000E+00  0.00000000000E+00  0.99999998245E-14  0.12500000000E+03  0.12500000000E+03 0.  0.
        -13    1    1    0    0    0 -0.29634166641E+02 -0.44028598842E+01 -0.32798169544E+02  0.44421842568E+02  0.10566000000E+00 0. -1.
         13    1    1    0    0    0 -0.11815096507E+02 -0.17163606428E+01 -0.13576302429E+02  0.18079534038E+02  0.10566000000E+00 0.  1.
         22    1    1    0    0    0  0.41449263148E+02  0.61192205269E+01  0.46374471974E+02  0.62498623394E+02  0.00000000000E+00 0. -1.
</event>
<event>
 4    1  0.9897231E-003  0.9118800E+02  0.7818608E-02  0.1130116E+00
         25   -1    0    0    0    0  0.00000000000E+00  0.00000000000E+00  0.99999998245E-14  0.12500000000E+03  0.12500000000E+03 0.  0.
        -13    1    1    0    0    0  0.91628016315E+01 -0.38633503247E+02 -0.16138167420E+01  0.39738143834E+02  0.10566000000E+00 0.  1.
         13    1    1    0    0    0  0.59035651905E+01 -0.21944659788E+02 -0.13753028908E+01  0.22766703697E+02  0.10566000000E+00 0.  1.
         22    1    1    0    0    0 -0.15066366822E+02  0.60578163035E+02  0.29891196328E+01  0.62495152469E+02  0.00000000000E+00 0.  1.
</event>
<event>
 4    1  0.9897231E-003  0.9118800E+02  0.7818608E-02  0.1130116E+00
         25   -1    0    0    0    0  0.00000000000E+00  0.00000000000E+00  0.99999998245E-14  0.12500000000E+03  0.12500000000E+03 0.  0.
        -13    1    1    0    0    0  0.54797377449E+00 -0.28785602347E+02 -0.10653258925E+02  0.30698766547E+02  0.10566000000E+00 0.  1.
         13    1    1    0    0    0  0.42828434944E+00 -0.29847226993E+02 -0.10967423289E+02  0.31801508208E+02  0.10566000000E+00 0.  1.
         22    1    1    0    0    0 -0.97625812393E+00  0.58632829340E+02  0.21620682214E+02  0.62499725245E+02  0.00000000000E+00 0.  1.
</event>
<event>
 4    1  0.9897231E-003  0.9118800E+02  0.7818608E-02  0.1130116E+00
         25   -1    0    0    0    0  0.00000000000E+00  0.00000000000E+00  0.99999998245E-14  0.12500000000E+03  0.12500000000E+03 0.  0.
        -13    1    1    0    0    0 -0.12944420450E+02  0.59486023628E+02  0.12869704926E+02  0.62223673122E+02  0.10566000000E+00 0.  1.
         13    1    1    0    0    0 -0.10822872355E+00  0.18752221507E+00  0.19555717230E+00  0.31029772958E+00  0.10566000000E+00 0.  1.
         22    1    1    0    0    0  0.13052649174E+02 -0.59673545843E+02 -0.13065262098E+02  0.62466029149E+02  0.00000000000E+00 0.  1.
</event>
<event>
 4    1  0.9897231E-003  0.9118800E+02  0.7818608E-02  0.1130116E+00
         25   -1    0    0    0    0  0.00000000000E+00  0.00000000000E+00  0.99999998245E-14  0.12500000000E+03  0.12500000000E+03 0.  0.
        -13    1    1    0    0    0  0.29959021757E+02 -0.28627475935E+02  0.84612684430E+00  0.41446380514E+02  0.10566000000E+00 0.  1.
         13    1    1    0    0    0  0.15270723943E+02 -0.14486439429E+02  0.44974819244E+00  0.21053868398E+02  0.10566000000E+00 0.  1.
         22    1    1    0    0    0 -0.45229745699E+02  0.43113915364E+02 -0.12958750367E+01  0.62499751088E+02  0.00000000000E+00 0.  1.
</event>
<event>
 4    1  0.9897231E-003  0.9118800E+02  0.7818608E-02  0.1130116E+00
         25   -1    0    0    0    0  0.00000000000E+00  0.00000000000E+00  0.99999998245E-14  0.12500000000E+03  0.12500000000E+03 0.  0.
        -13    1    1    0    0    0  0.25238410175E+02 -0.26216312098E+02  0.28374373068E+00  0.36391812853E+02  0.10566000000E+00 0.  1.
         13    1    1    0    0    0  0.18213617517E+02 -0.18705039322E+02  0.16820915826E+00  0.26108500865E+02  0.10566000000E+00 0. -1.
         22    1    1    0    0    0 -0.43452027692E+02  0.44921351420E+02 -0.45195288894E+00  0.62499686282E+02  0.00000000000E+00 0.  1.
</event>
<event>
 4    1  0.9897231E-003  0.9118800E+02  0.7818608E-02  0.1130116E+00
         25   -1    0    0    0    0  0.00000000000E+00  0.00000000000E+00  0.99999998245E-14  0.12500000000E+03  0.12500000000E+03 0.  0.
        -13    1    1    0    0    0 -0.35971517191E+02  0.37172525722E+02 -0.11019377136E+02  0.52888416067E+02  0.10566000000E+00 0. -1.
         13    1    1    0    0    0 -0.44405870115E+01  0.56841245744E+01 -0.74583211958E+01  0.10376213388E+02  0.10566000000E+00 0.  1.
         22    1    1    0    0    0  0.40412104202E+02 -0.42856650297E+02  0.18477698331E+02  0.61735370545E+02  0.00000000000E+00 0. -1.
</event>
<event>
 4    1  0.9897231E-003  0.9118800E+02  0.7818608E-02  0.1130116E+00
         25   -1    0    0    0    0  0.00000000000E+00  0.00000000000E+00  0.99999998245E-14  0.12500000000E+03  0.12500000000E+03 0.  0.
        -13    1    1    0    0    0 -0.34879510495E+02 -0.29159653236E+02  0.15325877935E+02  0.47976653987E+02  0.10566000000E+00 0. -1.
         13    1    1    0    0    0 -0.10615855696E+02 -0.87624085495E+01  0.46314555424E+01  0.14523695819E+02  0.10566000000E+00 0. -1.
         22    1    1    0    0    0  0.45495366192E+02  0.37922061785E+02 -0.19957333478E+02  0.62499650195E+02  0.00000000000E+00 0. -1.
</event>
<event>
 4    1  0.9897231E-003  0.9118800E+02  0.7818608E-02  0.1130116E+00
         25   -1    0    0    0    0  0.00000000000E+00  0.00000000000E+00  0.99999998245E-14  0.12500000000E+03  0.12500000000E+03 0.  0.
        -13    1    1    0    0    0  0.75905301150E+01  0.78261559355E+01  0.90458148669E+01  0.14166961382E+02  0.10566000000E+00 0.  1.
         13    1    1    0    0    0  0.27780196514E+02  0.23230324683E+02  0.32041125281E+02  0.48353202340E+02  0.10566000000E+00 0. -1.
         22    1    1    0    0    0 -0.35370726629E+02 -0.31056480618E+02 -0.41086940148E+02  0.62479836278E+02  0.00000000000E+00 0. -1.
</event>
<event>
 4    1  0.9897231E-003  0.9118800E+02  0.7818608E-02  0.1130116E+00
         25   -1    0    0    0    0  0.00000000000E+00  0.00000000000E+00  0.99999998245E-14  0.12500000000E+03  0.12500000000E+03 0.  0.
        -13    1    1    0    0    0  0.20676319450E+02 -0.89540601804E+01 -0.31182672798E+01  0.22746870874E+02  0.10566000000E+00 0.  1.
         13    1    1    0    0    0  0.37211892862E+02  0.17609750796E+02  0.12388023654E+02  0.42991889788E+02  0.10566000000E+00 0. -1.
         22    1    1    0    0    0 -0.57888212311E+02 -0.86556906154E+01 -0.92697563739E+01  0.59261239338E+02  0.00000000000E+00 0. -1.
</event>
<event>
 4    1  0.9897231E-003  0.9118800E+02  0.7818608E-02  0.1130116E+00
         25   -1    0    0    0    0  0.00000000000E+00  0.00000000000E+00  0.99999998245E-14  0.12500000000E+03  0.12500000000E+03 0.  0.
        -13    1    1    0    0    0  0.12989503048E+02 -0.18698615365E+02  0.32078401656E+02  0.39337010853E+02  0.10566000000E+00 0. -1.
         13    1    1    0    0    0  0.10395708503E+02 -0.12084114390E+02  0.16922887172E+02  0.23248480599E+02  0.10566000000E+00 0.  1.
         22    1    1    0    0    0 -0.23385211551E+02  0.30782729756E+02 -0.49001288828E+02  0.62414508548E+02  0.00000000000E+00 0.  1.
</event>
<event>
 4    1  0.9897231E-003  0.9118800E+02  0.7818608E-02  0.1130116E+00
         25   -1    0    0    0    0  0.00000000000E+00  0.00000000000E+00  0.99999998245E-14  0.12500000000E+03  0.12500000000E+03 0.  0.
        -13    1    1    0    0    0 -0.17508014748E+02  0.32857357805E+02  0.41063649160E+02  0.55428972467E+02  0.10566000000E+00 0. -1.
         13    1    1    0    0    0 -0.19266874495E+01  0.43653572437E+00  0.73911018766E+01  0.76512900188E+01  0.10566000000E+00 0.  1.
         22    1    1    0    0    0  0.19434702197E+02 -0.33293893529E+02 -0.48454751037E+02  0.61919737515E+02  0.00000000000E+00 0. -1.
</event>
<event>
 4    1  0.9897231E-003  0.9118800E+02  0.7818608E-02  0.1130116E+00
         25   -1    0    0    0    0  0.00000000000E+00  0.00000000000E+00  0.99999998245E-14  0.12500000000E+03  0.12500000000E+03 0.  0.
        -13    1    1    0    0    0 -0.13659895019E+02 -0.41714694899E+02 -0.27680591396E+02  0.51893494838E+02  0.10566000000E+00 0.  1.
         13    1    1    0    0    0 -0.33773776244E+01 -0.82072220767E+01 -0.58244685108E+01  0.10616061949E+02  0.10566000000E+00 0. -1.
         22    1    1    0    0    0  0.17037272643E+02  0.49921916975E+02  0.33505059907E+02  0.62490443213E+02  0.00000000000E+00 0.  1.
</event>
<event>
 4    1  0.9897231E-003  0.9118800E+02  0.7818608E-02  0.1130116E+00
         25   -1    0    0    0    0  0.00000000000E+00  0.00000000000E+00  0.99999998245E-14  0.12500000000E+03  0.12500000000E+03 0.  0.
        -13    1    1    0    0    0  0.20394786901E+02 -0.71595516723E+01 -0.19473188897E+02  0.29093345678E+02  0.10566000000E+00 0. -1.
         13    1    1    0    0    0  0.28239644325E+02 -0.44674373542E+01 -0.17674873531E+02  0.33613209107E+02  0.10566000000E+00 0.  1.
         22    1    1    0    0    0 -0.48634431226E+02  0.11626989027E+02  0.37148062428E+02  0.62293445214E+02  0.00000000000E+00 0. -1.
</event>
<event>
 4    1  0.9897231E-003  0.9118800E+02  0.7818608E-02  0.1130116E+00
         25   -1    0    0    0    0  0.00000000000E+00  0.00000000000E+00  0.99999998245E-14  0.12500000000E+03  0.12500000000E+03 0.  0.
        -13    1    1    0    0    0  0.15813167409E+02 -0.47511294756E+02  0.42623549817E+00  0.50075665084E+02  0.10566000000E+00 0. -1.
         13    1    1    0    0    0 -0.15413111581E+01 -0.12821383819E+02  0.41736837254E+00  0.12920870075E+02  0.10566000000E+00 0.  1.
         22    1    1    0    0    0 -0.14271856250E+02  0.60332678574E+02 -0.84360387071E+00  0.62003464841E+02  0.00000000000E+00 0. -1.
</event>
<event>
 4    1  0.9897231E-003  0.9118800E+02  0.7818608E-02  0.1130116E+00
         25   -1    0    0    0    0  0.00000000000E+00  0.00000000000E+00  0.99999998245E-14  0.12500000000E+03  0.12500000000E+03 0.  0.
        -13    1    1    0    0    0  0.71910310678E+01  0.32152334396E+01 -0.41500208869E+01  0.89040716128E+01  0.10566000000E+00 0.  1.
         13    1    1    0    0    0  0.42579582285E+02  0.21664070856E+02 -0.24303233893E+02  0.53600477006E+02  0.10566000000E+00 0. -1.
         22    1    1    0    0    0 -0.49770613353E+02 -0.24879304296E+02  0.28453254780E+02  0.62495451381E+02  0.00000000000E+00 0. -1.
</event>
<event>
 4    1  0.9897231E-003  0.9118800E+02  0.7818608E-02  0.1130116E+00
         25   -1    0    0    0    0  0.00000000000E+00  0.00000000000E+00  0.99999998245E-14  0.12500000000E+03  0.12500000000E+03 0.  0.
        -13    1    1    0    0    0 -0.57740504001E+02  0.13542341232E+02 -0.87532681123E+01  0.59949909717E+02  0.10566000000E+00 0.  1.
         13    1    1    0    0    0  0.79322029210E+01 -0.11554993632E+02 -0.16974361479E+01  0.14118433855E+02  0.10566000000E+00 0. -1.
         22    1    1    0    0    0  0.49808301080E+02 -0.19873476010E+01  0.10450704260E+02  0.50931656428E+02  0.00000000000E+00 0.  1.
</event>
<event>
 4    1  0.9897231E-003  0.9118800E+02  0.7818608E-02  0.1130116E+00
         25   -1    0    0    0    0  0.00000000000E+00  0.00000000000E+00  0.99999998245E-14  0.12500000000E+03  0.12500000000E+03 0.  0.
        -13    1    1    0    0    0  0.61385622270E+01  0.19861965147E+02 -0.31841393207E+01  0.21031631249E+02  0.10566000000E+00 0.  1.
         13    1    1    0    0    0  0.11167821789E+02  0.39783813630E+02 -0.36757411642E+01  0.41484868417E+02  0.10566000000E+00 0. -1.
         22    1    1    0    0    0 -0.17306384016E+02 -0.59645778778E+02  0.68598804849E+01  0.62483500334E+02  0.00000000000E+00 0. -1.
</event>
<event>
 4    1  0.9897231E-003  0.9118800E+02  0.7818608E-02  0.1130116E+00
         25   -1    0    0    0    0  0.00000000000E+00  0.00000000000E+00  0.99999998245E-14  0.12500000000E+03  0.12500000000E+03 0.  0.
        -13    1    1    0    0    0 -0.90013532651E+01 -0.18891107274E+02  0.17360466622E+02  0.27189984554E+02  0.10566000000E+00 0. -1.
         13    1    1    0    0    0 -0.11955673680E+02 -0.24539450687E+02  0.22398575111E+02  0.35310481506E+02  0.10566000000E+00 0. -1.
         22    1    1    0    0    0  0.20957026945E+02  0.43430557961E+02 -0.39759041733E+02  0.62499533940E+02  0.00000000000E+00 0. -1.
</event>
<event>
 4    1  0.9897231E-003  0.9118800E+02  0.7818608E-02  0.1130116E+00
         25   -1    0    0    0    0  0.00000000000E+00  0.00000000000E+00  0.99999998245E-14  0.12500000000E+03  0.12500000000E+03 0.  0.
        -13    1    1    0    0    0 -0.14483964672E+02 -0.12818034573E+02  0.80708514768E+00  0.19358455347E+02  0.10566000000E+00 0.  1.
         13    1    1    0    0    0 -0.32863425534E+02 -0.27962042512E+02 -0.48926954731E+00  0.43152417174E+02  0.10566000000E+00 0. -1.
         22    1    1    0    0    0  0.47347390206E+02  0.40780077085E+02 -0.31781560037E+00  0.62489127479E+02  0.00000000000E+00 0. -1.
</event>
<event>
 4    1  0.9897231E-003  0.9118800E+02  0.7818608E-02  0.1130116E+00
         25   -1    0    0    0    0  0.00000000000E+00  0.00000000000E+00  0.99999998245E-14  0.12500000000E+03  0.12500000000E+03 0.  0.
        -13    1    1    0    0    0  0.13285793061E+01 -0.23516572985E+01  0.40952761415E+02  0.41041871870E+02  0.10566000000E+00 0. -1.
         13    1    1    0    0    0  0.11913857722E+02 -0.13580513222E+01  0.18989373285E+02  0.22458668060E+02  0.10566000000E+00 0.  1.
         22    1    1    0    0    0 -0.13242437029E+02  0.37097086207E+01 -0.59942134700E+02  0.61499460070E+02  0.00000000000E+00 0. -1.
</event>
<event>
 4    1  0.9897231E-003  0.9118800E+02  0.7818608E-02  0.1130116E+00
         25   -1    0    0    0    0  0.00000000000E+00  0.00000000000E+00  0.99999998245E-14  0.12500000000E+03  0.12500000000E+03 0.  0.
        -13    1    1    0    0    0  0.23374460488E+02 -0.50739568544E+02  0.20453270292E+01  0.55902269595E+02  0.10566000000E+00 0.  1.
         13    1    1    0    0    0  0.28945709859E+01 -0.59043337627E+01 -0.98587389171E+00  0.66500232887E+01  0.10566000000E+00 0. -1.
         22    1    1    0    0    0 -0.26269031474E+02  0.56643902307E+02 -0.10594531374E+01  0.62447707116E+02  0.00000000000E+00 0.  1.
</event>
<event>
 4    1  0.9897231E-003  0.9118800E+02  0.7818608E-02  0.1130116E+00
         25   -1    0    0    0    0  0.00000000000E+00  0.00000000000E+00  0.99999998245E-14  0.12500000000E+03  0.12500000000E+03 0.  0.
        -13    1    1    0    0    0  0.44469967685E+02  0.26161260240E+02 -0.63998055045E+01  0.51989982091E+02  0.10566000000E+00 0.  1.
         13    1    1    0    0    0  0.11606087788E+02 -0.51809872165E+01 -0.63222437467E+00  0.12726145291E+02  0.10566000000E+00 0. -1.
         22    1    1    0    0    0 -0.56076055473E+02 -0.20980273023E+02  0.70320298791E+01  0.60283872618E+02  0.00000000000E+00 0.  1.
</event>
<event>
 4    1  0.9897231E-003  0.9118800E+02  0.7818608E-02  0.1130116E+00
         25   -1    0    0    0    0  0.00000000000E+00  0.00000000000E+00  0.99999998245E-14  0.12500000000E+03  0.12500000000E+03 0.  0.
        -13    1    1    0    0    0 -0.25390177311E+02  0.11004525454E+02 -0.30599582828E+02  0.41256591202E+02  0.10566000000E+00 0.  1.
         13    1    1    0    0    0 -0.11728653766E+02  0.68862459454E+01 -0.16355593860E+02  0.21272007825E+02  0.10566000000E+00 0. -1.
         22    1    1    0    0    0  0.37118831077E+02 -0.17890771399E+02  0.46955176687E+02  0.62471400973E+02  0.00000000000E+00 0.  1.
</event>
<event>
 4    1  0.9897231E-003  0.9118800E+02  0.7818608E-02  0.1130116E+00
         25   -1    0    0    0    0  0.00000000000E+00  0.00000000000E+00  0.99999998245E-14  0.12500000000E+03  0.12500000000E+03 0.  0.
        -13    1    1    0    0    0 -0.31330046721E+01  0.96184798215E+00  0.16839789376E+01  0.36861658826E+01  0.10566000000E+00 0. -1.
         13    1    1    0    0    0 -0.46543823855E+02 -0.12500690995E+02  0.34078585579E+02  0.59025045307E+02  0.10566000000E+00 0.  1.
         22    1    1    0    0    0  0.49676828527E+02  0.11538843013E+02 -0.35762564517E+02  0.62288788810E+02  0.00000000000E+00 0.  1.
</event>
<event>
 4    1  0.9897231E-003  0.9118800E+02  0.7818608E-02  0.1130116E+00
         25   -1    0    0    0    0  0.00000000000E+00  0.00000000000E+00  0.99999998245E-14  0.12500000000E+03  0.12500000000E+03 0.  0.
        -13    1    1    0    0    0  0.28955999499E+02  0.11606319271E+02 -0.31065986110E+02  0.44025710796E+02  0.10566000000E+00 0.  1.
         13    1    1    0    0    0  0.12026737686E+02  0.42368753724E+01 -0.13374968584E+02  0.18479569285E+02  0.10566000000E+00 0. -1.
         22    1    1    0    0    0 -0.40982737185E+02 -0.15843194643E+02  0.44440954695E+02  0.62494719920E+02  0.00000000000E+00 0.  1.
</event>
<event>
 4    1  0.9897231E-003  0.9118800E+02  0.7818608E-02  0.1130116E+00
         25   -1    0    0    0    0  0.00000000000E+00  0.00000000000E+00  0.99999998245E-14  0.12500000000E+03  0.12500000000E+03 0.  0.
        -13    1    1    0    0    0  0.13226560961E+01  0.37349491321E+02  0.94954570182E+01  0.38560456288E+02  0.10566000000E+00 0. -1.
         13    1    1    0    0    0  0.46563830977E+01  0.23580881971E+02 -0.75174087475E+01  0.25184568616E+02  0.10566000000E+00 0.  1.
         22    1    1    0    0    0 -0.59790391937E+01 -0.60930373291E+02 -0.19780482707E+01  0.61254975097E+02  0.00000000000E+00 0. -1.
</event>
<event>
 4    1  0.9897231E-003  0.9118800E+02  0.7818608E-02  0.1130116E+00
         25   -1    0    0    0    0  0.00000000000E+00  0.00000000000E+00  0.99999998245E-14  0.12500000000E+03  0.12500000000E+03 0.  0.
        -13    1    1    0    0    0 -0.47566098559E+01 -0.73627757686E+01  0.75850479153E+01  0.11592235343E+02  0.10566000000E+00 0. -1.
         13    1    1    0    0    0 -0.19139291116E+02 -0.34396907682E+02  0.32294488083E+02  0.50915664064E+02  0.10566000000E+00 0.  1.
         22    1    1    0    0    0  0.23895900972E+02  0.41759683450E+02 -0.39879535998E+02  0.62492100593E+02  0.00000000000E+00 0.  1.
</event>
<event>
 4    1  0.9897231E-003  0.9118800E+02  0.7818608E-02  0.1130116E+00
         25   -1    0    0    0    0  0.00000000000E+00  0.00000000000E+00  0.99999998245E-14  0.12500000000E+03  0.12500000000E+03 0.  0.
        -13    1    1    0    0    0  0.25270025464E+02  0.14457069999E+02 -0.46423324326E+01  0.29481239363E+02  0.10566000000E+00 0. -1.
         13    1    1    0    0    0  0.32805281415E+02  0.21172520723E+01  0.11293482172E+02  0.34759504437E+02  0.10566000000E+00 0.  1.
         22    1    1    0    0    0 -0.58075306879E+02 -0.16574322072E+02 -0.66511497394E+01  0.60759256201E+02  0.00000000000E+00 0. -1.
</event>
<event>
 4    1  0.9897231E-003  0.9118800E+02  0.7818608E-02  0.1130116E+00
         25   -1    0    0    0    0  0.00000000000E+00  0.00000000000E+00  0.99999998245E-14  0.12500000000E+03  0.12500000000E+03 0.  0.
        -13    1    1    0    0    0 -0.11130569733E+02 -0.94865974607E+01  0.32018517327E+02  0.35200592748E+02  0.10566000000E+00 0. -1.
         13    1    1    0    0    0 -0.74817073599E+01 -0.65787951835E+01  0.25429194514E+02  0.27311382037E+02  0.10566000000E+00 0.  1.
         22    1    1    0    0    0  0.18612277092E+02  0.16065392644E+02 -0.57447711842E+02  0.62488025215E+02  0.00000000000E+00 0. -1.
</event>
<event>
 4    1  0.9897231E-003  0.9118800E+02  0.7818608E-02  0.1130116E+00
         25   -1    0    0    0    0  0.00000000000E+00  0.00000000000E+00  0.99999998245E-14  0.12500000000E+03  0.12500000000E+03 0.  0.
        -13    1    1    0    0    0  0.17470612272E+02  0.23350818314E+02  0.20266940889E+01  0.29233570806E+02  0.10566000000E+00 0. -1.
         13    1    1    0    0    0  0.19812392170E+02  0.26632955715E+02  0.21944813860E+01  0.33266681924E+02  0.10566000000E+00 0.  1.
         22    1    1    0    0    0 -0.37283004443E+02 -0.49983774029E+02 -0.42211754749E+01  0.62499747270E+02  0.00000000000E+00 0.  1.
</event>
<event>
 4    1  0.9897231E-003  0.9118800E+02  0.7818608E-02  0.1130116E+00
         25   -1    0    0    0    0  0.00000000000E+00  0.00000000000E+00  0.99999998245E-14  0.12500000000E+03  0.12500000000E+03 0.  0.
        -13    1    1    0    0    0  0.12852945131E+02 -0.13554640349E+02 -0.76296794115E+01  0.20177949487E+02  0.10566000000E+00 0. -1.
         13    1    1    0    0    0  0.26541949512E+02 -0.32802047228E+02 -0.55989558602E+01  0.42565348078E+02  0.10566000000E+00 0.  1.
         22    1    1    0    0    0 -0.39394894643E+02  0.46356687576E+02  0.13228635272E+02  0.62256702436E+02  0.00000000000E+00 0.  1.
</event>
<event>
 4    1  0.9897231E-003  0.9118800E+02  0.7818608E-02  0.1130116E+00
         25   -1    0    0    0    0  0.00000000000E+00  0.00000000000E+00  0.99999998245E-14  0.12500000000E+03  0.12500000000E+03 0.  0.
        -13    1    1    0    0    0 -0.71766363059E+01 -0.19376898810E+02 -0.46740707606E+02  0.51104532360E+02  0.10566000000E+00 0.  1.
         13    1    1    0    0    0 -0.17104698979E+01 -0.38470282999E+01 -0.10594139346E+02  0.11400538870E+02  0.10566000000E+00 0. -1.
         22    1    1    0    0    0  0.88871062038E+01  0.23223927110E+02  0.57334846951E+02  0.62494928771E+02  0.00000000000E+00 0.  1.
</event>
<event>
 4    1  0.9897231E-003  0.9118800E+02  0.7818608E-02  0.1130116E+00
         25   -1    0    0    0    0  0.00000000000E+00  0.00000000000E+00  0.99999998245E-14  0.12500000000E+03  0.12500000000E+03 0.  0.
        -13    1    1    0    0    0 -0.99774287403E+01  0.40419149975E+02  0.30452820626E+02  0.51581413485E+02  0.10566000000E+00 0.  1.
         13    1    1    0    0    0 -0.20872360879E+01  0.84229033220E+01  0.66280060246E+01  0.10919866426E+02  0.10566000000E+00 0. -1.
         22    1    1    0    0    0  0.12064664828E+02 -0.48842053297E+02 -0.37080826650E+02  0.62498720089E+02  0.00000000000E+00 0.  1.
</event>
<event>
 4    1  0.9897231E-003  0.9118800E+02  0.7818608E-02  0.1130116E+00
         25   -1    0    0    0    0  0.00000000000E+00  0.00000000000E+00  0.99999998245E-14  0.12500000000E+03  0.12500000000E+03 0.  0.
        -13    1    1    0    0    0 -0.32685667863E+01  0.40442625648E+02 -0.45496216266E+02  0.60960695179E+02  0.10566000000E+00 0. -1.
         13    1    1    0    0    0 -0.31810380742E+00  0.12456081194E+01 -0.89192115759E+00  0.15682528515E+01  0.10566000000E+00 0.  1.
         22    1    1    0    0    0  0.35866705937E+01 -0.41688233767E+02  0.46388137424E+02  0.62471051970E+02  0.00000000000E+00 0. -1.
</event>
<event>
 4    1  0.9897231E-003  0.9118800E+02  0.7818608E-02  0.1130116E+00
         25   -1    0    0    0    0  0.00000000000E+00  0.00000000000E+00  0.99999998245E-14  0.12500000000E+03  0.12500000000E+03 0.  0.
        -13    1    1    0    0    0 -0.37873480368E+01 -0.11653225830E+02 -0.31192510007E+01  0.12644467890E+02  0.10566000000E+00 0.  1.
         13    1    1    0    0    0  0.24633652539E+02 -0.42707613687E+02 -0.14736557797E+02  0.51458083952E+02  0.10566000000E+00 0. -1.
         22    1    1    0    0    0 -0.20846304503E+02  0.54360839516E+02  0.17855808797E+02  0.60897448158E+02  0.00000000000E+00 0. -1.
</event>
<event>
 4    1  0.9897231E-003  0.9118800E+02  0.7818608E-02  0.1130116E+00
         25   -1    0    0    0    0  0.00000000000E+00  0.00000000000E+00  0.99999998245E-14  0.12500000000E+03  0.12500000000E+03 0.  0.
        -13    1    1    0    0    0 -0.19787759805E+02  0.80965683068E+01  0.21573868664E+02  0.30373554774E+02  0.10566000000E+00 0.  1.
         13    1    1    0    0    0 -0.20126412213E+02  0.10671985814E+02  0.22680095916E+02  0.32145943205E+02  0.10566000000E+00 0. -1.
         22    1    1    0    0    0  0.39914172018E+02 -0.18768554120E+02 -0.44253964580E+02  0.62480502020E+02  0.00000000000E+00 0. -1.
</event>
<event>
 4    1  0.9897231E-003  0.9118800E+02  0.7818608E-02  0.1130116E+00
         25   -1    0    0    0    0  0.00000000000E+00  0.00000000000E+00  0.99999998245E-14  0.12500000000E+03  0.12500000000E+03 0.  0.
        -13    1    1    0    0    0 -0.65734211583E+00 -0.19891578934E+01 -0.55010349844E+01  0.58873931173E+01  0.10566000000E+00 0.  1.
         13    1    1    0    0    0 -0.69655081022E+01 -0.21068180392E+02 -0.52085284304E+02  0.56615144027E+02  0.10566000000E+00 0. -1.
         22    1    1    0    0    0  0.76228502180E+01  0.23057338286E+02  0.57586319288E+02  0.62497462856E+02  0.00000000000E+00 0. -1.
</event>
<event>
 4    1  0.9897231E-003  0.9118800E+02  0.7818608E-02  0.1130116E+00
         25   -1    0    0    0    0  0.00000000000E+00  0.00000000000E+00  0.99999998245E-14  0.12500000000E+03  0.12500000000E+03 0.  0.
        -13    1    1    0    0    0 -0.23655020390E+02 -0.41786298296E+02  0.49151381833E+01  0.48268255223E+02  0.10566000000E+00 0.  1.
         13    1    1    0    0    0 -0.95147598879E+01 -0.10419922928E+02  0.28437416668E+01  0.14394564261E+02  0.10566000000E+00 0. -1.
         22    1    1    0    0    0  0.33169780277E+02  0.52206221224E+02 -0.77588798501E+01  0.62337180516E+02  0.00000000000E+00 0.  1.
</event>
<event>
 4    1  0.9897231E-003  0.9118800E+02  0.7818608E-02  0.1130116E+00
         25   -1    0    0    0    0  0.00000000000E+00  0.00000000000E+00  0.99999998245E-14  0.12500000000E+03  0.12500000000E+03 0.  0.
        -13    1    1    0    0    0 -0.15211508900E+02  0.82460952333E+00  0.39618188903E+02  0.42446225272E+02  0.10566000000E+00 0. -1.
         13    1    1    0    0    0 -0.25958426989E+01 -0.65352676365E+01  0.19404377953E+02  0.20639505086E+02  0.10566000000E+00 0.  1.
         22    1    1    0    0    0  0.17807351599E+02  0.57106581131E+01 -0.59022566856E+02  0.61914269642E+02  0.00000000000E+00 0. -1.
</event>
<event>
 4    1  0.9897231E-003  0.9118800E+02  0.7818608E-02  0.1130116E+00
         25   -1    0    0    0    0  0.00000000000E+00  0.00000000000E+00  0.99999998245E-14  0.12500000000E+03  0.12500000000E+03 0.  0.
        -13    1    1    0    0    0 -0.14196294036E+02  0.36286276456E+02  0.18849532355E+02  0.43284462079E+02  0.10566000000E+00 0.  1.
         13    1    1    0    0    0 -0.10351656316E+02 -0.95436760952E+01  0.22593700446E+02  0.26621889598E+02  0.10566000000E+00 0. -1.
         22    1    1    0    0    0  0.24547950352E+02 -0.26742600361E+02 -0.41443232801E+02  0.55093648323E+02  0.00000000000E+00 0.  1.
</event>
<event>
 4    1  0.9897231E-003  0.9118800E+02  0.7818608E-02  0.1130116E+00
         25   -1    0    0    0    0  0.00000000000E+00  0.00000000000E+00  0.99999998245E-14  0.12500000000E+03  0.12500000000E+03 0.  0.
        -13    1    1    0    0    0 -0.26412414652E+02  0.11951158383E+02  0.32502103986E+02  0.43552769854E+02  0.10566000000E+00 0. -1.
         13    1    1    0    0    0 -0.11862161875E+02  0.53278061967E+01  0.13783903261E+02  0.18950027872E+02  0.10566000000E+00 0.  1.
         22    1    1    0    0    0  0.38274576526E+02 -0.17278964580E+02 -0.46286007247E+02  0.62497202274E+02  0.00000000000E+00 0. -1.
</event>
<event>
 4    1  0.9897231E-003  0.9118800E+02  0.7818608E-02  0.1130116E+00
         25   -1    0    0    0    0  0.00000000000E+00  0.00000000000E+00  0.99999998245E-14  0.12500000000E+03  0.12500000000E+03 0.  0.
        -13    1    1    0    0    0 -0.10319869315E+02  0.16541934922E+02  0.71042922739E+01  0.20751323967E+02  0.10566000000E+00 0. -1.
         13    1    1    0    0    0 -0.20713807603E+02  0.33450828833E+02  0.13962848230E+02  0.41749156516E+02  0.10566000000E+00 0.  1.
         22    1    1    0    0    0  0.31033676918E+02 -0.49992763755E+02 -0.21067140504E+02  0.62499519517E+02  0.00000000000E+00 0.  1.
</event>
<event>
 4    1  0.9897231E-003  0.9118800E+02  0.7818608E-02  0.1130116E+00
         25   -1    0    0    0    0  0.00000000000E+00  0.00000000000E+00  0.99999998245E-14  0.12500000000E+03  0.12500000000E+03 0.  0.
        -13    1    1    0    0    0  0.31758922968E+01 -0.35473007285E+01 -0.47065720675E+01  0.66957164666E+01  0.10566000000E+00 0. -1.
         13    1    1    0    0    0 -0.12090911620E+02 -0.55966496345E+02 -0.44649580349E+01  0.57431575559E+02  0.10566000000E+00 0.  1.
         22    1    1    0    0    0  0.89150193230E+01  0.59513797074E+02  0.91715301024E+01  0.60872707974E+02  0.00000000000E+00 0.  1.
</event>
<event>
 4    1  0.9897231E-003  0.9118800E+02  0.7818608E-02  0.1130116E+00
         25   -1    0    0    0    0  0.00000000000E+00  0.00000000000E+00  0.99999998245E-14  0.12500000000E+03  0.12500000000E+03 0.  0.
        -13    1    1    0    0    0  0.20404561625E+02 -0.45772084495E+02  0.11058078121E+02  0.51319802318E+02  0.10566000000E+00 0. -1.
         13    1    1    0    0    0  0.16309852509E+02  0.33917789711E+01 -0.42810586108E+01  0.17200409307E+02  0.10566000000E+00 0.  1.
         22    1    1    0    0    0 -0.36714414134E+02  0.42380305524E+02 -0.67770195107E+01  0.56479788376E+02  0.00000000000E+00 0. -1.
</event>
<event>
 4    1  0.9897231E-003  0.9118800E+02  0.7818608E-02  0.1130116E+00
         25   -1    0    0    0    0  0.00000000000E+00  0.00000000000E+00  0.99999998245E-14  0.12500000000E+03  0.12500000000E+03 0.  0.
        -13    1    1    0    0    0  0.35385342977E+00 -0.19747804670E+02 -0.29763934773E+02  0.35721197891E+02  0.10566000000E+00 0.  1.
         13    1    1    0    0    0  0.22654117247E+00 -0.14849939065E+02 -0.22283000612E+02  0.26779008410E+02  0.10566000000E+00 0.  1.
         22    1    1    0    0    0 -0.58039460224E+00  0.34597743735E+02  0.52046935385E+02  0.62499793699E+02  0.00000000000E+00 0.  1.
</event>
<event>
 4    1  0.9897231E-003  0.9118800E+02  0.7818608E-02  0.1130116E+00
         25   -1    0    0    0    0  0.00000000000E+00  0.00000000000E+00  0.99999998245E-14  0.12500000000E+03  0.12500000000E+03 0.  0.
        -13    1    1    0    0    0 -0.18415328593E+01  0.15611844086E+02 -0.89929073392E+01  0.18110893559E+02  0.10566000000E+00 0. -1.
         13    1    1    0    0    0 -0.20278093286E+02  0.38917686056E+02  0.17861106498E+02  0.47379506589E+02  0.10566000000E+00 0.  1.
         22    1    1    0    0    0  0.22119626145E+02 -0.54529530142E+02 -0.88681991584E+01  0.59509599853E+02  0.00000000000E+00 0.  1.
</event>
<event>
 4    1  0.9897231E-003  0.9118800E+02  0.7818608E-02  0.1130116E+00
         25   -1    0    0    0    0  0.00000000000E+00  0.00000000000E+00  0.99999998245E-14  0.12500000000E+03  0.12500000000E+03 0.  0.
        -13    1    1    0    0    0  0.42133654320E+02  0.18554969242E+02  0.20065104051E+02  0.50221024228E+02  0.10566000000E+00 0. -1.
         13    1    1    0    0    0  0.10279629452E+02  0.37228309431E+01  0.56317853897E+01  0.12298716299E+02  0.10566000000E+00 0.  1.
         22    1    1    0    0    0 -0.52413283772E+02 -0.22277800186E+02 -0.25696889440E+02  0.62480259473E+02  0.00000000000E+00 0. -1.
</event>
<event>
 4    1  0.9897231E-003  0.9118800E+02  0.7818608E-02  0.1130116E+00
         25   -1    0    0    0    0  0.00000000000E+00  0.00000000000E+00  0.99999998245E-14  0.12500000000E+03  0.12500000000E+03 0.  0.
        -13    1    1    0    0    0 -0.45420261722E+01 -0.19578630622E+02 -0.39335111834E+02  0.44172558969E+02  0.10566000000E+00 0.  1.
         13    1    1    0    0    0 -0.18670743705E+01 -0.80743320392E+01 -0.16346627245E+02  0.18327689187E+02  0.10566000000E+00 0.  1.
         22    1    1    0    0    0  0.64091005427E+01  0.27652962662E+02  0.55681739080E+02  0.62499751845E+02  0.00000000000E+00 0.  1.
</event>
<event>
 4    1  0.9897231E-003  0.9118800E+02  0.7818608E-02  0.1130116E+00
         25   -1    0    0    0    0  0.00000000000E+00  0.00000000000E+00  0.99999998245E-14  0.12500000000E+03  0.12500000000E+03 0.  0.
        -13    1    1    0    0    0  0.85177645078E+01 -0.65866691572E+01  0.63623225227E+01  0.12507071388E+02  0.10566000000E+00 0.  1.
         13    1    1    0    0    0  0.27636557488E+02 -0.33822002648E+02  0.24523954301E+02  0.50091343279E+02  0.10566000000E+00 0. -1.
         22    1    1    0    0    0 -0.36154321996E+02  0.40408671805E+02 -0.30886276823E+02  0.62401585333E+02  0.00000000000E+00 0. -1.
</event>
<event>
 4    1  0.9897231E-003  0.9118800E+02  0.7818608E-02  0.1130116E+00
         25   -1    0    0    0    0  0.00000000000E+00  0.00000000000E+00  0.99999998245E-14  0.12500000000E+03  0.12500000000E+03 0.  0.
        -13    1    1    0    0    0 -0.77762926552E+00  0.21883024345E+01 -0.54361341773E-02  0.23247727645E+01  0.10566000000E+00 0.  1.
         13    1    1    0    0    0 -0.20150824263E+02  0.56656122860E+02  0.23101146768E+01  0.60177402485E+02  0.10566000000E+00 0.  1.
         22    1    1    0    0    0  0.20928453529E+02 -0.58844425294E+02 -0.23046785427E+01  0.62497824750E+02  0.00000000000E+00 0.  1.
</event>
<event>
 4    1  0.9897231E-003  0.9118800E+02  0.7818608E-02  0.1130116E+00
         25   -1    0    0    0    0  0.00000000000E+00  0.00000000000E+00  0.99999998245E-14  0.12500000000E+03  0.12500000000E+03 0.  0.
        -13    1    1    0    0    0  0.54626787405E+01 -0.17346385340E+01  0.17590826005E+02  0.18501301399E+02  0.10566000000E+00 0.  1.
         13    1    1    0    0    0  0.33780348574E+02 -0.29448611666E+02  0.14358075313E+02  0.47058454815E+02  0.10566000000E+00 0. -1.
         22    1    1    0    0    0 -0.39243027315E+02  0.31183250200E+02 -0.31948901318E+02  0.59440243786E+02  0.00000000000E+00 0. -1.
</event>
<event>
 4    1  0.9897231E-003  0.9118800E+02  0.7818608E-02  0.1130116E+00
         25   -1    0    0    0    0  0.00000000000E+00  0.00000000000E+00  0.99999998245E-14  0.12500000000E+03  0.12500000000E+03 0.  0.
        -13    1    1    0    0    0  0.21662999958E+02  0.10134309798E+02 -0.29481845084E+02  0.37962878656E+02  0.10566000000E+00 0. -1.
         13    1    1    0    0    0  0.15668746438E+02  0.65449918902E+01 -0.17750588643E+02  0.24565038062E+02  0.10566000000E+00 0.  1.
         22    1    1    0    0    0 -0.37331746396E+02 -0.16679301688E+02  0.47232433727E+02  0.62472083282E+02  0.00000000000E+00 0.  1.
</event>
<event>
 4    1  0.9897231E-003  0.9118800E+02  0.7818608E-02  0.1130116E+00
         25   -1    0    0    0    0  0.00000000000E+00  0.00000000000E+00  0.99999998245E-14  0.12500000000E+03  0.12500000000E+03 0.  0.
        -13    1    1    0    0    0  0.26551590421E+02 -0.11629558775E+02  0.39811045230E+02  0.49245954936E+02  0.10566000000E+00 0. -1.
         13    1    1    0    0    0  0.14510785137E+02  0.15695352855E+02 -0.22416200768E+02  0.30974250716E+02  0.10566000000E+00 0.  1.
         22    1    1    0    0    0 -0.41062375558E+02 -0.40657940796E+01 -0.17394844463E+02  0.44779794348E+02  0.00000000000E+00 0. -1.
</event>
<event>
 4    1  0.9897231E-003  0.9118800E+02  0.7818608E-02  0.1130116E+00
         25   -1    0    0    0    0  0.00000000000E+00  0.00000000000E+00  0.99999998245E-14  0.12500000000E+03  0.12500000000E+03 0.  0.
        -13    1    1    0    0    0 -0.30373636537E+01  0.79132836385E+01 -0.41479186688E+02  0.42336505857E+02  0.10566000000E+00 0. -1.
         13    1    1    0    0    0 -0.46926201085E+00  0.35200303862E+01 -0.19857008719E+02  0.20172327086E+02  0.10566000000E+00 0.  1.
         22    1    1    0    0    0  0.35066256646E+01 -0.11433314025E+02  0.61336195407E+02  0.62491167057E+02  0.00000000000E+00 0. -1.
</event>
<event>
 4    1  0.9897231E-003  0.9118800E+02  0.7818608E-02  0.1130116E+00
         25   -1    0    0    0    0  0.00000000000E+00  0.00000000000E+00  0.99999998245E-14  0.12500000000E+03  0.12500000000E+03 0.  0.
        -13    1    1    0    0    0  0.48450928948E+00  0.41163157942E+01  0.43574929257E+02  0.43771730932E+02  0.10566000000E+00 0. -1.
         13    1    1    0    0    0  0.10100403258E+02  0.24626350119E+02  0.15808482339E+01  0.26664311567E+02  0.10566000000E+00 0.  1.
         22    1    1    0    0    0 -0.10584912547E+02 -0.28742665913E+02 -0.45155777491E+02  0.54563957502E+02  0.00000000000E+00 0.  1.
</event>
<event>
 4    1  0.9897231E-003  0.9118800E+02  0.7818608E-02  0.1130116E+00
         25   -1    0    0    0    0  0.00000000000E+00  0.00000000000E+00  0.99999998245E-14  0.12500000000E+03  0.12500000000E+03 0.  0.
        -13    1    1    0    0    0  0.24353837995E+00 -0.61583380800E+01  0.19392743127E+02  0.20348810502E+02  0.10566000000E+00 0. -1.
         13    1    1    0    0    0 -0.42502892343E+00 -0.80069224174E+01  0.41430795446E+02  0.42199685206E+02  0.10566000000E+00 0.  1.
         22    1    1    0    0    0  0.18149054348E+00  0.14165260497E+02 -0.60823538573E+02  0.62451504291E+02  0.00000000000E+00 0.  1.
</event>
<event>
 4    1  0.9897231E-003  0.9118800E+02  0.7818608E-02  0.1130116E+00
         25   -1    0    0    0    0  0.00000000000E+00  0.00000000000E+00  0.99999998245E-14  0.12500000000E+03  0.12500000000E+03 0.  0.
        -13    1    1    0    0    0  0.34693262321E+02  0.19348533906E+02  0.15549200259E+01  0.39754460820E+02  0.10566000000E+00 0. -1.
         13    1    1    0    0    0  0.17216110148E+02  0.15108923189E+02  0.40993161018E+00  0.22909675173E+02  0.10566000000E+00 0.  1.
         22    1    1    0    0    0 -0.51909372469E+02 -0.34457457095E+02 -0.19648516361E+01  0.62335864007E+02  0.00000000000E+00 0. -1.
</event>
<event>
 4    1  0.9897231E-003  0.9118800E+02  0.7818608E-02  0.1130116E+00
         25   -1    0    0    0    0  0.00000000000E+00  0.00000000000E+00  0.99999998245E-14  0.12500000000E+03  0.12500000000E+03 0.  0.
        -13    1    1    0    0    0  0.70005416296E+01 -0.31800390456E+02 -0.57383224442E+01  0.33063755455E+02  0.10566000000E+00 0. -1.
         13    1    1    0    0    0 -0.91167142346E+01 -0.26665233241E+02 -0.12251610875E+02  0.30728850862E+02  0.10566000000E+00 0.  1.
         22    1    1    0    0    0  0.21161726050E+01  0.58465623696E+02  0.17989933320E+02  0.61207393684E+02  0.00000000000E+00 0.  1.
</event>
<event>
 4    1  0.9897231E-003  0.9118800E+02  0.7818608E-02  0.1130116E+00
         25   -1    0    0    0    0  0.00000000000E+00  0.00000000000E+00  0.99999998245E-14  0.12500000000E+03  0.12500000000E+03 0.  0.
        -13    1    1    0    0    0  0.17189779259E+02 -0.16947742884E+02 -0.16893702742E+02  0.29463924657E+02  0.10566000000E+00 0. -1.
         13    1    1    0    0    0  0.19290798091E+02 -0.18944919490E+02 -0.18982605847E+02  0.33036273310E+02  0.10566000000E+00 0. -1.
         22    1    1    0    0    0 -0.36480577349E+02  0.35892662374E+02  0.35876308590E+02  0.62499802032E+02  0.00000000000E+00 0. -1.
</event>
<event>
 4    1  0.9897231E-003  0.9118800E+02  0.7818608E-02  0.1130116E+00
         25   -1    0    0    0    0  0.00000000000E+00  0.00000000000E+00  0.99999998245E-14  0.12500000000E+03  0.12500000000E+03 0.  0.
        -13    1    1    0    0    0 -0.42514450614E+01  0.15221630931E+02  0.68101964110E+00  0.15819222013E+02  0.10566000000E+00 0. -1.
         13    1    1    0    0    0 -0.12939283966E+02  0.44811664093E+02  0.19021331404E+01  0.46681255155E+02  0.10566000000E+00 0. -1.
         22    1    1    0    0    0  0.17190729028E+02 -0.60033295024E+02 -0.25831527815E+01  0.62499522832E+02  0.00000000000E+00 0. -1.
</event>
<event>
 4    1  0.9897231E-003  0.9118800E+02  0.7818608E-02  0.1130116E+00
         25   -1    0    0    0    0  0.00000000000E+00  0.00000000000E+00  0.99999998245E-14  0.12500000000E+03  0.12500000000E+03 0.  0.
        -13    1    1    0    0    0 -0.20488131027E+01  0.22500608618E+01 -0.59770421755E+00  0.31030345437E+01  0.10566000000E+00 0.  1.
         13    1    1    0    0    0 -0.56904570548E+02  0.76791248529E+01 -0.16449644462E+02  0.59730235851E+02  0.10566000000E+00 0. -1.
         22    1    1    0    0    0  0.58953383651E+02 -0.99291857147E+01  0.17047348680E+02  0.62166729606E+02  0.00000000000E+00 0. -1.
</event>
<event>
 4    1  0.9897231E-003  0.9118800E+02  0.7818608E-02  0.1130116E+00
         25   -1    0    0    0    0  0.00000000000E+00  0.00000000000E+00  0.99999998245E-14  0.12500000000E+03  0.12500000000E+03 0.  0.
        -13    1    1    0    0    0 -0.36893019889E+02 -0.29561547585E+02 -0.21771414901E+02  0.52047917182E+02  0.10566000000E+00 0.  1.
         13    1    1    0    0    0 -0.72803592304E+01 -0.63919839651E+01 -0.39433878044E+01  0.10460523933E+02  0.10566000000E+00 0.  1.
         22    1    1    0    0    0  0.44173379119E+02  0.35953531550E+02  0.25714802706E+02  0.62491558885E+02  0.00000000000E+00 0.  1.
</event>
<event>
 4    1  0.9897231E-003  0.9118800E+02  0.7818608E-02  0.1130116E+00
         25   -1    0    0    0    0  0.00000000000E+00  0.00000000000E+00  0.99999998245E-14  0.12500000000E+03  0.12500000000E+03 0.  0.
        -13    1    1    0    0    0 -0.77577177617E+01  0.10246514722E+01  0.55562016060E+02  0.56110434753E+02  0.10566000000E+00 0. -1.
         13    1    1    0    0    0 -0.52910057423E+00  0.13902112592E+01  0.62766707237E+01  0.64513869960E+01  0.10566000000E+00 0.  1.
         22    1    1    0    0    0  0.82868183359E+01 -0.24148627314E+01 -0.61838686784E+02  0.62438178251E+02  0.00000000000E+00 0. -1.
</event>
<event>
 4    1  0.9897231E-003  0.9118800E+02  0.7818608E-02  0.1130116E+00
         25   -1    0    0    0    0  0.00000000000E+00  0.00000000000E+00  0.99999998245E-14  0.12500000000E+03  0.12500000000E+03 0.  0.
        -13    1    1    0    0    0 -0.17973318889E+01 -0.97615440581E+01 -0.19513775447E+01  0.10116184195E+02  0.10566000000E+00 0. -1.
         13    1    1    0    0    0 -0.87912639436E+01 -0.50172740032E+02 -0.12243381886E+02  0.52387992213E+02  0.10566000000E+00 0.  1.
         22    1    1    0    0    0  0.10588595833E+02  0.59934284090E+02  0.14194759430E+02  0.62495823592E+02  0.00000000000E+00 0.  1.
</event>
<event>
 4    1  0.9897231E-003  0.9118800E+02  0.7818608E-02  0.1130116E+00
         25   -1    0    0    0    0  0.00000000000E+00  0.00000000000E+00  0.99999998245E-14  0.12500000000E+03  0.12500000000E+03 0.  0.
        -13    1    1    0    0    0  0.13066692639E+01  0.14770190694E+02 -0.16776564855E+01  0.14922855391E+02  0.10566000000E+00 0.  1.
         13    1    1    0    0    0  0.52039457984E+01  0.47019391749E+02 -0.50823575149E+01  0.47578837462E+02  0.10566000000E+00 0. -1.
         22    1    1    0    0    0 -0.65106150623E+01 -0.61789582443E+02  0.67600140004E+01  0.62498307147E+02  0.00000000000E+00 0. -1.
</event>
<event>
 4    1  0.9897231E-003  0.9118800E+02  0.7818608E-02  0.1130116E+00
         25   -1    0    0    0    0  0.00000000000E+00  0.00000000000E+00  0.99999998245E-14  0.12500000000E+03  0.12500000000E+03 0.  0.
        -13    1    1    0    0    0 -0.39779297940E+01  0.25964178892E+01  0.43414066856E+01  0.64361702391E+01  0.10566000000E+00 0. -1.
         13    1    1    0    0    0  0.51580748045E+02 -0.18136098205E+02 -0.29927204811E+02  0.62330894256E+02  0.10566000000E+00 0.  1.
         22    1    1    0    0    0 -0.47602818251E+02  0.15539680316E+02  0.25585798125E+02  0.56232935505E+02  0.00000000000E+00 0.  1.
</event>
<event>
 4    1  0.9897231E-003  0.9118800E+02  0.7818608E-02  0.1130116E+00
         25   -1    0    0    0    0  0.00000000000E+00  0.00000000000E+00  0.99999998245E-14  0.12500000000E+03  0.12500000000E+03 0.  0.
        -13    1    1    0    0    0  0.80060371065E-01  0.41644396781E+01 -0.86424215055E+01  0.95943515159E+01  0.10566000000E+00 0.  1.
         13    1    1    0    0    0  0.11011816229E+01 -0.55880782690E+02 -0.15956625064E+02  0.58124861484E+02  0.10566000000E+00 0. -1.
         22    1    1    0    0    0 -0.11812419940E+01  0.51716343012E+02  0.24599046570E+02  0.57280787000E+02  0.00000000000E+00 0. -1.
</event>
<event>
 4    1  0.9897231E-003  0.9118800E+02  0.7818608E-02  0.1130116E+00
         25   -1    0    0    0    0  0.00000000000E+00  0.00000000000E+00  0.99999998245E-14  0.12500000000E+03  0.12500000000E+03 0.  0.
        -13    1    1    0    0    0  0.28760232586E+02 -0.94645743738E+00  0.21850038401E+02  0.36131455856E+02  0.10566000000E+00 0.  1.
         13    1    1    0    0    0  0.25184187360E+02 -0.97068154198E+01  0.53611007771E+01  0.27517596627E+02  0.10566000000E+00 0. -1.
         22    1    1    0    0    0 -0.53944419946E+02  0.10653272857E+02 -0.27211139178E+02  0.61350947517E+02  0.00000000000E+00 0.  1.
</event>
<event>
 4    1  0.9897231E-003  0.9118800E+02  0.7818608E-02  0.1130116E+00
         25   -1    0    0    0    0  0.00000000000E+00  0.00000000000E+00  0.99999998245E-14  0.12500000000E+03  0.12500000000E+03 0.  0.
        -13    1    1    0    0    0  0.40570622005E+02  0.86448217287E+01 -0.63086068321E+01  0.41958527105E+02  0.10566000000E+00 0. -1.
         13    1    1    0    0    0  0.18050290826E+02 -0.10306353176E+02 -0.86588530859E+01  0.22517122718E+02  0.10566000000E+00 0.  1.
         22    1    1    0    0    0 -0.58620912831E+02  0.16615314477E+01  0.14967459918E+02  0.60524350177E+02  0.00000000000E+00 0. -1.
</event>
<event>
 4    1  0.9897231E-003  0.9118800E+02  0.7818608E-02  0.1130116E+00
         25   -1    0    0    0    0  0.00000000000E+00  0.00000000000E+00  0.99999998245E-14  0.12500000000E+03  0.12500000000E+03 0.  0.
        -13    1    1    0    0    0  0.38540968327E+01  0.22656001889E+01 -0.12745116527E+01  0.46500054409E+01  0.10566000000E+00 0.  1.
         13    1    1    0    0    0  0.55302633240E+02  0.81212854076E+01 -0.15471398162E+02  0.57997515853E+02  0.10566000000E+00 0. -1.
         22    1    1    0    0    0 -0.59156730073E+02 -0.10386885596E+02  0.16745909814E+02  0.62352478706E+02  0.00000000000E+00 0. -1.
</event>
<event>
 4    1  0.9897231E-003  0.9118800E+02  0.7818608E-02  0.1130116E+00
         25   -1    0    0    0    0  0.00000000000E+00  0.00000000000E+00  0.99999998245E-14  0.12500000000E+03  0.12500000000E+03 0.  0.
        -13    1    1    0    0    0  0.26198869433E+02  0.66169460278E+01 -0.13701705613E+02  0.30297073045E+02  0.10566000000E+00 0. -1.
         13    1    1    0    0    0  0.26731126598E+02  0.19838932270E+02 -0.24078124625E+01  0.33375815911E+02  0.10566000000E+00 0.  1.
         22    1    1    0    0    0 -0.52929996032E+02 -0.26455878298E+02  0.16109518076E+02  0.61327111044E+02  0.00000000000E+00 0.  1.
</event>
<event>
 4    1  0.9897231E-003  0.9118800E+02  0.7818608E-02  0.1130116E+00
         25   -1    0    0    0    0  0.00000000000E+00  0.00000000000E+00  0.99999998245E-14  0.12500000000E+03  0.12500000000E+03 0.  0.
        -13    1    1    0    0    0  0.43431908364E+01  0.22191900235E+01 -0.10088288288E+01  0.49816674561E+01  0.10566000000E+00 0. -1.
         13    1    1    0    0    0  0.47366311861E+02  0.27056723054E+02 -0.18301317929E+02  0.57537667347E+02  0.10566000000E+00 0.  1.
         22    1    1    0    0    0 -0.51709502697E+02 -0.29275913078E+02  0.19310146758E+02  0.62480665197E+02  0.00000000000E+00 0.  1.
</event>
<event>
 4    1  0.9897231E-003  0.9118800E+02  0.7818608E-02  0.1130116E+00
         25   -1    0    0    0    0  0.00000000000E+00  0.00000000000E+00  0.99999998245E-14  0.12500000000E+03  0.12500000000E+03 0.  0.
        -13    1    1    0    0    0  0.32919893864E+02  0.30347013837E+02 -0.39405736537E+01  0.44946634419E+02  0.10566000000E+00 0. -1.
         13    1    1    0    0    0  0.14359595593E+02  0.98997961855E+01 -0.25417682475E+01  0.17625995007E+02  0.10566000000E+00 0.  1.
         22    1    1    0    0    0 -0.47279489457E+02 -0.40246810022E+02  0.64823419012E+01  0.62427370574E+02  0.00000000000E+00 0. -1.
</event>
<event>
 4    1  0.9897231E-003  0.9118800E+02  0.7818608E-02  0.1130116E+00
         25   -1    0    0    0    0  0.00000000000E+00  0.00000000000E+00  0.99999998245E-14  0.12500000000E+03  0.12500000000E+03 0.  0.
        -13    1    1    0    0    0 -0.32092389084E+02 -0.41587722776E+02 -0.13312198701E+02  0.54191197819E+02  0.10566000000E+00 0.  1.
         13    1    1    0    0    0 -0.50732285335E+01 -0.62759139932E+01 -0.19806047348E+01  0.83101566384E+01  0.10566000000E+00 0.  1.
         22    1    1    0    0    0  0.37165617618E+02  0.47863636769E+02  0.15292803436E+02  0.62498645542E+02  0.00000000000E+00 0.  1.
</event>
<event>
 4    1  0.9897231E-003  0.9118800E+02  0.7818608E-02  0.1130116E+00
         25   -1    0    0    0    0  0.00000000000E+00  0.00000000000E+00  0.99999998245E-14  0.12500000000E+03  0.12500000000E+03 0.  0.
        -13    1    1    0    0    0 -0.15098148911E+01 -0.82047562697E+01 -0.59944171159E+01  0.10273352279E+02  0.10566000000E+00 0. -1.
         13    1    1    0    0    0 -0.14007583031E+02 -0.42130310863E+02 -0.27576640657E+02  0.52265263318E+02  0.10566000000E+00 0.  1.
         22    1    1    0    0    0  0.15517397922E+02  0.50335067132E+02  0.33571057773E+02  0.62461384403E+02  0.00000000000E+00 0.  1.
</event>
<event>
 4    1  0.9897231E-003  0.9118800E+02  0.7818608E-02  0.1130116E+00
         25   -1    0    0    0    0  0.00000000000E+00  0.00000000000E+00  0.99999998245E-14  0.12500000000E+03  0.12500000000E+03 0.  0.
        -13    1    1    0    0    0  0.12973384441E+01  0.55434669575E+01 -0.20171016277E+02  0.20959345758E+02  0.10566000000E+00 0. -1.
         13    1    1    0    0    0  0.23617191522E+01  0.10767104836E+02 -0.40051710893E+02  0.41541051664E+02  0.10566000000E+00 0.  1.
         22    1    1    0    0    0 -0.36590575964E+01 -0.16310571793E+02  0.60222727169E+02  0.62499602578E+02  0.00000000000E+00 0.  1.
</event>
<event>
 4    1  0.9897231E-003  0.9118800E+02  0.7818608E-02  0.1130116E+00
         25   -1    0    0    0    0  0.00000000000E+00  0.00000000000E+00  0.99999998245E-14  0.12500000000E+03  0.12500000000E+03 0.  0.
        -13    1    1    0    0    0  0.48701487703E+02 -0.21756363764E+02  0.25683098559E+02  0.59201410324E+02  0.10566000000E+00 0.  1.
         13    1    1    0    0    0  0.19541462483E+01 -0.29182488194E+01  0.69888748694E+00  0.35825230616E+01  0.10566000000E+00 0. -1.
         22    1    1    0    0    0 -0.50655633952E+02  0.24674612584E+02 -0.26381986046E+02  0.62216066614E+02  0.00000000000E+00 0.  1.
</event>
<event>
 4    1  0.9897231E-003  0.9118800E+02  0.7818608E-02  0.1130116E+00
         25   -1    0    0    0    0  0.00000000000E+00  0.00000000000E+00  0.99999998245E-14  0.12500000000E+03  0.12500000000E+03 0.  0.
        -13    1    1    0    0    0  0.30204770015E+02 -0.17980750649E+02  0.40397596051E+02  0.53550092963E+02  0.10566000000E+00 0.  1.
         13    1    1    0    0    0  0.77223583655E+01  0.40826473948E+01  0.54890811947E+01  0.10317170391E+02  0.10566000000E+00 0. -1.
         22    1    1    0    0    0 -0.37927128381E+02  0.13898103254E+02 -0.45886677246E+02  0.61132736647E+02  0.00000000000E+00 0.  1.
</event>
<event>
 4    1  0.9897231E-003  0.9118800E+02  0.7818608E-02  0.1130116E+00
         25   -1    0    0    0    0  0.00000000000E+00  0.00000000000E+00  0.99999998245E-14  0.12500000000E+03  0.12500000000E+03 0.  0.
        -13    1    1    0    0    0  0.21150109559E+02 -0.11390753765E+02 -0.28627447989E+01  0.24192620312E+02  0.10566000000E+00 0.  1.
         13    1    1    0    0    0  0.38842953867E+02 -0.15378974808E+01  0.61120311790E+01  0.39351089984E+02  0.10566000000E+00 0. -1.
         22    1    1    0    0    0 -0.59993063426E+02  0.12928651246E+02 -0.32492863801E+01  0.61456289705E+02  0.00000000000E+00 0. -1.
</event>
<event>
 4    1  0.9897231E-003  0.9118800E+02  0.7818608E-02  0.1130116E+00
         25   -1    0    0    0    0  0.00000000000E+00  0.00000000000E+00  0.99999998245E-14  0.12500000000E+03  0.12500000000E+03 0.  0.
        -13    1    1    0    0    0 -0.19833840993E+01 -0.51024750423E+02 -0.31029541276E+02  0.59752008870E+02  0.10566000000E+00 0. -1.
         13    1    1    0    0    0 -0.61069930937E+00 -0.18108120067E+01 -0.20917870205E+01  0.28352655510E+01  0.10566000000E+00 0.  1.
         22    1    1    0    0    0  0.25940834086E+01  0.52835562430E+02  0.33121328296E+02  0.62412725578E+02  0.00000000000E+00 0. -1.
</event>
<event>
 4    1  0.9897231E-003  0.9118800E+02  0.7818608E-02  0.1130116E+00
         25   -1    0    0    0    0  0.00000000000E+00  0.00000000000E+00  0.99999998245E-14  0.12500000000E+03  0.12500000000E+03 0.  0.
        -13    1    1    0    0    0 -0.65582411084E+01 -0.32378592939E+02 -0.43372714870E+02  0.54521439511E+02  0.10566000000E+00 0. -1.
         13    1    1    0    0    0 -0.57580449650E+00 -0.51252005536E+01 -0.60999776780E+01  0.79887497921E+01  0.10566000000E+00 0.  1.
         22    1    1    0    0    0  0.71340456049E+01  0.37503793493E+02  0.49472692548E+02  0.62489810697E+02  0.00000000000E+00 0. -1.
</event>
<event>
 4    1  0.9897231E-003  0.9118800E+02  0.7818608E-02  0.1130116E+00
         25   -1    0    0    0    0  0.00000000000E+00  0.00000000000E+00  0.99999998245E-14  0.12500000000E+03  0.12500000000E+03 0.  0.
        -13    1    1    0    0    0 -0.33798514201E+02  0.28112320621E+02  0.78841153637E+01  0.44663324686E+02  0.10566000000E+00 0.  1.
         13    1    1    0    0    0 -0.14949937268E+02  0.98983221952E+01  0.60600416394E+00  0.17940340345E+02  0.10566000000E+00 0. -1.
         22    1    1    0    0    0  0.48748451470E+02 -0.38010642816E+02 -0.84901195276E+01  0.62396334969E+02  0.00000000000E+00 0.  1.
</event>
<event>
 4    1  0.9897231E-003  0.9118800E+02  0.7818608E-02  0.1130116E+00
         25   -1    0    0    0    0  0.00000000000E+00  0.00000000000E+00  0.99999998245E-14  0.12500000000E+03  0.12500000000E+03 0.  0.
        -13    1    1    0    0    0 -0.36419930835E+02  0.25197901676E+02 -0.26279374219E+00  0.44287987485E+02  0.10566000000E+00 0. -1.
         13    1    1    0    0    0 -0.11361755521E+02  0.14581647255E+02 -0.11647313188E+01  0.18522464422E+02  0.10566000000E+00 0.  1.
         22    1    1    0    0    0  0.47781686356E+02 -0.39779548931E+02  0.14275250610E+01  0.62189548093E+02  0.00000000000E+00 0. -1.
</event>
<event>
 4    1  0.9897231E-003  0.9118800E+02  0.7818608E-02  0.1130116E+00
         25   -1    0    0    0    0  0.00000000000E+00  0.00000000000E+00  0.99999998245E-14  0.12500000000E+03  0.12500000000E+03 0.  0.
        -13    1    1    0    0    0 -0.80821321001E+01  0.96503789549E+01  0.12332676018E+02  0.17622619983E+02  0.10566000000E+00 0. -1.
         13    1    1    0    0    0 -0.22917775740E+02  0.23842721576E+02  0.30352752768E+02  0.44888757854E+02  0.10566000000E+00 0.  1.
         22    1    1    0    0    0  0.30999907840E+02 -0.33493100531E+02 -0.42685428786E+02  0.62488622164E+02  0.00000000000E+00 0.  1.
</event>
<event>
 4    1  0.9897231E-003  0.9118800E+02  0.7818608E-02  0.1130116E+00
         25   -1    0    0    0    0  0.00000000000E+00  0.00000000000E+00  0.99999998245E-14  0.12500000000E+03  0.12500000000E+03 0.  0.
        -13    1    1    0    0    0  0.33007317865E+02 -0.77722018989E+00 -0.29403827313E+02  0.44211800784E+02  0.10566000000E+00 0.  1.
         13    1    1    0    0    0  0.13236735065E+02 -0.37886532711E+00 -0.12618890998E+02  0.18292136786E+02  0.10566000000E+00 0. -1.
         22    1    1    0    0    0 -0.46244052931E+02  0.11560855170E+01  0.42022718310E+02  0.62496062431E+02  0.00000000000E+00 0.  1.
</event>
<event>
 4    1  0.9897231E-003  0.9118800E+02  0.7818608E-02  0.1130116E+00
         25   -1    0    0    0    0  0.00000000000E+00  0.00000000000E+00  0.99999998245E-14  0.12500000000E+03  0.12500000000E+03 0.  0.
        -13    1    1    0    0    0 -0.39941560661E+02 -0.12705556259E+02 -0.26044875178E+02  0.49346794374E+02  0.10566000000E+00 0.  1.
         13    1    1    0    0    0 -0.71892284149E+01  0.10091622802E-01 -0.11848937014E+02  0.13859782806E+02  0.10566000000E+00 0. -1.
         22    1    1    0    0    0  0.47130789076E+02  0.12695464637E+02  0.37893812192E+02  0.61793422819E+02  0.00000000000E+00 0.  1.
</event>
<event>
 4    1  0.9897231E-003  0.9118800E+02  0.7818608E-02  0.1130116E+00
         25   -1    0    0    0    0  0.00000000000E+00  0.00000000000E+00  0.99999998245E-14  0.12500000000E+03  0.12500000000E+03 0.  0.
        -13    1    1    0    0    0  0.17629141308E+02  0.26315884907E+02 -0.10337707033E+02  0.33319540400E+02  0.10566000000E+00 0.  1.
         13    1    1    0    0    0 -0.93571367408E+00 -0.11066897108E+02 -0.37316631354E+02  0.38934482292E+02  0.10566000000E+00 0. -1.
         22    1    1    0    0    0 -0.16693427634E+02 -0.15248987799E+02  0.47654338387E+02  0.52745977308E+02  0.00000000000E+00 0. -1.
</event>
<event>
 4    1  0.9897231E-003  0.9118800E+02  0.7818608E-02  0.1130116E+00
         25   -1    0    0    0    0  0.00000000000E+00  0.00000000000E+00  0.99999998245E-14  0.12500000000E+03  0.12500000000E+03 0.  0.
        -13    1    1    0    0    0 -0.22995184945E+02  0.17682284270E+02 -0.50065617110E+02  0.57862067784E+02  0.10566000000E+00 0. -1.
         13    1    1    0    0    0 -0.19310153588E+01  0.14672580446E+01 -0.39534771069E+01  0.46392684505E+01  0.10566000000E+00 0. -1.
         22    1    1    0    0    0  0.24926200303E+02 -0.19149542314E+02  0.54019094217E+02  0.62498663765E+02  0.00000000000E+00 0. -1.
</event>
<event>
 4    1  0.9897231E-003  0.9118800E+02  0.7818608E-02  0.1130116E+00
         25   -1    0    0    0    0  0.00000000000E+00  0.00000000000E+00  0.99999998245E-14  0.12500000000E+03  0.12500000000E+03 0.  0.
        -13    1    1    0    0    0 -0.54145927855E+01  0.36961850652E+02 -0.24540484739E+02  0.44696115871E+02  0.10566000000E+00 0.  1.
         13    1    1    0    0    0 -0.13456398303E+01  0.14130222900E+02 -0.10780709164E+02  0.17824387784E+02  0.10566000000E+00 0. -1.
         22    1    1    0    0    0  0.67602326157E+01 -0.51092073552E+02  0.35321193903E+02  0.62479496346E+02  0.00000000000E+00 0. -1.
</event>
<event>
 4    1  0.9897231E-003  0.9118800E+02  0.7818608E-02  0.1130116E+00
         25   -1    0    0    0    0  0.00000000000E+00  0.00000000000E+00  0.99999998245E-14  0.12500000000E+03  0.12500000000E+03 0.  0.
        -13    1    1    0    0    0  0.54678997607E+02 -0.14500421071E+02  0.14089133904E+02  0.58297254213E+02  0.10566000000E+00 0. -1.
         13    1    1    0    0    0  0.32351567211E+01  0.77012263964E+00  0.33089971074E+01  0.46925423581E+01  0.10566000000E+00 0.  1.
         22    1    1    0    0    0 -0.57914154329E+02  0.13730298431E+02 -0.17398131011E+02  0.62010203429E+02  0.00000000000E+00 0. -1.
</event>
<event>
 4    1  0.9897231E-003  0.9118800E+02  0.7818608E-02  0.1130116E+00
         25   -1    0    0    0    0  0.00000000000E+00  0.00000000000E+00  0.99999998245E-14  0.12500000000E+03  0.12500000000E+03 0.  0.
        -13    1    1    0    0    0 -0.21385881446E+00  0.55547389351E+00 -0.53397174809E+00  0.80658335109E+00  0.10566000000E+00 0.  1.
         13    1    1    0    0    0 -0.15601586345E+02  0.41843209892E+02 -0.42570658584E+02  0.61697129972E+02  0.10566000000E+00 0.  1.
         22    1    1    0    0    0  0.15815445159E+02 -0.42398683786E+02  0.43104630332E+02  0.62496286677E+02  0.00000000000E+00 0.  1.
</event>
<event>
 4    1  0.9897231E-003  0.9118800E+02  0.7818608E-02  0.1130116E+00
         25   -1    0    0    0    0  0.00000000000E+00  0.00000000000E+00  0.99999998245E-14  0.12500000000E+03  0.12500000000E+03 0.  0.
        -13    1    1    0    0    0  0.21383807748E+01 -0.78548954809E+01  0.45836277655E+01  0.93430649619E+01  0.10566000000E+00 0.  1.
         13    1    1    0    0    0  0.19113500448E+02 -0.44445063208E+02  0.22130860715E+02  0.53202215207E+02  0.10566000000E+00 0. -1.
         22    1    1    0    0    0 -0.21251881223E+02  0.52299958689E+02 -0.26714488480E+02  0.62454719831E+02  0.00000000000E+00 0. -1.
</event>
<event>
 4    1  0.9897231E-003  0.9118800E+02  0.7818608E-02  0.1130116E+00
         25   -1    0    0    0    0  0.00000000000E+00  0.00000000000E+00  0.99999998245E-14  0.12500000000E+03  0.12500000000E+03 0.  0.
        -13    1    1    0    0    0  0.18811280821E+01 -0.21443475966E+02 -0.25509762931E+02  0.33378443241E+02  0.10566000000E+00 0. -1.
         13    1    1    0    0    0  0.17071706103E+01 -0.18482211573E+02 -0.22440626161E+02  0.29122146945E+02  0.10566000000E+00 0. -1.
         22    1    1    0    0    0 -0.35882986924E+01  0.39925687540E+02  0.47950389092E+02  0.62499409814E+02  0.00000000000E+00 0. -1.
</event>
<event>
 4    1  0.9897231E-003  0.9118800E+02  0.7818608E-02  0.1130116E+00
         25   -1    0    0    0    0  0.00000000000E+00  0.00000000000E+00  0.99999998245E-14  0.12500000000E+03  0.12500000000E+03 0.  0.
        -13    1    1    0    0    0 -0.13053406396E+02  0.13018568693E+02 -0.50381004519E+02  0.53648218328E+02  0.10566000000E+00 0. -1.
         13    1    1    0    0    0 -0.21092375912E+01  0.22269663065E+01 -0.83032933060E+01  0.88523503042E+01  0.10566000000E+00 0.  1.
         22    1    1    0    0    0  0.15162643988E+02 -0.15245535000E+02  0.58684297825E+02  0.62499431368E+02  0.00000000000E+00 0. -1.
</event>
<event>
 4    1  0.9897231E-003  0.9118800E+02  0.7818608E-02  0.1130116E+00
         25   -1    0    0    0    0  0.00000000000E+00  0.00000000000E+00  0.99999998245E-14  0.12500000000E+03  0.12500000000E+03 0.  0.
        -13    1    1    0    0    0  0.23453344508E+01 -0.49437455400E+02  0.17791050924E+02  0.52593680676E+02  0.10566000000E+00 0. -1.
         13    1    1    0    0    0  0.31103234045E+00 -0.92997031015E+01  0.33996558033E+01  0.99070703293E+01  0.10566000000E+00 0.  1.
         22    1    1    0    0    0 -0.26563667913E+01  0.58737158501E+02 -0.21190706727E+02  0.62499248995E+02  0.00000000000E+00 0. -1.
</event>
<event>
 4    1  0.9897231E-003  0.9118800E+02  0.7818608E-02  0.1130116E+00
         25   -1    0    0    0    0  0.00000000000E+00  0.00000000000E+00  0.99999998245E-14  0.12500000000E+03  0.12500000000E+03 0.  0.
        -13    1    1    0    0    0 -0.13845629138E+02  0.13003803482E+02 -0.95160403428E+01  0.21245388654E+02  0.10566000000E+00 0.  1.
         13    1    1    0    0    0 -0.27636838295E+02  0.25213203423E+02 -0.17399475993E+02  0.41258373534E+02  0.10566000000E+00 0.  1.
         22    1    1    0    0    0  0.41482467434E+02 -0.38217006904E+02  0.26915516335E+02  0.62496237812E+02  0.00000000000E+00 0.  1.
</event>
<event>
 4    1  0.9897231E-003  0.9118800E+02  0.7818608E-02  0.1130116E+00
         25   -1    0    0    0    0  0.00000000000E+00  0.00000000000E+00  0.99999998245E-14  0.12500000000E+03  0.12500000000E+03 0.  0.
        -13    1    1    0    0    0 -0.23809713302E+01 -0.35123467347E+02 -0.71094265324E+00  0.35211412730E+02  0.10566000000E+00 0.  1.
         13    1    1    0    0    0  0.45727446359E+01 -0.26667930136E+02 -0.56207254365E+01  0.27634981631E+02  0.10566000000E+00 0. -1.
         22    1    1    0    0    0 -0.21917733057E+01  0.61791397483E+02  0.63316680897E+01  0.62153605639E+02  0.00000000000E+00 0. -1.
</event>
<event>
 4    1  0.9897231E-003  0.9118800E+02  0.7818608E-02  0.1130116E+00
         25   -1    0    0    0    0  0.00000000000E+00  0.00000000000E+00  0.99999998245E-14  0.12500000000E+03  0.12500000000E+03 0.  0.
        -13    1    1    0    0    0  0.12647818009E+01  0.29617389712E+02  0.30976269722E+01  0.29805970933E+02  0.10566000000E+00 0. -1.
         13    1    1    0    0    0  0.33375230687E+01  0.32492683865E+02  0.18595628776E+01  0.32716703732E+02  0.10566000000E+00 0.  1.
         22    1    1    0    0    0 -0.46023048696E+01 -0.62110073577E+02 -0.49571898498E+01  0.62477325335E+02  0.00000000000E+00 0.  1.
</event>
<event>
 4    1  0.9897231E-003  0.9118800E+02  0.7818608E-02  0.1130116E+00
         25   -1    0    0    0    0  0.00000000000E+00  0.00000000000E+00  0.99999998245E-14  0.12500000000E+03  0.12500000000E+03 0.  0.
        -13    1    1    0    0    0 -0.23646186435E+02  0.22370250790E+01  0.38404409677E+02  0.45155910586E+02  0.10566000000E+00 0.  1.
         13    1    1    0    0    0 -0.92310180769E+01  0.66669073249E+00  0.14669070287E+02  0.17344998080E+02  0.10566000000E+00 0.  1.
         22    1    1    0    0    0  0.32877204512E+02 -0.29037158115E+01 -0.53073479965E+02  0.62499091334E+02  0.00000000000E+00 0.  1.
</event>
<event>
 4    1  0.9897231E-003  0.9118800E+02  0.7818608E-02  0.1130116E+00
         25   -1    0    0    0    0  0.00000000000E+00  0.00000000000E+00  0.99999998245E-14  0.12500000000E+03  0.12500000000E+03 0.  0.
        -13    1    1    0    0    0  0.22322259487E+02 -0.64248295233E+01 -0.21503582347E+02  0.31654019031E+02  0.10566000000E+00 0.  1.
         13    1    1    0    0    0  0.21805291592E+02 -0.61021207951E+01 -0.20946953963E+02  0.30846274717E+02  0.10566000000E+00 0.  1.
         22    1    1    0    0    0 -0.44127551079E+02  0.12526950318E+02  0.42450536310E+02  0.62499706251E+02  0.00000000000E+00 0.  1.
</event>
<event>
 4    1  0.9897231E-003  0.9118800E+02  0.7818608E-02  0.1130116E+00
         25   -1    0    0    0    0  0.00000000000E+00  0.00000000000E+00  0.99999998245E-14  0.12500000000E+03  0.12500000000E+03 0.  0.
        -13    1    1    0    0    0 -0.67435707607E+01 -0.80246933851E+01  0.48722232149E+00  0.10493807705E+02  0.10566000000E+00 0. -1.
         13    1    1    0    0    0 -0.34915756435E+02 -0.38045632984E+02 -0.67513708872E+01  0.52078521575E+02  0.10566000000E+00 0.  1.
         22    1    1    0    0    0  0.41659327196E+02  0.46070326369E+02  0.62641485657E+01  0.62427670719E+02  0.00000000000E+00 0.  1.
</event>
<event>
 4    1  0.9897231E-003  0.9118800E+02  0.7818608E-02  0.1130116E+00
         25   -1    0    0    0    0  0.00000000000E+00  0.00000000000E+00  0.99999998245E-14  0.12500000000E+03  0.12500000000E+03 0.  0.
        -13    1    1    0    0    0 -0.22858280264E+01 -0.39154009064E+01 -0.25236360768E+01  0.51899207227E+01  0.10566000000E+00 0.  1.
         13    1    1    0    0    0 -0.17750234604E+02 -0.48285643107E+02 -0.25329511670E+02  0.57342562589E+02  0.10566000000E+00 0. -1.
         22    1    1    0    0    0  0.20036062631E+02  0.52201044013E+02  0.27853147747E+02  0.62467516689E+02  0.00000000000E+00 0. -1.
</event>
<event>
 4    1  0.9897231E-003  0.9118800E+02  0.7818608E-02  0.1130116E+00
         25   -1    0    0    0    0  0.00000000000E+00  0.00000000000E+00  0.99999998245E-14  0.12500000000E+03  0.12500000000E+03 0.  0.
        -13    1    1    0    0    0  0.14173007039E+00 -0.11560767988E+00  0.49480393457E+00  0.53800326929E+00  0.10566000000E+00 0.  1.
         13    1    1    0    0    0  0.27568149155E+02 -0.10857997562E+02 -0.54924482044E+02  0.62406801318E+02  0.10566000000E+00 0. -1.
         22    1    1    0    0    0 -0.27709879225E+02  0.10973605241E+02  0.54429678109E+02  0.62055195413E+02  0.00000000000E+00 0. -1.
</event>
<event>
 4    1  0.9897231E-003  0.9118800E+02  0.7818608E-02  0.1130116E+00
         25   -1    0    0    0    0  0.00000000000E+00  0.00000000000E+00  0.99999998245E-14  0.12500000000E+03  0.12500000000E+03 0.  0.
        -13    1    1    0    0    0 -0.71921255226E+01  0.61665539518E+01 -0.56047906017E+01  0.11008083344E+02  0.10566000000E+00 0. -1.
         13    1    1    0    0    0 -0.18671607877E+02  0.27411261641E+02 -0.39847511379E+02  0.51844397312E+02  0.10566000000E+00 0.  1.
         22    1    1    0    0    0  0.25863733400E+02 -0.33577815593E+02  0.45452301981E+02  0.62147519345E+02  0.00000000000E+00 0.  1.
</event>
<event>
 4    1  0.9897231E-003  0.9118800E+02  0.7818608E-02  0.1130116E+00
         25   -1    0    0    0    0  0.00000000000E+00  0.00000000000E+00  0.99999998245E-14  0.12500000000E+03  0.12500000000E+03 0.  0.
        -13    1    1    0    0    0 -0.22760993299E+00  0.46448181159E+01  0.13221273935E+01  0.48358377239E+01  0.10566000000E+00 0. -1.
         13    1    1    0    0    0  0.26723775062E+02  0.75500451372E+01 -0.53562050817E+02  0.60332974292E+02  0.10566000000E+00 0.  1.
         22    1    1    0    0    0 -0.26496165129E+02 -0.12194863253E+02  0.52239923424E+02  0.59831187984E+02  0.00000000000E+00 0.  1.
</event>
<event>
 4    1  0.9897231E-003  0.9118800E+02  0.7818608E-02  0.1130116E+00
         25   -1    0    0    0    0  0.00000000000E+00  0.00000000000E+00  0.99999998245E-14  0.12500000000E+03  0.12500000000E+03 0.  0.
        -13    1    1    0    0    0  0.41733103150E+02 -0.10671298756E+02  0.17786237836E+02  0.46603539952E+02  0.10566000000E+00 0.  1.
         13    1    1    0    0    0  0.14330688369E+02 -0.36268672787E+01  0.58474260866E+01  0.15897369319E+02  0.10566000000E+00 0. -1.
         22    1    1    0    0    0 -0.56063791519E+02  0.14298166035E+02 -0.23633663922E+02  0.62499090729E+02  0.00000000000E+00 0.  1.
</event>
<event>
 4    1  0.9897231E-003  0.9118800E+02  0.7818608E-02  0.1130116E+00
         25   -1    0    0    0    0  0.00000000000E+00  0.00000000000E+00  0.99999998245E-14  0.12500000000E+03  0.12500000000E+03 0.  0.
        -13    1    1    0    0    0  0.53832925277E+01 -0.89697309216E+01  0.37446267472E+02  0.38880200911E+02  0.10566000000E+00 0.  1.
         13    1    1    0    0    0  0.47003823563E+01 -0.24341354509E+01  0.23094993100E+02  0.23694060015E+02  0.10566000000E+00 0. -1.
         22    1    1    0    0    0 -0.10083674884E+02  0.11403866373E+02 -0.60541260571E+02  0.62425739074E+02  0.00000000000E+00 0.  1.
</event>
<event>
 4    1  0.9897231E-003  0.9118800E+02  0.7818608E-02  0.1130116E+00
         25   -1    0    0    0    0  0.00000000000E+00  0.00000000000E+00  0.99999998245E-14  0.12500000000E+03  0.12500000000E+03 0.  0.
        -13    1    1    0    0    0  0.14517554812E+01  0.35027106623E+01  0.18448202907E+01  0.42179499643E+01  0.10566000000E+00 0.  1.
         13    1    1    0    0    0  0.49096170396E+02  0.29385707768E+02  0.12999205578E+02  0.58676607590E+02  0.10566000000E+00 0. -1.
         22    1    1    0    0    0 -0.50547925878E+02 -0.32888418430E+02 -0.14844025869E+02  0.62105442445E+02  0.00000000000E+00 0. -1.
</event>
<event>
 4    1  0.9897231E-003  0.9118800E+02  0.7818608E-02  0.1130116E+00
         25   -1    0    0    0    0  0.00000000000E+00  0.00000000000E+00  0.99999998245E-14  0.12500000000E+03  0.12500000000E+03 0.  0.
        -13    1    1    0    0    0 -0.17251864684E+02  0.12007852859E+02 -0.15480111713E+02  0.26104796265E+02  0.10566000000E+00 0.  1.
         13    1    1    0    0    0 -0.24105855534E+02  0.16783625236E+02 -0.21490310490E+02  0.36395424933E+02  0.10566000000E+00 0.  1.
         22    1    1    0    0    0  0.41357720217E+02 -0.28791478094E+02  0.36970422203E+02  0.62499778802E+02  0.00000000000E+00 0.  1.
</event>
<event>
 4    1  0.9897231E-003  0.9118800E+02  0.7818608E-02  0.1130116E+00
         25   -1    0    0    0    0  0.00000000000E+00  0.00000000000E+00  0.99999998245E-14  0.12500000000E+03  0.12500000000E+03 0.  0.
        -13    1    1    0    0    0 -0.45439760084E+02  0.51998056351E+01 -0.16316417890E+02  0.48559720262E+02  0.10566000000E+00 0.  1.
         13    1    1    0    0    0 -0.12873144546E+02  0.12520482414E+01 -0.52139203085E+01  0.13945666148E+02  0.10566000000E+00 0. -1.
         22    1    1    0    0    0  0.58312904630E+02 -0.64518538764E+01  0.21530338198E+02  0.62494613590E+02  0.00000000000E+00 0.  1.
</event>
<event>
 4    1  0.9897231E-003  0.9118800E+02  0.7818608E-02  0.1130116E+00
         25   -1    0    0    0    0  0.00000000000E+00  0.00000000000E+00  0.99999998245E-14  0.12500000000E+03  0.12500000000E+03 0.  0.
        -13    1    1    0    0    0 -0.48470516000E+02 -0.23896818820E+02  0.16806513904E+02  0.56594336684E+02  0.10566000000E+00 0. -1.
         13    1    1    0    0    0 -0.48784414510E+01 -0.26735376960E+01  0.19951162804E+01  0.59108923024E+01  0.10566000000E+00 0.  1.
         22    1    1    0    0    0  0.53348957451E+02  0.26570356516E+02 -0.18801630184E+02  0.62494771014E+02  0.00000000000E+00 0. -1.
</event>
<event>
 4    1  0.9897231E-003  0.9118800E+02  0.7818608E-02  0.1130116E+00
         25   -1    0    0    0    0  0.00000000000E+00  0.00000000000E+00  0.99999998245E-14  0.12500000000E+03  0.12500000000E+03 0.  0.
        -13    1    1    0    0    0 -0.20851773737E+02  0.20270419839E+02  0.71898765101E+00  0.29089766168E+02  0.10566000000E+00 0.  1.
         13    1    1    0    0    0 -0.24033326408E+02  0.23185829697E+02  0.10369320112E+01  0.33410625091E+02  0.10566000000E+00 0.  1.
         22    1    1    0    0    0  0.44885100145E+02 -0.43456249537E+02 -0.17559196622E+01  0.62499608740E+02  0.00000000000E+00 0.  1.
</event>
<event>
 4    1  0.9897231E-003  0.9118800E+02  0.7818608E-02  0.1130116E+00
         25   -1    0    0    0    0  0.00000000000E+00  0.00000000000E+00  0.99999998245E-14  0.12500000000E+03  0.12500000000E+03 0.  0.
        -13    1    1    0    0    0  0.34074723053E+02  0.13509607831E+02  0.25391716918E+01  0.36743092028E+02  0.10566000000E+00 0. -1.
         13    1    1    0    0    0  0.23480496435E+02  0.10638053927E+02  0.24279580338E+00  0.25779294366E+02  0.10566000000E+00 0.  1.
         22    1    1    0    0    0 -0.57555219488E+02 -0.24147661758E+02 -0.27819674951E+01  0.62477613605E+02  0.00000000000E+00 0.  1.
</event>
<event>
 4    1  0.9897231E-003  0.9118800E+02  0.7818608E-02  0.1130116E+00
         25   -1    0    0    0    0  0.00000000000E+00  0.00000000000E+00  0.99999998245E-14  0.12500000000E+03  0.12500000000E+03 0.  0.
        -13    1    1    0    0    0  0.18878271108E+02  0.47969287317E+00 -0.50464755527E+02  0.53882482680E+02  0.10566000000E+00 0. -1.
         13    1    1    0    0    0  0.23926769852E+01 -0.70206967908E+00 -0.82757634461E+01  0.86439128663E+01  0.10566000000E+00 0.  1.
         22    1    1    0    0    0 -0.21270948093E+02  0.22237680591E+00  0.58740518973E+02  0.62473604454E+02  0.00000000000E+00 0. -1.
</event>
<event>
 4    1  0.9897231E-003  0.9118800E+02  0.7818608E-02  0.1130116E+00
         25   -1    0    0    0    0  0.00000000000E+00  0.00000000000E+00  0.99999998245E-14  0.12500000000E+03  0.12500000000E+03 0.  0.
        -13    1    1    0    0    0 -0.25418994905E+02 -0.49792573395E+02  0.15237020761E+02  0.57944832669E+02  0.10566000000E+00 0.  1.
         13    1    1    0    0    0 -0.19912158066E+01 -0.39164096480E+01  0.12005123258E+01  0.45558312962E+01  0.10566000000E+00 0.  1.
         22    1    1    0    0    0  0.27410210712E+02  0.53708983043E+02 -0.16437533087E+02  0.62499336035E+02  0.00000000000E+00 0.  1.
</event>
<event>
 4    1  0.9897231E-003  0.9118800E+02  0.7818608E-02  0.1130116E+00
         25   -1    0    0    0    0  0.00000000000E+00  0.00000000000E+00  0.99999998245E-14  0.12500000000E+03  0.12500000000E+03 0.  0.
        -13    1    1    0    0    0 -0.72576073040E+00  0.10474477709E+02 -0.21949470523E+01  0.10727085741E+02  0.10566000000E+00 0. -1.
         13    1    1    0    0    0  0.34302547664E+02 -0.39853142436E+02  0.31120226243E+02  0.61101697061E+02  0.10566000000E+00 0.  1.
         22    1    1    0    0    0 -0.33576786934E+02  0.29378664728E+02 -0.28925279190E+02  0.53171217197E+02  0.00000000000E+00 0.  1.
</event>
<event>
 4    1  0.9897231E-003  0.9118800E+02  0.7818608E-02  0.1130116E+00
         25   -1    0    0    0    0  0.00000000000E+00  0.00000000000E+00  0.99999998245E-14  0.12500000000E+03  0.12500000000E+03 0.  0.
        -13    1    1    0    0    0  0.14051008039E+01 -0.17052180131E+01  0.14060700908E+01  0.26211207292E+01  0.10566000000E+00 0. -1.
         13    1    1    0    0    0  0.12685606060E+02 -0.53415004039E+02  0.24189546697E+02  0.59993604584E+02  0.10566000000E+00 0.  1.
         22    1    1    0    0    0 -0.14090706864E+02  0.55120222052E+02 -0.25595616788E+02  0.62385274687E+02  0.00000000000E+00 0.  1.
</event>
<event>
 4    1  0.9897231E-003  0.9118800E+02  0.7818608E-02  0.1130116E+00
         25   -1    0    0    0    0  0.00000000000E+00  0.00000000000E+00  0.99999998245E-14  0.12500000000E+03  0.12500000000E+03 0.  0.
        -13    1    1    0    0    0 -0.40814562588E+02 -0.14301717567E+02  0.32895265529E+02  0.54336703092E+02  0.10566000000E+00 0. -1.
         13    1    1    0    0    0 -0.94600397882E+01 -0.84661629040E+00 -0.85778005498E+01  0.12798395925E+02  0.10566000000E+00 0.  1.
         22    1    1    0    0    0  0.50274602377E+02  0.15148333858E+02 -0.24317464979E+02  0.57864900983E+02  0.00000000000E+00 0. -1.
</event>
<event>
 4    1  0.9897231E-003  0.9118800E+02  0.7818608E-02  0.1130116E+00
         25   -1    0    0    0    0  0.00000000000E+00  0.00000000000E+00  0.99999998245E-14  0.12500000000E+03  0.12500000000E+03 0.  0.
        -13    1    1    0    0    0  0.25377186002E+02 -0.84985116400E+00  0.19995263364E+02  0.32319429720E+02  0.10566000000E+00 0.  1.
         13    1    1    0    0    0  0.14843669334E+02 -0.67038041897E+01  0.26272079944E+02  0.30911306322E+02  0.10566000000E+00 0. -1.
         22    1    1    0    0    0 -0.40220855336E+02  0.75536553536E+01 -0.46267343308E+02  0.61769263958E+02  0.00000000000E+00 0. -1.
</event>
<event>
 4    1  0.9897231E-003  0.9118800E+02  0.7818608E-02  0.1130116E+00
         25   -1    0    0    0    0  0.00000000000E+00  0.00000000000E+00  0.99999998245E-14  0.12500000000E+03  0.12500000000E+03 0.  0.
        -13    1    1    0    0    0 -0.35665427143E+02  0.36730691693E+02  0.51193183969E+01  0.51452745218E+02  0.10566000000E+00 0. -1.
         13    1    1    0    0    0 -0.75373270426E+01  0.79959486586E+01  0.11413125784E+01  0.11048088176E+02  0.10566000000E+00 0.  1.
         22    1    1    0    0    0  0.43202754186E+02 -0.44726640351E+02 -0.62606309753E+01  0.62499166607E+02  0.00000000000E+00 0. -1.
</event>
<event>
 4    1  0.9897231E-003  0.9118800E+02  0.7818608E-02  0.1130116E+00
         25   -1    0    0    0    0  0.00000000000E+00  0.00000000000E+00  0.99999998245E-14  0.12500000000E+03  0.12500000000E+03 0.  0.
        -13    1    1    0    0    0 -0.15107640989E+01  0.44300898618E+01  0.14856835208E+02  0.15577060724E+02  0.10566000000E+00 0. -1.
         13    1    1    0    0    0 -0.49694477007E+01  0.13668461988E+02  0.44612650159E+02  0.46923575969E+02  0.10566000000E+00 0. -1.
         22    1    1    0    0    0  0.64802117996E+01 -0.18098551849E+02 -0.59469485367E+02  0.62499363307E+02  0.00000000000E+00 0. -1.
</event>
<event>
 4    1  0.9897231E-003  0.9118800E+02  0.7818608E-02  0.1130116E+00
         25   -1    0    0    0    0  0.00000000000E+00  0.00000000000E+00  0.99999998245E-14  0.12500000000E+03  0.12500000000E+03 0.  0.
        -13    1    1    0    0    0  0.11200997129E+02 -0.10449973281E+02 -0.20639413753E+01  0.15457532025E+02  0.10566000000E+00 0.  1.
         13    1    1    0    0    0  0.41007178178E+02 -0.23458824662E+02 -0.29937979067E+00  0.47244109780E+02  0.10566000000E+00 0. -1.
         22    1    1    0    0    0 -0.52208175307E+02  0.33908797943E+02  0.23633211660E+01  0.62298358195E+02  0.00000000000E+00 0. -1.
</event>
<event>
 4    1  0.9897231E-003  0.9118800E+02  0.7818608E-02  0.1130116E+00
         25   -1    0    0    0    0  0.00000000000E+00  0.00000000000E+00  0.99999998245E-14  0.12500000000E+03  0.12500000000E+03 0.  0.
        -13    1    1    0    0    0 -0.18411241059E+02  0.60892064721E+01  0.17730186409E+02  0.26275899736E+02  0.10566000000E+00 0.  1.
         13    1    1    0    0    0 -0.26380644059E+02 -0.34706352797E+02 -0.12287335387E+02  0.45293035672E+02  0.10566000000E+00 0. -1.
         22    1    1    0    0    0  0.44791885118E+02  0.28617146325E+02 -0.54428510229E+01  0.53431064592E+02  0.00000000000E+00 0. -1.
</event>
<event>
 4    1  0.9897231E-003  0.9118800E+02  0.7818608E-02  0.1130116E+00
         25   -1    0    0    0    0  0.00000000000E+00  0.00000000000E+00  0.99999998245E-14  0.12500000000E+03  0.12500000000E+03 0.  0.
        -13    1    1    0    0    0 -0.43300868734E+02  0.35512511811E+02  0.25814865513E+02  0.61664594167E+02  0.10566000000E+00 0. -1.
         13    1    1    0    0    0  0.84092509849E+01 -0.20186363165E+01 -0.80342381110E+01  0.11804683001E+02  0.10566000000E+00 0.  1.
         22    1    1    0    0    0  0.34891617749E+02 -0.33493875495E+02 -0.17780627402E+02  0.51530722832E+02  0.00000000000E+00 0. -1.
</event>
<event>
 4    1  0.9897231E-003  0.9118800E+02  0.7818608E-02  0.1130116E+00
         25   -1    0    0    0    0  0.00000000000E+00  0.00000000000E+00  0.99999998245E-14  0.12500000000E+03  0.12500000000E+03 0.  0.
        -13    1    1    0    0    0 -0.14683850833E+02  0.17539564889E+02  0.12814633638E+02  0.26219798075E+02  0.10566000000E+00 0. -1.
         13    1    1    0    0    0 -0.20586478762E+02  0.23938941323E+02  0.17872363139E+02  0.36280966741E+02  0.10566000000E+00 0.  1.
         22    1    1    0    0    0  0.35270329595E+02 -0.41478506213E+02 -0.30686996776E+02  0.62499235183E+02  0.00000000000E+00 0. -1.
</event>
<event>
 4    1  0.9897231E-003  0.9118800E+02  0.7818608E-02  0.1130116E+00
         25   -1    0    0    0    0  0.00000000000E+00  0.00000000000E+00  0.99999998245E-14  0.12500000000E+03  0.12500000000E+03 0.  0.
        -13    1    1    0    0    0 -0.13689170697E-01 -0.27011096826E-01 -0.58810710166E+00  0.59829005622E+00  0.10566000000E+00 0. -1.
         13    1    1    0    0    0 -0.14626123483E+02 -0.84764316357E+01 -0.59561884369E+02  0.61914478234E+02  0.10566000000E+00 0.  1.
         22    1    1    0    0    0  0.14639812654E+02  0.85034427326E+01  0.60149991470E+02  0.62487231710E+02  0.00000000000E+00 0.  1.
</event>
<event>
 4    1  0.9897231E-003  0.9118800E+02  0.7818608E-02  0.1130116E+00
         25   -1    0    0    0    0  0.00000000000E+00  0.00000000000E+00  0.99999998245E-14  0.12500000000E+03  0.12500000000E+03 0.  0.
        -13    1    1    0    0    0  0.12713672197E+02 -0.82577688350E+01  0.17212847785E+02  0.22937338550E+02  0.10566000000E+00 0. -1.
         13    1    1    0    0    0  0.22071682530E+02 -0.13912626068E+02  0.29740749456E+02  0.39563160592E+02  0.10566000000E+00 0. -1.
         22    1    1    0    0    0 -0.34785354727E+02  0.22170394903E+02 -0.46953597241E+02  0.62499500858E+02  0.00000000000E+00 0. -1.
</event>
<event>
 4    1  0.9897231E-003  0.9118800E+02  0.7818608E-02  0.1130116E+00
         25   -1    0    0    0    0  0.00000000000E+00  0.00000000000E+00  0.99999998245E-14  0.12500000000E+03  0.12500000000E+03 0.  0.
        -13    1    1    0    0    0 -0.96155859100E+01  0.37978445899E+02 -0.46430252631E+02  0.60750319906E+02  0.10566000000E+00 0.  1.
         13    1    1    0    0    0  0.21311188390E+01  0.15332038749E+01 -0.24620679659E+00  0.26389701496E+01  0.10566000000E+00 0. -1.
         22    1    1    0    0    0  0.74844670710E+01 -0.39511649774E+02  0.46676459428E+02  0.61610709944E+02  0.00000000000E+00 0.  1.
</event>
<event>
 4    1  0.9897231E-003  0.9118800E+02  0.7818608E-02  0.1130116E+00
         25   -1    0    0    0    0  0.00000000000E+00  0.00000000000E+00  0.99999998245E-14  0.12500000000E+03  0.12500000000E+03 0.  0.
        -13    1    1    0    0    0  0.96931034629E+01 -0.23176313755E+02 -0.11673057870E+02  0.27701429893E+02  0.10566000000E+00 0.  1.
         13    1    1    0    0    0  0.18056246358E+02 -0.19964795179E+02 -0.22981330717E+02  0.35394544843E+02  0.10566000000E+00 0. -1.
         22    1    1    0    0    0 -0.27749349821E+02  0.43141108935E+02  0.34654388587E+02  0.61904025264E+02  0.00000000000E+00 0. -1.
</event>
<event>
 4    1  0.9897231E-003  0.9118800E+02  0.7818608E-02  0.1130116E+00
         25   -1    0    0    0    0  0.00000000000E+00  0.00000000000E+00  0.99999998245E-14  0.12500000000E+03  0.12500000000E+03 0.  0.
        -13    1    1    0    0    0 -0.23367328378E+02 -0.42291616822E+02  0.77254887878E+00  0.48324123217E+02  0.10566000000E+00 0. -1.
         13    1    1    0    0    0  0.22144684195E+01 -0.11990972373E+02  0.11918284300E+02  0.17051215602E+02  0.10566000000E+00 0.  1.
         22    1    1    0    0    0  0.21152859958E+02  0.54282589195E+02 -0.12690833179E+02  0.59624661180E+02  0.00000000000E+00 0. -1.
</event>
<event>
 4    1  0.9897231E-003  0.9118800E+02  0.7818608E-02  0.1130116E+00
         25   -1    0    0    0    0  0.00000000000E+00  0.00000000000E+00  0.99999998245E-14  0.12500000000E+03  0.12500000000E+03 0.  0.
        -13    1    1    0    0    0 -0.33155549619E+02  0.13940565377E+02 -0.35566944187E+02  0.50583085279E+02  0.10566000000E+00 0. -1.
         13    1    1    0    0    0 -0.74565658328E+01  0.36018645227E+01 -0.85756695235E+01  0.11921705997E+02  0.10566000000E+00 0. -1.
         22    1    1    0    0    0  0.40612115452E+02 -0.17542429900E+02  0.44142613710E+02  0.62495208724E+02  0.00000000000E+00 0. -1.
</event>
<event>
 4    1  0.9897231E-003  0.9118800E+02  0.7818608E-02  0.1130116E+00
         25   -1    0    0    0    0  0.00000000000E+00  0.00000000000E+00  0.99999998245E-14  0.12500000000E+03  0.12500000000E+03 0.  0.
        -13    1    1    0    0    0  0.56126000712E+01 -0.38656280297E+02  0.62006658025E+00  0.39066672914E+02  0.10566000000E+00 0.  1.
         13    1    1    0    0    0  0.17736387088E+02 -0.17509326459E+02 -0.27221337169E+01  0.25071440245E+02  0.10566000000E+00 0. -1.
         22    1    1    0    0    0 -0.23348987159E+02  0.56165606756E+02  0.21020671366E+01  0.60861886841E+02  0.00000000000E+00 0.  1.
</event>
<event>
 4    1  0.9897231E-003  0.9118800E+02  0.7818608E-02  0.1130116E+00
         25   -1    0    0    0    0  0.00000000000E+00  0.00000000000E+00  0.99999998245E-14  0.12500000000E+03  0.12500000000E+03 0.  0.
        -13    1    1    0    0    0  0.42209933325E+02 -0.29241009980E+02  0.36442162695E+01  0.51478214929E+02  0.10566000000E+00 0. -1.
         13    1    1    0    0    0  0.11180209624E+02 -0.23038684729E+01 -0.32530765234E+00  0.11420240202E+02  0.10566000000E+00 0.  1.
         22    1    1    0    0    0 -0.53390142949E+02  0.31544878453E+02 -0.33189086171E+01  0.62101544869E+02  0.00000000000E+00 0. -1.
</event>
<event>
 4    1  0.9897231E-003  0.9118800E+02  0.7818608E-02  0.1130116E+00
         25   -1    0    0    0    0  0.00000000000E+00  0.00000000000E+00  0.99999998245E-14  0.12500000000E+03  0.12500000000E+03 0.  0.
        -13    1    1    0    0    0  0.29221900644E+02 -0.12382177880E+01  0.11113042897E+02  0.31288393168E+02  0.10566000000E+00 0. -1.
         13    1    1    0    0    0  0.82668552089E+01  0.31775305142E+02  0.17826775475E+02  0.37360620976E+02  0.10566000000E+00 0.  1.
         22    1    1    0    0    0 -0.37488755853E+02 -0.30537087354E+02 -0.28939818372E+02  0.56350985855E+02  0.00000000000E+00 0.  1.
</event>
<event>
 4    1  0.9897231E-003  0.9118800E+02  0.7818608E-02  0.1130116E+00
         25   -1    0    0    0    0  0.00000000000E+00  0.00000000000E+00  0.99999998245E-14  0.12500000000E+03  0.12500000000E+03 0.  0.
        -13    1    1    0    0    0 -0.30737188953E+02  0.93911782038E+01 -0.53232288648E+01  0.32577859696E+02  0.10566000000E+00 0. -1.
         13    1    1    0    0    0 -0.28756987911E+02  0.75763239712E+01 -0.34454833181E+01  0.29937393974E+02  0.10566000000E+00 0.  1.
         22    1    1    0    0    0  0.59494176863E+02 -0.16967502175E+02  0.87687121829E+01  0.62484746331E+02  0.00000000000E+00 0. -1.
</event>
<event>
 4    1  0.9897231E-003  0.9118800E+02  0.7818608E-02  0.1130116E+00
         25   -1    0    0    0    0  0.00000000000E+00  0.00000000000E+00  0.99999998245E-14  0.12500000000E+03  0.12500000000E+03 0.  0.
        -13    1    1    0    0    0 -0.59709176058E+01 -0.61643082124E+01  0.14921835501E+01  0.87113907372E+01  0.10566000000E+00 0.  1.
         13    1    1    0    0    0 -0.39525401013E+02 -0.36078889183E+02  0.55671313153E+01  0.53804718055E+02  0.10566000000E+00 0. -1.
         22    1    1    0    0    0  0.45496318619E+02  0.42243197395E+02 -0.70593148654E+01  0.62483891207E+02  0.00000000000E+00 0. -1.
</event>
<event>
 4    1  0.9897231E-003  0.9118800E+02  0.7818608E-02  0.1130116E+00
         25   -1    0    0    0    0  0.00000000000E+00  0.00000000000E+00  0.99999998245E-14  0.12500000000E+03  0.12500000000E+03 0.  0.
        -13    1    1    0    0    0  0.53660910798E+01 -0.38186965538E+02 -0.20930512928E+02  0.43876380958E+02  0.10566000000E+00 0. -1.
         13    1    1    0    0    0  0.25248141282E+01 -0.16474572164E+02 -0.83191379453E+01  0.18628081881E+02  0.10566000000E+00 0.  1.
         22    1    1    0    0    0 -0.78909052080E+01  0.54661537702E+02  0.29249650873E+02  0.62495537162E+02  0.00000000000E+00 0. -1.
</event>
<event>
 4    1  0.9897231E-003  0.9118800E+02  0.7818608E-02  0.1130116E+00
         25   -1    0    0    0    0  0.00000000000E+00  0.00000000000E+00  0.99999998245E-14  0.12500000000E+03  0.12500000000E+03 0.  0.
        -13    1    1    0    0    0  0.51802393459E+01  0.36524458008E+02 -0.42090227362E+02  0.55968467157E+02  0.10566000000E+00 0. -1.
         13    1    1    0    0    0  0.41099112641E-01  0.46340368729E+01 -0.46281989368E+01  0.65503722269E+01  0.10566000000E+00 0.  1.
         22    1    1    0    0    0 -0.52213384586E+01 -0.41158494881E+02  0.46718426299E+02  0.62481160616E+02  0.00000000000E+00 0. -1.
</event>
<event>
 4    1  0.9897231E-003  0.9118800E+02  0.7818608E-02  0.1130116E+00
         25   -1    0    0    0    0  0.00000000000E+00  0.00000000000E+00  0.99999998245E-14  0.12500000000E+03  0.12500000000E+03 0.  0.
        -13    1    1    0    0    0 -0.57447313533E+00  0.17654727333E+00 -0.27891371405E+01  0.28551074142E+01  0.10566000000E+00 0.  1.
         13    1    1    0    0    0  0.65732427770E+00  0.68819692779E+01 -0.59276875659E+02  0.59678746034E+02  0.10566000000E+00 0. -1.
         22    1    1    0    0    0 -0.82851142368E-01 -0.70585165513E+01  0.62066012799E+02  0.62466146551E+02  0.00000000000E+00 0. -1.
</event>
<event>
 4    1  0.9897231E-003  0.9118800E+02  0.7818608E-02  0.1130116E+00
         25   -1    0    0    0    0  0.00000000000E+00  0.00000000000E+00  0.99999998245E-14  0.12500000000E+03  0.12500000000E+03 0.  0.
        -13    1    1    0    0    0 -0.54764863135E+01 -0.59735652212E+01  0.13537247756E+01  0.82170018010E+01  0.10566000000E+00 0. -1.
         13    1    1    0    0    0 -0.40631813944E+02 -0.35000047843E+02  0.85644673950E+01  0.54307540169E+02  0.10566000000E+00 0.  1.
         22    1    1    0    0    0  0.46108300257E+02  0.40973613064E+02 -0.99181921705E+01  0.62475458030E+02  0.00000000000E+00 0.  1.
</event>
<event>
 4    1  0.9897231E-003  0.9118800E+02  0.7818608E-02  0.1130116E+00
         25   -1    0    0    0    0  0.00000000000E+00  0.00000000000E+00  0.99999998245E-14  0.12500000000E+03  0.12500000000E+03 0.  0.
        -13    1    1    0    0    0 -0.42241884276E+01 -0.63188119844E+01 -0.46126291788E+01  0.88914939545E+01  0.10566000000E+00 0.  1.
         13    1    1    0    0    0  0.32408040735E+02 -0.28239991170E+02 -0.35789046624E+02  0.55934293844E+02  0.10566000000E+00 0. -1.
         22    1    1    0    0    0 -0.28183852308E+02  0.34558803155E+02  0.40401675802E+02  0.60174212201E+02  0.00000000000E+00 0. -1.
</event>
<event>
 4    1  0.9897231E-003  0.9118800E+02  0.7818608E-02  0.1130116E+00
         25   -1    0    0    0    0  0.00000000000E+00  0.00000000000E+00  0.99999998245E-14  0.12500000000E+03  0.12500000000E+03 0.  0.
        -13    1    1    0    0    0  0.89901574784E+01 -0.76765835829E+00  0.57561458529E+01  0.10703112162E+02  0.10566000000E+00 0.  1.
         13    1    1    0    0    0  0.42092934800E+02 -0.27615528241E+01  0.30069355464E+02  0.51803654660E+02  0.10566000000E+00 0. -1.
         22    1    1    0    0    0 -0.51083092279E+02  0.35292111824E+01 -0.35825501317E+02  0.62493233177E+02  0.00000000000E+00 0. -1.
</event>
<event>
 4    1  0.9897231E-003  0.9118800E+02  0.7818608E-02  0.1130116E+00
         25   -1    0    0    0    0  0.00000000000E+00  0.00000000000E+00  0.99999998245E-14  0.12500000000E+03  0.12500000000E+03 0.  0.
        -13    1    1    0    0    0 -0.42385782865E+02 -0.78407953073E+00 -0.28651235396E+02  0.51167116623E+02  0.10566000000E+00 0.  1.
         13    1    1    0    0    0 -0.93929384017E+01 -0.64031364028E-01 -0.63406190481E+01  0.11333402216E+02  0.10566000000E+00 0.  1.
         22    1    1    0    0    0  0.51778721266E+02  0.84811089476E+00  0.34991854444E+02  0.62499481162E+02  0.00000000000E+00 0.  1.
</event>
<event>
 4    1  0.9897231E-003  0.9118800E+02  0.7818608E-02  0.1130116E+00
         25   -1    0    0    0    0  0.00000000000E+00  0.00000000000E+00  0.99999998245E-14  0.12500000000E+03  0.12500000000E+03 0.  0.
        -13    1    1    0    0    0  0.41955372502E+02 -0.16410328010E+02  0.40778722094E+02  0.60765676881E+02  0.10566000000E+00 0.  1.
         13    1    1    0    0    0  0.16124617257E+01 -0.25691429684E+00  0.73117266390E+00  0.17921538084E+01  0.10566000000E+00 0. -1.
         22    1    1    0    0    0 -0.43567834228E+02  0.16667242307E+02 -0.41509894758E+02  0.62442169311E+02  0.00000000000E+00 0.  1.
</event>
<event>
 4    1  0.9897231E-003  0.9118800E+02  0.7818608E-02  0.1130116E+00
         25   -1    0    0    0    0  0.00000000000E+00  0.00000000000E+00  0.99999998245E-14  0.12500000000E+03  0.12500000000E+03 0.  0.
        -13    1    1    0    0    0 -0.23502302614E+02  0.80603490943E+00 -0.10970013719E+02  0.25949186605E+02  0.10566000000E+00 0. -1.
         13    1    1    0    0    0 -0.32988332576E+02  0.10189037563E+01 -0.15707167978E+02  0.36551259088E+02  0.10566000000E+00 0. -1.
         22    1    1    0    0    0  0.56490635189E+02 -0.18249386657E+01  0.26677181698E+02  0.62499554307E+02  0.00000000000E+00 0. -1.
</event>
<event>
 4    1  0.9897231E-003  0.9118800E+02  0.7818608E-02  0.1130116E+00
         25   -1    0    0    0    0  0.00000000000E+00  0.00000000000E+00  0.99999998245E-14  0.12500000000E+03  0.12500000000E+03 0.  0.
        -13    1    1    0    0    0 -0.15077377788E+01  0.23550453383E+01 -0.11846200422E+02  0.12172228236E+02  0.10566000000E+00 0. -1.
         13    1    1    0    0    0 -0.29593690918E+01  0.10628156664E+02 -0.49115271505E+02  0.50339215712E+02  0.10566000000E+00 0. -1.
         22    1    1    0    0    0  0.44671068706E+01 -0.12983202003E+02  0.60961471926E+02  0.62488556052E+02  0.00000000000E+00 0. -1.
</event>
<event>
 4    1  0.9897231E-003  0.9118800E+02  0.7818608E-02  0.1130116E+00
         25   -1    0    0    0    0  0.00000000000E+00  0.00000000000E+00  0.99999998245E-14  0.12500000000E+03  0.12500000000E+03 0.  0.
        -13    1    1    0    0    0 -0.36283012905E+01 -0.58275609803E+01  0.14212151772E+02  0.15783581953E+02  0.10566000000E+00 0. -1.
         13    1    1    0    0    0 -0.61026557836E+01 -0.13157507875E+02  0.44470590821E+02  0.46776137432E+02  0.10566000000E+00 0.  1.
         22    1    1    0    0    0  0.97309570741E+01  0.18985068855E+02 -0.58682742593E+02  0.62440280615E+02  0.00000000000E+00 0.  1.
</event>
<event>
 4    1  0.9897231E-003  0.9118800E+02  0.7818608E-02  0.1130116E+00
         25   -1    0    0    0    0  0.00000000000E+00  0.00000000000E+00  0.99999998245E-14  0.12500000000E+03  0.12500000000E+03 0.  0.
        -13    1    1    0    0    0  0.29274767528E+01  0.14484663914E+02 -0.13311183555E+02  0.19889051775E+02  0.10566000000E+00 0. -1.
         13    1    1    0    0    0  0.58889757527E+01  0.30971504373E+02 -0.28667274405E+02  0.42611476205E+02  0.10566000000E+00 0.  1.
         22    1    1    0    0    0 -0.88164525055E+01 -0.45456168286E+02  0.41978457960E+02  0.62499472020E+02  0.00000000000E+00 0.  1.
</event>
<event>
 4    1  0.9897231E-003  0.9118800E+02  0.7818608E-02  0.1130116E+00
         25   -1    0    0    0    0  0.00000000000E+00  0.00000000000E+00  0.99999998245E-14  0.12500000000E+03  0.12500000000E+03 0.  0.
        -13    1    1    0    0    0  0.31157844353E+01  0.99326405655E+01 -0.25635517638E+02  0.27668689702E+02  0.10566000000E+00 0.  1.
         13    1    1    0    0    0 -0.19160004839E+01 -0.14993719532E+02 -0.34136422816E+02  0.37333486442E+02  0.10566000000E+00 0. -1.
         22    1    1    0    0    0 -0.11997839513E+01  0.50610789661E+01  0.59771940453E+02  0.59997823856E+02  0.00000000000E+00 0. -1.
</event>
<event>
 4    1  0.9897231E-003  0.9118800E+02  0.7818608E-02  0.1130116E+00
         25   -1    0    0    0    0  0.00000000000E+00  0.00000000000E+00  0.99999998245E-14  0.12500000000E+03  0.12500000000E+03 0.  0.
        -13    1    1    0    0    0  0.39945391375E+02 -0.55191822990E+00 -0.40461039931E+01  0.40153717479E+02  0.10566000000E+00 0.  1.
         13    1    1    0    0    0  0.19418435717E+02 -0.11616300818E+02 -0.60265227965E+01  0.23416751086E+02  0.10566000000E+00 0. -1.
         22    1    1    0    0    0 -0.59363827092E+02  0.12168219048E+02  0.10072626790E+02  0.61429531434E+02  0.00000000000E+00 0.  1.
</event>
<event>
 4    1  0.9897231E-003  0.9118800E+02  0.7818608E-02  0.1130116E+00
         25   -1    0    0    0    0  0.00000000000E+00  0.00000000000E+00  0.99999998245E-14  0.12500000000E+03  0.12500000000E+03 0.  0.
        -13    1    1    0    0    0  0.17171262679E+02 -0.36114318394E+02 -0.36275384461E+02  0.53990841232E+02  0.10566000000E+00 0.  1.
         13    1    1    0    0    0  0.26482435982E+01 -0.56299162650E+01 -0.58050298494E+01  0.85099169734E+01  0.10566000000E+00 0.  1.
         22    1    1    0    0    0 -0.19819506277E+02  0.41744234659E+02  0.42080414311E+02  0.62499241795E+02  0.00000000000E+00 0.  1.
</event>
<event>
 4    1  0.9897231E-003  0.9118800E+02  0.7818608E-02  0.1130116E+00
         25   -1    0    0    0    0  0.00000000000E+00  0.00000000000E+00  0.99999998245E-14  0.12500000000E+03  0.12500000000E+03 0.  0.
        -13    1    1    0    0    0 -0.31067302226E+02 -0.13788952137E+02  0.10902726569E+02  0.35695841205E+02  0.10566000000E+00 0.  1.
         13    1    1    0    0    0 -0.23948804505E+02 -0.32656862414E+01  0.12405079284E+02  0.27168126544E+02  0.10566000000E+00 0. -1.
         22    1    1    0    0    0  0.55016106731E+02  0.17054638379E+02 -0.23307805853E+02  0.62136032250E+02  0.00000000000E+00 0.  1.
</event>
<event>
 4    1  0.9897231E-003  0.9118800E+02  0.7818608E-02  0.1130116E+00
         25   -1    0    0    0    0  0.00000000000E+00  0.00000000000E+00  0.99999998245E-14  0.12500000000E+03  0.12500000000E+03 0.  0.
        -13    1    1    0    0    0 -0.18976390786E+02  0.26299125400E+02 -0.82589220561E+01  0.33465928370E+02  0.10566000000E+00 0.  1.
         13    1    1    0    0    0 -0.16619118262E+02  0.22680144779E+02 -0.72391604440E+01  0.29034473768E+02  0.10566000000E+00 0.  1.
         22    1    1    0    0    0  0.35595509048E+02 -0.48979270180E+02  0.15498082500E+02  0.62499597862E+02  0.00000000000E+00 0.  1.
</event>
<event>
 4    1  0.9897231E-003  0.9118800E+02  0.7818608E-02  0.1130116E+00
         25   -1    0    0    0    0  0.00000000000E+00  0.00000000000E+00  0.99999998245E-14  0.12500000000E+03  0.12500000000E+03 0.  0.
        -13    1    1    0    0    0  0.11436115606E+02 -0.47232055297E+02 -0.36011911606E+02  0.60485706818E+02  0.10566000000E+00 0. -1.
         13    1    1    0    0    0  0.26298397996E+00 -0.15244530234E+01 -0.12926530020E+01  0.20187207369E+01  0.10566000000E+00 0.  1.
         22    1    1    0    0    0 -0.11699099586E+02  0.48756508320E+02  0.37304564608E+02  0.62495572445E+02  0.00000000000E+00 0. -1.
</event>
<event>
 4    1  0.9897231E-003  0.9118800E+02  0.7818608E-02  0.1130116E+00
         25   -1    0    0    0    0  0.00000000000E+00  0.00000000000E+00  0.99999998245E-14  0.12500000000E+03  0.12500000000E+03 0.  0.
        -13    1    1    0    0    0 -0.47631523328E+01  0.11247539559E+02 -0.53518675424E+00  0.12226706637E+02  0.10566000000E+00 0. -1.
         13    1    1    0    0    0 -0.21034427758E+02  0.45579654745E+02 -0.27841943138E+01  0.50276385906E+02  0.10566000000E+00 0.  1.
         22    1    1    0    0    0  0.25797580091E+02 -0.56827194304E+02  0.33193810680E+01  0.62496907457E+02  0.00000000000E+00 0.  1.
</event>
<event>
 4    1  0.9897231E-003  0.9118800E+02  0.7818608E-02  0.1130116E+00
         25   -1    0    0    0    0  0.00000000000E+00  0.00000000000E+00  0.99999998245E-14  0.12500000000E+03  0.12500000000E+03 0.  0.
        -13    1    1    0    0    0 -0.26521071602E+02 -0.56088873930E+01  0.19396160589E+02  0.33332402649E+02  0.10566000000E+00 0.  1.
         13    1    1    0    0    0 -0.23516637094E+02 -0.63798844615E+01  0.16057384238E+02  0.29181944735E+02  0.10566000000E+00 0. -1.
         22    1    1    0    0    0  0.50037708695E+02  0.11988771854E+02 -0.35453544827E+02  0.62485652616E+02  0.00000000000E+00 0.  1.
</event>
<event>
 4    1  0.9897231E-003  0.9118800E+02  0.7818608E-02  0.1130116E+00
         25   -1    0    0    0    0  0.00000000000E+00  0.00000000000E+00  0.99999998245E-14  0.12500000000E+03  0.12500000000E+03 0.  0.
        -13    1    1    0    0    0 -0.11178428652E+02 -0.23614434804E+02 -0.26092407773E+02  0.36924567779E+02  0.10566000000E+00 0.  1.
         13    1    1    0    0    0 -0.76535121729E+01 -0.16479952633E+02 -0.17998456003E+02  0.25575782880E+02  0.10566000000E+00 0.  1.
         22    1    1    0    0    0  0.18831940824E+02  0.40094387438E+02  0.44090863776E+02  0.62499649341E+02  0.00000000000E+00 0.  1.
</event>
<event>
 4    1  0.9897231E-003  0.9118800E+02  0.7818608E-02  0.1130116E+00
         25   -1    0    0    0    0  0.00000000000E+00  0.00000000000E+00  0.99999998245E-14  0.12500000000E+03  0.12500000000E+03 0.  0.
        -13    1    1    0    0    0  0.72717127163E+01 -0.57139382870E+01  0.16807284486E+01  0.94001547184E+01  0.10566000000E+00 0.  1.
         13    1    1    0    0    0  0.44770608930E+02 -0.27537807691E+02  0.77349785598E+01  0.53127952471E+02  0.10566000000E+00 0. -1.
         22    1    1    0    0    0 -0.52042321646E+02  0.33251745978E+02 -0.94157070084E+01  0.62471892811E+02  0.00000000000E+00 0. -1.
</event>
<event>
 4    1  0.9897231E-003  0.9118800E+02  0.7818608E-02  0.1130116E+00
         25   -1    0    0    0    0  0.00000000000E+00  0.00000000000E+00  0.99999998245E-14  0.12500000000E+03  0.12500000000E+03 0.  0.
        -13    1    1    0    0    0 -0.37546897073E+02 -0.26734851572E+02  0.20839953948E+02  0.50584944529E+02  0.10566000000E+00 0.  1.
         13    1    1    0    0    0 -0.84717335893E+01 -0.66218729599E+01  0.51445154569E+01  0.11920430983E+02  0.10566000000E+00 0. -1.
         22    1    1    0    0    0  0.46018630663E+02  0.33356724532E+02 -0.25984469405E+02  0.62494624488E+02  0.00000000000E+00 0.  1.
</event>
<event>
 4    1  0.9897231E-003  0.9118800E+02  0.7818608E-02  0.1130116E+00
         25   -1    0    0    0    0  0.00000000000E+00  0.00000000000E+00  0.99999998245E-14  0.12500000000E+03  0.12500000000E+03 0.  0.
        -13    1    1    0    0    0 -0.24218335703E+02  0.30021566788E+02  0.97485536932E+01  0.39785270136E+02  0.10566000000E+00 0. -1.
         13    1    1    0    0    0 -0.13845918572E+02  0.16551100921E+02  0.71571721971E+01  0.22735097992E+02  0.10566000000E+00 0.  1.
         22    1    1    0    0    0  0.38064254274E+02 -0.46572667709E+02 -0.16905725890E+02  0.62479631873E+02  0.00000000000E+00 0.  1.
</event>
<event>
 4    1  0.9897231E-003  0.9118800E+02  0.7818608E-02  0.1130116E+00
         25   -1    0    0    0    0  0.00000000000E+00  0.00000000000E+00  0.99999998245E-14  0.12500000000E+03  0.12500000000E+03 0.  0.
        -13    1    1    0    0    0  0.31666273132E+02 -0.36321826694E+02 -0.17358489497E+02  0.51218710157E+02  0.10566000000E+00 0.  1.
         13    1    1    0    0    0  0.20272822386E+01 -0.82926731884E+01 -0.86200060984E+01  0.12132352247E+02  0.10566000000E+00 0. -1.
         22    1    1    0    0    0 -0.33693555371E+02  0.44614499883E+02  0.25978495595E+02  0.61648937596E+02  0.00000000000E+00 0.  1.
</event>
<event>
 4    1  0.9897231E-003  0.9118800E+02  0.7818608E-02  0.1130116E+00
         25   -1    0    0    0    0  0.00000000000E+00  0.00000000000E+00  0.99999998245E-14  0.12500000000E+03  0.12500000000E+03 0.  0.
        -13    1    1    0    0    0  0.99948506268E+01  0.40234235103E+02 -0.13537110238E+02  0.43611411707E+02  0.10566000000E+00 0. -1.
         13    1    1    0    0    0  0.51710576379E+01  0.10781866011E+02 -0.16420992695E+02  0.20313754870E+02  0.10566000000E+00 0.  1.
         22    1    1    0    0    0 -0.15165908265E+02 -0.51016101114E+02  0.29958102933E+02  0.61074833424E+02  0.00000000000E+00 0. -1.
</event>
<event>
 4    1  0.9897231E-003  0.9118800E+02  0.7818608E-02  0.1130116E+00
         25   -1    0    0    0    0  0.00000000000E+00  0.00000000000E+00  0.99999998245E-14  0.12500000000E+03  0.12500000000E+03 0.  0.
        -13    1    1    0    0    0  0.15281346621E+01 -0.24675968793E+01 -0.18417420062E+01  0.34390998179E+01  0.10566000000E+00 0.  1.
         13    1    1    0    0    0 -0.21240565153E+02 -0.41071566400E+02 -0.37597651785E+02  0.59595551498E+02  0.10566000000E+00 0. -1.
         22    1    1    0    0    0  0.19712430491E+02  0.43539163280E+02  0.39439393791E+02  0.61965348684E+02  0.00000000000E+00 0. -1.
</event>
<event>
 4    1  0.9897231E-003  0.9118800E+02  0.7818608E-02  0.1130116E+00
         25   -1    0    0    0    0  0.00000000000E+00  0.00000000000E+00  0.99999998245E-14  0.12500000000E+03  0.12500000000E+03 0.  0.
        -13    1    1    0    0    0  0.58001137189E+02 -0.53955364488E+01 -0.13737540234E+02  0.59849602376E+02  0.10566000000E+00 0. -1.
         13    1    1    0    0    0  0.20594250634E+01 -0.81439886404E+00 -0.17390017261E+01  0.28177594185E+01  0.10566000000E+00 0.  1.
         22    1    1    0    0    0 -0.60060562252E+02  0.62099353129E+01  0.15476541960E+02  0.62332638206E+02  0.00000000000E+00 0. -1.
</event>
<event>
 4    1  0.9897231E-003  0.9118800E+02  0.7818608E-02  0.1130116E+00
         25   -1    0    0    0    0  0.00000000000E+00  0.00000000000E+00  0.99999998245E-14  0.12500000000E+03  0.12500000000E+03 0.  0.
        -13    1    1    0    0    0 -0.28295073312E+00 -0.17233629729E+00 -0.24063803282E+00  0.42288487225E+00  0.10566000000E+00 0. -1.
         13    1    1    0    0    0 -0.32856884406E+02  0.12291284561E+02 -0.51279924519E+02  0.62131251007E+02  0.10566000000E+00 0.  1.
         22    1    1    0    0    0  0.33139835139E+02 -0.12118948264E+02  0.51520562552E+02  0.62445864120E+02  0.00000000000E+00 0.  1.
</event>
<event>
 4    1  0.9897231E-003  0.9118800E+02  0.7818608E-02  0.1130116E+00
         25   -1    0    0    0    0  0.00000000000E+00  0.00000000000E+00  0.99999998245E-14  0.12500000000E+03  0.12500000000E+03 0.  0.
        -13    1    1    0    0    0  0.13897651232E+02  0.18414535051E+02 -0.39876721547E+02  0.46069554982E+02  0.10566000000E+00 0.  1.
         13    1    1    0    0    0  0.45077398573E+01  0.61973429694E+01 -0.14539292619E+02  0.16435600762E+02  0.10566000000E+00 0. -1.
         22    1    1    0    0    0 -0.18405391089E+02 -0.24611878021E+02  0.54416014166E+02  0.62494844256E+02  0.00000000000E+00 0.  1.
</event>
<event>
 4    1  0.9897231E-003  0.9118800E+02  0.7818608E-02  0.1130116E+00
         25   -1    0    0    0    0  0.00000000000E+00  0.00000000000E+00  0.99999998245E-14  0.12500000000E+03  0.12500000000E+03 0.  0.
        -13    1    1    0    0    0 -0.18228602288E+02  0.13328815276E+02  0.44439318831E+02  0.49847803163E+02  0.10566000000E+00 0. -1.
         13    1    1    0    0    0  0.83153908073E+01 -0.57151921230E+00  0.13022758296E+02  0.15462074769E+02  0.10566000000E+00 0.  1.
         22    1    1    0    0    0  0.99132114803E+01 -0.12757296063E+02 -0.57462077127E+02  0.59690122068E+02  0.00000000000E+00 0. -1.
</event>
<event>
 4    1  0.9897231E-003  0.9118800E+02  0.7818608E-02  0.1130116E+00
         25   -1    0    0    0    0  0.00000000000E+00  0.00000000000E+00  0.99999998245E-14  0.12500000000E+03  0.12500000000E+03 0.  0.
        -13    1    1    0    0    0  0.54557384710E+00  0.83975493091E+01 -0.79688735713E+01  0.11590107646E+02  0.10566000000E+00 0.  1.
         13    1    1    0    0    0  0.71935503105E+01  0.34358412175E+02 -0.36914144197E+02  0.50940287191E+02  0.10566000000E+00 0. -1.
         22    1    1    0    0    0 -0.77391241576E+01 -0.42755961484E+02  0.44883017769E+02  0.62469605163E+02  0.00000000000E+00 0. -1.
</event>
<event>
 4    1  0.9897231E-003  0.9118800E+02  0.7818608E-02  0.1130116E+00
         25   -1    0    0    0    0  0.00000000000E+00  0.00000000000E+00  0.99999998245E-14  0.12500000000E+03  0.12500000000E+03 0.  0.
        -13    1    1    0    0    0  0.87085400849E+01 -0.11808235193E-01  0.17272093554E+01  0.88788076923E+01  0.10566000000E+00 0.  1.
         13    1    1    0    0    0  0.52600878100E+02  0.10870985339E+02 -0.35611044113E+01  0.53830505551E+02  0.10566000000E+00 0. -1.
         22    1    1    0    0    0 -0.61309418185E+02 -0.10859177104E+02  0.18338950559E+01  0.62290686757E+02  0.00000000000E+00 0. -1.
</event>
<event>
 4    1  0.9897231E-003  0.9118800E+02  0.7818608E-02  0.1130116E+00
         25   -1    0    0    0    0  0.00000000000E+00  0.00000000000E+00  0.99999998245E-14  0.12500000000E+03  0.12500000000E+03 0.  0.
        -13    1    1    0    0    0  0.97411058211E+01 -0.20332122801E+02  0.60499507476E+01  0.23343038112E+02  0.10566000000E+00 0. -1.
         13    1    1    0    0    0  0.17268538329E+02 -0.34893864070E+02  0.48060656906E+01  0.39228734331E+02  0.10566000000E+00 0.  1.
         22    1    1    0    0    0 -0.27009644150E+02  0.55225986871E+02 -0.10856016438E+02  0.62428227557E+02  0.00000000000E+00 0. -1.
</event>
<event>
 4    1  0.9897231E-003  0.9118800E+02  0.7818608E-02  0.1130116E+00
         25   -1    0    0    0    0  0.00000000000E+00  0.00000000000E+00  0.99999998245E-14  0.12500000000E+03  0.12500000000E+03 0.  0.
        -13    1    1    0    0    0  0.15079602207E+02 -0.23056957129E+02  0.32930482298E+02  0.42935364249E+02  0.10566000000E+00 0. -1.
         13    1    1    0    0    0  0.68024931220E+01 -0.10898175211E+02  0.14758155771E+02  0.19566769314E+02  0.10566000000E+00 0. -1.
         22    1    1    0    0    0 -0.21882095329E+02  0.33955132340E+02 -0.47688638069E+02  0.62497866437E+02  0.00000000000E+00 0. -1.
</event>
<event>
 4    1  0.9897231E-003  0.9118800E+02  0.7818608E-02  0.1130116E+00
         25   -1    0    0    0    0  0.00000000000E+00  0.00000000000E+00  0.99999998245E-14  0.12500000000E+03  0.12500000000E+03 0.  0.
        -13    1    1    0    0    0  0.14349215987E+02 -0.34184306378E+01  0.26240713205E+02  0.30102688601E+02  0.10566000000E+00 0. -1.
         13    1    1    0    0    0  0.15348421728E+02 -0.39772811549E+01  0.28252734558E+02  0.32397854698E+02  0.10566000000E+00 0. -1.
         22    1    1    0    0    0 -0.29697637715E+02  0.73957117928E+01 -0.54493447764E+02  0.62499456701E+02  0.00000000000E+00 0. -1.
</event>
<event>
 4    1  0.9897231E-003  0.9118800E+02  0.7818608E-02  0.1130116E+00
         25   -1    0    0    0    0  0.00000000000E+00  0.00000000000E+00  0.99999998245E-14  0.12500000000E+03  0.12500000000E+03 0.  0.
        -13    1    1    0    0    0 -0.29290987902E+01  0.14413560798E+02 -0.38952308887E+01  0.15215595365E+02  0.10566000000E+00 0.  1.
         13    1    1    0    0    0 -0.40932002179E+02 -0.36756314807E+02  0.19149689462E+02  0.58250984980E+02  0.10566000000E+00 0. -1.
         22    1    1    0    0    0  0.43861100970E+02  0.22342754008E+02 -0.15254458573E+02  0.51533419655E+02  0.00000000000E+00 0. -1.
</event>
<event>
 4    1  0.9897231E-003  0.9118800E+02  0.7818608E-02  0.1130116E+00
         25   -1    0    0    0    0  0.00000000000E+00  0.00000000000E+00  0.99999998245E-14  0.12500000000E+03  0.12500000000E+03 0.  0.
        -13    1    1    0    0    0 -0.31256936995E+01 -0.49739066506E+02 -0.14751264196E+02  0.51974567409E+02  0.10566000000E+00 0. -1.
         13    1    1    0    0    0 -0.13239124210E+02  0.14595077754E+02 -0.14496044099E+02  0.24462975352E+02  0.10566000000E+00 0.  1.
         22    1    1    0    0    0  0.16364817909E+02  0.35143988752E+02  0.29247308295E+02  0.48562457239E+02  0.00000000000E+00 0.  1.
</event>
<event>
 4    1  0.9897231E-003  0.9118800E+02  0.7818608E-02  0.1130116E+00
         25   -1    0    0    0    0  0.00000000000E+00  0.00000000000E+00  0.99999998245E-14  0.12500000000E+03  0.12500000000E+03 0.  0.
        -13    1    1    0    0    0  0.92399916585E+01 -0.26667901999E+02 -0.22935719839E+02  0.36367744658E+02  0.10566000000E+00 0. -1.
         13    1    1    0    0    0  0.41922980618E+01 -0.17986506179E+02 -0.18580473580E+02  0.26197994772E+02  0.10566000000E+00 0.  1.
         22    1    1    0    0    0 -0.13432289720E+02  0.44654408179E+02  0.41516193419E+02  0.62434260570E+02  0.00000000000E+00 0.  1.
</event>
<event>
 4    1  0.9897231E-003  0.9118800E+02  0.7818608E-02  0.1130116E+00
         25   -1    0    0    0    0  0.00000000000E+00  0.00000000000E+00  0.99999998245E-14  0.12500000000E+03  0.12500000000E+03 0.  0.
        -13    1    1    0    0    0  0.85914919135E+01  0.41443788811E+02 -0.61056375650E+01  0.42763200751E+02  0.10566000000E+00 0. -1.
         13    1    1    0    0    0  0.30790016017E+01  0.19224779039E+02 -0.32883978847E+01  0.19745812332E+02  0.10566000000E+00 0.  1.
         22    1    1    0    0    0 -0.11670493515E+02 -0.60668567850E+02  0.93940354496E+01  0.62490986917E+02  0.00000000000E+00 0. -1.
</event>
<event>
 4    1  0.9897231E-003  0.9118800E+02  0.7818608E-02  0.1130116E+00
         25   -1    0    0    0    0  0.00000000000E+00  0.00000000000E+00  0.99999998245E-14  0.12500000000E+03  0.12500000000E+03 0.  0.
        -13    1    1    0    0    0  0.84786161570E+01 -0.16159631999E+01 -0.16713378679E+01  0.87922012776E+01  0.10566000000E+00 0.  1.
         13    1    1    0    0    0  0.51852209671E+02 -0.88697416223E+01 -0.10831908703E+02  0.53709080931E+02  0.10566000000E+00 0.  1.
         22    1    1    0    0    0 -0.60330825828E+02  0.10485704822E+02  0.12503246571E+02  0.62498717791E+02  0.00000000000E+00 0.  1.
</event>
<event>
 4    1  0.9897231E-003  0.9118800E+02  0.7818608E-02  0.1130116E+00
         25   -1    0    0    0    0  0.00000000000E+00  0.00000000000E+00  0.99999998245E-14  0.12500000000E+03  0.12500000000E+03 0.  0.
        -13    1    1    0    0    0  0.24927885004E+01 -0.37370669655E+01  0.56669676310E+01  0.72322437860E+01  0.10566000000E+00 0. -1.
         13    1    1    0    0    0  0.21478900745E+02 -0.30227591003E+02  0.40991757826E+02  0.55275544400E+02  0.10566000000E+00 0. -1.
         22    1    1    0    0    0 -0.23971689245E+02  0.33964657968E+02 -0.46658725457E+02  0.62492211814E+02  0.00000000000E+00 0. -1.
</event>
<event>
 4    1  0.9897231E-003  0.9118800E+02  0.7818608E-02  0.1130116E+00
         25   -1    0    0    0    0  0.00000000000E+00  0.00000000000E+00  0.99999998245E-14  0.12500000000E+03  0.12500000000E+03 0.  0.
        -13    1    1    0    0    0 -0.75792304866E+00  0.15995209558E+01  0.86903464691E+00  0.19746645003E+01  0.10566000000E+00 0. -1.
         13    1    1    0    0    0 -0.36382314819E+02  0.48407758744E+02 -0.37162818332E+01  0.60669645235E+02  0.10566000000E+00 0.  1.
         22    1    1    0    0    0  0.37140237867E+02 -0.50007279700E+02  0.28472471863E+01  0.62355690265E+02  0.00000000000E+00 0.  1.
</event>
<event>
 4    1  0.9897231E-003  0.9118800E+02  0.7818608E-02  0.1130116E+00
         25   -1    0    0    0    0  0.00000000000E+00  0.00000000000E+00  0.99999998245E-14  0.12500000000E+03  0.12500000000E+03 0.  0.
        -13    1    1    0    0    0  0.14112268710E+01 -0.19438030327E+02 -0.12438069090E+02  0.23120235963E+02  0.10566000000E+00 0.  1.
         13    1    1    0    0    0 -0.10629322627E+02 -0.30883834688E+02  0.33287294248E+02  0.46635274921E+02  0.10566000000E+00 0. -1.
         22    1    1    0    0    0  0.92180957564E+01  0.50321865015E+02 -0.20849225159E+02  0.55244489116E+02  0.00000000000E+00 0. -1.
</event>
<event>
 4    1  0.9897231E-003  0.9118800E+02  0.7818608E-02  0.1130116E+00
         25   -1    0    0    0    0  0.00000000000E+00  0.00000000000E+00  0.99999998245E-14  0.12500000000E+03  0.12500000000E+03 0.  0.
        -13    1    1    0    0    0 -0.30429131310E+01 -0.15338679271E+02 -0.13581973244E+02  0.20712690876E+02  0.10566000000E+00 0.  1.
         13    1    1    0    0    0 -0.30608299156E+02 -0.10076347986E+01  0.45678265191E+02  0.54994530456E+02  0.10566000000E+00 0. -1.
         22    1    1    0    0    0  0.33651212287E+02  0.16346314069E+02 -0.32096291947E+02  0.49292778668E+02  0.00000000000E+00 0. -1.
</event>
<event>
 4    1  0.9897231E-003  0.9118800E+02  0.7818608E-02  0.1130116E+00
         25   -1    0    0    0    0  0.00000000000E+00  0.00000000000E+00  0.99999998245E-14  0.12500000000E+03  0.12500000000E+03 0.  0.
        -13    1    1    0    0    0  0.19290391495E+02 -0.18074610386E+02 -0.98511925097E+01  0.28211130827E+02  0.10566000000E+00 0. -1.
         13    1    1    0    0    0  0.23353670159E+02 -0.22050602882E+02 -0.12004516885E+02  0.34289103036E+02  0.10566000000E+00 0. -1.
         22    1    1    0    0    0 -0.42644061654E+02  0.40125213267E+02  0.21855709394E+02  0.62499766137E+02  0.00000000000E+00 0. -1.
</event>
<event>
 4    1  0.9897231E-003  0.9118800E+02  0.7818608E-02  0.1130116E+00
         25   -1    0    0    0    0  0.00000000000E+00  0.00000000000E+00  0.99999998245E-14  0.12500000000E+03  0.12500000000E+03 0.  0.
        -13    1    1    0    0    0  0.98170354233E+01 -0.17852986816E+02 -0.82475443703E+01  0.21980365669E+02  0.10566000000E+00 0.  1.
         13    1    1    0    0    0  0.18248800401E+02 -0.22100163872E+02 -0.29630594575E+02  0.41224013125E+02  0.10566000000E+00 0. -1.
         22    1    1    0    0    0 -0.28065835824E+02  0.39953150688E+02  0.37878138945E+02  0.61795621207E+02  0.00000000000E+00 0. -1.
</event>
<event>
 4    1  0.9897231E-003  0.9118800E+02  0.7818608E-02  0.1130116E+00
         25   -1    0    0    0    0  0.00000000000E+00  0.00000000000E+00  0.99999998245E-14  0.12500000000E+03  0.12500000000E+03 0.  0.
        -13    1    1    0    0    0 -0.14472623507E+02 -0.35344468736E+02 -0.16393807678E+02  0.41562680323E+02  0.10566000000E+00 0. -1.
         13    1    1    0    0    0 -0.80236790069E+01 -0.18261993190E+02 -0.64657656407E+01  0.20968955850E+02  0.10566000000E+00 0.  1.
         22    1    1    0    0    0  0.22496302514E+02  0.53606461926E+02  0.22859573319E+02  0.62468363828E+02  0.00000000000E+00 0. -1.
</event>
<event>
 4    1  0.9897231E-003  0.9118800E+02  0.7818608E-02  0.1130116E+00
         25   -1    0    0    0    0  0.00000000000E+00  0.00000000000E+00  0.99999998245E-14  0.12500000000E+03  0.12500000000E+03 0.  0.
        -13    1    1    0    0    0 -0.23567269463E+02 -0.12506859960E+02  0.18671738399E+02  0.32565053584E+02  0.10566000000E+00 0. -1.
         13    1    1    0    0    0 -0.22228913981E+02 -0.11111443377E+02  0.16694044092E+02  0.29938120563E+02  0.10566000000E+00 0.  1.
         22    1    1    0    0    0  0.45796183444E+02  0.23618303337E+02 -0.35365782491E+02  0.62496825853E+02  0.00000000000E+00 0. -1.
</event>
<event>
 4    1  0.9897231E-003  0.9118800E+02  0.7818608E-02  0.1130116E+00
         25   -1    0    0    0    0  0.00000000000E+00  0.00000000000E+00  0.99999998245E-14  0.12500000000E+03  0.12500000000E+03 0.  0.
        -13    1    1    0    0    0  0.14025475872E+02  0.30628780396E+00  0.53684765930E+01  0.15021301229E+02  0.10566000000E+00 0. -1.
         13    1    1    0    0    0  0.43986203145E+02  0.90906721776E+00  0.17853156671E+02  0.47480088853E+02  0.10566000000E+00 0.  1.
         22    1    1    0    0    0 -0.58011679017E+02 -0.12153550217E+01 -0.23221633264E+02  0.62498609918E+02  0.00000000000E+00 0.  1.
</event>
