<event>
 5    1  0.8907853E-005  0.9118800E+02  0.7818608E-02  0.1130116E+00
         25   -1    0    0    0    0  0.00000000000E+00  0.00000000000E+00  0.99999998245E-14  0.12500000000E+03  0.12500000000E+03 0.  0.
        -11    1    3    3    0    0  0.17046051444E+02 -0.13767221614E+02  0.44460278877E+02  0.49566325856E+02  0.51100000000E-03 0.  1.
         23    2    1    0    0    0 -0.20444021639E+02 -0.67933965632E+00  0.20982752200E+02  0.95696494868E+02  0.91099526436E+02 0.  0.
         11    1    3    3    0    0 -0.37490073083E+02  0.13087881958E+02 -0.23477526677E+02  0.46130169011E+02  0.51100000000E-03 0. -1.
         22    1    1    0    0    0  0.20444021639E+02  0.67933965632E+00 -0.20982752200E+02  0.29303505132E+02  0.00000000000E+00 0. -1.
</event>
<event>
 5    1  0.8907853E-005  0.9118800E+02  0.7818608E-02  0.1130116E+00
         25   -1    0    0    0    0  0.00000000000E+00  0.00000000000E+00  0.99999998245E-14  0.12500000000E+03  0.12500000000E+03 0.  0.
        -11    1    3    3    0    0  0.38165523280E+01 -0.44531820624E+02 -0.33516717369E+02  0.55866085089E+02  0.51100000000E-03 0. -1.
         23    2    1    0    0    0 -0.18291196712E+02 -0.17235302780E+02 -0.11175613495E+02  0.97495129957E+02  0.93534926574E+02 0.  0.
         11    1    3    3    0    0 -0.22107749040E+02  0.27296517844E+02  0.22341103874E+02  0.41629044868E+02  0.51100000000E-03 0.  1.
         22    1    1    0    0    0  0.18291196712E+02  0.17235302780E+02  0.11175613495E+02  0.27504870043E+02  0.00000000000E+00 0. -1.
</event>
<event>
 5    1  0.8907853E-005  0.9118800E+02  0.7818608E-02  0.1130116E+00
         25   -1    0    0    0    0  0.00000000000E+00  0.00000000000E+00  0.99999998245E-14  0.12500000000E+03  0.12500000000E+03 0.  0.
        -11    1    3    3    0    0 -0.33340083074E+02 -0.29662751650E+02 -0.39138714114E+02  0.59357214537E+02  0.51100000000E-03 0.  1.
         23    2    1    0    0    0 -0.19522812701E+02 -0.11006495538E+01 -0.22522674572E+02  0.95173459552E+02  0.90379006899E+02 0.  0.
         11    1    3    3    0    0  0.13817270373E+02  0.28562102096E+02  0.16616039542E+02  0.35816245015E+02  0.51100000000E-03 0. -1.
         22    1    1    0    0    0  0.19522812701E+02  0.11006495538E+01  0.22522674572E+02  0.29826540448E+02  0.00000000000E+00 0.  1.
</event>
<event>
 5    1  0.8907853E-005  0.9118800E+02  0.7818608E-02  0.1130116E+00
         25   -1    0    0    0    0  0.00000000000E+00  0.00000000000E+00  0.99999998245E-14  0.12500000000E+03  0.12500000000E+03 0.  0.
        -11    1    3    3    0    0  0.19462216571E+02 -0.26055107645E+02 -0.28717921539E+02  0.43386236597E+02  0.51100000000E-03 0. -1.
         23    2    1    0    0    0  0.16266960707E+02 -0.12390247797E+02  0.21381795821E+02  0.95414303394E+02  0.90711497885E+02 0.  0.
         11    1    3    3    0    0 -0.31952558639E+01  0.13664859848E+02  0.50099717361E+02  0.52028066797E+02  0.51100000000E-03 0.  1.
         22    1    1    0    0    0 -0.16266960707E+02  0.12390247797E+02 -0.21381795821E+02  0.29585696606E+02  0.00000000000E+00 0.  1.
</event>
<event>
 5    1  0.8907853E-005  0.9118800E+02  0.7818608E-02  0.1130116E+00
         25   -1    0    0    0    0  0.00000000000E+00  0.00000000000E+00  0.99999998245E-14  0.12500000000E+03  0.12500000000E+03 0.  0.
        -11    1    3    3    0    0 -0.36446995960E+02 -0.11564266181E+02 -0.22296040112E+02  0.44263180769E+02  0.51100000000E-03 0.  1.
         23    2    1    0    0    0  0.35137957827E+01 -0.26617303074E+02  0.84172549893E+01  0.96863231079E+02  0.92686610520E+02 0.  0.
         11    1    3    3    0    0  0.39960791743E+02 -0.15053036893E+02  0.30713295101E+02  0.52600050310E+02  0.51100000000E-03 0. -1.
         22    1    1    0    0    0 -0.35137957827E+01  0.26617303074E+02 -0.84172549893E+01  0.28136768921E+02  0.00000000000E+00 0. -1.
</event>
<event>
 5    1  0.8907853E-005  0.9118800E+02  0.7818608E-02  0.1130116E+00
         25   -1    0    0    0    0  0.00000000000E+00  0.00000000000E+00  0.99999998245E-14  0.12500000000E+03  0.12500000000E+03 0.  0.
        -11    1    3    3    0    0 -0.10863252083E+02  0.40968171743E+02  0.37497862082E+02  0.56590555774E+02  0.51100000000E-03 0.  1.
         23    2    1    0    0    0 -0.14573084947E+02  0.25860151249E+02  0.21165600185E+01  0.95240933250E+02  0.90472279249E+02 0.  0.
         11    1    3    3    0    0 -0.37098328635E+01 -0.15108020493E+02 -0.35381302064E+02  0.38650377477E+02  0.51100000000E-03 0. -1.
         22    1    1    0    0    0  0.14573084947E+02 -0.25860151249E+02 -0.21165600185E+01  0.29759066750E+02  0.00000000000E+00 0.  1.
</event>
<event>
 5    1  0.8907853E-005  0.9118800E+02  0.7818608E-02  0.1130116E+00
         25   -1    0    0    0    0  0.00000000000E+00  0.00000000000E+00  0.99999998245E-14  0.12500000000E+03  0.12500000000E+03 0.  0.
        -11    1    3    3    0    0 -0.32639368311E+02  0.24465230200E+02 -0.14291483849E+02  0.43221781122E+02  0.51100000000E-03 0. -1.
         23    2    1    0    0    0 -0.15808008790E+02 -0.18824069783E+02  0.13102494526E+02  0.97144765162E+02  0.93065521491E+02 0.  0.
         11    1    3    3    0    0  0.16831359521E+02 -0.43289299982E+02  0.27393978375E+02  0.53922984040E+02  0.51100000000E-03 0.  1.
         22    1    1    0    0    0  0.15808008790E+02  0.18824069783E+02 -0.13102494526E+02  0.27855234838E+02  0.00000000000E+00 0.  1.
</event>
<event>
 5    1  0.8907853E-005  0.9118800E+02  0.7818608E-02  0.1130116E+00
         25   -1    0    0    0    0  0.00000000000E+00  0.00000000000E+00  0.99999998245E-14  0.12500000000E+03  0.12500000000E+03 0.  0.
        -11    1    3    3    0    0 -0.18016246072E+02  0.25410065886E+02  0.13846583714E+02  0.34087893036E+02  0.51100000000E-03 0. -1.
         23    2    1    0    0    0 -0.31556918018E+02 -0.98281846710E+01 -0.21310304560E+02  0.85673655533E+02  0.76114478801E+02 0.  0.
         11    1    3    3    0    0 -0.13540671946E+02 -0.35238250557E+02 -0.35156888274E+02  0.51585762497E+02  0.51100000000E-03 0.  1.
         22    1    1    0    0    0  0.31556918018E+02  0.98281846710E+01  0.21310304560E+02  0.39326344467E+02  0.00000000000E+00 0.  1.
</event>
<event>
 5    1  0.8907853E-005  0.9118800E+02  0.7818608E-02  0.1130116E+00
         25   -1    0    0    0    0  0.00000000000E+00  0.00000000000E+00  0.99999998245E-14  0.12500000000E+03  0.12500000000E+03 0.  0.
        -11    1    3    3    0    0 -0.35237000177E+02 -0.14165703042E+02  0.23255790165E+02  0.44532517340E+02  0.51100000000E-03 0.  1.
         23    2    1    0    0    0 -0.29568579716E+02  0.24072822767E+02  0.83193716979E+01  0.85974192541E+02  0.76606449697E+02 0.  0.
         11    1    3    3    0    0  0.56684204613E+01  0.38238525809E+02 -0.14936418467E+02  0.41441675201E+02  0.51100000000E-03 0. -1.
         22    1    1    0    0    0  0.29568579716E+02 -0.24072822767E+02 -0.83193716979E+01  0.39025807459E+02  0.00000000000E+00 0. -1.
</event>
<event>
 5    1  0.8907853E-005  0.9118800E+02  0.7818608E-02  0.1130116E+00
         25   -1    0    0    0    0  0.00000000000E+00  0.00000000000E+00  0.99999998245E-14  0.12500000000E+03  0.12500000000E+03 0.  0.
        -11    1    3    3    0    0 -0.12122022866E+01 -0.11620815743E+02  0.41053373840E+02  0.42683630314E+02  0.51100000000E-03 0.  1.
         23    2    1    0    0    0  0.26059612615E+02  0.96045409207E+00 -0.57514575176E+01  0.98295971366E+02  0.94599116495E+02 0.  0.
         11    1    3    3    0    0  0.27271814901E+02  0.12581269835E+02 -0.46804831357E+02  0.55612341052E+02  0.51100000000E-03 0. -1.
         22    1    1    0    0    0 -0.26059612615E+02 -0.96045409207E+00  0.57514575176E+01  0.26704028634E+02  0.00000000000E+00 0. -1.
</event>
<event>
 5    1  0.8907853E-005  0.9118800E+02  0.7818608E-02  0.1130116E+00
         25   -1    0    0    0    0  0.00000000000E+00  0.00000000000E+00  0.99999998245E-14  0.12500000000E+03  0.12500000000E+03 0.  0.
        -11    1    3    3    0    0  0.35278249405E+02 -0.82054075480E+01 -0.49860396991E+01  0.36561512363E+02  0.51100000000E-03 0.  1.
         23    2    1    0    0    0 -0.21740560160E+02 -0.44698688952E+00 -0.19372745804E+02  0.95876898631E+02  0.91346727680E+02 0.  0.
         11    1    3    3    0    0 -0.57018809565E+02  0.77584206585E+01 -0.14386706105E+02  0.59315386268E+02  0.51100000000E-03 0. -1.
         22    1    1    0    0    0  0.21740560160E+02  0.44698688952E+00  0.19372745804E+02  0.29123101369E+02  0.00000000000E+00 0. -1.
</event>
<event>
 5    1  0.8907853E-005  0.9118800E+02  0.7818608E-02  0.1130116E+00
         25   -1    0    0    0    0  0.00000000000E+00  0.00000000000E+00  0.99999998245E-14  0.12500000000E+03  0.12500000000E+03 0.  0.
        -11    1    3    3    0    0 -0.33795879300E+02 -0.12727362920E+02 -0.44212117901E+02  0.57086413393E+02  0.51100000000E-03 0. -1.
         23    2    1    0    0    0 -0.37233595334E+01  0.94164329248E+01 -0.22600977097E+02  0.10023436290E+03  0.97126673602E+02 0.  0.
         11    1    3    3    0    0  0.30072519766E+02  0.22143795845E+02  0.21611140805E+02  0.43147949507E+02  0.51100000000E-03 0.  1.
         22    1    1    0    0    0  0.37233595334E+01 -0.94164329248E+01  0.22600977097E+02  0.24765637100E+02  0.00000000000E+00 0.  1.
</event>
<event>
 5    1  0.8907853E-005  0.9118800E+02  0.7818608E-02  0.1130116E+00
         25   -1    0    0    0    0  0.00000000000E+00  0.00000000000E+00  0.99999998245E-14  0.12500000000E+03  0.12500000000E+03 0.  0.
        -11    1    3    3    0    0  0.26045359606E+02 -0.16465788010E+01  0.24728427896E+02  0.35952289569E+02  0.51100000000E-03 0. -1.
         23    2    1    0    0    0 -0.28427936407E+02 -0.98478881279E+01  0.47958051285E+01  0.94534803204E+02  0.89491344839E+02 0.  0.
         11    1    3    3    0    0 -0.54473296013E+02 -0.82013093269E+01 -0.19932622768E+02  0.58582513636E+02  0.51100000000E-03 0.  1.
         22    1    1    0    0    0  0.28427936407E+02  0.98478881279E+01 -0.47958051285E+01  0.30465196796E+02  0.00000000000E+00 0.  1.
</event>
<event>
 5    1  0.8907853E-005  0.9118800E+02  0.7818608E-02  0.1130116E+00
         25   -1    0    0    0    0  0.00000000000E+00  0.00000000000E+00  0.99999998245E-14  0.12500000000E+03  0.12500000000E+03 0.  0.
        -11    1    3    3    0    0 -0.32681772601E+02  0.61546052787E+01 -0.31756390193E+02  0.45983102818E+02  0.51100000000E-03 0.  1.
         23    2    1    0    0    0  0.13857653570E+02 -0.11647336266E+02 -0.21567923805E+02  0.96842046562E+02  0.92658036027E+02 0.  0.
         11    1    3    3    0    0  0.46539426171E+02 -0.17801941545E+02  0.10188466388E+02  0.50858943744E+02  0.51100000000E-03 0. -1.
         22    1    1    0    0    0 -0.13857653570E+02  0.11647336266E+02  0.21567923805E+02  0.28157953438E+02  0.00000000000E+00 0. -1.
</event>
<event>
 5    1  0.8907853E-005  0.9118800E+02  0.7818608E-02  0.1130116E+00
         25   -1    0    0    0    0  0.00000000000E+00  0.00000000000E+00  0.99999998245E-14  0.12500000000E+03  0.12500000000E+03 0.  0.
        -11    1    3    3    0    0  0.33198309271E+02  0.25172199019E+02 -0.26304330365E+02  0.49271544913E+02  0.51100000000E-03 0. -1.
         23    2    1    0    0    0 -0.44755462233E+01  0.28608080559E+02  0.11612222337E+01  0.96020675916E+02  0.91543262882E+02 0.  0.
         11    1    3    3    0    0 -0.37673855494E+02  0.34358815403E+01  0.27465552599E+02  0.46749131003E+02  0.51100000000E-03 0.  1.
         22    1    1    0    0    0  0.44755462233E+01 -0.28608080559E+02 -0.11612222337E+01  0.28979324084E+02  0.00000000000E+00 0. -1.
</event>
<event>
 5    1  0.8907853E-005  0.9118800E+02  0.7818608E-02  0.1130116E+00
         25   -1    0    0    0    0  0.00000000000E+00  0.00000000000E+00  0.99999998245E-14  0.12500000000E+03  0.12500000000E+03 0.  0.
        -11    1    3    3    0    0  0.10794023784E+02 -0.25207016998E+02  0.47430370498E+02  0.54786355065E+02  0.51100000000E-03 0.  1.
         23    2    1    0    0    0  0.21339018063E+02  0.30828694872E+01  0.20723048750E+02  0.95095108666E+02  0.90270577524E+02 0.  0.
         11    1    3    3    0    0  0.10544994279E+02  0.28289886486E+02 -0.26707321748E+02  0.40308753602E+02  0.51100000000E-03 0. -1.
         22    1    1    0    0    0 -0.21339018063E+02 -0.30828694872E+01 -0.20723048750E+02  0.29904891334E+02  0.00000000000E+00 0.  1.
</event>
<event>
 5    1  0.8907853E-005  0.9118800E+02  0.7818608E-02  0.1130116E+00
         25   -1    0    0    0    0  0.00000000000E+00  0.00000000000E+00  0.99999998245E-14  0.12500000000E+03  0.12500000000E+03 0.  0.
        -11    1    3    3    0    0 -0.12143084999E+02  0.83071820956E+01 -0.48349114092E+02  0.50538110584E+02  0.51100000000E-03 0.  1.
         23    2    1    0    0    0 -0.23996375261E+02 -0.13646566804E+02 -0.11374098784E+02  0.95143259817E+02  0.90337229060E+02 0.  0.
         11    1    3    3    0    0 -0.11853290262E+02 -0.21953748900E+02  0.36975015308E+02  0.44605149233E+02  0.51100000000E-03 0. -1.
         22    1    1    0    0    0  0.23996375261E+02  0.13646566804E+02  0.11374098784E+02  0.29856740183E+02  0.00000000000E+00 0.  1.
</event>
<event>
 5    1  0.8907853E-005  0.9118800E+02  0.7818608E-02  0.1130116E+00
         25   -1    0    0    0    0  0.00000000000E+00  0.00000000000E+00  0.99999998245E-14  0.12500000000E+03  0.12500000000E+03 0.  0.
        -11    1    3    3    0    0 -0.44936418860E+02 -0.86259819368E+01 -0.34625070611E+02  0.57381049305E+02  0.51100000000E-03 0. -1.
         23    2    1    0    0    0 -0.26837735025E+02 -0.11989927016E+02 -0.11507863477E+01  0.95583224509E+02  0.90943972462E+02 0.  0.
         11    1    3    3    0    0  0.18098683835E+02 -0.33639450787E+01  0.33474284263E+02  0.38202175203E+02  0.51100000000E-03 0.  1.
         22    1    1    0    0    0  0.26837735025E+02  0.11989927016E+02  0.11507863477E+01  0.29416775491E+02  0.00000000000E+00 0. -1.
</event>
<event>
 5    1  0.8907853E-005  0.9118800E+02  0.7818608E-02  0.1130116E+00
         25   -1    0    0    0    0  0.00000000000E+00  0.00000000000E+00  0.99999998245E-14  0.12500000000E+03  0.12500000000E+03 0.  0.
        -11    1    3    3    0    0  0.28225757698E+02  0.52839375122E+02  0.16242434442E+01  0.59927715858E+02  0.51100000000E-03 0.  1.
         23    2    1    0    0    0  0.18486874345E+02  0.28906196883E+02  0.13193847224E+02  0.88238466492E+02  0.80216062127E+02 0.  0.
         11    1    3    3    0    0 -0.97388833529E+01 -0.23933178240E+02  0.11569603780E+02  0.28310750635E+02  0.51100000000E-03 0. -1.
         22    1    1    0    0    0 -0.18486874345E+02 -0.28906196883E+02 -0.13193847224E+02  0.36761533508E+02  0.00000000000E+00 0.  1.
</event>
<event>
 5    1  0.8907853E-005  0.9118800E+02  0.7818608E-02  0.1130116E+00
         25   -1    0    0    0    0  0.00000000000E+00  0.00000000000E+00  0.99999998245E-14  0.12500000000E+03  0.12500000000E+03 0.  0.
        -11    1    3    3    0    0 -0.11488413806E+02  0.26637877142E+02  0.29217875200E+02  0.41173345526E+02  0.51100000000E-03 0. -1.
         23    2    1    0    0    0 -0.36662821848E+00  0.16652908676E+02 -0.23627270212E+02  0.96091494655E+02  0.91639913050E+02 0.  0.
         11    1    3    3    0    0  0.11121785587E+02 -0.99849684663E+01 -0.52845145411E+02  0.54918149129E+02  0.51100000000E-03 0.  1.
         22    1    1    0    0    0  0.36662821848E+00 -0.16652908676E+02  0.23627270212E+02  0.28908505345E+02  0.00000000000E+00 0.  1.
</event>
<event>
 5    1  0.8907853E-005  0.9118800E+02  0.7818608E-02  0.1130116E+00
         25   -1    0    0    0    0  0.00000000000E+00  0.00000000000E+00  0.99999998245E-14  0.12500000000E+03  0.12500000000E+03 0.  0.
        -11    1    3    3    0    0  0.19412870274E+00  0.17056665830E+02  0.32859467189E+02  0.37023129519E+02  0.51100000000E-03 0. -1.
         23    2    1    0    0    0 -0.26367239412E+02 -0.98698650880E+01 -0.10852370623E+02  0.94826841411E+02  0.89898333426E+02 0.  0.
         11    1    3    3    0    0 -0.26561368115E+02 -0.26926530918E+02 -0.43711837811E+02  0.57803711892E+02  0.51100000000E-03 0.  1.
         22    1    1    0    0    0  0.26367239412E+02  0.98698650880E+01  0.10852370623E+02  0.30173158589E+02  0.00000000000E+00 0.  1.
</event>
<event>
 5    1  0.8907853E-005  0.9118800E+02  0.7818608E-02  0.1130116E+00
         25   -1    0    0    0    0  0.00000000000E+00  0.00000000000E+00  0.99999998245E-14  0.12500000000E+03  0.12500000000E+03 0.  0.
        -11    1    3    3    0    0  0.42564113975E+02  0.24909481649E+02 -0.16177178037E+02  0.51902670105E+02  0.51100000000E-03 0. -1.
         23    2    1    0    0    0  0.13482416128E+02 -0.51276223851E+01 -0.26375969482E+02  0.94937401608E+02  0.90051931695E+02 0.  0.
         11    1    3    3    0    0 -0.29081697846E+02 -0.30037104034E+02 -0.10198791444E+02  0.43034731503E+02  0.51100000000E-03 0.  1.
         22    1    1    0    0    0 -0.13482416128E+02  0.51276223851E+01  0.26375969482E+02  0.30062598392E+02  0.00000000000E+00 0. -1.
</event>
<event>
 5    1  0.8907853E-005  0.9118800E+02  0.7818608E-02  0.1130116E+00
         25   -1    0    0    0    0  0.00000000000E+00  0.00000000000E+00  0.99999998245E-14  0.12500000000E+03  0.12500000000E+03 0.  0.
        -11    1    3    3    0    0  0.87853272731E+01 -0.43800441328E+01  0.32862274736E+02  0.34297169897E+02  0.51100000000E-03 0.  1.
         23    2    1    0    0    0  0.36315085653E+01  0.45331449667E+00 -0.28601289849E+02  0.96165521861E+02  0.91740833140E+02 0.  0.
         11    1    3    3    0    0 -0.51538187077E+01  0.48333586294E+01 -0.61463564585E+02  0.61868351964E+02  0.51100000000E-03 0. -1.
         22    1    1    0    0    0 -0.36315085653E+01 -0.45331449667E+00  0.28601289849E+02  0.28834478139E+02  0.00000000000E+00 0. -1.
</event>
<event>
 5    1  0.8907853E-005  0.9118800E+02  0.7818608E-02  0.1130116E+00
         25   -1    0    0    0    0  0.00000000000E+00  0.00000000000E+00  0.99999998245E-14  0.12500000000E+03  0.12500000000E+03 0.  0.
        -11    1    3    3    0    0 -0.41807228735E+02 -0.81329471832E+01  0.23004995201E+02  0.48406807464E+02  0.51100000000E-03 0. -1.
         23    2    1    0    0    0 -0.63564304589E+01  0.24195154369E+02  0.93974365436E+01  0.98276947841E+02  0.94573976126E+02 0.  0.
         11    1    3    3    0    0  0.35450798276E+02  0.32328101552E+02 -0.13607558657E+02  0.49870140377E+02  0.51100000000E-03 0.  1.
         22    1    1    0    0    0  0.63564304589E+01 -0.24195154369E+02 -0.93974365436E+01  0.26723052159E+02  0.00000000000E+00 0.  1.
</event>
<event>
 5    1  0.8907853E-005  0.9118800E+02  0.7818608E-02  0.1130116E+00
         25   -1    0    0    0    0  0.00000000000E+00  0.00000000000E+00  0.99999998245E-14  0.12500000000E+03  0.12500000000E+03 0.  0.
        -11    1    3    3    0    0 -0.19631783712E+02 -0.26550878287E+02  0.19739684453E+02  0.38470913846E+02  0.51100000000E-03 0. -1.
         23    2    1    0    0    0  0.25779189918E+02  0.82107167622E+01  0.59591142441E+01  0.97296326143E+02  0.93268866916E+02 0.  0.
         11    1    3    3    0    0  0.45410973630E+02  0.34761595049E+02 -0.13780570209E+02  0.58825412298E+02  0.51100000000E-03 0.  1.
         22    1    1    0    0    0 -0.25779189918E+02 -0.82107167622E+01 -0.59591142441E+01  0.27703673857E+02  0.00000000000E+00 0.  1.
</event>
<event>
 5    1  0.8907853E-005  0.9118800E+02  0.7818608E-02  0.1130116E+00
         25   -1    0    0    0    0  0.00000000000E+00  0.00000000000E+00  0.99999998245E-14  0.12500000000E+03  0.12500000000E+03 0.  0.
        -11    1    3    3    0    0  0.34907697290E+02 -0.39934757799E+02 -0.37506069244E+01  0.53173294643E+02  0.51100000000E-03 0.  1.
         23    2    1    0    0    0  0.29711258208E+02  0.15939077071E+01 -0.36251044367E+01  0.95025998128E+02  0.90174827596E+02 0.  0.
         11    1    3    3    0    0 -0.51964390826E+01  0.41528665506E+02  0.12550248773E+00  0.41852703485E+02  0.51100000000E-03 0. -1.
         22    1    1    0    0    0 -0.29711258208E+02 -0.15939077071E+01  0.36251044367E+01  0.29974001872E+02  0.00000000000E+00 0.  1.
</event>
<event>
 5    1  0.8907853E-005  0.9118800E+02  0.7818608E-02  0.1130116E+00
         25   -1    0    0    0    0  0.00000000000E+00  0.00000000000E+00  0.99999998245E-14  0.12500000000E+03  0.12500000000E+03 0.  0.
        -11    1    3    3    0    0  0.78764873353E+01 -0.15182571612E+02 -0.34516815643E+02  0.38522202636E+02  0.51100000000E-03 0. -1.
         23    2    1    0    0    0 -0.31526541721E+02  0.58004069949E+01 -0.37799079289E+01  0.92722217267E+02  0.86922691611E+02 0.  0.
         11    1    3    3    0    0 -0.39403029056E+02  0.20982978606E+02  0.30736907714E+02  0.54200014632E+02  0.51100000000E-03 0.  1.
         22    1    1    0    0    0  0.31526541721E+02 -0.58004069949E+01  0.37799079289E+01  0.32277782733E+02  0.00000000000E+00 0.  1.
</event>
<event>
 5    1  0.8907853E-005  0.9118800E+02  0.7818608E-02  0.1130116E+00
         25   -1    0    0    0    0  0.00000000000E+00  0.00000000000E+00  0.99999998245E-14  0.12500000000E+03  0.12500000000E+03 0.  0.
        -11    1    3    3    0    0 -0.38870913945E+02 -0.10295155659E+02  0.22636641030E+02  0.46144942283E+02  0.51100000000E-03 0.  1.
         23    2    1    0    0    0  0.13998668861E+01  0.18078192081E+02  0.23379775096E+02  0.95412932897E+02  0.90709609327E+02 0.  0.
         11    1    3    3    0    0  0.40270780831E+02  0.28373347740E+02  0.74313406626E+00  0.49267990614E+02  0.51100000000E-03 0. -1.
         22    1    1    0    0    0 -0.13998668861E+01 -0.18078192081E+02 -0.23379775096E+02  0.29587067103E+02  0.00000000000E+00 0.  1.
</event>
<event>
 5    1  0.8907853E-005  0.9118800E+02  0.7818608E-02  0.1130116E+00
         25   -1    0    0    0    0  0.00000000000E+00  0.00000000000E+00  0.99999998245E-14  0.12500000000E+03  0.12500000000E+03 0.  0.
        -11    1    3    3    0    0  0.48241143239E+02  0.19389220371E+02  0.17458932433E+02  0.54844909423E+02  0.51100000000E-03 0.  1.
         23    2    1    0    0    0  0.14168760661E+02  0.23951595955E+02 -0.60887363354E+01  0.96513065493E+02  0.92213157267E+02 0.  0.
         11    1    3    3    0    0 -0.34072382579E+02  0.45623755842E+01 -0.23547668769E+02  0.41668156070E+02  0.51100000000E-03 0. -1.
         22    1    1    0    0    0 -0.14168760661E+02 -0.23951595955E+02  0.60887363354E+01  0.28486934507E+02  0.00000000000E+00 0. -1.
</event>
<event>
 5    1  0.8907853E-005  0.9118800E+02  0.7818608E-02  0.1130116E+00
         25   -1    0    0    0    0  0.00000000000E+00  0.00000000000E+00  0.99999998245E-14  0.12500000000E+03  0.12500000000E+03 0.  0.
        -11    1    3    3    0    0  0.81654927249E+01  0.29364026149E+02 -0.46221968089E+02  0.55365979062E+02  0.51100000000E-03 0. -1.
         23    2    1    0    0    0  0.23580261509E+02  0.72365075893E+01 -0.17546653625E+02  0.94729869040E+02  0.89763395992E+02 0.  0.
         11    1    3    3    0    0  0.15414768784E+02 -0.22127518560E+02  0.28675314465E+02  0.39363889978E+02  0.51100000000E-03 0.  1.
         22    1    1    0    0    0 -0.23580261509E+02 -0.72365075893E+01  0.17546653625E+02  0.30270130960E+02  0.00000000000E+00 0. -1.
</event>
<event>
 5    1  0.8907853E-005  0.9118800E+02  0.7818608E-02  0.1130116E+00
         25   -1    0    0    0    0  0.00000000000E+00  0.00000000000E+00  0.99999998245E-14  0.12500000000E+03  0.12500000000E+03 0.  0.
        -11    1    3    3    0    0  0.61197880874E+02 -0.37392505765E+01 -0.10732574891E+02  0.62244283130E+02  0.51100000000E-03 0.  1.
         23    2    1    0    0    0  0.30753558780E+02  0.80944287745E+00 -0.83723256635E+01  0.93116894561E+02  0.87488420035E+02 0.  0.
         11    1    3    3    0    0 -0.30444322094E+02  0.45486934540E+01  0.23602492279E+01  0.30872611431E+02  0.51100000000E-03 0. -1.
         22    1    1    0    0    0 -0.30753558780E+02 -0.80944287745E+00  0.83723256635E+01  0.31883105439E+02  0.00000000000E+00 0.  1.
</event>
<event>
 5    1  0.8907853E-005  0.9118800E+02  0.7818608E-02  0.1130116E+00
         25   -1    0    0    0    0  0.00000000000E+00  0.00000000000E+00  0.99999998245E-14  0.12500000000E+03  0.12500000000E+03 0.  0.
        -11    1    3    3    0    0 -0.29355934943E+00 -0.21215132428E+02 -0.25418328914E+02  0.33109809212E+02  0.51100000000E-03 0. -1.
         23    2    1    0    0    0  0.96932674101E+01  0.21864216462E+02  0.17987206379E+02  0.95074375731E+02  0.90241863527E+02 0.  0.
         11    1    3    3    0    0  0.99868267596E+01  0.43079348890E+02  0.43405535293E+02  0.61964566519E+02  0.51100000000E-03 0.  1.
         22    1    1    0    0    0 -0.96932674101E+01 -0.21864216462E+02 -0.17987206379E+02  0.29925624269E+02  0.00000000000E+00 0.  1.
</event>
<event>
 5    1  0.8907853E-005  0.9118800E+02  0.7818608E-02  0.1130116E+00
         25   -1    0    0    0    0  0.00000000000E+00  0.00000000000E+00  0.99999998245E-14  0.12500000000E+03  0.12500000000E+03 0.  0.
        -11    1    3    3    0    0 -0.15254554285E+02 -0.78285980280E+01 -0.30715911956E+02  0.35177487418E+02  0.51100000000E-03 0.  1.
         23    2    1    0    0    0  0.26957500403E+02  0.43389600634E+01  0.10814897645E+02  0.95631727775E+02  0.91010614457E+02 0.  0.
         11    1    3    3    0    0  0.42212054687E+02  0.12167558091E+02  0.41530809601E+02  0.60454240357E+02  0.51100000000E-03 0. -1.
         22    1    1    0    0    0 -0.26957500403E+02 -0.43389600634E+01 -0.10814897645E+02  0.29368272225E+02  0.00000000000E+00 0. -1.
</event>
<event>
 5    1  0.8907853E-005  0.9118800E+02  0.7818608E-02  0.1130116E+00
         25   -1    0    0    0    0  0.00000000000E+00  0.00000000000E+00  0.99999998245E-14  0.12500000000E+03  0.12500000000E+03 0.  0.
        -11    1    3    3    0    0  0.15737781461E+02  0.22031689853E+02  0.29383241264E+02  0.39955575212E+02  0.51100000000E-03 0. -1.
         23    2    1    0    0    0 -0.26476866368E+02  0.10930831343E+02 -0.55006267061E+01  0.95832133766E+02  0.91285450327E+02 0.  0.
         11    1    3    3    0    0 -0.42214647829E+02 -0.11100858510E+02 -0.34883867970E+02  0.55876558554E+02  0.51100000000E-03 0.  1.
         22    1    1    0    0    0  0.26476866368E+02 -0.10930831343E+02  0.55006267061E+01  0.29167866234E+02  0.00000000000E+00 0.  1.
</event>
<event>
 5    1  0.8907853E-005  0.9118800E+02  0.7818608E-02  0.1130116E+00
         25   -1    0    0    0    0  0.00000000000E+00  0.00000000000E+00  0.99999998245E-14  0.12500000000E+03  0.12500000000E+03 0.  0.
        -11    1    3    3    0    0 -0.46740452751E+01  0.39577634677E+02 -0.98398222712E+01  0.41049457590E+02  0.51100000000E-03 0. -1.
         23    2    1    0    0    0 -0.84668060869E+01 -0.13488700631E+02 -0.24085482630E+02  0.96125403491E+02  0.91686154204E+02 0.  0.
         11    1    3    3    0    0 -0.37927608118E+01 -0.53066335308E+02 -0.14245660359E+02  0.55075945901E+02  0.51100000000E-03 0.  1.
         22    1    1    0    0    0  0.84668060869E+01  0.13488700631E+02  0.24085482630E+02  0.28874596509E+02  0.00000000000E+00 0.  1.
</event>
<event>
 5    1  0.8907853E-005  0.9118800E+02  0.7818608E-02  0.1130116E+00
         25   -1    0    0    0    0  0.00000000000E+00  0.00000000000E+00  0.99999998245E-14  0.12500000000E+03  0.12500000000E+03 0.  0.
        -11    1    3    3    0    0  0.23512149375E+02 -0.19847946336E+02  0.23010657917E+02  0.38422031701E+02  0.51100000000E-03 0.  1.
         23    2    1    0    0    0 -0.13595476791E+02  0.22892194009E+02  0.10433225877E+02  0.96403816025E+02  0.92064944503E+02 0.  0.
         11    1    3    3    0    0 -0.37107626166E+02  0.42740140345E+02 -0.12577432039E+02  0.57981784324E+02  0.51100000000E-03 0. -1.
         22    1    1    0    0    0  0.13595476791E+02 -0.22892194009E+02 -0.10433225877E+02  0.28596183975E+02  0.00000000000E+00 0. -1.
</event>
<event>
 5    1  0.8907853E-005  0.9118800E+02  0.7818608E-02  0.1130116E+00
         25   -1    0    0    0    0  0.00000000000E+00  0.00000000000E+00  0.99999998245E-14  0.12500000000E+03  0.12500000000E+03 0.  0.
        -11    1    3    3    0    0  0.42352940665E+02  0.40766158086E+02  0.19655394353E+01  0.58817638286E+02  0.51100000000E-03 0.  1.
         23    2    1    0    0    0  0.18206327188E+02  0.18251559661E+02 -0.14189883921E+02  0.95573097591E+02  0.90930052225E+02 0.  0.
         11    1    3    3    0    0 -0.24146613477E+02 -0.22514598425E+02 -0.16155423356E+02  0.36755459305E+02  0.51100000000E-03 0. -1.
         22    1    1    0    0    0 -0.18206327188E+02 -0.18251559661E+02  0.14189883921E+02  0.29426902409E+02  0.00000000000E+00 0.  1.
</event>
<event>
 5    1  0.8907853E-005  0.9118800E+02  0.7818608E-02  0.1130116E+00
         25   -1    0    0    0    0  0.00000000000E+00  0.00000000000E+00  0.99999998245E-14  0.12500000000E+03  0.12500000000E+03 0.  0.
        -11    1    3    3    0    0  0.37600437324E+02  0.10572810518E+02 -0.70568036532E+01  0.39691002598E+02  0.51100000000E-03 0.  1.
         23    2    1    0    0    0 -0.62428289446E+01 -0.26184780420E+02 -0.80188932590E+01  0.96912310740E+02  0.92752777235E+02 0.  0.
         11    1    3    3    0    0 -0.43843266269E+02 -0.36757590939E+02 -0.96208960576E+00  0.57221308141E+02  0.51100000000E-03 0. -1.
         22    1    1    0    0    0  0.62428289446E+01  0.26184780420E+02  0.80188932590E+01  0.28087689260E+02  0.00000000000E+00 0. -1.
</event>
<event>
 5    1  0.8907853E-005  0.9118800E+02  0.7818608E-02  0.1130116E+00
         25   -1    0    0    0    0  0.00000000000E+00  0.00000000000E+00  0.99999998245E-14  0.12500000000E+03  0.12500000000E+03 0.  0.
        -11    1    3    3    0    0  0.74802891999E+01  0.34947807474E+02 -0.25256137176E+02  0.43762728880E+02  0.51100000000E-03 0.  1.
         23    2    1    0    0    0 -0.15234333055E+02  0.18311422664E+02  0.17839372108E+02  0.95240357851E+02  0.90471484253E+02 0.  0.
         11    1    3    3    0    0 -0.22714622255E+02 -0.16636384810E+02  0.43095509284E+02  0.51477628971E+02  0.51100000000E-03 0. -1.
         22    1    1    0    0    0  0.15234333055E+02 -0.18311422664E+02 -0.17839372108E+02  0.29759642149E+02  0.00000000000E+00 0. -1.
</event>
<event>
 5    1  0.8907853E-005  0.9118800E+02  0.7818608E-02  0.1130116E+00
         25   -1    0    0    0    0  0.00000000000E+00  0.00000000000E+00  0.99999998245E-14  0.12500000000E+03  0.12500000000E+03 0.  0.
        -11    1    3    3    0    0  0.37974339299E+02 -0.61574581439E+01  0.25613615588E+02  0.46217118471E+02  0.51100000000E-03 0.  1.
         23    2    1    0    0    0  0.17322374603E+02  0.21498526124E+02 -0.98327835439E+01  0.95692408499E+02  0.91093919252E+02 0.  0.
         11    1    3    3    0    0 -0.20651964696E+02  0.27655984268E+02 -0.35446399132E+02  0.49475290028E+02  0.51100000000E-03 0. -1.
         22    1    1    0    0    0 -0.17322374603E+02 -0.21498526124E+02  0.98327835439E+01  0.29307591501E+02  0.00000000000E+00 0. -1.
</event>
<event>
 5    1  0.8907853E-005  0.9118800E+02  0.7818608E-02  0.1130116E+00
         25   -1    0    0    0    0  0.00000000000E+00  0.00000000000E+00  0.99999998245E-14  0.12500000000E+03  0.12500000000E+03 0.  0.
        -11    1    3    3    0    0 -0.15787420276E+02  0.47536887573E+02  0.36921379797E+02  0.62226896158E+02  0.51100000000E-03 0.  1.
         23    2    1    0    0    0 -0.10558178627E+02  0.23772637774E+02  0.15028532007E+02  0.94958857929E+02  0.90081710032E+02 0.  0.
         11    1    3    3    0    0  0.52292416483E+01 -0.23764249799E+02 -0.21892847790E+02  0.32731961771E+02  0.51100000000E-03 0. -1.
         22    1    1    0    0    0  0.10558178627E+02 -0.23772637774E+02 -0.15028532007E+02  0.30041142071E+02  0.00000000000E+00 0.  1.
</event>
<event>
 5    1  0.8907853E-005  0.9118800E+02  0.7818608E-02  0.1130116E+00
         25   -1    0    0    0    0  0.00000000000E+00  0.00000000000E+00  0.99999998245E-14  0.12500000000E+03  0.12500000000E+03 0.  0.
        -11    1    3    3    0    0 -0.47446489718E+02  0.21257573032E+02 -0.87055160593E+01  0.52714702009E+02  0.51100000000E-03 0. -1.
         23    2    1    0    0    0 -0.18864676554E+02 -0.11204603537E+02 -0.17600689498E+02  0.96871661394E+02  0.92697979204E+02 0.  0.
         11    1    3    3    0    0  0.28581813164E+02 -0.32462176569E+02 -0.88951734388E+01  0.44156959385E+02  0.51100000000E-03 0.  1.
         22    1    1    0    0    0  0.18864676554E+02  0.11204603537E+02  0.17600689498E+02  0.28128338606E+02  0.00000000000E+00 0. -1.
</event>
<event>
 5    1  0.8907853E-005  0.9118800E+02  0.7818608E-02  0.1130116E+00
         25   -1    0    0    0    0  0.00000000000E+00  0.00000000000E+00  0.99999998245E-14  0.12500000000E+03  0.12500000000E+03 0.  0.
        -11    1    3    3    0    0  0.11996883964E+02  0.48418558516E+02 -0.26268404639E+02  0.56376512096E+02  0.51100000000E-03 0. -1.
         23    2    1    0    0    0 -0.89068901446E+01  0.14942700066E+02 -0.23255833570E+02  0.95957776044E+02  0.91457334375E+02 0.  0.
         11    1    3    3    0    0 -0.20903774109E+02 -0.33475858450E+02  0.30125710692E+01  0.39581263947E+02  0.51100000000E-03 0.  1.
         22    1    1    0    0    0  0.89068901446E+01 -0.14942700066E+02  0.23255833570E+02  0.29042223956E+02  0.00000000000E+00 0. -1.
</event>
<event>
 5    1  0.8907853E-005  0.9118800E+02  0.7818608E-02  0.1130116E+00
         25   -1    0    0    0    0  0.00000000000E+00  0.00000000000E+00  0.99999998245E-14  0.12500000000E+03  0.12500000000E+03 0.  0.
        -11    1    3    3    0    0  0.14306757488E+02  0.23363627709E+02  0.10862940480E+02  0.29471102553E+02  0.51100000000E-03 0. -1.
         23    2    1    0    0    0 -0.35643254541E+02 -0.38998450782E+01 -0.55969210239E+01  0.88709837272E+02  0.80947262572E+02 0.  0.
         11    1    3    3    0    0 -0.49950012029E+02 -0.27263472787E+02 -0.16459861503E+02  0.59238734719E+02  0.51100000000E-03 0.  1.
         22    1    1    0    0    0  0.35643254541E+02  0.38998450782E+01  0.55969210239E+01  0.36290162728E+02  0.00000000000E+00 0.  1.
</event>
<event>
 5    1  0.8907853E-005  0.9118800E+02  0.7818608E-02  0.1130116E+00
         25   -1    0    0    0    0  0.00000000000E+00  0.00000000000E+00  0.99999998245E-14  0.12500000000E+03  0.12500000000E+03 0.  0.
        -11    1    3    3    0    0 -0.38545203863E+02  0.10689681776E+02 -0.42378841330E+01  0.40223894634E+02  0.51100000000E-03 0.  1.
         23    2    1    0    0    0  0.96001229838E+01  0.22556600753E+02  0.18018427326E+02  0.94575892419E+02  0.89548719168E+02 0.  0.
         11    1    3    3    0    0  0.48145326847E+02  0.11866918977E+02  0.22256311459E+02  0.54351997785E+02  0.51100000000E-03 0. -1.
         22    1    1    0    0    0 -0.96001229838E+01 -0.22556600753E+02 -0.18018427326E+02  0.30424107581E+02  0.00000000000E+00 0. -1.
</event>
<event>
 5    1  0.8907853E-005  0.9118800E+02  0.7818608E-02  0.1130116E+00
         25   -1    0    0    0    0  0.00000000000E+00  0.00000000000E+00  0.99999998245E-14  0.12500000000E+03  0.12500000000E+03 0.  0.
        -11    1    3    3    0    0  0.45035097088E+02 -0.15794660952E+02  0.11866660068E+02  0.49177727740E+02  0.51100000000E-03 0. -1.
         23    2    1    0    0    0  0.76068267620E+01 -0.28226799706E+02 -0.97886384319E+01  0.94170898855E+02  0.88981597613E+02 0.  0.
         11    1    3    3    0    0 -0.37428270326E+02 -0.12432138755E+02 -0.21655298500E+02  0.44993171115E+02  0.51100000000E-03 0.  1.
         22    1    1    0    0    0 -0.76068267620E+01  0.28226799706E+02  0.97886384319E+01  0.30829101145E+02  0.00000000000E+00 0.  1.
</event>
<event>
 5    1  0.8907853E-005  0.9118800E+02  0.7818608E-02  0.1130116E+00
         25   -1    0    0    0    0  0.00000000000E+00  0.00000000000E+00  0.99999998245E-14  0.12500000000E+03  0.12500000000E+03 0.  0.
        -11    1    3    3    0    0  0.21965714734E+02 -0.25533675599E+02 -0.63328173767E+01  0.34271938806E+02  0.51100000000E-03 0. -1.
         23    2    1    0    0    0  0.56264502219E+01  0.30839896540E+02  0.21591792385E+01  0.93576788584E+02  0.88143049335E+02 0.  0.
         11    1    3    3    0    0 -0.16339264512E+02  0.56373572139E+02  0.84919966152E+01  0.59304849778E+02  0.51100000000E-03 0.  1.
         22    1    1    0    0    0 -0.56264502219E+01 -0.30839896540E+02 -0.21591792385E+01  0.31423211416E+02  0.00000000000E+00 0.  1.
</event>
<event>
 5    1  0.8907853E-005  0.9118800E+02  0.7818608E-02  0.1130116E+00
         25   -1    0    0    0    0  0.00000000000E+00  0.00000000000E+00  0.99999998245E-14  0.12500000000E+03  0.12500000000E+03 0.  0.
        -11    1    3    3    0    0 -0.23014559670E+02 -0.12948329030E+02  0.32663067912E+02  0.42002442633E+02  0.51100000000E-03 0. -1.
         23    2    1    0    0    0  0.50173315390E+00 -0.25390150058E+02 -0.14209999470E+02  0.95899561153E+02  0.91377734095E+02 0.  0.
         11    1    3    3    0    0  0.23516292824E+02 -0.12441821028E+02 -0.46873067382E+02  0.53897118520E+02  0.51100000000E-03 0.  1.
         22    1    1    0    0    0 -0.50173315390E+00  0.25390150058E+02  0.14209999470E+02  0.29100438847E+02  0.00000000000E+00 0.  1.
</event>
<event>
 5    1  0.8907853E-005  0.9118800E+02  0.7818608E-02  0.1130116E+00
         25   -1    0    0    0    0  0.00000000000E+00  0.00000000000E+00  0.99999998245E-14  0.12500000000E+03  0.12500000000E+03 0.  0.
        -11    1    3    3    0    0 -0.29311549791E+02  0.24558225324E+02 -0.67473573992E+00  0.38245635709E+02  0.51100000000E-03 0.  1.
         23    2    1    0    0    0 -0.53797803096E+01 -0.27231189453E+02 -0.88182883859E+01  0.95875406865E+02  0.91344686306E+02 0.  0.
         11    1    3    3    0    0  0.23931769482E+02 -0.51789414777E+02 -0.81435526460E+01  0.57629771156E+02  0.51100000000E-03 0. -1.
         22    1    1    0    0    0  0.53797803096E+01  0.27231189453E+02  0.88182883859E+01  0.29124593135E+02  0.00000000000E+00 0. -1.
</event>
<event>
 5    1  0.8907853E-005  0.9118800E+02  0.7818608E-02  0.1130116E+00
         25   -1    0    0    0    0  0.00000000000E+00  0.00000000000E+00  0.99999998245E-14  0.12500000000E+03  0.12500000000E+03 0.  0.
        -11    1    3    3    0    0  0.26420865402E+02 -0.14739503248E+00  0.25533276621E+02  0.36742782545E+02  0.51100000000E-03 0.  1.
         23    2    1    0    0    0 -0.16499155424E+02  0.21335468710E+02 -0.97590818006E+01  0.96317879570E+02  0.91948191350E+02 0.  0.
         11    1    3    3    0    0 -0.42920020826E+02  0.21482863742E+02 -0.35292358422E+02  0.59575097025E+02  0.51100000000E-03 0. -1.
         22    1    1    0    0    0  0.16499155424E+02 -0.21335468710E+02  0.97590818006E+01  0.28682120430E+02  0.00000000000E+00 0. -1.
</event>
<event>
 5    1  0.8907853E-005  0.9118800E+02  0.7818608E-02  0.1130116E+00
         25   -1    0    0    0    0  0.00000000000E+00  0.00000000000E+00  0.99999998245E-14  0.12500000000E+03  0.12500000000E+03 0.  0.
        -11    1    3    3    0    0  0.51194185432E+02  0.19965092548E+02 -0.23915751157E+02  0.59928396409E+02  0.51100000000E-03 0.  1.
         23    2    1    0    0    0  0.18648543526E+02  0.68216450601E+01 -0.22407319281E+02  0.95060210850E+02  0.90222240676E+02 0.  0.
         11    1    3    3    0    0 -0.32545641906E+02 -0.13143447488E+02  0.15084318763E+01  0.35131814441E+02  0.51100000000E-03 0. -1.
         22    1    1    0    0    0 -0.18648543526E+02 -0.68216450601E+01  0.22407319281E+02  0.29939789150E+02  0.00000000000E+00 0.  1.
</event>
<event>
 5    1  0.8907853E-005  0.9118800E+02  0.7818608E-02  0.1130116E+00
         25   -1    0    0    0    0  0.00000000000E+00  0.00000000000E+00  0.99999998245E-14  0.12500000000E+03  0.12500000000E+03 0.  0.
        -11    1    3    3    0    0  0.38671933299E+02  0.33520644736E+02 -0.54653391334E+01  0.51468650465E+02  0.51100000000E-03 0.  1.
         23    2    1    0    0    0 -0.30658693983E+01  0.24418513091E+02 -0.16226312504E+02  0.95521930962E+02  0.90859687103E+02 0.  0.
         11    1    3    3    0    0 -0.41737802697E+02 -0.91021316450E+01 -0.10760973371E+02  0.44053280497E+02  0.51100000000E-03 0. -1.
         22    1    1    0    0    0  0.30658693983E+01 -0.24418513091E+02  0.16226312504E+02  0.29478069038E+02  0.00000000000E+00 0.  1.
</event>
<event>
 5    1  0.8907853E-005  0.9118800E+02  0.7818608E-02  0.1130116E+00
         25   -1    0    0    0    0  0.00000000000E+00  0.00000000000E+00  0.99999998245E-14  0.12500000000E+03  0.12500000000E+03 0.  0.
        -11    1    3    3    0    0 -0.14912273576E+02 -0.21855566143E+01  0.27865760941E+02  0.31680486013E+02  0.51100000000E-03 0. -1.
         23    2    1    0    0    0  0.13349505549E+02  0.19555787680E+01 -0.27717319296E+02  0.94173333368E+02  0.88985017514E+02 0.  0.
         11    1    3    3    0    0  0.28261779125E+02  0.41411353823E+01 -0.55583080237E+02  0.62492847355E+02  0.51100000000E-03 0.  1.
         22    1    1    0    0    0 -0.13349505549E+02 -0.19555787680E+01  0.27717319296E+02  0.30826666632E+02  0.00000000000E+00 0.  1.
</event>
<event>
 5    1  0.8907853E-005  0.9118800E+02  0.7818608E-02  0.1130116E+00
         25   -1    0    0    0    0  0.00000000000E+00  0.00000000000E+00  0.99999998245E-14  0.12500000000E+03  0.12500000000E+03 0.  0.
        -11    1    3    3    0    0  0.42308092516E+02  0.15394726486E+02  0.25648937136E+02  0.51815444343E+02  0.51100000000E-03 0. -1.
         23    2    1    0    0    0  0.20444181273E+02  0.14216577424E+02 -0.13502396568E+02  0.96673504724E+02  0.92430385593E+02 0.  0.
         11    1    3    3    0    0 -0.21863911243E+02 -0.11781490620E+01 -0.39151333704E+02  0.44858060381E+02  0.51100000000E-03 0.  1.
         22    1    1    0    0    0 -0.20444181273E+02 -0.14216577424E+02  0.13502396568E+02  0.28326495276E+02  0.00000000000E+00 0. -1.
</event>
<event>
 5    1  0.8907853E-005  0.9118800E+02  0.7818608E-02  0.1130116E+00
         25   -1    0    0    0    0  0.00000000000E+00  0.00000000000E+00  0.99999998245E-14  0.12500000000E+03  0.12500000000E+03 0.  0.
        -11    1    3    3    0    0  0.98837897811E+01  0.25466828672E+02 -0.37113164380E+02  0.46082921279E+02  0.51100000000E-03 0. -1.
         23    2    1    0    0    0 -0.18094900789E+01  0.27766128498E+02  0.10571689416E+02  0.95234369430E+02  0.90463209967E+02 0.  0.
         11    1    3    3    0    0 -0.11693279860E+02  0.22992998258E+01  0.47684853796E+02  0.49151448151E+02  0.51100000000E-03 0.  1.
         22    1    1    0    0    0  0.18094900789E+01 -0.27766128498E+02 -0.10571689416E+02  0.29765630570E+02  0.00000000000E+00 0.  1.
</event>
<event>
 5    1  0.8907853E-005  0.9118800E+02  0.7818608E-02  0.1130116E+00
         25   -1    0    0    0    0  0.00000000000E+00  0.00000000000E+00  0.99999998245E-14  0.12500000000E+03  0.12500000000E+03 0.  0.
        -11    1    3    3    0    0 -0.46244322404E+02  0.39340494897E+02  0.11587469443E+02  0.61810042401E+02  0.51100000000E-03 0. -1.
         23    2    1    0    0    0 -0.20765549846E+02  0.18216224846E+02 -0.13456468415E+01  0.97344084296E+02  0.93332850990E+02 0.  0.
         11    1    3    3    0    0  0.25478772558E+02 -0.21124270051E+02 -0.12933116285E+02  0.35534041894E+02  0.51100000000E-03 0.  1.
         22    1    1    0    0    0  0.20765549846E+02 -0.18216224846E+02  0.13456468415E+01  0.27655915704E+02  0.00000000000E+00 0. -1.
</event>
<event>
 5    1  0.8907853E-005  0.9118800E+02  0.7818608E-02  0.1130116E+00
         25   -1    0    0    0    0  0.00000000000E+00  0.00000000000E+00  0.99999998245E-14  0.12500000000E+03  0.12500000000E+03 0.  0.
        -11    1    3    3    0    0 -0.16270241124E+02  0.23334160674E+02 -0.23606372538E+02  0.36965722301E+02  0.51100000000E-03 0.  1.
         23    2    1    0    0    0  0.77182213313E+01  0.52359800408E+01  0.27339394155E+02  0.96113516997E+02  0.91669947362E+02 0.  0.
         11    1    3    3    0    0  0.23988462455E+02 -0.18098180633E+02  0.50945766693E+02  0.59147794696E+02  0.51100000000E-03 0. -1.
         22    1    1    0    0    0 -0.77182213313E+01 -0.52359800408E+01 -0.27339394155E+02  0.28886483003E+02  0.00000000000E+00 0. -1.
</event>
<event>
 5    1  0.8907853E-005  0.9118800E+02  0.7818608E-02  0.1130116E+00
         25   -1    0    0    0    0  0.00000000000E+00  0.00000000000E+00  0.99999998245E-14  0.12500000000E+03  0.12500000000E+03 0.  0.
        -11    1    3    3    0    0 -0.33425059500E+02  0.36745690369E+01  0.87841265453E+01  0.34754826134E+02  0.51100000000E-03 0.  1.
         23    2    1    0    0    0  0.28098817857E+02 -0.84769766502E+00  0.19806598710E+01  0.96818708869E+02  0.92626547044E+02 0.  0.
         11    1    3    3    0    0  0.61523877357E+02 -0.45222667019E+01 -0.68034666743E+01  0.62063882735E+02  0.51100000000E-03 0. -1.
         22    1    1    0    0    0 -0.28098817857E+02  0.84769766502E+00 -0.19806598710E+01  0.28181291131E+02  0.00000000000E+00 0. -1.
</event>
<event>
 5    1  0.8907853E-005  0.9118800E+02  0.7818608E-02  0.1130116E+00
         25   -1    0    0    0    0  0.00000000000E+00  0.00000000000E+00  0.99999998245E-14  0.12500000000E+03  0.12500000000E+03 0.  0.
        -11    1    3    3    0    0 -0.10366905162E+02  0.19583911549E+02  0.46388327481E+02  0.51408941255E+02  0.51100000000E-03 0. -1.
         23    2    1    0    0    0  0.19889528389E+02 -0.90369720834E+00  0.21933977486E+02  0.95377215247E+02  0.90660376194E+02 0.  0.
         11    1    3    3    0    0  0.30256433552E+02 -0.20487608758E+02 -0.24454349995E+02  0.43968273992E+02  0.51100000000E-03 0.  1.
         22    1    1    0    0    0 -0.19889528389E+02  0.90369720834E+00 -0.21933977486E+02  0.29622784753E+02  0.00000000000E+00 0. -1.
</event>
<event>
 5    1  0.8907853E-005  0.9118800E+02  0.7818608E-02  0.1130116E+00
         25   -1    0    0    0    0  0.00000000000E+00  0.00000000000E+00  0.99999998245E-14  0.12500000000E+03  0.12500000000E+03 0.  0.
        -11    1    3    3    0    0 -0.24042199119E+02  0.24441746033E+02 -0.39969513219E+02  0.52659170852E+02  0.51100000000E-03 0.  1.
         23    2    1    0    0    0 -0.13560710336E+02  0.24986658420E+02  0.25515397348E+01  0.96456413701E+02  0.92136330648E+02 0.  0.
         11    1    3    3    0    0  0.10481488783E+02  0.54491238720E+00  0.42521052954E+02  0.43797242849E+02  0.51100000000E-03 0. -1.
         22    1    1    0    0    0  0.13560710336E+02 -0.24986658420E+02 -0.25515397348E+01  0.28543586299E+02  0.00000000000E+00 0. -1.
</event>
<event>
 5    1  0.8907853E-005  0.9118800E+02  0.7818608E-02  0.1130116E+00
         25   -1    0    0    0    0  0.00000000000E+00  0.00000000000E+00  0.99999998245E-14  0.12500000000E+03  0.12500000000E+03 0.  0.
        -11    1    3    3    0    0 -0.21696464070E+01 -0.49488096315E+02  0.34448424173E+01  0.49655271441E+02  0.51100000000E-03 0.  1.
         23    2    1    0    0    0  0.23406788872E+02 -0.13244321283E+02 -0.10460639349E+02  0.96143202064E+02  0.91710416616E+02 0.  0.
         11    1    3    3    0    0  0.25576435279E+02  0.36243775032E+02 -0.13905481766E+02  0.46487930622E+02  0.51100000000E-03 0. -1.
         22    1    1    0    0    0 -0.23406788872E+02  0.13244321283E+02  0.10460639349E+02  0.28856797936E+02  0.00000000000E+00 0. -1.
</event>
<event>
 5    1  0.8907853E-005  0.9118800E+02  0.7818608E-02  0.1130116E+00
         25   -1    0    0    0    0  0.00000000000E+00  0.00000000000E+00  0.99999998245E-14  0.12500000000E+03  0.12500000000E+03 0.  0.
        -11    1    3    3    0    0  0.84214221443E+01  0.25792963821E+02  0.26986050703E+02  0.38268058044E+02  0.51100000000E-03 0.  1.
         23    2    1    0    0    0  0.21905808819E+02 -0.19341425576E+02 -0.51983646664E+01  0.95318723098E+02  0.90579692948E+02 0.  0.
         11    1    3    3    0    0  0.13484386674E+02 -0.45134389397E+02 -0.32184415370E+02  0.57050665055E+02  0.51100000000E-03 0. -1.
         22    1    1    0    0    0 -0.21905808819E+02  0.19341425576E+02  0.51983646664E+01  0.29681276902E+02  0.00000000000E+00 0. -1.
</event>
<event>
 5    1  0.8907853E-005  0.9118800E+02  0.7818608E-02  0.1130116E+00
         25   -1    0    0    0    0  0.00000000000E+00  0.00000000000E+00  0.99999998245E-14  0.12500000000E+03  0.12500000000E+03 0.  0.
        -11    1    3    3    0    0 -0.16788204962E+02  0.33993426093E+02 -0.40702100403E+01  0.38130872708E+02  0.51100000000E-03 0. -1.
         23    2    1    0    0    0 -0.32094526595E+01 -0.21337132138E+02  0.15568022896E+02  0.98392912014E+02  0.94727123906E+02 0.  0.
         11    1    3    3    0    0  0.13578752302E+02 -0.55330558231E+02  0.19638232936E+02  0.60262039306E+02  0.51100000000E-03 0.  1.
         22    1    1    0    0    0  0.32094526595E+01  0.21337132138E+02 -0.15568022896E+02  0.26607087986E+02  0.00000000000E+00 0.  1.
</event>
<event>
 5    1  0.8907853E-005  0.9118800E+02  0.7818608E-02  0.1130116E+00
         25   -1    0    0    0    0  0.00000000000E+00  0.00000000000E+00  0.99999998245E-14  0.12500000000E+03  0.12500000000E+03 0.  0.
        -11    1    3    3    0    0  0.13147399506E+02  0.16254836916E+00 -0.37414749836E+02  0.39657837073E+02  0.51100000000E-03 0.  1.
         23    2    1    0    0    0  0.15029037793E+02 -0.17211559037E+02  0.16812541347E+02  0.96631508887E+02  0.92373574261E+02 0.  0.
         11    1    3    3    0    0  0.18816382871E+01 -0.17374107406E+02  0.54227291183E+02  0.56973671815E+02  0.51100000000E-03 0. -1.
         22    1    1    0    0    0 -0.15029037793E+02  0.17211559037E+02 -0.16812541347E+02  0.28368491113E+02  0.00000000000E+00 0.  1.
</event>
<event>
 5    1  0.8907853E-005  0.9118800E+02  0.7818608E-02  0.1130116E+00
         25   -1    0    0    0    0  0.00000000000E+00  0.00000000000E+00  0.99999998245E-14  0.12500000000E+03  0.12500000000E+03 0.  0.
        -11    1    3    3    0    0 -0.46794498858E+02  0.61865830943E+01  0.26091761915E+02  0.53933097203E+02  0.51100000000E-03 0.  1.
         23    2    1    0    0    0 -0.22695001836E+02 -0.18863736833E+02  0.37569597437E+01  0.95250740813E+02  0.90485828743E+02 0.  0.
         11    1    3    3    0    0  0.24099497023E+02 -0.25050319928E+02 -0.22334802172E+02  0.41317643611E+02  0.51100000000E-03 0. -1.
         22    1    1    0    0    0  0.22695001836E+02  0.18863736833E+02 -0.37569597437E+01  0.29749259187E+02  0.00000000000E+00 0.  1.
</event>
<event>
 5    1  0.8907853E-005  0.9118800E+02  0.7818608E-02  0.1130116E+00
         25   -1    0    0    0    0  0.00000000000E+00  0.00000000000E+00  0.99999998245E-14  0.12500000000E+03  0.12500000000E+03 0.  0.
        -11    1    3    3    0    0 -0.48064097367E+01 -0.44052427818E+02 -0.42323206209E+02  0.61277824336E+02  0.51100000000E-03 0.  1.
         23    2    1    0    0    0  0.65440645794E+00 -0.18447938510E+02 -0.28922937481E+02  0.90688325666E+02  0.83946896408E+02 0.  0.
         11    1    3    3    0    0  0.54608161946E+01  0.25604489308E+02  0.13400268729E+02  0.29410501331E+02  0.51100000000E-03 0. -1.
         22    1    1    0    0    0 -0.65440645794E+00  0.18447938510E+02  0.28922937481E+02  0.34311674334E+02  0.00000000000E+00 0.  1.
</event>
<event>
 5    1  0.8907853E-005  0.9118800E+02  0.7818608E-02  0.1130116E+00
         25   -1    0    0    0    0  0.00000000000E+00  0.00000000000E+00  0.99999998245E-14  0.12500000000E+03  0.12500000000E+03 0.  0.
        -11    1    3    3    0    0  0.25078379921E+02 -0.43173531589E+02  0.26885064533E+02  0.56707016008E+02  0.51100000000E-03 0. -1.
         23    2    1    0    0    0  0.84502801273E+01 -0.82823287692E+01  0.27176927747E+02  0.95358987773E+02  0.90635241178E+02 0.  0.
         11    1    3    3    0    0 -0.16628099793E+02  0.34891202820E+02  0.29186321342E+00  0.38651971765E+02  0.51100000000E-03 0.  1.
         22    1    1    0    0    0 -0.84502801273E+01  0.82823287692E+01 -0.27176927747E+02  0.29641012227E+02  0.00000000000E+00 0. -1.
</event>
<event>
 5    1  0.8907853E-005  0.9118800E+02  0.7818608E-02  0.1130116E+00
         25   -1    0    0    0    0  0.00000000000E+00  0.00000000000E+00  0.99999998245E-14  0.12500000000E+03  0.12500000000E+03 0.  0.
        -11    1    3    3    0    0 -0.46433514147E+02  0.34889808819E+02  0.77959799496E+01  0.58601598093E+02  0.51100000000E-03 0.  1.
         23    2    1    0    0    0 -0.28432602853E+02  0.33082070806E+01  0.90628094869E+01  0.94975149378E+02  0.90104313684E+02 0.  0.
         11    1    3    3    0    0  0.18000911294E+02 -0.31581601738E+02  0.12668295373E+01  0.36373551285E+02  0.51100000000E-03 0. -1.
         22    1    1    0    0    0  0.28432602853E+02 -0.33082070806E+01 -0.90628094869E+01  0.30024850622E+02  0.00000000000E+00 0. -1.
</event>
<event>
 5    1  0.8907853E-005  0.9118800E+02  0.7818608E-02  0.1130116E+00
         25   -1    0    0    0    0  0.00000000000E+00  0.00000000000E+00  0.99999998245E-14  0.12500000000E+03  0.12500000000E+03 0.  0.
        -11    1    3    3    0    0 -0.32245015156E+02  0.47848641199E+02  0.18504276611E+02  0.60594073309E+02  0.51100000000E-03 0.  1.
         23    2    1    0    0    0 -0.13421839051E+02  0.20296426153E+02  0.19254271478E+02  0.93970696943E+02  0.88699911137E+02 0.  0.
         11    1    3    3    0    0  0.18823176105E+02 -0.27552215046E+02  0.74999486610E+00  0.33376623634E+02  0.51100000000E-03 0. -1.
         22    1    1    0    0    0  0.13421839051E+02 -0.20296426153E+02 -0.19254271478E+02  0.31029303057E+02  0.00000000000E+00 0.  1.
</event>
<event>
 5    1  0.8907853E-005  0.9118800E+02  0.7818608E-02  0.1130116E+00
         25   -1    0    0    0    0  0.00000000000E+00  0.00000000000E+00  0.99999998245E-14  0.12500000000E+03  0.12500000000E+03 0.  0.
        -11    1    3    3    0    0 -0.35408755509E+02  0.26973519626E+02 -0.26500722886E+02  0.51803851609E+02  0.51100000000E-03 0.  1.
         23    2    1    0    0    0 -0.10848015516E+02  0.22285226592E+02  0.11804090497E+02  0.97547362288E+02  0.93604703791E+02 0.  0.
         11    1    3    3    0    0  0.24560739994E+02 -0.46882930339E+01  0.38304813383E+02  0.45743510679E+02  0.51100000000E-03 0. -1.
         22    1    1    0    0    0  0.10848015516E+02 -0.22285226592E+02 -0.11804090497E+02  0.27452637712E+02  0.00000000000E+00 0.  1.
</event>
<event>
 5    1  0.8907853E-005  0.9118800E+02  0.7818608E-02  0.1130116E+00
         25   -1    0    0    0    0  0.00000000000E+00  0.00000000000E+00  0.99999998245E-14  0.12500000000E+03  0.12500000000E+03 0.  0.
        -11    1    3    3    0    0 -0.30670873818E+02  0.11918802461E+01  0.78579662976E+01  0.31683918853E+02  0.51100000000E-03 0. -1.
         23    2    1    0    0    0  0.20172750058E+02  0.28332741316E+02 -0.20305406488E+01  0.90160264485E+02  0.83156876572E+02 0.  0.
         11    1    3    3    0    0  0.50843623877E+02  0.27140861070E+02 -0.98885069464E+01  0.58476345632E+02  0.51100000000E-03 0.  1.
         22    1    1    0    0    0 -0.20172750058E+02 -0.28332741316E+02  0.20305406488E+01  0.34839735515E+02  0.00000000000E+00 0.  1.
</event>
<event>
 5    1  0.8907853E-005  0.9118800E+02  0.7818608E-02  0.1130116E+00
         25   -1    0    0    0    0  0.00000000000E+00  0.00000000000E+00  0.99999998245E-14  0.12500000000E+03  0.12500000000E+03 0.  0.
        -11    1    3    3    0    0  0.56255364376E+01  0.41069021819E+02 -0.40735436340E+02  0.58117871498E+02  0.51100000000E-03 0. -1.
         23    2    1    0    0    0  0.16397243303E+02  0.23393706491E+02 -0.10915642455E+02  0.94417548471E+02  0.89327415263E+02 0.  0.
         11    1    3    3    0    0  0.10771706865E+02 -0.17675315328E+02  0.29819793885E+02  0.36299676972E+02  0.51100000000E-03 0.  1.
         22    1    1    0    0    0 -0.16397243303E+02 -0.23393706491E+02  0.10915642455E+02  0.30582451529E+02  0.00000000000E+00 0. -1.
</event>
<event>
 5    1  0.8907853E-005  0.9118800E+02  0.7818608E-02  0.1130116E+00
         25   -1    0    0    0    0  0.00000000000E+00  0.00000000000E+00  0.99999998245E-14  0.12500000000E+03  0.12500000000E+03 0.  0.
        -11    1    3    3    0    0 -0.17612667215E+01 -0.27077571317E+02  0.23137972978E+02  0.35660380293E+02  0.51100000000E-03 0.  1.
         23    2    1    0    0    0  0.95243779743E+01 -0.53868451495E+01 -0.29411028283E+02  0.93619425417E+02  0.88203494003E+02 0.  0.
         11    1    3    3    0    0  0.11285644696E+02  0.21690726168E+02 -0.52549001261E+02  0.57959045124E+02  0.51100000000E-03 0. -1.
         22    1    1    0    0    0 -0.95243779743E+01  0.53868451495E+01  0.29411028283E+02  0.31380574583E+02  0.00000000000E+00 0. -1.
</event>
<event>
 5    1  0.8907853E-005  0.9118800E+02  0.7818608E-02  0.1130116E+00
         25   -1    0    0    0    0  0.00000000000E+00  0.00000000000E+00  0.99999998245E-14  0.12500000000E+03  0.12500000000E+03 0.  0.
        -11    1    3    3    0    0  0.27611517376E+02  0.82346301097E+01 -0.49589029549E+02  0.57352217714E+02  0.51100000000E-03 0. -1.
         23    2    1    0    0    0  0.22856498163E+01  0.18113983307E+02 -0.25251767931E+02  0.93839249528E+02  0.88514475551E+02 0.  0.
         11    1    3    3    0    0 -0.25325867560E+02  0.98793531977E+01  0.24337261618E+02  0.36487031814E+02  0.51100000000E-03 0.  1.
         22    1    1    0    0    0 -0.22856498163E+01 -0.18113983307E+02  0.25251767931E+02  0.31160750472E+02  0.00000000000E+00 0. -1.
</event>
<event>
 5    1  0.8907853E-005  0.9118800E+02  0.7818608E-02  0.1130116E+00
         25   -1    0    0    0    0  0.00000000000E+00  0.00000000000E+00  0.99999998245E-14  0.12500000000E+03  0.12500000000E+03 0.  0.
        -11    1    3    3    0    0  0.55350276817E+02 -0.22339325127E+02 -0.10341655122E+02  0.60577623111E+02  0.51100000000E-03 0.  1.
         23    2    1    0    0    0  0.26127357219E+02 -0.17214061566E+01 -0.11594502583E+02  0.96363755055E+02  0.92010536156E+02 0.  0.
         11    1    3    3    0    0 -0.29222919598E+02  0.20617918971E+02 -0.12528474612E+01  0.35786131944E+02  0.51100000000E-03 0. -1.
         22    1    1    0    0    0 -0.26127357219E+02  0.17214061566E+01  0.11594502583E+02  0.28636244945E+02  0.00000000000E+00 0.  1.
</event>
<event>
 5    1  0.8907853E-005  0.9118800E+02  0.7818608E-02  0.1130116E+00
         25   -1    0    0    0    0  0.00000000000E+00  0.00000000000E+00  0.99999998245E-14  0.12500000000E+03  0.12500000000E+03 0.  0.
        -11    1    3    3    0    0 -0.12245447294E+02  0.48670974458E+01 -0.33978352448E+02  0.36444040011E+02  0.51100000000E-03 0.  1.
         23    2    1    0    0    0  0.19060400020E+02  0.15172515352E+02  0.15668154208E+02  0.96034587396E+02  0.91562256684E+02 0.  0.
         11    1    3    3    0    0  0.31305847314E+02  0.10305417906E+02  0.49646506656E+02  0.59590547385E+02  0.51100000000E-03 0. -1.
         22    1    1    0    0    0 -0.19060400020E+02 -0.15172515352E+02 -0.15668154208E+02  0.28965412604E+02  0.00000000000E+00 0. -1.
</event>
<event>
 5    1  0.8907853E-005  0.9118800E+02  0.7818608E-02  0.1130116E+00
         25   -1    0    0    0    0  0.00000000000E+00  0.00000000000E+00  0.99999998245E-14  0.12500000000E+03  0.12500000000E+03 0.  0.
        -11    1    3    3    0    0  0.33918779640E+02 -0.10656247886E+01  0.28308976333E+01  0.34053386764E+02  0.51100000000E-03 0.  1.
         23    2    1    0    0    0 -0.25933573827E+02  0.10601644154E+02  0.95473011481E+01  0.95401079928E+02  0.90693274183E+02 0.  0.
         11    1    3    3    0    0 -0.59852353467E+02  0.11667268942E+02  0.67164035148E+01  0.61347693164E+02  0.51100000000E-03 0. -1.
         22    1    1    0    0    0  0.25933573827E+02 -0.10601644154E+02 -0.95473011481E+01  0.29598920072E+02  0.00000000000E+00 0. -1.
</event>
<event>
 5    1  0.8907853E-005  0.9118800E+02  0.7818608E-02  0.1130116E+00
         25   -1    0    0    0    0  0.00000000000E+00  0.00000000000E+00  0.99999998245E-14  0.12500000000E+03  0.12500000000E+03 0.  0.
        -11    1    3    3    0    0 -0.34938568049E+02 -0.41427575497E+01 -0.74237508718E+00  0.35191150855E+02  0.51100000000E-03 0.  1.
         23    2    1    0    0    0 -0.71397432431E+00  0.28306602957E+02 -0.24096573197E+02  0.87819112838E+02  0.79559903277E+02 0.  0.
         11    1    3    3    0    0  0.34224593725E+02  0.32449360507E+02 -0.23354198110E+02  0.52627961984E+02  0.51100000000E-03 0. -1.
         22    1    1    0    0    0  0.71397432431E+00 -0.28306602957E+02  0.24096573197E+02  0.37180887162E+02  0.00000000000E+00 0. -1.
</event>
<event>
 5    1  0.8907853E-005  0.9118800E+02  0.7818608E-02  0.1130116E+00
         25   -1    0    0    0    0  0.00000000000E+00  0.00000000000E+00  0.99999998245E-14  0.12500000000E+03  0.12500000000E+03 0.  0.
        -11    1    3    3    0    0  0.34286914947E+02  0.33097651472E+01  0.29036189558E+02  0.45051608032E+02  0.51100000000E-03 0.  1.
         23    2    1    0    0    0 -0.77772172223E+01  0.19816781105E+02  0.27444696443E+02  0.90266712163E+02  0.83316733258E+02 0.  0.
         11    1    3    3    0    0 -0.42064132170E+02  0.16507015958E+02 -0.15914931151E+01  0.45215104132E+02  0.51100000000E-03 0. -1.
         22    1    1    0    0    0  0.77772172223E+01 -0.19816781105E+02 -0.27444696443E+02  0.34733287837E+02  0.00000000000E+00 0.  1.
</event>
<event>
 5    1  0.8907853E-005  0.9118800E+02  0.7818608E-02  0.1130116E+00
         25   -1    0    0    0    0  0.00000000000E+00  0.00000000000E+00  0.99999998245E-14  0.12500000000E+03  0.12500000000E+03 0.  0.
        -11    1    3    3    0    0 -0.52879581509E+01  0.37973749142E+02  0.96399049533E+01  0.39533478130E+02  0.51100000000E-03 0.  1.
         23    2    1    0    0    0  0.32325908332E+02  0.12633274733E+01  0.29913767898E+01  0.92511406911E+02  0.86619003272E+02 0.  0.
         11    1    3    3    0    0  0.37613866483E+02 -0.36710421669E+02 -0.66485281635E+01  0.52977928781E+02  0.51100000000E-03 0. -1.
         22    1    1    0    0    0 -0.32325908332E+02 -0.12633274733E+01 -0.29913767898E+01  0.32488593089E+02  0.00000000000E+00 0. -1.
</event>
<event>
 5    1  0.8907853E-005  0.9118800E+02  0.7818608E-02  0.1130116E+00
         25   -1    0    0    0    0  0.00000000000E+00  0.00000000000E+00  0.99999998245E-14  0.12500000000E+03  0.12500000000E+03 0.  0.
        -11    1    3    3    0    0  0.22910978059E+02 -0.53838755209E+01  0.17157488227E+02  0.29125219892E+02  0.51100000000E-03 0.  1.
         23    2    1    0    0    0 -0.69754399048E+01 -0.36208417169E+02 -0.17387918064E+02  0.84231802463E+02  0.73708551850E+02 0.  0.
         11    1    3    3    0    0 -0.29886417964E+02 -0.30824541648E+02 -0.34545406292E+02  0.55106582571E+02  0.51100000000E-03 0. -1.
         22    1    1    0    0    0  0.69754399048E+01  0.36208417169E+02  0.17387918064E+02  0.40768197537E+02  0.00000000000E+00 0. -1.
</event>
<event>
 5    1  0.8907853E-005  0.9118800E+02  0.7818608E-02  0.1130116E+00
         25   -1    0    0    0    0  0.00000000000E+00  0.00000000000E+00  0.99999998245E-14  0.12500000000E+03  0.12500000000E+03 0.  0.
        -11    1    3    3    0    0  0.19718319625E+02 -0.32052928231E+02 -0.88128854487E+01  0.38650605263E+02  0.51100000000E-03 0.  1.
         23    2    1    0    0    0 -0.12676729633E+02  0.12714210849E+02 -0.23116052607E+02  0.95730518970E+02  0.91146199824E+02 0.  0.
         11    1    3    3    0    0 -0.32395049257E+02  0.44767139080E+02 -0.14303167158E+02  0.57079913707E+02  0.51100000000E-03 0. -1.
         22    1    1    0    0    0  0.12676729633E+02 -0.12714210849E+02  0.23116052607E+02  0.29269481030E+02  0.00000000000E+00 0.  1.
</event>
<event>
 5    1  0.8907853E-005  0.9118800E+02  0.7818608E-02  0.1130116E+00
         25   -1    0    0    0    0  0.00000000000E+00  0.00000000000E+00  0.99999998245E-14  0.12500000000E+03  0.12500000000E+03 0.  0.
        -11    1    3    3    0    0  0.58482526152E+02 -0.13122865360E+02 -0.67092229148E+01  0.60311102898E+02  0.51100000000E-03 0.  1.
         23    2    1    0    0    0  0.49499462695E+02 -0.69705866740E+01  0.30315533176E+01  0.74920301507E+02  0.55723203217E+02 0.  0.
         11    1    3    3    0    0 -0.89830634576E+01  0.61522786864E+01  0.97407762325E+01  0.14609198609E+02  0.51100000000E-03 0. -1.
         22    1    1    0    0    0 -0.49499462695E+02  0.69705866740E+01 -0.30315533176E+01  0.50079698493E+02  0.00000000000E+00 0.  1.
</event>
<event>
 5    1  0.8907853E-005  0.9118800E+02  0.7818608E-02  0.1130116E+00
         25   -1    0    0    0    0  0.00000000000E+00  0.00000000000E+00  0.99999998245E-14  0.12500000000E+03  0.12500000000E+03 0.  0.
        -11    1    3    3    0    0 -0.11577953202E+01  0.22503531863E+02 -0.35695499486E+02  0.42212772002E+02  0.51100000000E-03 0. -1.
         23    2    1    0    0    0  0.49671275117E+01  0.62659269858E+01  0.21541244827E+02  0.10202263232E+03  0.99401499388E+02 0.  0.
         11    1    3    3    0    0  0.61249228319E+01 -0.16237604877E+02  0.57236744312E+02  0.59809860321E+02  0.51100000000E-03 0.  1.
         22    1    1    0    0    0 -0.49671275117E+01 -0.62659269858E+01 -0.21541244827E+02  0.22977367677E+02  0.00000000000E+00 0.  1.
</event>
<event>
 5    1  0.8907853E-005  0.9118800E+02  0.7818608E-02  0.1130116E+00
         25   -1    0    0    0    0  0.00000000000E+00  0.00000000000E+00  0.99999998245E-14  0.12500000000E+03  0.12500000000E+03 0.  0.
        -11    1    3    3    0    0 -0.16911913403E+02  0.46726063942E+02  0.31176702287E+02  0.58662804503E+02  0.51100000000E-03 0. -1.
         23    2    1    0    0    0  0.70519800040E+01  0.18069338458E+02  0.18725670657E+02  0.98039247862E+02  0.94259280527E+02 0.  0.
         11    1    3    3    0    0  0.23963893407E+02 -0.28656725484E+02 -0.12451031630E+02  0.39376443359E+02  0.51100000000E-03 0.  1.
         22    1    1    0    0    0 -0.70519800040E+01 -0.18069338458E+02 -0.18725670657E+02  0.26960752138E+02  0.00000000000E+00 0. -1.
</event>
<event>
 5    1  0.8907853E-005  0.9118800E+02  0.7818608E-02  0.1130116E+00
         25   -1    0    0    0    0  0.00000000000E+00  0.00000000000E+00  0.99999998245E-14  0.12500000000E+03  0.12500000000E+03 0.  0.
        -11    1    3    3    0    0 -0.47000749765E+02  0.99097888677E+01  0.30737620550E+02  0.57026973541E+02  0.51100000000E-03 0.  1.
         23    2    1    0    0    0 -0.11896166824E+02 -0.57147727532E+01  0.26129042686E+02  0.95727072500E+02  0.91141473134E+02 0.  0.
         11    1    3    3    0    0  0.35104582941E+02 -0.15624561621E+02 -0.46085778642E+01  0.38700098960E+02  0.51100000000E-03 0. -1.
         22    1    1    0    0    0  0.11896166824E+02  0.57147727532E+01 -0.26129042686E+02  0.29272927500E+02  0.00000000000E+00 0.  1.
</event>
<event>
 5    1  0.8907853E-005  0.9118800E+02  0.7818608E-02  0.1130116E+00
         25   -1    0    0    0    0  0.00000000000E+00  0.00000000000E+00  0.99999998245E-14  0.12500000000E+03  0.12500000000E+03 0.  0.
        -11    1    3    3    0    0 -0.95610485161E+01 -0.56441467895E+02 -0.16363221140E+01  0.57268931343E+02  0.51100000000E-03 0.  1.
         23    2    1    0    0    0  0.13669496048E+02 -0.26237507915E+02  0.14454095336E+00  0.95414820672E+02  0.90712210688E+02 0.  0.
         11    1    3    3    0    0  0.23230544564E+02  0.30203959980E+02  0.17808630673E+01  0.38145889329E+02  0.51100000000E-03 0. -1.
         22    1    1    0    0    0 -0.13669496048E+02  0.26237507915E+02 -0.14454095336E+00  0.29585179328E+02  0.00000000000E+00 0.  1.
</event>
<event>
 5    1  0.8907853E-005  0.9118800E+02  0.7818608E-02  0.1130116E+00
         25   -1    0    0    0    0  0.00000000000E+00  0.00000000000E+00  0.99999998245E-14  0.12500000000E+03  0.12500000000E+03 0.  0.
        -11    1    3    3    0    0 -0.95264140054E+01 -0.10038274556E+02  0.58928525530E+02  0.60531732515E+02  0.51100000000E-03 0.  1.
         23    2    1    0    0    0  0.15898802978E+01  0.50343636498E+01  0.26494024835E+02  0.97985080258E+02  0.94187419885E+02 0.  0.
         11    1    3    3    0    0  0.11116294303E+02  0.15072638206E+02 -0.32434500696E+02  0.37453347743E+02  0.51100000000E-03 0. -1.
         22    1    1    0    0    0 -0.15898802978E+01 -0.50343636498E+01 -0.26494024835E+02  0.27014919742E+02  0.00000000000E+00 0.  1.
</event>
<event>
 5    1  0.8907853E-005  0.9118800E+02  0.7818608E-02  0.1130116E+00
         25   -1    0    0    0    0  0.00000000000E+00  0.00000000000E+00  0.99999998245E-14  0.12500000000E+03  0.12500000000E+03 0.  0.
        -11    1    3    3    0    0 -0.51446491516E+01  0.37607666749E+02 -0.12920794482E+02  0.40096769739E+02  0.51100000000E-03 0. -1.
         23    2    1    0    0    0  0.20519145224E+02  0.12788638731E+01  0.20678832811E+02  0.95840354255E+02  0.91296706205E+02 0.  0.
         11    1    3    3    0    0  0.25663794375E+02 -0.36328802876E+02  0.33599627293E+02  0.55743584516E+02  0.51100000000E-03 0.  1.
         22    1    1    0    0    0 -0.20519145224E+02 -0.12788638731E+01 -0.20678832811E+02  0.29159645745E+02  0.00000000000E+00 0. -1.
</event>
<event>
 5    1  0.8907853E-005  0.9118800E+02  0.7818608E-02  0.1130116E+00
         25   -1    0    0    0    0  0.00000000000E+00  0.00000000000E+00  0.99999998245E-14  0.12500000000E+03  0.12500000000E+03 0.  0.
        -11    1    3    3    0    0 -0.40205687710E+01 -0.24094698502E+02  0.33307792490E+02  0.41305308496E+02  0.51100000000E-03 0.  1.
         23    2    1    0    0    0 -0.55029874983E-01  0.14199867812E+02 -0.15833463829E+02  0.10373176427E+03  0.10152803095E+03 0.  0.
         11    1    3    3    0    0  0.39655388960E+01  0.38294566314E+02 -0.49141256319E+02  0.62426455776E+02  0.51100000000E-03 0. -1.
         22    1    1    0    0    0  0.55029874983E-01 -0.14199867812E+02  0.15833463829E+02  0.21268235728E+02  0.00000000000E+00 0. -1.
</event>
<event>
 5    1  0.8907853E-005  0.9118800E+02  0.7818608E-02  0.1130116E+00
         25   -1    0    0    0    0  0.00000000000E+00  0.00000000000E+00  0.99999998245E-14  0.12500000000E+03  0.12500000000E+03 0.  0.
        -11    1    3    3    0    0 -0.75062476376E-01 -0.26689495693E+02 -0.25676625179E+02  0.37035441074E+02  0.51100000000E-03 0.  1.
         23    2    1    0    0    0  0.31833693591E+01 -0.60546369135E+01  0.28809713131E+02  0.95389325585E+02  0.90677072054E+02 0.  0.
         11    1    3    3    0    0  0.32584318355E+01  0.20634858779E+02  0.54486338310E+02  0.58353884511E+02  0.51100000000E-03 0. -1.
         22    1    1    0    0    0 -0.31833693591E+01  0.60546369135E+01 -0.28809713131E+02  0.29610674415E+02  0.00000000000E+00 0. -1.
</event>
<event>
 5    1  0.8907853E-005  0.9118800E+02  0.7818608E-02  0.1130116E+00
         25   -1    0    0    0    0  0.00000000000E+00  0.00000000000E+00  0.99999998245E-14  0.12500000000E+03  0.12500000000E+03 0.  0.
        -11    1    3    3    0    0  0.18299563449E+02  0.12405360979E+02  0.28714580918E+02  0.36239400671E+02  0.51100000000E-03 0.  1.
         23    2    1    0    0    0 -0.22002461868E+02  0.61974002236E+01 -0.16260329955E+02  0.96948004919E+02  0.92800868690E+02 0.  0.
         11    1    3    3    0    0 -0.40302025317E+02 -0.62079607552E+01 -0.44974910873E+02  0.60708604248E+02  0.51100000000E-03 0. -1.
         22    1    1    0    0    0  0.22002461868E+02 -0.61974002236E+01  0.16260329955E+02  0.28051995081E+02  0.00000000000E+00 0. -1.
</event>
<event>
 5    1  0.8907853E-005  0.9118800E+02  0.7818608E-02  0.1130116E+00
         25   -1    0    0    0    0  0.00000000000E+00  0.00000000000E+00  0.99999998245E-14  0.12500000000E+03  0.12500000000E+03 0.  0.
        -11    1    3    3    0    0  0.26317777296E+02  0.31282466693E+02 -0.19627665704E+02  0.45348245672E+02  0.51100000000E-03 0. -1.
         23    2    1    0    0    0 -0.17099733785E+02  0.24499904897E+02  0.33473368867E+01  0.94935886846E+02  0.90049829048E+02 0.  0.
         11    1    3    3    0    0 -0.43417511081E+02 -0.67825617965E+01  0.22975002591E+02  0.49587641175E+02  0.51100000000E-03 0.  1.
         22    1    1    0    0    0  0.17099733785E+02 -0.24499904897E+02 -0.33473368867E+01  0.30064113154E+02  0.00000000000E+00 0. -1.
</event>
<event>
 5    1  0.8907853E-005  0.9118800E+02  0.7818608E-02  0.1130116E+00
         25   -1    0    0    0    0  0.00000000000E+00  0.00000000000E+00  0.99999998245E-14  0.12500000000E+03  0.12500000000E+03 0.  0.
        -11    1    3    3    0    0 -0.19796493555E+02 -0.19864382244E+02 -0.13994868047E+02  0.31342481889E+02  0.51100000000E-03 0.  1.
         23    2    1    0    0    0  0.28395031273E+02  0.40616910850E+01  0.15179313059E+02  0.92547162214E+02  0.86670586437E+02 0.  0.
         11    1    3    3    0    0  0.48191524828E+02  0.23926073329E+02  0.29174181106E+02  0.61204680325E+02  0.51100000000E-03 0. -1.
         22    1    1    0    0    0 -0.28395031273E+02 -0.40616910850E+01 -0.15179313059E+02  0.32452837786E+02  0.00000000000E+00 0. -1.
</event>
<event>
 5    1  0.8907853E-005  0.9118800E+02  0.7818608E-02  0.1130116E+00
         25   -1    0    0    0    0  0.00000000000E+00  0.00000000000E+00  0.99999998245E-14  0.12500000000E+03  0.12500000000E+03 0.  0.
        -11    1    3    3    0    0 -0.10891421652E+02 -0.13894594280E+02  0.28174170704E+02  0.33248559531E+02  0.51100000000E-03 0. -1.
         23    2    1    0    0    0  0.74423479373E+01  0.16823103061E+01 -0.28859683261E+02  0.95148701390E+02  0.90344758274E+02 0.  0.
         11    1    3    3    0    0  0.18333769589E+02  0.15576904586E+02 -0.57033853964E+02  0.61900141859E+02  0.51100000000E-03 0.  1.
         22    1    1    0    0    0 -0.74423479373E+01 -0.16823103061E+01  0.28859683261E+02  0.29851298610E+02  0.00000000000E+00 0.  1.
</event>
<event>
 5    1  0.8907853E-005  0.9118800E+02  0.7818608E-02  0.1130116E+00
         25   -1    0    0    0    0  0.00000000000E+00  0.00000000000E+00  0.99999998245E-14  0.12500000000E+03  0.12500000000E+03 0.  0.
        -11    1    3    3    0    0 -0.35045759160E+02  0.22160486314E+02 -0.14999989209E+02  0.44094127333E+02  0.51100000000E-03 0.  1.
         23    2    1    0    0    0 -0.17721609578E+02 -0.10532682310E+02  0.20896978961E+02  0.95645671999E+02  0.91029764362E+02 0.  0.
         11    1    3    3    0    0  0.17324149582E+02 -0.32693168624E+02  0.35896968170E+02  0.51551544666E+02  0.51100000000E-03 0. -1.
         22    1    1    0    0    0  0.17721609578E+02  0.10532682310E+02 -0.20896978961E+02  0.29354328001E+02  0.00000000000E+00 0. -1.
</event>
<event>
 5    1  0.8907853E-005  0.9118800E+02  0.7818608E-02  0.1130116E+00
         25   -1    0    0    0    0  0.00000000000E+00  0.00000000000E+00  0.99999998245E-14  0.12500000000E+03  0.12500000000E+03 0.  0.
        -11    1    3    3    0    0  0.21123442365E+02 -0.35988743297E+02 -0.67894875308E+00  0.41735481705E+02  0.51100000000E-03 0.  1.
         23    2    1    0    0    0  0.17682531597E+02  0.15033238898E+02 -0.17894372407E+02  0.95693366633E+02  0.91095234004E+02 0.  0.
         11    1    3    3    0    0 -0.34409107675E+01  0.51021982196E+02 -0.17215423654E+02  0.53957884928E+02  0.51100000000E-03 0. -1.
         22    1    1    0    0    0 -0.17682531597E+02 -0.15033238898E+02  0.17894372407E+02  0.29306633367E+02  0.00000000000E+00 0.  1.
</event>
<event>
 5    1  0.8907853E-005  0.9118800E+02  0.7818608E-02  0.1130116E+00
         25   -1    0    0    0    0  0.00000000000E+00  0.00000000000E+00  0.99999998245E-14  0.12500000000E+03  0.12500000000E+03 0.  0.
        -11    1    3    3    0    0  0.34290423513E+02 -0.23900504047E+02 -0.46124240667E+02  0.62245584709E+02  0.51100000000E-03 0. -1.
         23    2    1    0    0    0  0.16630186597E+02 -0.14242790952E+02 -0.19085402542E+02  0.95953953960E+02  0.91452110364E+02 0.  0.
         11    1    3    3    0    0 -0.17660236916E+02  0.96577130946E+01  0.27038838125E+02  0.33708369251E+02  0.51100000000E-03 0.  1.
         22    1    1    0    0    0 -0.16630186597E+02  0.14242790952E+02  0.19085402542E+02  0.29046046040E+02  0.00000000000E+00 0. -1.
</event>
<event>
 5    1  0.8907853E-005  0.9118800E+02  0.7818608E-02  0.1130116E+00
         25   -1    0    0    0    0  0.00000000000E+00  0.00000000000E+00  0.99999998245E-14  0.12500000000E+03  0.12500000000E+03 0.  0.
        -11    1    3    3    0    0 -0.42963948173E+02  0.79537804431E+01 -0.30151050920E+02  0.53087186192E+02  0.51100000000E-03 0.  1.
         23    2    1    0    0    0 -0.22466947036E+02  0.23868692138E+02 -0.87456245123E+00  0.92209101370E+02  0.86181641563E+02 0.  0.
         11    1    3    3    0    0  0.20497001136E+02  0.15914911694E+02  0.29276488469E+02  0.39121915178E+02  0.51100000000E-03 0. -1.
         22    1    1    0    0    0  0.22466947036E+02 -0.23868692138E+02  0.87456245123E+00  0.32790898630E+02  0.00000000000E+00 0.  1.
</event>
<event>
 5    1  0.8907853E-005  0.9118800E+02  0.7818608E-02  0.1130116E+00
         25   -1    0    0    0    0  0.00000000000E+00  0.00000000000E+00  0.99999998245E-14  0.12500000000E+03  0.12500000000E+03 0.  0.
        -11    1    3    3    0    0  0.22111812648E+02 -0.40123260489E+02 -0.20744956858E+02  0.50290769791E+02  0.51100000000E-03 0.  1.
         23    2    1    0    0    0 -0.14607802339E+02 -0.11034240692E+02 -0.21004873897E+02  0.97136994342E+02  0.93055083610E+02 0.  0.
         11    1    3    3    0    0 -0.36719614987E+02  0.29089019797E+02 -0.25991703874E+00  0.46846224551E+02  0.51100000000E-03 0. -1.
         22    1    1    0    0    0  0.14607802339E+02  0.11034240692E+02  0.21004873897E+02  0.27863005658E+02  0.00000000000E+00 0.  1.
</event>
<event>
 5    1  0.8907853E-005  0.9118800E+02  0.7818608E-02  0.1130116E+00
         25   -1    0    0    0    0  0.00000000000E+00  0.00000000000E+00  0.99999998245E-14  0.12500000000E+03  0.12500000000E+03 0.  0.
        -11    1    3    3    0    0 -0.18737406729E+02 -0.12707903410E+02 -0.43139132591E+02  0.48719256778E+02  0.51100000000E-03 0. -1.
         23    2    1    0    0    0  0.63029422148E-01  0.22759309369E+02 -0.16244196751E+02  0.97038167733E+02  0.92922235946E+02 0.  0.
         11    1    3    3    0    0  0.18800436151E+02  0.35467212779E+02  0.26894935840E+02  0.48318910955E+02  0.51100000000E-03 0.  1.
         22    1    1    0    0    0 -0.63029422148E-01 -0.22759309369E+02  0.16244196751E+02  0.27961832267E+02  0.00000000000E+00 0. -1.
</event>
<event>
 5    1  0.8907853E-005  0.9118800E+02  0.7818608E-02  0.1130116E+00
         25   -1    0    0    0    0  0.00000000000E+00  0.00000000000E+00  0.99999998245E-14  0.12500000000E+03  0.12500000000E+03 0.  0.
        -11    1    3    3    0    0 -0.37903601024E+02 -0.29280140143E+02 -0.13703245742E+02  0.49817552344E+02  0.51100000000E-03 0. -1.
         23    2    1    0    0    0 -0.34494698016E+01 -0.19949783251E+02  0.18263085623E+02  0.97734032382E+02  0.93853652542E+02 0.  0.
         11    1    3    3    0    0  0.34454131222E+02  0.93303568918E+01  0.31966331365E+02  0.47916480038E+02  0.51100000000E-03 0.  1.
         22    1    1    0    0    0  0.34494698016E+01  0.19949783251E+02 -0.18263085623E+02  0.27265967618E+02  0.00000000000E+00 0. -1.
</event>
<event>
 5    1  0.8907853E-005  0.9118800E+02  0.7818608E-02  0.1130116E+00
         25   -1    0    0    0    0  0.00000000000E+00  0.00000000000E+00  0.99999998245E-14  0.12500000000E+03  0.12500000000E+03 0.  0.
        -11    1    3    3    0    0  0.94043853098E+01  0.57735812356E+01  0.59733330492E+02  0.60744114738E+02  0.51100000000E-03 0.  1.
         23    2    1    0    0    0  0.29935068614E+01  0.12775079741E+02  0.24818687404E+02  0.96926329236E+02  0.92771667598E+02 0.  0.
         11    1    3    3    0    0 -0.64108784484E+01  0.70014985051E+01 -0.34914643088E+02  0.36182214498E+02  0.51100000000E-03 0. -1.
         22    1    1    0    0    0 -0.29935068614E+01 -0.12775079741E+02 -0.24818687404E+02  0.28073670764E+02  0.00000000000E+00 0.  1.
</event>
<event>
 5    1  0.8907853E-005  0.9118800E+02  0.7818608E-02  0.1130116E+00
         25   -1    0    0    0    0  0.00000000000E+00  0.00000000000E+00  0.99999998245E-14  0.12500000000E+03  0.12500000000E+03 0.  0.
        -11    1    3    3    0    0 -0.37187763156E+02  0.11356616776E+02 -0.15345555478E+02  0.41801776832E+02  0.51100000000E-03 0.  1.
         23    2    1    0    0    0 -0.27038834218E+01 -0.72800142173E+01  0.25458732519E+02  0.98383150937E+02  0.94714242510E+02 0.  0.
         11    1    3    3    0    0  0.34483879735E+02 -0.18636630993E+02  0.40804287997E+02  0.56581374104E+02  0.51100000000E-03 0. -1.
         22    1    1    0    0    0  0.27038834218E+01  0.72800142173E+01 -0.25458732519E+02  0.26616849063E+02  0.00000000000E+00 0. -1.
</event>
<event>
 5    1  0.8907853E-005  0.9118800E+02  0.7818608E-02  0.1130116E+00
         25   -1    0    0    0    0  0.00000000000E+00  0.00000000000E+00  0.99999998245E-14  0.12500000000E+03  0.12500000000E+03 0.  0.
        -11    1    3    3    0    0 -0.77123270969E+01  0.56005705538E+02  0.13643026607E+02  0.58157125250E+02  0.51100000000E-03 0. -1.
         23    2    1    0    0    0 -0.18349929461E+02  0.23165778858E+02  0.13080882417E+02  0.92681542330E+02  0.86864178938E+02 0.  0.
         11    1    3    3    0    0 -0.10637602365E+02 -0.32839926680E+02 -0.56214418977E+00  0.34524417081E+02  0.51100000000E-03 0.  1.
         22    1    1    0    0    0  0.18349929461E+02 -0.23165778858E+02 -0.13080882417E+02  0.32318457670E+02  0.00000000000E+00 0. -1.
</event>
<event>
 5    1  0.8907853E-005  0.9118800E+02  0.7818608E-02  0.1130116E+00
         25   -1    0    0    0    0  0.00000000000E+00  0.00000000000E+00  0.99999998245E-14  0.12500000000E+03  0.12500000000E+03 0.  0.
        -11    1    3    3    0    0 -0.13960230448E+02 -0.17370397151E+02 -0.38850897957E+02  0.44788514194E+02  0.51100000000E-03 0. -1.
         23    2    1    0    0    0 -0.14476497954E+02 -0.22461971204E+02  0.11864696782E+02  0.95761666034E+02  0.91188905622E+02 0.  0.
         11    1    3    3    0    0 -0.51626750552E+00 -0.50915740524E+01  0.50715594739E+02  0.50973151840E+02  0.51100000000E-03 0.  1.
         22    1    1    0    0    0  0.14476497954E+02  0.22461971204E+02 -0.11864696782E+02  0.29238333966E+02  0.00000000000E+00 0.  1.
</event>
<event>
 5    1  0.8907853E-005  0.9118800E+02  0.7818608E-02  0.1130116E+00
         25   -1    0    0    0    0  0.00000000000E+00  0.00000000000E+00  0.99999998245E-14  0.12500000000E+03  0.12500000000E+03 0.  0.
        -11    1    3    3    0    0 -0.88832854759E+01  0.33069607301E+02  0.86208932758E+01  0.35310501116E+02  0.51100000000E-03 0.  1.
         23    2    1    0    0    0  0.17065529659E+02 -0.14067266933E+02 -0.19045190890E+02  0.95813708740E+02  0.91260216880E+02 0.  0.
         11    1    3    3    0    0  0.25948815135E+02 -0.47136874234E+02 -0.27666084166E+02  0.60503207624E+02  0.51100000000E-03 0. -1.
         22    1    1    0    0    0 -0.17065529659E+02  0.14067266933E+02  0.19045190890E+02  0.29186291260E+02  0.00000000000E+00 0. -1.
</event>
<event>
 5    1  0.8907853E-005  0.9118800E+02  0.7818608E-02  0.1130116E+00
         25   -1    0    0    0    0  0.00000000000E+00  0.00000000000E+00  0.99999998245E-14  0.12500000000E+03  0.12500000000E+03 0.  0.
        -11    1    3    3    0    0 -0.12889399764E+02 -0.29233070855E+02 -0.45515566823E+02  0.55609134873E+02  0.51100000000E-03 0.  1.
         23    2    1    0    0    0  0.97878822445E+01 -0.24725885673E+02 -0.13289116845E+02  0.95271685422E+02  0.90514757666E+02 0.  0.
         11    1    3    3    0    0  0.22677282009E+02  0.45071851821E+01  0.32226449978E+02  0.39662550548E+02  0.51100000000E-03 0. -1.
         22    1    1    0    0    0 -0.97878822445E+01  0.24725885673E+02  0.13289116845E+02  0.29728314578E+02  0.00000000000E+00 0.  1.
</event>
<event>
 5    1  0.8907853E-005  0.9118800E+02  0.7818608E-02  0.1130116E+00
         25   -1    0    0    0    0  0.00000000000E+00  0.00000000000E+00  0.99999998245E-14  0.12500000000E+03  0.12500000000E+03 0.  0.
        -11    1    3    3    0    0  0.24905458265E+02 -0.24820647284E+02  0.14162594489E+02  0.37906799731E+02  0.51100000000E-03 0.  1.
         23    2    1    0    0    0 -0.22453821925E+02  0.80452666100E+01  0.17138224291E+02  0.95629620947E+02  0.91007720753E+02 0.  0.
         11    1    3    3    0    0 -0.47359280189E+02  0.32865913894E+02  0.29756298029E+01  0.57722821216E+02  0.51100000000E-03 0. -1.
         22    1    1    0    0    0  0.22453821925E+02 -0.80452666100E+01 -0.17138224291E+02  0.29370379053E+02  0.00000000000E+00 0. -1.
</event>
<event>
 5    1  0.8907853E-005  0.9118800E+02  0.7818608E-02  0.1130116E+00
         25   -1    0    0    0    0  0.00000000000E+00  0.00000000000E+00  0.99999998245E-14  0.12500000000E+03  0.12500000000E+03 0.  0.
        -11    1    3    3    0    0 -0.13428508537E+02  0.45576893578E+02 -0.21999049880E+02  0.52359681680E+02  0.51100000000E-03 0.  1.
         23    2    1    0    0    0 -0.23232160035E+02  0.44817041259E+01 -0.18892621883E+02  0.94722118744E+02  0.89752602670E+02 0.  0.
         11    1    3    3    0    0 -0.98036514977E+01 -0.41095189452E+02  0.31064279976E+01  0.42362437064E+02  0.51100000000E-03 0. -1.
         22    1    1    0    0    0  0.23232160035E+02 -0.44817041259E+01  0.18892621883E+02  0.30277881256E+02  0.00000000000E+00 0.  1.
</event>
<event>
 5    1  0.8907853E-005  0.9118800E+02  0.7818608E-02  0.1130116E+00
         25   -1    0    0    0    0  0.00000000000E+00  0.00000000000E+00  0.99999998245E-14  0.12500000000E+03  0.12500000000E+03 0.  0.
        -11    1    3    3    0    0  0.22419818294E+02  0.75977879847E+01 -0.55292699409E+02  0.60146963704E+02  0.51100000000E-03 0.  1.
         23    2    1    0    0    0  0.19727793209E+02 -0.31405592082E+01 -0.21754197511E+02  0.95465375465E+02  0.90781847670E+02 0.  0.
         11    1    3    3    0    0 -0.26920250842E+01 -0.10738347193E+02  0.33538501899E+02  0.35318411761E+02  0.51100000000E-03 0. -1.
         22    1    1    0    0    0 -0.19727793209E+02  0.31405592082E+01  0.21754197511E+02  0.29534624535E+02  0.00000000000E+00 0.  1.
</event>
<event>
 5    1  0.8907853E-005  0.9118800E+02  0.7818608E-02  0.1130116E+00
         25   -1    0    0    0    0  0.00000000000E+00  0.00000000000E+00  0.99999998245E-14  0.12500000000E+03  0.12500000000E+03 0.  0.
        -11    1    3    3    0    0  0.46015630678E+02  0.10062710376E+02  0.12086500582E+02  0.48629002698E+02  0.51100000000E-03 0. -1.
         23    2    1    0    0    0 -0.57921662809E+01 -0.33107735277E+01  0.21083410878E+02  0.10288618925E+03  0.10048157698E+03 0.  0.
         11    1    3    3    0    0 -0.51807796959E+02 -0.13373483904E+02  0.89969102964E+01  0.54257186553E+02  0.51100000000E-03 0.  1.
         22    1    1    0    0    0  0.57921662809E+01  0.33107735277E+01 -0.21083410878E+02  0.22113810749E+02  0.00000000000E+00 0. -1.
</event>
<event>
 5    1  0.8907853E-005  0.9118800E+02  0.7818608E-02  0.1130116E+00
         25   -1    0    0    0    0  0.00000000000E+00  0.00000000000E+00  0.99999998245E-14  0.12500000000E+03  0.12500000000E+03 0.  0.
        -11    1    3    3    0    0 -0.22077573458E+02 -0.40269494856E+02 -0.40471327406E+02  0.61212578838E+02  0.51100000000E-03 0. -1.
         23    2    1    0    0    0 -0.17041352728E+02 -0.20206131523E+02 -0.13163219476E+02  0.95470932949E+02  0.90789499599E+02 0.  0.
         11    1    3    3    0    0  0.50362207297E+01  0.20063363333E+02  0.27308107930E+02  0.34258354112E+02  0.51100000000E-03 0.  1.
         22    1    1    0    0    0  0.17041352728E+02  0.20206131523E+02  0.13163219476E+02  0.29529067051E+02  0.00000000000E+00 0. -1.
</event>
<event>
 5    1  0.8907853E-005  0.9118800E+02  0.7818608E-02  0.1130116E+00
         25   -1    0    0    0    0  0.00000000000E+00  0.00000000000E+00  0.99999998245E-14  0.12500000000E+03  0.12500000000E+03 0.  0.
        -11    1    3    3    0    0  0.49144328164E+02 -0.15237109938E+02 -0.27281129986E+02  0.58237398323E+02  0.51100000000E-03 0. -1.
         23    2    1    0    0    0  0.12665001841E+02 -0.16420741575E+02 -0.21389104771E+02  0.95208443672E+02  0.90427379250E+02 0.  0.
         11    1    3    3    0    0 -0.36479326323E+02 -0.11836316373E+01  0.58920252143E+01  0.36971045349E+02  0.51100000000E-03 0.  1.
         22    1    1    0    0    0 -0.12665001841E+02  0.16420741575E+02  0.21389104771E+02  0.29791556328E+02  0.00000000000E+00 0. -1.
</event>
<event>
 5    1  0.8907853E-005  0.9118800E+02  0.7818608E-02  0.1130116E+00
         25   -1    0    0    0    0  0.00000000000E+00  0.00000000000E+00  0.99999998245E-14  0.12500000000E+03  0.12500000000E+03 0.  0.
        -11    1    3    3    0    0  0.16927078832E+02  0.39733981916E+02  0.19771614289E+02  0.47499811037E+02  0.51100000000E-03 0.  1.
         23    2    1    0    0    0  0.20405683683E+02  0.94583190758E+01 -0.18114225191E+02  0.96121342126E+02  0.91680616990E+02 0.  0.
         11    1    3    3    0    0  0.34786048509E+01 -0.30275662840E+02 -0.37885839480E+02  0.48621531089E+02  0.51100000000E-03 0. -1.
         22    1    1    0    0    0 -0.20405683683E+02 -0.94583190758E+01  0.18114225191E+02  0.28878657874E+02  0.00000000000E+00 0. -1.
</event>
<event>
 5    1  0.8907853E-005  0.9118800E+02  0.7818608E-02  0.1130116E+00
         25   -1    0    0    0    0  0.00000000000E+00  0.00000000000E+00  0.99999998245E-14  0.12500000000E+03  0.12500000000E+03 0.  0.
        -11    1    3    3    0    0  0.30640018326E+02 -0.35053968765E+02  0.13724289680E+02  0.48538104379E+02  0.51100000000E-03 0.  1.
         23    2    1    0    0    0  0.41628935779E+00 -0.17282547647E+01  0.28920463906E+02  0.96024952219E+02  0.91549101878E+02 0.  0.
         11    1    3    3    0    0 -0.30223728968E+02  0.33325714001E+02  0.15196174226E+02  0.47486847840E+02  0.51100000000E-03 0. -1.
         22    1    1    0    0    0 -0.41628935779E+00  0.17282547647E+01 -0.28920463906E+02  0.28975047781E+02  0.00000000000E+00 0. -1.
</event>
<event>
 5    1  0.8907853E-005  0.9118800E+02  0.7818608E-02  0.1130116E+00
         25   -1    0    0    0    0  0.00000000000E+00  0.00000000000E+00  0.99999998245E-14  0.12500000000E+03  0.12500000000E+03 0.  0.
        -11    1    3    3    0    0  0.94479210527E+01  0.47378657240E+02 -0.10874736240E+02  0.49520301520E+02  0.51100000000E-03 0.  1.
         23    2    1    0    0    0 -0.17868199357E+01  0.62154337749E+01 -0.28565817081E+02  0.95711260730E+02  0.91119784803E+02 0.  0.
         11    1    3    3    0    0 -0.11234740988E+02 -0.41163223465E+02 -0.17691080841E+02  0.46190959210E+02  0.51100000000E-03 0. -1.
         22    1    1    0    0    0  0.17868199357E+01 -0.62154337749E+01  0.28565817081E+02  0.29288739270E+02  0.00000000000E+00 0. -1.
</event>
<event>
 5    1  0.8907853E-005  0.9118800E+02  0.7818608E-02  0.1130116E+00
         25   -1    0    0    0    0  0.00000000000E+00  0.00000000000E+00  0.99999998245E-14  0.12500000000E+03  0.12500000000E+03 0.  0.
        -11    1    3    3    0    0  0.19472317293E+02 -0.94865827671E+01  0.22713522545E+02  0.31385832791E+02  0.51100000000E-03 0.  1.
         23    2    1    0    0    0 -0.24930344516E+02 -0.65057000744E+01 -0.19471165085E+02  0.92704915530E+02  0.86897807122E+02 0.  0.
         11    1    3    3    0    0 -0.44402661808E+02  0.29808826927E+01 -0.42184687630E+02  0.61319082739E+02  0.51100000000E-03 0. -1.
         22    1    1    0    0    0  0.24930344516E+02  0.65057000744E+01  0.19471165085E+02  0.32295084470E+02  0.00000000000E+00 0. -1.
</event>
<event>
 5    1  0.8907853E-005  0.9118800E+02  0.7818608E-02  0.1130116E+00
         25   -1    0    0    0    0  0.00000000000E+00  0.00000000000E+00  0.99999998245E-14  0.12500000000E+03  0.12500000000E+03 0.  0.
        -11    1    3    3    0    0 -0.49122072604E+02 -0.22574315907E+02  0.31349333251E+02  0.62492867202E+02  0.51100000000E-03 0.  1.
         23    2    1    0    0    0 -0.25556849589E+02 -0.12210007195E+02  0.17018636796E+02  0.91956531129E+02  0.85814525474E+02 0.  0.
         11    1    3    3    0    0  0.23565223015E+02  0.10364308712E+02 -0.14330696456E+02  0.29463663927E+02  0.51100000000E-03 0. -1.
         22    1    1    0    0    0  0.25556849589E+02  0.12210007195E+02 -0.17018636796E+02  0.33043468871E+02  0.00000000000E+00 0.  1.
</event>
<event>
 5    1  0.8907853E-005  0.9118800E+02  0.7818608E-02  0.1130116E+00
         25   -1    0    0    0    0  0.00000000000E+00  0.00000000000E+00  0.99999998245E-14  0.12500000000E+03  0.12500000000E+03 0.  0.
        -11    1    3    3    0    0 -0.44838517610E+02 -0.87651793889E+01  0.32404514082E+01  0.45801982018E+02  0.51100000000E-03 0. -1.
         23    2    1    0    0    0 -0.56530028802E+01  0.86015965317E+01  0.27907611646E+02  0.95254770261E+02  0.90491394979E+02 0.  0.
         11    1    3    3    0    0  0.39185514730E+02  0.17366775921E+02  0.24667160238E+02  0.49452788243E+02  0.51100000000E-03 0.  1.
         22    1    1    0    0    0  0.56530028802E+01 -0.86015965317E+01 -0.27907611646E+02  0.29745229739E+02  0.00000000000E+00 0.  1.
</event>
<event>
 5    1  0.8907853E-005  0.9118800E+02  0.7818608E-02  0.1130116E+00
         25   -1    0    0    0    0  0.00000000000E+00  0.00000000000E+00  0.99999998245E-14  0.12500000000E+03  0.12500000000E+03 0.  0.
        -11    1    3    3    0    0  0.42685543106E+01  0.25618911422E+02  0.25697534435E+02  0.36536453777E+02  0.51100000000E-03 0.  1.
         23    2    1    0    0    0  0.15907677608E+01 -0.29335035662E+02  0.57205645124E+01  0.95070086574E+02  0.90235922135E+02 0.  0.
         11    1    3    3    0    0 -0.26777865497E+01 -0.54953947084E+02 -0.19976969922E+02  0.58533632797E+02  0.51100000000E-03 0. -1.
         22    1    1    0    0    0 -0.15907677608E+01  0.29335035662E+02 -0.57205645124E+01  0.29929913426E+02  0.00000000000E+00 0. -1.
</event>
<event>
 5    1  0.8907853E-005  0.9118800E+02  0.7818608E-02  0.1130116E+00
         25   -1    0    0    0    0  0.00000000000E+00  0.00000000000E+00  0.99999998245E-14  0.12500000000E+03  0.12500000000E+03 0.  0.
        -11    1    3    3    0    0  0.24776998044E+02 -0.14151676794E+02  0.49919725508E+02  0.57499118108E+02  0.51100000000E-03 0. -1.
         23    2    1    0    0    0 -0.19825540988E+01 -0.18190983516E+02  0.22044618316E+02  0.96350260058E+02  0.91992200835E+02 0.  0.
         11    1    3    3    0    0 -0.26759552142E+02 -0.40393067220E+01 -0.27875107191E+02  0.38851141950E+02  0.51100000000E-03 0.  1.
         22    1    1    0    0    0  0.19825540988E+01  0.18190983516E+02 -0.22044618316E+02  0.28649739942E+02  0.00000000000E+00 0. -1.
</event>
<event>
 5    1  0.8907853E-005  0.9118800E+02  0.7818608E-02  0.1130116E+00
         25   -1    0    0    0    0  0.00000000000E+00  0.00000000000E+00  0.99999998245E-14  0.12500000000E+03  0.12500000000E+03 0.  0.
        -11    1    3    3    0    0  0.23984659956E+02 -0.12851053049E+02  0.14068039950E+02  0.30632062059E+02  0.51100000000E-03 0.  1.
         23    2    1    0    0    0 -0.13978069283E+02  0.26682596990E+02 -0.13507954575E+02  0.91987695631E+02  0.85859908617E+02 0.  0.
         11    1    3    3    0    0 -0.37962729239E+02  0.39533650039E+02 -0.27575994525E+02  0.61355633572E+02  0.51100000000E-03 0. -1.
         22    1    1    0    0    0  0.13978069283E+02 -0.26682596990E+02  0.13507954575E+02  0.33012304369E+02  0.00000000000E+00 0. -1.
</event>
<event>
 5    1  0.8907853E-005  0.9118800E+02  0.7818608E-02  0.1130116E+00
         25   -1    0    0    0    0  0.00000000000E+00  0.00000000000E+00  0.99999998245E-14  0.12500000000E+03  0.12500000000E+03 0.  0.
        -11    1    3    3    0    0 -0.34793730994E+02  0.46729256294E+02 -0.79314684767E+01  0.58797408980E+02  0.51100000000E-03 0.  1.
         23    2    1    0    0    0 -0.20509925431E+02  0.12559627495E+02 -0.15214289426E+02  0.96541681590E+02  0.92251939803E+02 0.  0.
         11    1    3    3    0    0  0.14283805563E+02 -0.34169628799E+02 -0.72828209495E+01  0.37744272610E+02  0.51100000000E-03 0. -1.
         22    1    1    0    0    0  0.20509925431E+02 -0.12559627495E+02  0.15214289426E+02  0.28458318410E+02  0.00000000000E+00 0.  1.
</event>
<event>
 5    1  0.8907853E-005  0.9118800E+02  0.7818608E-02  0.1130116E+00
         25   -1    0    0    0    0  0.00000000000E+00  0.00000000000E+00  0.99999998245E-14  0.12500000000E+03  0.12500000000E+03 0.  0.
        -11    1    3    3    0    0 -0.14452329488E+02  0.39116276957E+02 -0.12201824764E+02  0.43449251759E+02  0.51100000000E-03 0. -1.
         23    2    1    0    0    0  0.92301560843E+00  0.91932076550E+01  0.27792789820E+02  0.95711671424E+02  0.91120348199E+02 0.  0.
         11    1    3    3    0    0  0.15375345097E+02 -0.29923069302E+02  0.39994614584E+02  0.52262419665E+02  0.51100000000E-03 0.  1.
         22    1    1    0    0    0 -0.92301560843E+00 -0.91932076550E+01 -0.27792789820E+02  0.29288328576E+02  0.00000000000E+00 0. -1.
</event>
<event>
 5    1  0.8907853E-005  0.9118800E+02  0.7818608E-02  0.1130116E+00
         25   -1    0    0    0    0  0.00000000000E+00  0.00000000000E+00  0.99999998245E-14  0.12500000000E+03  0.12500000000E+03 0.  0.
        -11    1    3    3    0    0  0.31243417043E+02 -0.67968663534E+01 -0.98218173319E+01  0.33448715920E+02  0.51100000000E-03 0. -1.
         23    2    1    0    0    0 -0.27963486281E+02  0.60192626750E+01  0.53550075923E+01  0.95899068839E+02  0.91377060631E+02 0.  0.
         11    1    3    3    0    0 -0.59206903325E+02  0.12816129028E+02  0.15176824924E+02  0.62450352918E+02  0.51100000000E-03 0.  1.
         22    1    1    0    0    0  0.27963486281E+02 -0.60192626750E+01 -0.53550075923E+01  0.29100931161E+02  0.00000000000E+00 0.  1.
</event>
<event>
 5    1  0.8907853E-005  0.9118800E+02  0.7818608E-02  0.1130116E+00
         25   -1    0    0    0    0  0.00000000000E+00  0.00000000000E+00  0.99999998245E-14  0.12500000000E+03  0.12500000000E+03 0.  0.
        -11    1    3    3    0    0 -0.17377784440E+02  0.44370299978E+02 -0.38583665172E+02  0.61314028823E+02  0.51100000000E-03 0. -1.
         23    2    1    0    0    0 -0.31809435348E+00  0.18368421432E+02 -0.21222243067E+02  0.96930734054E+02  0.92777602435E+02 0.  0.
         11    1    3    3    0    0  0.17059690087E+02 -0.26001878546E+02  0.17361422104E+02  0.35616705231E+02  0.51100000000E-03 0.  1.
         22    1    1    0    0    0  0.31809435348E+00 -0.18368421432E+02  0.21222243067E+02  0.28069265946E+02  0.00000000000E+00 0. -1.
</event>
<event>
 5    1  0.8907853E-005  0.9118800E+02  0.7818608E-02  0.1130116E+00
         25   -1    0    0    0    0  0.00000000000E+00  0.00000000000E+00  0.99999998245E-14  0.12500000000E+03  0.12500000000E+03 0.  0.
        -11    1    3    3    0    0  0.16094160930E+02 -0.18702629452E+02  0.24918506888E+02  0.35067682419E+02  0.51100000000E-03 0.  1.
         23    2    1    0    0    0 -0.96274923949E+01  0.23897909065E+02 -0.11551850506E+02  0.96764491901E+02  0.92553352048E+02 0.  0.
         11    1    3    3    0    0 -0.25721653324E+02  0.42600538517E+02 -0.36470357393E+02  0.61696809483E+02  0.51100000000E-03 0. -1.
         22    1    1    0    0    0  0.96274923949E+01 -0.23897909065E+02  0.11551850506E+02  0.28235508099E+02  0.00000000000E+00 0. -1.
</event>
<event>
 5    1  0.8907853E-005  0.9118800E+02  0.7818608E-02  0.1130116E+00
         25   -1    0    0    0    0  0.00000000000E+00  0.00000000000E+00  0.99999998245E-14  0.12500000000E+03  0.12500000000E+03 0.  0.
        -11    1    3    3    0    0 -0.40369507023E+02 -0.24653438856E+02  0.94030031470E+01  0.48227643662E+02  0.51100000000E-03 0. -1.
         23    2    1    0    0    0 -0.49645245829E+01  0.48077707314E+01  0.26694112011E+02  0.97425795029E+02  0.93442221491E+02 0.  0.
         11    1    3    3    0    0  0.35404982440E+02  0.29461209587E+02  0.17291108864E+02  0.49198151367E+02  0.51100000000E-03 0.  1.
         22    1    1    0    0    0  0.49645245829E+01 -0.48077707314E+01 -0.26694112011E+02  0.27574204971E+02  0.00000000000E+00 0.  1.
</event>
<event>
 5    1  0.8907853E-005  0.9118800E+02  0.7818608E-02  0.1130116E+00
         25   -1    0    0    0    0  0.00000000000E+00  0.00000000000E+00  0.99999998245E-14  0.12500000000E+03  0.12500000000E+03 0.  0.
        -11    1    3    3    0    0 -0.13184465943E+02  0.37421730103E+02 -0.47420956460E+02  0.61830115138E+02  0.51100000000E-03 0. -1.
         23    2    1    0    0    0 -0.90825295371E+01  0.21125066501E+02 -0.17666269152E+02  0.96002451082E+02  0.91518373951E+02 0.  0.
         11    1    3    3    0    0  0.41019364056E+01 -0.16296663602E+02  0.29754687308E+02  0.34172335944E+02  0.51100000000E-03 0.  1.
         22    1    1    0    0    0  0.90825295371E+01 -0.21125066501E+02  0.17666269152E+02  0.28997548918E+02  0.00000000000E+00 0. -1.
</event>
<event>
 5    1  0.8907853E-005  0.9118800E+02  0.7818608E-02  0.1130116E+00
         25   -1    0    0    0    0  0.00000000000E+00  0.00000000000E+00  0.99999998245E-14  0.12500000000E+03  0.12500000000E+03 0.  0.
        -11    1    3    3    0    0 -0.19427729547E+02  0.28740570954E+02 -0.30387139077E+02  0.46117624783E+02  0.51100000000E-03 0. -1.
         23    2    1    0    0    0  0.50361264406E+01 -0.14366122165E+02 -0.24670066601E+02  0.96011032759E+02  0.91530094449E+02 0.  0.
         11    1    3    3    0    0  0.24463855988E+02 -0.43106693119E+02  0.57170724758E+01  0.49893407976E+02  0.51100000000E-03 0.  1.
         22    1    1    0    0    0 -0.50361264406E+01  0.14366122165E+02  0.24670066601E+02  0.28988967241E+02  0.00000000000E+00 0.  1.
</event>
<event>
 5    1  0.8907853E-005  0.9118800E+02  0.7818608E-02  0.1130116E+00
         25   -1    0    0    0    0  0.00000000000E+00  0.00000000000E+00  0.99999998245E-14  0.12500000000E+03  0.12500000000E+03 0.  0.
        -11    1    3    3    0    0 -0.42197604762E+02  0.70209846339E+01 -0.38192471487E+02  0.57346289779E+02  0.51100000000E-03 0.  1.
         23    2    1    0    0    0 -0.27238441659E+02  0.75199023283E+01 -0.18129722399E+01  0.96684482993E+02  0.92445231073E+02 0.  0.
         11    1    3    3    0    0  0.14959163103E+02  0.49891769438E+00  0.36379499247E+02  0.39338193214E+02  0.51100000000E-03 0. -1.
         22    1    1    0    0    0  0.27238441659E+02 -0.75199023283E+01  0.18129722399E+01  0.28315517007E+02  0.00000000000E+00 0.  1.
</event>
<event>
 5    1  0.8907853E-005  0.9118800E+02  0.7818608E-02  0.1130116E+00
         25   -1    0    0    0    0  0.00000000000E+00  0.00000000000E+00  0.99999998245E-14  0.12500000000E+03  0.12500000000E+03 0.  0.
        -11    1    3    3    0    0 -0.28451246872E+02 -0.20543003472E+02 -0.24323278730E+02  0.42697896068E+02  0.51100000000E-03 0. -1.
         23    2    1    0    0    0  0.13243711615E+02  0.17122067303E+02 -0.12103664554E+02  0.10019960118E+03  0.97081925684E+02 0.  0.
         11    1    3    3    0    0  0.41694958487E+02  0.37665070775E+02  0.12219614176E+02  0.57501705110E+02  0.51100000000E-03 0.  1.
         22    1    1    0    0    0 -0.13243711615E+02 -0.17122067303E+02  0.12103664554E+02  0.24800398822E+02  0.00000000000E+00 0.  1.
</event>
<event>
 5    1  0.8907853E-005  0.9118800E+02  0.7818608E-02  0.1130116E+00
         25   -1    0    0    0    0  0.00000000000E+00  0.00000000000E+00  0.99999998245E-14  0.12500000000E+03  0.12500000000E+03 0.  0.
        -11    1    3    3    0    0  0.74559013309E+01  0.36484136574E+02 -0.25305762425E+02  0.45022930806E+02  0.51100000000E-03 0.  1.
         23    2    1    0    0    0 -0.67185121322E+01  0.71685090724E+01  0.21106567563E+02  0.10171882473E+03  0.99018716326E+02 0.  0.
         11    1    3    3    0    0 -0.14174413463E+02 -0.29315627501E+02  0.46412329988E+02  0.56695893926E+02  0.51100000000E-03 0. -1.
         22    1    1    0    0    0  0.67185121322E+01 -0.71685090724E+01 -0.21106567563E+02  0.23281175268E+02  0.00000000000E+00 0. -1.
</event>
<event>
 5    1  0.8907853E-005  0.9118800E+02  0.7818608E-02  0.1130116E+00
         25   -1    0    0    0    0  0.00000000000E+00  0.00000000000E+00  0.99999998245E-14  0.12500000000E+03  0.12500000000E+03 0.  0.
        -11    1    3    3    0    0  0.30010698821E+02 -0.26563068232E+02 -0.31550707863E+02  0.51006723131E+02  0.51100000000E-03 0. -1.
         23    2    1    0    0    0  0.37531106046E+01 -0.24428756336E+02  0.84299983591E+01  0.98886500662E+02  0.95376229563E+02 0.  0.
         11    1    3    3    0    0 -0.26257588216E+02  0.21343118959E+01  0.39980706222E+02  0.47879777532E+02  0.51100000000E-03 0.  1.
         22    1    1    0    0    0 -0.37531106046E+01  0.24428756336E+02 -0.84299983591E+01  0.26113499338E+02  0.00000000000E+00 0. -1.
</event>
<event>
 5    1  0.8907853E-005  0.9118800E+02  0.7818608E-02  0.1130116E+00
         25   -1    0    0    0    0  0.00000000000E+00  0.00000000000E+00  0.99999998245E-14  0.12500000000E+03  0.12500000000E+03 0.  0.
        -11    1    3    3    0    0  0.48417861197E+02  0.10755276980E+02  0.34798725501E+02  0.60588089280E+02  0.51100000000E-03 0.  1.
         23    2    1    0    0    0  0.16962373867E+02  0.14040450487E+02  0.18878465301E+02  0.95995641204E+02  0.91509072233E+02 0.  0.
         11    1    3    3    0    0 -0.31455487330E+02  0.32851735065E+01 -0.15920260200E+02  0.35407551924E+02  0.51100000000E-03 0. -1.
         22    1    1    0    0    0 -0.16962373867E+02 -0.14040450487E+02 -0.18878465301E+02  0.29004358796E+02  0.00000000000E+00 0.  1.
</event>
<event>
 5    1  0.8907853E-005  0.9118800E+02  0.7818608E-02  0.1130116E+00
         25   -1    0    0    0    0  0.00000000000E+00  0.00000000000E+00  0.99999998245E-14  0.12500000000E+03  0.12500000000E+03 0.  0.
        -11    1    3    3    0    0  0.44898327631E+01  0.27992881882E+02  0.78916477198E+00  0.28361643386E+02  0.51100000000E-03 0.  1.
         23    2    1    0    0    0 -0.35305719147E+02 -0.79432618212E+01 -0.17218024853E+02  0.84924451436E+02  0.74873979853E+02 0.  0.
         11    1    3    3    0    0 -0.39795551910E+02 -0.35936143703E+02 -0.18007189625E+02  0.56562808050E+02  0.51100000000E-03 0. -1.
         22    1    1    0    0    0  0.35305719147E+02  0.79432618212E+01  0.17218024853E+02  0.40075548564E+02  0.00000000000E+00 0. -1.
</event>
<event>
 5    1  0.8907853E-005  0.9118800E+02  0.7818608E-02  0.1130116E+00
         25   -1    0    0    0    0  0.00000000000E+00  0.00000000000E+00  0.99999998245E-14  0.12500000000E+03  0.12500000000E+03 0.  0.
        -11    1    3    3    0    0 -0.25518809119E+02  0.28044438717E+02 -0.19081361945E+02  0.42447597526E+02  0.51100000000E-03 0. -1.
         23    2    1    0    0    0  0.23769430961E+01 -0.15830678762E+02  0.13715483223E+02  0.10391980245E+03  0.10175927778E+03 0.  0.
         11    1    3    3    0    0  0.27895752215E+02 -0.43875117479E+02  0.32796845168E+02  0.61472204928E+02  0.51100000000E-03 0.  1.
         22    1    1    0    0    0 -0.23769430961E+01  0.15830678762E+02 -0.13715483223E+02  0.21080197546E+02  0.00000000000E+00 0.  1.
</event>
<event>
 5    1  0.8907853E-005  0.9118800E+02  0.7818608E-02  0.1130116E+00
         25   -1    0    0    0    0  0.00000000000E+00  0.00000000000E+00  0.99999998245E-14  0.12500000000E+03  0.12500000000E+03 0.  0.
        -11    1    3    3    0    0  0.20359948802E+02  0.38481404487E+02 -0.31881201063E+02  0.53960698550E+02  0.51100000000E-03 0.  1.
         23    2    1    0    0    0  0.20774424091E+02  0.20342756718E+02  0.54042456401E+01  0.95426188644E+02  0.90727874223E+02 0.  0.
         11    1    3    3    0    0  0.41447528870E+00 -0.18138647769E+02  0.37285446703E+02  0.41465490094E+02  0.51100000000E-03 0. -1.
         22    1    1    0    0    0 -0.20774424091E+02 -0.20342756718E+02 -0.54042456401E+01  0.29573811356E+02  0.00000000000E+00 0.  1.
</event>
<event>
 5    1  0.8907853E-005  0.9118800E+02  0.7818608E-02  0.1130116E+00
         25   -1    0    0    0    0  0.00000000000E+00  0.00000000000E+00  0.99999998245E-14  0.12500000000E+03  0.12500000000E+03 0.  0.
        -11    1    3    3    0    0 -0.17366252442E+02  0.10198153279E+02  0.29301466866E+02  0.35555098298E+02  0.51100000000E-03 0.  1.
         23    2    1    0    0    0  0.24049129090E+02  0.16483618091E+02 -0.11146967299E+02  0.93785818042E+02  0.88438987503E+02 0.  0.
         11    1    3    3    0    0  0.41415381532E+02  0.62854648118E+01 -0.40448434165E+02  0.58230719745E+02  0.51100000000E-03 0. -1.
         22    1    1    0    0    0 -0.24049129090E+02 -0.16483618091E+02  0.11146967299E+02  0.31214181958E+02  0.00000000000E+00 0. -1.
</event>
<event>
 5    1  0.8907853E-005  0.9118800E+02  0.7818608E-02  0.1130116E+00
         25   -1    0    0    0    0  0.00000000000E+00  0.00000000000E+00  0.99999998245E-14  0.12500000000E+03  0.12500000000E+03 0.  0.
        -11    1    3    3    0    0  0.32585853817E+02 -0.33564400763E+02 -0.31198016123E+02  0.56229201291E+02  0.51100000000E-03 0.  1.
         23    2    1    0    0    0  0.26360902816E+02 -0.11411602281E+02  0.15270186708E+01  0.96234505915E+02  0.91834778155E+02 0.  0.
         11    1    3    3    0    0 -0.62249510004E+01  0.22152798483E+02  0.32725034794E+02  0.40005304624E+02  0.51100000000E-03 0. -1.
         22    1    1    0    0    0 -0.26360902816E+02  0.11411602281E+02 -0.15270186708E+01  0.28765494085E+02  0.00000000000E+00 0.  1.
</event>
<event>
 5    1  0.8907853E-005  0.9118800E+02  0.7818608E-02  0.1130116E+00
         25   -1    0    0    0    0  0.00000000000E+00  0.00000000000E+00  0.99999998245E-14  0.12500000000E+03  0.12500000000E+03 0.  0.
        -11    1    3    3    0    0 -0.29620115779E+02 -0.23659281751E+02  0.89352056246E+01  0.38948052217E+02  0.51100000000E-03 0. -1.
         23    2    1    0    0    0  0.13237270000E+02  0.17958710063E+02  0.13603371201E+02  0.98869705470E+02  0.95354215258E+02 0.  0.
         11    1    3    3    0    0  0.42857385779E+02  0.41617991814E+02  0.46681655762E+01  0.59921653253E+02  0.51100000000E-03 0.  1.
         22    1    1    0    0    0 -0.13237270000E+02 -0.17958710063E+02 -0.13603371201E+02  0.26130294530E+02  0.00000000000E+00 0.  1.
</event>
<event>
 5    1  0.8907853E-005  0.9118800E+02  0.7818608E-02  0.1130116E+00
         25   -1    0    0    0    0  0.00000000000E+00  0.00000000000E+00  0.99999998245E-14  0.12500000000E+03  0.12500000000E+03 0.  0.
        -11    1    3    3    0    0  0.19282858245E+02  0.22563414100E+02  0.46777409378E+02  0.55399118281E+02  0.51100000000E-03 0. -1.
         23    2    1    0    0    0 -0.41611242978E+01 -0.46923703415E+01  0.28668164065E+02  0.95653843084E+02  0.91040984019E+02 0.  0.
         11    1    3    3    0    0 -0.23443982542E+02 -0.27255784441E+02 -0.18109245313E+02  0.40254724804E+02  0.51100000000E-03 0.  1.
         22    1    1    0    0    0  0.41611242978E+01  0.46923703415E+01 -0.28668164065E+02  0.29346156916E+02  0.00000000000E+00 0.  1.
</event>
<event>
 5    1  0.8907853E-005  0.9118800E+02  0.7818608E-02  0.1130116E+00
         25   -1    0    0    0    0  0.00000000000E+00  0.00000000000E+00  0.99999998245E-14  0.12500000000E+03  0.12500000000E+03 0.  0.
        -11    1    3    3    0    0  0.10206901726E+02  0.57286327787E+01 -0.30016044140E+02  0.32217401857E+02  0.51100000000E-03 0.  1.
         23    2    1    0    0    0 -0.21879512241E+02 -0.11279217961E+02  0.19481408408E+02  0.93607977331E+02  0.88187268540E+02 0.  0.
         11    1    3    3    0    0 -0.32086413967E+02 -0.17007850740E+02  0.49497452548E+02  0.61390575474E+02  0.51100000000E-03 0. -1.
         22    1    1    0    0    0  0.21879512241E+02  0.11279217961E+02 -0.19481408408E+02  0.31392022669E+02  0.00000000000E+00 0. -1.
</event>
<event>
 5    1  0.8907853E-005  0.9118800E+02  0.7818608E-02  0.1130116E+00
         25   -1    0    0    0    0  0.00000000000E+00  0.00000000000E+00  0.99999998245E-14  0.12500000000E+03  0.12500000000E+03 0.  0.
        -11    1    3    3    0    0  0.93870896420E+01  0.40939289763E+02 -0.10182308776E+02  0.43218309898E+02  0.51100000000E-03 0.  1.
         23    2    1    0    0    0  0.78744535028E+01 -0.83522011616E+01 -0.27272353441E+02  0.95410347342E+02  0.90706046301E+02 0.  0.
         11    1    3    3    0    0 -0.15126361392E+01 -0.49291490924E+02 -0.17090044665E+02  0.52192037444E+02  0.51100000000E-03 0. -1.
         22    1    1    0    0    0 -0.78744535028E+01  0.83522011616E+01  0.27272353441E+02  0.29589652658E+02  0.00000000000E+00 0. -1.
</event>
<event>
 5    1  0.8907853E-005  0.9118800E+02  0.7818608E-02  0.1130116E+00
         25   -1    0    0    0    0  0.00000000000E+00  0.00000000000E+00  0.99999998245E-14  0.12500000000E+03  0.12500000000E+03 0.  0.
        -11    1    3    3    0    0  0.17391355661E+02 -0.43755042330E+02  0.39158011799E+01  0.47247184891E+02  0.51100000000E-03 0. -1.
         23    2    1    0    0    0 -0.11303003793E+02 -0.96164394820E+01  0.24493187925E+02  0.96361737871E+02  0.92007795690E+02 0.  0.
         11    1    3    3    0    0 -0.28694359453E+02  0.34138602848E+02  0.20577386745E+02  0.49114552979E+02  0.51100000000E-03 0.  1.
         22    1    1    0    0    0  0.11303003793E+02  0.96164394820E+01 -0.24493187925E+02  0.28638262129E+02  0.00000000000E+00 0. -1.
</event>
<event>
 5    1  0.8907853E-005  0.9118800E+02  0.7818608E-02  0.1130116E+00
         25   -1    0    0    0    0  0.00000000000E+00  0.00000000000E+00  0.99999998245E-14  0.12500000000E+03  0.12500000000E+03 0.  0.
        -11    1    3    3    0    0  0.39995440975E+02  0.95164855471E+01  0.17469775070E+02  0.44669809012E+02  0.51100000000E-03 0.  1.
         23    2    1    0    0    0 -0.87960095921E+01  0.24093033646E+02  0.14166760190E+02  0.95699127158E+02  0.91103138198E+02 0.  0.
         11    1    3    3    0    0 -0.48791450567E+02  0.14576548099E+02 -0.33030148801E+01  0.51029318146E+02  0.51100000000E-03 0. -1.
         22    1    1    0    0    0  0.87960095921E+01 -0.24093033646E+02 -0.14166760190E+02  0.29300872842E+02  0.00000000000E+00 0. -1.
</event>
<event>
 5    1  0.8907853E-005  0.9118800E+02  0.7818608E-02  0.1130116E+00
         25   -1    0    0    0    0  0.00000000000E+00  0.00000000000E+00  0.99999998245E-14  0.12500000000E+03  0.12500000000E+03 0.  0.
        -11    1    3    3    0    0  0.57295541153E+01 -0.31677973572E+02  0.43264487986E+02  0.53927151982E+02  0.51100000000E-03 0.  1.
         23    2    1    0    0    0 -0.14670136846E+02  0.39685838742E+00  0.24791352643E+02  0.96190599147E+02  0.91774995433E+02 0.  0.
         11    1    3    3    0    0 -0.20399690962E+02  0.32074831959E+02 -0.18473135343E+02  0.42263447164E+02  0.51100000000E-03 0. -1.
         22    1    1    0    0    0  0.14670136846E+02 -0.39685838742E+00 -0.24791352643E+02  0.28809400853E+02  0.00000000000E+00 0.  1.
</event>
<event>
 5    1  0.8907853E-005  0.9118800E+02  0.7818608E-02  0.1130116E+00
         25   -1    0    0    0    0  0.00000000000E+00  0.00000000000E+00  0.99999998245E-14  0.12500000000E+03  0.12500000000E+03 0.  0.
        -11    1    3    3    0    0  0.31044101760E+02 -0.69501895101E+01  0.32123704786E+02  0.45210328441E+02  0.51100000000E-03 0. -1.
         23    2    1    0    0    0 -0.17025608366E+02 -0.43952412943E-01  0.25664976945E+02  0.94201228699E+02  0.89024194322E+02 0.  0.
         11    1    3    3    0    0 -0.48069710126E+02  0.69062370972E+01 -0.64587278409E+01  0.48990900257E+02  0.51100000000E-03 0.  1.
         22    1    1    0    0    0  0.17025608366E+02  0.43952412943E-01 -0.25664976945E+02  0.30798771301E+02  0.00000000000E+00 0.  1.
</event>
<event>
 5    1  0.8907853E-005  0.9118800E+02  0.7818608E-02  0.1130116E+00
         25   -1    0    0    0    0  0.00000000000E+00  0.00000000000E+00  0.99999998245E-14  0.12500000000E+03  0.12500000000E+03 0.  0.
        -11    1    3    3    0    0  0.53735997371E+02  0.23346260409E+02 -0.29758347800E+01  0.58663965784E+02  0.51100000000E-03 0. -1.
         23    2    1    0    0    0  0.17966795954E+02  0.24474466150E+02  0.63052200109E+00  0.94632207717E+02  0.89627294555E+02 0.  0.
         11    1    3    3    0    0 -0.35769201417E+02  0.11282057405E+01  0.36063567811E+01  0.35968241933E+02  0.51100000000E-03 0.  1.
         22    1    1    0    0    0 -0.17966795954E+02 -0.24474466150E+02 -0.63052200109E+00  0.30367792283E+02  0.00000000000E+00 0.  1.
</event>
<event>
 5    1  0.8907853E-005  0.9118800E+02  0.7818608E-02  0.1130116E+00
         25   -1    0    0    0    0  0.00000000000E+00  0.00000000000E+00  0.99999998245E-14  0.12500000000E+03  0.12500000000E+03 0.  0.
        -11    1    3    3    0    0  0.15629693696E+02 -0.10200881593E+02 -0.35043352744E+02  0.39703675927E+02  0.51100000000E-03 0.  1.
         23    2    1    0    0    0  0.12935858787E+02 -0.17025668696E+02  0.20290969404E+02  0.95522325796E+02  0.90860230294E+02 0.  0.
         11    1    3    3    0    0 -0.26938349095E+01 -0.68247871029E+01  0.55334322147E+02  0.55818649870E+02  0.51100000000E-03 0. -1.
         22    1    1    0    0    0 -0.12935858787E+02  0.17025668696E+02 -0.20290969404E+02  0.29477674204E+02  0.00000000000E+00 0. -1.
</event>
<event>
 5    1  0.8907853E-005  0.9118800E+02  0.7818608E-02  0.1130116E+00
         25   -1    0    0    0    0  0.00000000000E+00  0.00000000000E+00  0.99999998245E-14  0.12500000000E+03  0.12500000000E+03 0.  0.
        -11    1    3    3    0    0 -0.45412695033E+01  0.32242937277E+01  0.50393640455E+02  0.50700475316E+02  0.51100000000E-03 0. -1.
         23    2    1    0    0    0  0.20998831084E+02 -0.11639108546E+02  0.15513591649E+02  0.96415191438E+02  0.92080388029E+02 0.  0.
         11    1    3    3    0    0  0.25540100587E+02 -0.14863402274E+02 -0.34880048805E+02  0.45714716122E+02  0.51100000000E-03 0.  1.
         22    1    1    0    0    0 -0.20998831084E+02  0.11639108546E+02 -0.15513591649E+02  0.28584808562E+02  0.00000000000E+00 0.  1.
</event>
<event>
 5    1  0.8907853E-005  0.9118800E+02  0.7818608E-02  0.1130116E+00
         25   -1    0    0    0    0  0.00000000000E+00  0.00000000000E+00  0.99999998245E-14  0.12500000000E+03  0.12500000000E+03 0.  0.
        -11    1    3    3    0    0 -0.79802046188E+01 -0.41326790402E+02  0.27520685644E+02  0.50288919349E+02  0.51100000000E-03 0. -1.
         23    2    1    0    0    0  0.21545736030E+02 -0.19286865344E+02  0.32928332650E+00  0.96080969183E+02  0.91625554819E+02 0.  0.
         11    1    3    3    0    0  0.29525940649E+02  0.22039925058E+02 -0.27191402318E+02  0.45792049835E+02  0.51100000000E-03 0.  1.
         22    1    1    0    0    0 -0.21545736030E+02  0.19286865344E+02 -0.32928332650E+00  0.28919030817E+02  0.00000000000E+00 0. -1.
</event>
<event>
 5    1  0.8907853E-005  0.9118800E+02  0.7818608E-02  0.1130116E+00
         25   -1    0    0    0    0  0.00000000000E+00  0.00000000000E+00  0.99999998245E-14  0.12500000000E+03  0.12500000000E+03 0.  0.
        -11    1    3    3    0    0  0.14371893083E+02  0.47423556504E+02 -0.33082260969E+02  0.59581717106E+02  0.51100000000E-03 0.  1.
         23    2    1    0    0    0  0.14599371215E+02  0.25082321670E+02 -0.48651079649E+01  0.95573247278E+02  0.90930257998E+02 0.  0.
         11    1    3    3    0    0  0.22747813192E+00 -0.22341234834E+02  0.28217153004E+02  0.35991530172E+02  0.51100000000E-03 0. -1.
         22    1    1    0    0    0 -0.14599371215E+02 -0.25082321670E+02  0.48651079649E+01  0.29426752722E+02  0.00000000000E+00 0.  1.
</event>
<event>
 5    1  0.8907853E-005  0.9118800E+02  0.7818608E-02  0.1130116E+00
         25   -1    0    0    0    0  0.00000000000E+00  0.00000000000E+00  0.99999998245E-14  0.12500000000E+03  0.12500000000E+03 0.  0.
        -11    1    3    3    0    0 -0.38188698291E+01  0.36355724361E+02  0.30580354400E+02  0.47660051784E+02  0.51100000000E-03 0. -1.
         23    2    1    0    0    0  0.26032099190E+02  0.15129706983E+02  0.77856939930E+00  0.94880498146E+02  0.89972910015E+02 0.  0.
         11    1    3    3    0    0  0.29850969019E+02 -0.21226017379E+02 -0.29801785000E+02  0.47220446362E+02  0.51100000000E-03 0.  1.
         22    1    1    0    0    0 -0.26032099190E+02 -0.15129706983E+02 -0.77856939930E+00  0.30119501854E+02  0.00000000000E+00 0.  1.
</event>
<event>
 5    1  0.8907853E-005  0.9118800E+02  0.7818608E-02  0.1130116E+00
         25   -1    0    0    0    0  0.00000000000E+00  0.00000000000E+00  0.99999998245E-14  0.12500000000E+03  0.12500000000E+03 0.  0.
        -11    1    3    3    0    0  0.32608068253E+02 -0.84108531752E-01 -0.10310065342E+02  0.34199278311E+02  0.51100000000E-03 0.  1.
         23    2    1    0    0    0 -0.24823458328E+02 -0.11910948492E+02  0.91587557704E+01  0.95983494618E+02  0.91492478677E+02 0.  0.
         11    1    3    3    0    0 -0.57431526581E+02 -0.11826839960E+02  0.19468821112E+02  0.61784216306E+02  0.51100000000E-03 0. -1.
         22    1    1    0    0    0  0.24823458328E+02  0.11910948492E+02 -0.91587557704E+01  0.29016505382E+02  0.00000000000E+00 0. -1.
</event>
<event>
 5    1  0.8907853E-005  0.9118800E+02  0.7818608E-02  0.1130116E+00
         25   -1    0    0    0    0  0.00000000000E+00  0.00000000000E+00  0.99999998245E-14  0.12500000000E+03  0.12500000000E+03 0.  0.
        -11    1    3    3    0    0 -0.42465481183E+01  0.30353661936E+02  0.41827633005E+02  0.51854882576E+02  0.51100000000E-03 0.  1.
         23    2    1    0    0    0 -0.25367036787E+02  0.97294627650E+01  0.81585082212E+01  0.96632584583E+02  0.92375029882E+02 0.  0.
         11    1    3    3    0    0 -0.21120488669E+02 -0.20624199171E+02 -0.33669124784E+02  0.44777702007E+02  0.51100000000E-03 0. -1.
         22    1    1    0    0    0  0.25367036787E+02 -0.97294627650E+01 -0.81585082212E+01  0.28367415417E+02  0.00000000000E+00 0.  1.
</event>
<event>
 5    1  0.8907853E-005  0.9118800E+02  0.7818608E-02  0.1130116E+00
         25   -1    0    0    0    0  0.00000000000E+00  0.00000000000E+00  0.99999998245E-14  0.12500000000E+03  0.12500000000E+03 0.  0.
        -11    1    3    3    0    0  0.17204143968E+02 -0.32844351366E+02 -0.11795411590E+02  0.38908427380E+02  0.51100000000E-03 0. -1.
         23    2    1    0    0    0  0.10588261722E+02  0.24937292209E+02 -0.47857567572E+01  0.97488487924E+02  0.93526049745E+02 0.  0.
         11    1    3    3    0    0 -0.66158822461E+01  0.57781643575E+02  0.70096548326E+01  0.58580060543E+02  0.51100000000E-03 0.  1.
         22    1    1    0    0    0 -0.10588261722E+02 -0.24937292209E+02  0.47857567572E+01  0.27511512076E+02  0.00000000000E+00 0.  1.
</event>
<event>
 5    1  0.8907853E-005  0.9118800E+02  0.7818608E-02  0.1130116E+00
         25   -1    0    0    0    0  0.00000000000E+00  0.00000000000E+00  0.99999998245E-14  0.12500000000E+03  0.12500000000E+03 0.  0.
        -11    1    3    3    0    0 -0.74105198777E+01  0.20061785826E+02 -0.30316532001E+02  0.37100986082E+02  0.51100000000E-03 0. -1.
         23    2    1    0    0    0  0.16520414729E+02  0.15750896961E+02  0.21061061466E+02  0.93942260740E+02  0.88659828473E+02 0.  0.
         11    1    3    3    0    0  0.23930934607E+02 -0.43108888656E+01  0.51377593468E+02  0.56841274658E+02  0.51100000000E-03 0.  1.
         22    1    1    0    0    0 -0.16520414729E+02 -0.15750896961E+02 -0.21061061466E+02  0.31057739260E+02  0.00000000000E+00 0.  1.
</event>
<event>
 5    1  0.8907853E-005  0.9118800E+02  0.7818608E-02  0.1130116E+00
         25   -1    0    0    0    0  0.00000000000E+00  0.00000000000E+00  0.99999998245E-14  0.12500000000E+03  0.12500000000E+03 0.  0.
        -11    1    3    3    0    0  0.23699943485E+02  0.12107424114E+02 -0.21163080806E+02  0.34002250357E+02  0.51100000000E-03 0.  1.
         23    2    1    0    0    0 -0.22852637866E+02 -0.44587354975E+01  0.16778304920E+02  0.96300960022E+02  0.91925187002E+02 0.  0.
         11    1    3    3    0    0 -0.46552581352E+02 -0.16566159611E+02  0.37941385726E+02  0.62298709665E+02  0.51100000000E-03 0. -1.
         22    1    1    0    0    0  0.22852637866E+02  0.44587354975E+01 -0.16778304920E+02  0.28699039978E+02  0.00000000000E+00 0. -1.
</event>
<event>
 5    1  0.8907853E-005  0.9118800E+02  0.7818608E-02  0.1130116E+00
         25   -1    0    0    0    0  0.00000000000E+00  0.00000000000E+00  0.99999998245E-14  0.12500000000E+03  0.12500000000E+03 0.  0.
        -11    1    3    3    0    0 -0.16482055515E+02 -0.32749693814E+02 -0.98182600070E+01  0.37955221364E+02  0.51100000000E-03 0.  1.
         23    2    1    0    0    0  0.27980077738E+02  0.33359103214E+01  0.30831547711E+01  0.96653591211E+02  0.92403451249E+02 0.  0.
         11    1    3    3    0    0  0.44462133253E+02  0.36085604136E+02  0.12901414778E+02  0.58698369848E+02  0.51100000000E-03 0. -1.
         22    1    1    0    0    0 -0.27980077738E+02 -0.33359103214E+01 -0.30831547711E+01  0.28346408789E+02  0.00000000000E+00 0. -1.
</event>
<event>
 5    1  0.8907853E-005  0.9118800E+02  0.7818608E-02  0.1130116E+00
         25   -1    0    0    0    0  0.00000000000E+00  0.00000000000E+00  0.99999998245E-14  0.12500000000E+03  0.12500000000E+03 0.  0.
        -11    1    3    3    0    0  0.18410393724E+02 -0.36067680226E+02 -0.30272003416E+02  0.50559018435E+02  0.51100000000E-03 0.  1.
         23    2    1    0    0    0 -0.19487495284E+02 -0.13935665236E+02 -0.13174804952E+02  0.97658809033E+02  0.93753411981E+02 0.  0.
         11    1    3    3    0    0 -0.37897889008E+02  0.22132014990E+02  0.17097198465E+02  0.47099790598E+02  0.51100000000E-03 0. -1.
         22    1    1    0    0    0  0.19487495284E+02  0.13935665236E+02  0.13174804952E+02  0.27341190967E+02  0.00000000000E+00 0.  1.
</event>
<event>
 5    1  0.8907853E-005  0.9118800E+02  0.7818608E-02  0.1130116E+00
         25   -1    0    0    0    0  0.00000000000E+00  0.00000000000E+00  0.99999998245E-14  0.12500000000E+03  0.12500000000E+03 0.  0.
        -11    1    3    3    0    0  0.15227314818E+02 -0.27574827518E+02 -0.32985973400E+02  0.45610488603E+02  0.51100000000E-03 0. -1.
         23    2    1    0    0    0  0.62936913833E+01 -0.22878444070E+02  0.16489365975E+02  0.96104793745E+02  0.91658051671E+02 0.  0.
         11    1    3    3    0    0 -0.89336234343E+01  0.46963834481E+01  0.49475339375E+02  0.50494305141E+02  0.51100000000E-03 0.  1.
         22    1    1    0    0    0 -0.62936913833E+01  0.22878444070E+02 -0.16489365975E+02  0.28895206255E+02  0.00000000000E+00 0.  1.
</event>
<event>
 5    1  0.8907853E-005  0.9118800E+02  0.7818608E-02  0.1130116E+00
         25   -1    0    0    0    0  0.00000000000E+00  0.00000000000E+00  0.99999998245E-14  0.12500000000E+03  0.12500000000E+03 0.  0.
        -11    1    3    3    0    0  0.11241546613E+02  0.61520873360E+01 -0.30757706017E+02  0.33320519631E+02  0.51100000000E-03 0. -1.
         23    2    1    0    0    0 -0.10162819492E+02 -0.63262602330E+01  0.26616285551E+02  0.95815567076E+02  0.91262762225E+02 0.  0.
         11    1    3    3    0    0 -0.21404366105E+02 -0.12478347569E+02  0.57373991568E+02  0.62495047444E+02  0.51100000000E-03 0.  1.
         22    1    1    0    0    0  0.10162819492E+02  0.63262602330E+01 -0.26616285551E+02  0.29184432924E+02  0.00000000000E+00 0.  1.
</event>
<event>
 5    1  0.8907853E-005  0.9118800E+02  0.7818608E-02  0.1130116E+00
         25   -1    0    0    0    0  0.00000000000E+00  0.00000000000E+00  0.99999998245E-14  0.12500000000E+03  0.12500000000E+03 0.  0.
        -11    1    3    3    0    0  0.53715496449E+02 -0.16525167000E+02 -0.23512864252E+02  0.60920361856E+02  0.51100000000E-03 0.  1.
         23    2    1    0    0    0  0.27868148220E+02 -0.41830043065E+01 -0.19879382077E+01  0.96749635249E+02  0.92533284888E+02 0.  0.
         11    1    3    3    0    0 -0.25847348228E+02  0.12342162693E+02  0.21524926044E+02  0.35829273393E+02  0.51100000000E-03 0. -1.
         22    1    1    0    0    0 -0.27868148220E+02  0.41830043065E+01  0.19879382077E+01  0.28250364751E+02  0.00000000000E+00 0.  1.
</event>
<event>
 5    1  0.8907853E-005  0.9118800E+02  0.7818608E-02  0.1130116E+00
         25   -1    0    0    0    0  0.00000000000E+00  0.00000000000E+00  0.99999998245E-14  0.12500000000E+03  0.12500000000E+03 0.  0.
        -11    1    3    3    0    0 -0.26145691559E+02  0.22023295427E+02 -0.52586279812E+01  0.34587221586E+02  0.51100000000E-03 0.  1.
         23    2    1    0    0    0  0.84919104032E+01 -0.10072967524E+02  0.29146828574E+02  0.93013833726E+02  0.87341046658E+02 0.  0.
         11    1    3    3    0    0  0.34637601962E+02 -0.32096262951E+02  0.34405456555E+02  0.58426612139E+02  0.51100000000E-03 0. -1.
         22    1    1    0    0    0 -0.84919104032E+01  0.10072967524E+02 -0.29146828574E+02  0.31986166274E+02  0.00000000000E+00 0. -1.
</event>
<event>
 5    1  0.8907853E-005  0.9118800E+02  0.7818608E-02  0.1130116E+00
         25   -1    0    0    0    0  0.00000000000E+00  0.00000000000E+00  0.99999998245E-14  0.12500000000E+03  0.12500000000E+03 0.  0.
        -11    1    3    3    0    0  0.58143927053E+01 -0.58709294148E+02 -0.55139328885E+01  0.59253622996E+02  0.51100000000E-03 0.  1.
         23    2    1    0    0    0 -0.56195878160E+01 -0.24596652927E+02 -0.13897287442E+02  0.96195318077E+02  0.91781422517E+02 0.  0.
         11    1    3    3    0    0 -0.11433980521E+02  0.34112641221E+02 -0.83833545537E+01  0.36941695081E+02  0.51100000000E-03 0. -1.
         22    1    1    0    0    0  0.56195878160E+01  0.24596652927E+02  0.13897287442E+02  0.28804681923E+02  0.00000000000E+00 0.  1.
</event>
<event>
 5    1  0.8907853E-005  0.9118800E+02  0.7818608E-02  0.1130116E+00
         25   -1    0    0    0    0  0.00000000000E+00  0.00000000000E+00  0.99999998245E-14  0.12500000000E+03  0.12500000000E+03 0.  0.
        -11    1    3    3    0    0  0.21202959648E+02  0.15791189812E+02  0.54814113016E+02  0.60856504660E+02  0.51100000000E-03 0. -1.
         23    2    1    0    0    0  0.15050217965E+02  0.13953374230E+02  0.19703614654E+02  0.96549373581E+02  0.92262361748E+02 0.  0.
         11    1    3    3    0    0 -0.61527416833E+01 -0.18378155814E+01 -0.35110498362E+02  0.35692868921E+02  0.51100000000E-03 0.  1.
         22    1    1    0    0    0 -0.15050217965E+02 -0.13953374230E+02 -0.19703614654E+02  0.28450626419E+02  0.00000000000E+00 0. -1.
</event>
<event>
 5    1  0.8907853E-005  0.9118800E+02  0.7818608E-02  0.1130116E+00
         25   -1    0    0    0    0  0.00000000000E+00  0.00000000000E+00  0.99999998245E-14  0.12500000000E+03  0.12500000000E+03 0.  0.
        -11    1    3    3    0    0 -0.27850275683E+02  0.49202579286E+02  0.16639164391E+02  0.58935502508E+02  0.51100000000E-03 0. -1.
         23    2    1    0    0    0 -0.73666136953E+01  0.13931106920E+02  0.19623014568E+02  0.99832452680E+02  0.96608038848E+02 0.  0.
         11    1    3    3    0    0  0.20483661988E+02 -0.35271472365E+02  0.29838501766E+01  0.40896950172E+02  0.51100000000E-03 0.  1.
         22    1    1    0    0    0  0.73666136953E+01 -0.13931106920E+02 -0.19623014568E+02  0.25167547320E+02  0.00000000000E+00 0. -1.
</event>
<event>
 5    1  0.8907853E-005  0.9118800E+02  0.7818608E-02  0.1130116E+00
         25   -1    0    0    0    0  0.00000000000E+00  0.00000000000E+00  0.99999998245E-14  0.12500000000E+03  0.12500000000E+03 0.  0.
        -11    1    3    3    0    0 -0.32632413361E+02  0.34338938003E+02 -0.38611552187E+02  0.61113738451E+02  0.51100000000E-03 0. -1.
         23    2    1    0    0    0 -0.10135931923E+02  0.23168101364E+02 -0.14937745998E+02  0.95629363435E+02  0.91007367057E+02 0.  0.
         11    1    3    3    0    0  0.22496481438E+02 -0.11170836639E+02  0.23673806189E+02  0.34515624984E+02  0.51100000000E-03 0.  1.
         22    1    1    0    0    0  0.10135931923E+02 -0.23168101364E+02  0.14937745998E+02  0.29370636565E+02  0.00000000000E+00 0. -1.
</event>
<event>
 5    1  0.8907853E-005  0.9118800E+02  0.7818608E-02  0.1130116E+00
         25   -1    0    0    0    0  0.00000000000E+00  0.00000000000E+00  0.99999998245E-14  0.12500000000E+03  0.12500000000E+03 0.  0.
        -11    1    3    3    0    0  0.10303146812E+02 -0.16318216795E+02  0.58820224517E+02  0.61905232784E+02  0.51100000000E-03 0. -1.
         23    2    1    0    0    0  0.36393665335E+01 -0.18158244298E+01  0.28891949120E+02  0.95823178187E+02  0.91273186352E+02 0.  0.
         11    1    3    3    0    0 -0.66637802782E+01  0.14502392366E+02 -0.29928275396E+02  0.33917945403E+02  0.51100000000E-03 0.  1.
         22    1    1    0    0    0 -0.36393665335E+01  0.18158244298E+01 -0.28891949120E+02  0.29176821813E+02  0.00000000000E+00 0. -1.
</event>
<event>
 5    1  0.8907853E-005  0.9118800E+02  0.7818608E-02  0.1130116E+00
         25   -1    0    0    0    0  0.00000000000E+00  0.00000000000E+00  0.99999998245E-14  0.12500000000E+03  0.12500000000E+03 0.  0.
        -11    1    3    3    0    0 -0.44650584360E+02  0.33536433734E+02 -0.31991391476E+01  0.55933903519E+02  0.51100000000E-03 0.  1.
         23    2    1    0    0    0 -0.27646552878E+02 -0.21923277671E+01  0.61519249370E+01  0.96592529724E+02  0.92320812555E+02 0.  0.
         11    1    3    3    0    0  0.17004031482E+02 -0.35728761501E+02  0.93510640846E+01  0.40658626205E+02  0.51100000000E-03 0. -1.
         22    1    1    0    0    0  0.27646552878E+02  0.21923277671E+01 -0.61519249370E+01  0.28407470276E+02  0.00000000000E+00 0.  1.
</event>
<event>
 5    1  0.8907853E-005  0.9118800E+02  0.7818608E-02  0.1130116E+00
         25   -1    0    0    0    0  0.00000000000E+00  0.00000000000E+00  0.99999998245E-14  0.12500000000E+03  0.12500000000E+03 0.  0.
        -11    1    3    3    0    0 -0.14638525327E+02 -0.33383294086E+02 -0.20938104088E+02  0.42037304276E+02  0.51100000000E-03 0. -1.
         23    2    1    0    0    0  0.12246819711E+01  0.17371978411E+02 -0.24052301422E+02  0.95304904722E+02  0.90560621578E+02 0.  0.
         11    1    3    3    0    0  0.15863207298E+02  0.50755272497E+02 -0.31141973348E+01  0.53267600446E+02  0.51100000000E-03 0.  1.
         22    1    1    0    0    0 -0.12246819711E+01 -0.17371978411E+02  0.24052301422E+02  0.29695095278E+02  0.00000000000E+00 0.  1.
</event>
<event>
 5    1  0.8907853E-005  0.9118800E+02  0.7818608E-02  0.1130116E+00
         25   -1    0    0    0    0  0.00000000000E+00  0.00000000000E+00  0.99999998245E-14  0.12500000000E+03  0.12500000000E+03 0.  0.
        -11    1    3    3    0    0 -0.16545707411E+02  0.48032375447E+01 -0.48738868239E+02  0.51694378825E+02  0.51100000000E-03 0.  1.
         23    2    1    0    0    0 -0.26056844371E+02 -0.95332963843E+01 -0.76821938436E+01  0.96210088907E+02  0.91801537169E+02 0.  0.
         11    1    3    3    0    0 -0.95111369599E+01 -0.14336533929E+02  0.41056674395E+02  0.44515710081E+02  0.51100000000E-03 0. -1.
         22    1    1    0    0    0  0.26056844371E+02  0.95332963843E+01  0.76821938436E+01  0.28789911093E+02  0.00000000000E+00 0.  1.
</event>
<event>
 5    1  0.8907853E-005  0.9118800E+02  0.7818608E-02  0.1130116E+00
         25   -1    0    0    0    0  0.00000000000E+00  0.00000000000E+00  0.99999998245E-14  0.12500000000E+03  0.12500000000E+03 0.  0.
        -11    1    3    3    0    0 -0.53017590264E+02 -0.16560323965E+02  0.19981412001E+02  0.59028518811E+02  0.51100000000E-03 0. -1.
         23    2    1    0    0    0 -0.20544078603E+02 -0.21671607782E+02  0.11693209842E+02  0.92930561185E+02  0.87221787968E+02 0.  0.
         11    1    3    3    0    0  0.32473511661E+02 -0.51112838173E+01 -0.82882021599E+01  0.33902042374E+02  0.51100000000E-03 0.  1.
         22    1    1    0    0    0  0.20544078603E+02  0.21671607782E+02 -0.11693209842E+02  0.32069438815E+02  0.00000000000E+00 0. -1.
</event>
<event>
 5    1  0.8907853E-005  0.9118800E+02  0.7818608E-02  0.1130116E+00
         25   -1    0    0    0    0  0.00000000000E+00  0.00000000000E+00  0.99999998245E-14  0.12500000000E+03  0.12500000000E+03 0.  0.
        -11    1    3    3    0    0 -0.16473600987E+00 -0.27776791080E+02  0.46048890707E+02  0.53778040094E+02  0.51100000000E-03 0. -1.
         23    2    1    0    0    0 -0.19888887902E+02 -0.18197116506E+02  0.94665532041E+01  0.96428711252E+02  0.92098739476E+02 0.  0.
         11    1    3    3    0    0 -0.19724151893E+02  0.95796745741E+01 -0.36582337503E+02  0.42650671159E+02  0.51100000000E-03 0.  1.
         22    1    1    0    0    0  0.19888887902E+02  0.18197116506E+02 -0.94665532041E+01  0.28571288748E+02  0.00000000000E+00 0. -1.
</event>
<event>
 5    1  0.8907853E-005  0.9118800E+02  0.7818608E-02  0.1130116E+00
         25   -1    0    0    0    0  0.00000000000E+00  0.00000000000E+00  0.99999998245E-14  0.12500000000E+03  0.12500000000E+03 0.  0.
        -11    1    3    3    0    0 -0.22255791612E+02  0.25430620346E+02  0.73834705892E+01  0.34591217811E+02  0.51100000000E-03 0.  1.
         23    2    1    0    0    0  0.42305915038E+01 -0.17116339865E+02 -0.25108170782E+02  0.94319595262E+02  0.89190239464E+02 0.  0.
         11    1    3    3    0    0  0.26486383115E+02 -0.42546960211E+02 -0.32491641372E+02  0.59728377451E+02  0.51100000000E-03 0. -1.
         22    1    1    0    0    0 -0.42305915038E+01  0.17116339865E+02  0.25108170782E+02  0.30680404738E+02  0.00000000000E+00 0. -1.
</event>
<event>
 5    1  0.8907853E-005  0.9118800E+02  0.7818608E-02  0.1130116E+00
         25   -1    0    0    0    0  0.00000000000E+00  0.00000000000E+00  0.99999998245E-14  0.12500000000E+03  0.12500000000E+03 0.  0.
        -11    1    3    3    0    0 -0.44391237516E+02 -0.55930592137E+01 -0.28797973853E+02  0.53208905062E+02  0.51100000000E-03 0. -1.
         23    2    1    0    0    0 -0.17072328634E+01 -0.12692837172E+02 -0.25327848283E+02  0.96618268936E+02  0.92355656210E+02 0.  0.
         11    1    3    3    0    0  0.42684004653E+02 -0.70997779586E+01  0.34701255698E+01  0.43409363874E+02  0.51100000000E-03 0.  1.
         22    1    1    0    0    0  0.17072328634E+01  0.12692837172E+02  0.25327848283E+02  0.28381731064E+02  0.00000000000E+00 0. -1.
</event>
<event>
 5    1  0.8907853E-005  0.9118800E+02  0.7818608E-02  0.1130116E+00
         25   -1    0    0    0    0  0.00000000000E+00  0.00000000000E+00  0.99999998245E-14  0.12500000000E+03  0.12500000000E+03 0.  0.
        -11    1    3    3    0    0  0.17203775835E+02  0.18455148306E+02 -0.47291699561E+02  0.53601000453E+02  0.51100000000E-03 0.  1.
         23    2    1    0    0    0 -0.79854616635E+01  0.25940739827E+02 -0.22185713159E+02  0.89944394897E+02  0.82831749494E+02 0.  0.
         11    1    3    3    0    0 -0.25189237499E+02  0.74855915215E+01  0.25105986402E+02  0.36343394443E+02  0.51100000000E-03 0. -1.
         22    1    1    0    0    0  0.79854616635E+01 -0.25940739827E+02  0.22185713159E+02  0.35055605103E+02  0.00000000000E+00 0. -1.
</event>
<event>
 5    1  0.8907853E-005  0.9118800E+02  0.7818608E-02  0.1130116E+00
         25   -1    0    0    0    0  0.00000000000E+00  0.00000000000E+00  0.99999998245E-14  0.12500000000E+03  0.12500000000E+03 0.  0.
        -11    1    3    3    0    0 -0.32911851663E+02  0.98090350599E+01 -0.23796571480E+02  0.41781382974E+02  0.51100000000E-03 0.  1.
         23    2    1    0    0    0 -0.55784436372E+01  0.20508785678E+02  0.20859023769E+02  0.95220339223E+02  0.90443821268E+02 0.  0.
         11    1    3    3    0    0  0.27333408026E+02  0.10699750619E+02  0.44655595250E+02  0.53438956249E+02  0.51100000000E-03 0. -1.
         22    1    1    0    0    0  0.55784436372E+01 -0.20508785678E+02 -0.20859023769E+02  0.29779660777E+02  0.00000000000E+00 0. -1.
</event>
<event>
 5    1  0.8907853E-005  0.9118800E+02  0.7818608E-02  0.1130116E+00
         25   -1    0    0    0    0  0.00000000000E+00  0.00000000000E+00  0.99999998245E-14  0.12500000000E+03  0.12500000000E+03 0.  0.
        -11    1    3    3    0    0 -0.24693470206E+02  0.20180287564E+02  0.10472360722E+02  0.33566081337E+02  0.51100000000E-03 0.  1.
         23    2    1    0    0    0  0.22681953209E+02 -0.18667355796E+02  0.61686991053E+01  0.94983437531E+02  0.90115810948E+02 0.  0.
         11    1    3    3    0    0  0.47375423415E+02 -0.38847643360E+02 -0.43036616164E+01  0.61417356194E+02  0.51100000000E-03 0. -1.
         22    1    1    0    0    0 -0.22681953209E+02  0.18667355796E+02 -0.61686991053E+01  0.30016562469E+02  0.00000000000E+00 0. -1.
</event>
<event>
 5    1  0.8907853E-005  0.9118800E+02  0.7818608E-02  0.1130116E+00
         25   -1    0    0    0    0  0.00000000000E+00  0.00000000000E+00  0.99999998245E-14  0.12500000000E+03  0.12500000000E+03 0.  0.
        -11    1    3    3    0    0  0.73719283577E+01 -0.47175371143E+02 -0.14855031586E+02  0.50005329055E+02  0.51100000000E-03 0.  1.
         23    2    1    0    0    0 -0.18462338987E+02 -0.17580851944E+02  0.11210144672E+02  0.97150194623E+02  0.93072813731E+02 0.  0.
         11    1    3    3    0    0 -0.25834267345E+02  0.29594519199E+02  0.26065176258E+02  0.47144865569E+02  0.51100000000E-03 0. -1.
         22    1    1    0    0    0  0.18462338987E+02  0.17580851944E+02 -0.11210144672E+02  0.27849805377E+02  0.00000000000E+00 0. -1.
</event>
<event>
 5    1  0.8907853E-005  0.9118800E+02  0.7818608E-02  0.1130116E+00
         25   -1    0    0    0    0  0.00000000000E+00  0.00000000000E+00  0.99999998245E-14  0.12500000000E+03  0.12500000000E+03 0.  0.
        -11    1    3    3    0    0 -0.17348409461E+02 -0.25796410594E+02 -0.31027065504E+02  0.43921531217E+02  0.51100000000E-03 0.  1.
         23    2    1    0    0    0 -0.96862301611E+01  0.22726427457E+02 -0.17008221533E+02  0.95006781443E+02  0.90148185566E+02 0.  0.
         11    1    3    3    0    0  0.76621792995E+01  0.48522838051E+02  0.14018843972E+02  0.51085250227E+02  0.51100000000E-03 0. -1.
         22    1    1    0    0    0  0.96862301611E+01 -0.22726427457E+02  0.17008221533E+02  0.29993218557E+02  0.00000000000E+00 0.  1.
</event>
<event>
 5    1  0.8907853E-005  0.9118800E+02  0.7818608E-02  0.1130116E+00
         25   -1    0    0    0    0  0.00000000000E+00  0.00000000000E+00  0.99999998245E-14  0.12500000000E+03  0.12500000000E+03 0.  0.
        -11    1    3    3    0    0  0.34877336992E+02  0.12994374366E+02  0.68705745806E+01  0.37848212588E+02  0.51100000000E-03 0.  1.
         23    2    1    0    0    0 -0.22444866350E+02  0.12369708323E+02  0.14298904993E+02  0.95653102490E+02  0.91039967171E+02 0.  0.
         11    1    3    3    0    0 -0.57322203342E+02 -0.62466604322E+00  0.74283304121E+01  0.57804889902E+02  0.51100000000E-03 0. -1.
         22    1    1    0    0    0  0.22444866350E+02 -0.12369708323E+02 -0.14298904993E+02  0.29346897510E+02  0.00000000000E+00 0. -1.
</event>
<event>
 5    1  0.8907853E-005  0.9118800E+02  0.7818608E-02  0.1130116E+00
         25   -1    0    0    0    0  0.00000000000E+00  0.00000000000E+00  0.99999998245E-14  0.12500000000E+03  0.12500000000E+03 0.  0.
        -11    1    3    3    0    0 -0.38638741974E+02 -0.25633483913E+00  0.12856593621E+02  0.40722353673E+02  0.51100000000E-03 0.  1.
         23    2    1    0    0    0  0.10281196631E+02 -0.22782141492E+02  0.17052463353E+02  0.94742513628E+02  0.89781002484E+02 0.  0.
         11    1    3    3    0    0  0.48919938605E+02 -0.22525806653E+02  0.41958697319E+01  0.54020159955E+02  0.51100000000E-03 0. -1.
         22    1    1    0    0    0 -0.10281196631E+02  0.22782141492E+02 -0.17052463353E+02  0.30257486372E+02  0.00000000000E+00 0. -1.
</event>
<event>
 5    1  0.8907853E-005  0.9118800E+02  0.7818608E-02  0.1130116E+00
         25   -1    0    0    0    0  0.00000000000E+00  0.00000000000E+00  0.99999998245E-14  0.12500000000E+03  0.12500000000E+03 0.  0.
        -11    1    3    3    0    0 -0.48074948833E+01 -0.37250338783E+02  0.34639392884E+02  0.51093906546E+02  0.51100000000E-03 0. -1.
         23    2    1    0    0    0 -0.17206990833E+02  0.35926812013E+01  0.24294186219E+02  0.95013413402E+02  0.90157381010E+02 0.  0.
         11    1    3    3    0    0 -0.12399495950E+02  0.40843019984E+02 -0.10345206665E+02  0.43919506856E+02  0.51100000000E-03 0.  1.
         22    1    1    0    0    0  0.17206990833E+02 -0.35926812013E+01 -0.24294186219E+02  0.29986586598E+02  0.00000000000E+00 0. -1.
</event>
<event>
 5    1  0.8907853E-005  0.9118800E+02  0.7818608E-02  0.1130116E+00
         25   -1    0    0    0    0  0.00000000000E+00  0.00000000000E+00  0.99999998245E-14  0.12500000000E+03  0.12500000000E+03 0.  0.
        -11    1    3    3    0    0 -0.30381267817E+02  0.16312318440E+02 -0.32653965666E+02  0.47490995367E+02  0.51100000000E-03 0. -1.
         23    2    1    0    0    0  0.14741003225E+02 -0.48710507179E+00 -0.24613399051E+02  0.96305856691E+02  0.91931845259E+02 0.  0.
         11    1    3    3    0    0  0.45122271042E+02 -0.16799423511E+02  0.80405666149E+01  0.48814861323E+02  0.51100000000E-03 0.  1.
         22    1    1    0    0    0 -0.14741003225E+02  0.48710507179E+00  0.24613399051E+02  0.28694143309E+02  0.00000000000E+00 0.  1.
</event>
<event>
 5    1  0.8907853E-005  0.9118800E+02  0.7818608E-02  0.1130116E+00
         25   -1    0    0    0    0  0.00000000000E+00  0.00000000000E+00  0.99999998245E-14  0.12500000000E+03  0.12500000000E+03 0.  0.
        -11    1    3    3    0    0 -0.24373011699E+02 -0.84641837154E+01 -0.10691080634E+02  0.27928217104E+02  0.51100000000E-03 0.  1.
         23    2    1    0    0    0  0.32717012221E+02  0.13377101383E+02 -0.32533089659E+01  0.89504454514E+02  0.82165160674E+02 0.  0.
         11    1    3    3    0    0  0.57090023920E+02  0.21841285099E+02  0.74377716683E+01  0.61576237410E+02  0.51100000000E-03 0. -1.
         22    1    1    0    0    0 -0.32717012221E+02 -0.13377101383E+02  0.32533089659E+01  0.35495545486E+02  0.00000000000E+00 0. -1.
</event>
<event>
 5    1  0.8907853E-005  0.9118800E+02  0.7818608E-02  0.1130116E+00
         25   -1    0    0    0    0  0.00000000000E+00  0.00000000000E+00  0.99999998245E-14  0.12500000000E+03  0.12500000000E+03 0.  0.
        -11    1    3    3    0    0  0.16587990128E+02  0.44370050507E+02  0.16209962227E+02  0.50066212900E+02  0.51100000000E-03 0.  1.
         23    2    1    0    0    0 -0.20259996881E+02  0.15862018086E+02  0.11248134907E+02  0.96918126305E+02  0.92760614358E+02 0.  0.
         11    1    3    3    0    0 -0.36847987008E+02 -0.28508032421E+02 -0.49618273203E+01  0.46851913405E+02  0.51100000000E-03 0. -1.
         22    1    1    0    0    0  0.20259996881E+02 -0.15862018086E+02 -0.11248134907E+02  0.28081873695E+02  0.00000000000E+00 0. -1.
</event>
<event>
 5    1  0.8907853E-005  0.9118800E+02  0.7818608E-02  0.1130116E+00
         25   -1    0    0    0    0  0.00000000000E+00  0.00000000000E+00  0.99999998245E-14  0.12500000000E+03  0.12500000000E+03 0.  0.
        -11    1    3    3    0    0 -0.83354290105E+01 -0.35866920217E+02  0.11762591474E+02  0.38655839159E+02  0.51100000000E-03 0. -1.
         23    2    1    0    0    0 -0.14041862439E+02  0.21703804196E+02  0.11979270872E+02  0.96509090081E+02  0.92207768221E+02 0.  0.
         11    1    3    3    0    0 -0.57064334287E+01  0.57570724414E+02  0.21667939841E+00  0.57853250922E+02  0.51100000000E-03 0.  1.
         22    1    1    0    0    0  0.14041862439E+02 -0.21703804196E+02 -0.11979270872E+02  0.28490909919E+02  0.00000000000E+00 0.  1.
</event>
<event>
 5    1  0.8907853E-005  0.9118800E+02  0.7818608E-02  0.1130116E+00
         25   -1    0    0    0    0  0.00000000000E+00  0.00000000000E+00  0.99999998245E-14  0.12500000000E+03  0.12500000000E+03 0.  0.
        -11    1    3    3    0    0 -0.69965706693E+01  0.22673242253E+02  0.31168672997E+02  0.39172874442E+02  0.51100000000E-03 0.  1.
         23    2    1    0    0    0  0.15024072584E+02 -0.23950989354E+02  0.86994796870E+01  0.95418695180E+02  0.90717549542E+02 0.  0.
         11    1    3    3    0    0  0.22020643253E+02 -0.46624231607E+02 -0.22469193310E+02  0.56245820738E+02  0.51100000000E-03 0. -1.
         22    1    1    0    0    0 -0.15024072584E+02  0.23950989354E+02 -0.86994796870E+01  0.29581304820E+02  0.00000000000E+00 0. -1.
</event>
<event>
 5    1  0.8907853E-005  0.9118800E+02  0.7818608E-02  0.1130116E+00
         25   -1    0    0    0    0  0.00000000000E+00  0.00000000000E+00  0.99999998245E-14  0.12500000000E+03  0.12500000000E+03 0.  0.
        -11    1    3    3    0    0  0.53840707958E+01 -0.16116957595E+02  0.39609990765E+02  0.43100996613E+02  0.51100000000E-03 0. -1.
         23    2    1    0    0    0  0.28389392565E+02  0.11583090854E+01 -0.49675265561E+01  0.96156012581E+02  0.91727875508E+02 0.  0.
         11    1    3    3    0    0  0.23005321769E+02  0.17275266680E+02 -0.44577517321E+02  0.53055015967E+02  0.51100000000E-03 0.  1.
         22    1    1    0    0    0 -0.28389392565E+02 -0.11583090854E+01  0.49675265561E+01  0.28843987419E+02  0.00000000000E+00 0.  1.
</event>
<event>
 5    1  0.8907853E-005  0.9118800E+02  0.7818608E-02  0.1130116E+00
         25   -1    0    0    0    0  0.00000000000E+00  0.00000000000E+00  0.99999998245E-14  0.12500000000E+03  0.12500000000E+03 0.  0.
        -11    1    3    3    0    0 -0.14575651674E+02  0.84698307431E+01  0.38257161620E+02  0.41806674945E+02  0.51100000000E-03 0.  1.
         23    2    1    0    0    0  0.14158779151E+02 -0.25585238473E+02  0.13329293705E+02  0.92863641690E+02  0.87125830972E+02 0.  0.
         11    1    3    3    0    0  0.28734430825E+02 -0.34055069216E+02 -0.24927867915E+02  0.51056966745E+02  0.51100000000E-03 0. -1.
         22    1    1    0    0    0 -0.14158779151E+02  0.25585238473E+02 -0.13329293705E+02  0.32136358310E+02  0.00000000000E+00 0. -1.
</event>
<event>
 5    1  0.8907853E-005  0.9118800E+02  0.7818608E-02  0.1130116E+00
         25   -1    0    0    0    0  0.00000000000E+00  0.00000000000E+00  0.99999998245E-14  0.12500000000E+03  0.12500000000E+03 0.  0.
        -11    1    3    3    0    0  0.15820989181E+02  0.49154212071E+02  0.18903229271E+02  0.54988838323E+02  0.51100000000E-03 0.  1.
         23    2    1    0    0    0 -0.14388436598E+02  0.21426406076E+02  0.11865916296E+02  0.96593698681E+02  0.92322395281E+02 0.  0.
         11    1    3    3    0    0 -0.30209425780E+02 -0.27727805996E+02 -0.70373129751E+01  0.41604860358E+02  0.51100000000E-03 0. -1.
         22    1    1    0    0    0  0.14388436598E+02 -0.21426406076E+02 -0.11865916296E+02  0.28406301319E+02  0.00000000000E+00 0.  1.
</event>
<event>
 5    1  0.8907853E-005  0.9118800E+02  0.7818608E-02  0.1130116E+00
         25   -1    0    0    0    0  0.00000000000E+00  0.00000000000E+00  0.99999998245E-14  0.12500000000E+03  0.12500000000E+03 0.  0.
        -11    1    3    3    0    0  0.43715163805E+02 -0.31868273666E+02 -0.15764640542E+02  0.56348259109E+02  0.51100000000E-03 0.  1.
         23    2    1    0    0    0  0.48791720753E+01 -0.24478993776E+02 -0.14981260785E+02  0.95888737040E+02  0.91362926069E+02 0.  0.
         11    1    3    3    0    0 -0.38835991729E+02  0.73892798896E+01  0.78337975720E+00  0.39540477931E+02  0.51100000000E-03 0. -1.
         22    1    1    0    0    0 -0.48791720753E+01  0.24478993776E+02  0.14981260785E+02  0.29111262960E+02  0.00000000000E+00 0.  1.
</event>
<event>
 5    1  0.8907853E-005  0.9118800E+02  0.7818608E-02  0.1130116E+00
         25   -1    0    0    0    0  0.00000000000E+00  0.00000000000E+00  0.99999998245E-14  0.12500000000E+03  0.12500000000E+03 0.  0.
        -11    1    3    3    0    0 -0.35931432392E+02 -0.14303045219E+02  0.61446833755E+01  0.39158678097E+02  0.51100000000E-03 0. -1.
         23    2    1    0    0    0  0.20904896470E+02 -0.18140787393E+02  0.81082217324E+01  0.96158257277E+02  0.91730934364E+02 0.  0.
         11    1    3    3    0    0  0.56836328862E+02 -0.38377421742E+01  0.19635383569E+01  0.56999579180E+02  0.51100000000E-03 0.  1.
         22    1    1    0    0    0 -0.20904896470E+02  0.18140787393E+02 -0.81082217324E+01  0.28841742723E+02  0.00000000000E+00 0.  1.
</event>
<event>
 5    1  0.8907853E-005  0.9118800E+02  0.7818608E-02  0.1130116E+00
         25   -1    0    0    0    0  0.00000000000E+00  0.00000000000E+00  0.99999998245E-14  0.12500000000E+03  0.12500000000E+03 0.  0.
        -11    1    3    3    0    0  0.28177977729E+02 -0.50481948718E+02 -0.23711394765E+02  0.62487245237E+02  0.51100000000E-03 0.  1.
         23    2    1    0    0    0  0.14469082691E+02 -0.25197569770E+02 -0.12802373744E+02  0.93248265406E+02  0.87675916599E+02 0.  0.
         11    1    3    3    0    0 -0.13708895038E+02  0.25284378949E+02  0.10909021021E+02  0.30761020169E+02  0.51100000000E-03 0. -1.
         22    1    1    0    0    0 -0.14469082691E+02  0.25197569770E+02  0.12802373744E+02  0.31751734594E+02  0.00000000000E+00 0.  1.
</event>
<event>
 5    1  0.8907853E-005  0.9118800E+02  0.7818608E-02  0.1130116E+00
         25   -1    0    0    0    0  0.00000000000E+00  0.00000000000E+00  0.99999998245E-14  0.12500000000E+03  0.12500000000E+03 0.  0.
        -11    1    3    3    0    0 -0.17816385377E+00 -0.40552978828E+02  0.16585138316E+02  0.43813726701E+02  0.51100000000E-03 0. -1.
         23    2    1    0    0    0 -0.28376536400E+02 -0.12417784472E+02 -0.10848540519E+02  0.92180493290E+02  0.86140137698E+02 0.  0.
         11    1    3    3    0    0 -0.28198372546E+02  0.28135194356E+02 -0.27433678834E+02  0.48366766590E+02  0.51100000000E-03 0.  1.
         22    1    1    0    0    0  0.28376536400E+02  0.12417784472E+02  0.10848540519E+02  0.32819506710E+02  0.00000000000E+00 0.  1.
</event>
<event>
 5    1  0.8907853E-005  0.9118800E+02  0.7818608E-02  0.1130116E+00
         25   -1    0    0    0    0  0.00000000000E+00  0.00000000000E+00  0.99999998245E-14  0.12500000000E+03  0.12500000000E+03 0.  0.
        -11    1    3    3    0    0  0.68849989251E+00 -0.46732065681E+02  0.43111874317E+01  0.46935555097E+02  0.51100000000E-03 0.  1.
         23    2    1    0    0    0  0.29485031929E+02 -0.19122529391E+02  0.12572056621E+02  0.87675814197E+02  0.79334441130E+02 0.  0.
         11    1    3    3    0    0  0.28796532036E+02  0.27609536291E+02  0.82608691895E+01  0.40740259100E+02  0.51100000000E-03 0. -1.
         22    1    1    0    0    0 -0.29485031929E+02  0.19122529391E+02 -0.12572056621E+02  0.37324185803E+02  0.00000000000E+00 0.  1.
</event>
<event>
 5    1  0.8907853E-005  0.9118800E+02  0.7818608E-02  0.1130116E+00
         25   -1    0    0    0    0  0.00000000000E+00  0.00000000000E+00  0.99999998245E-14  0.12500000000E+03  0.12500000000E+03 0.  0.
        -11    1    3    3    0    0 -0.50058903181E+02  0.63733262771E+01  0.97226514994E+01  0.51391079265E+02  0.51100000000E-03 0.  1.
         23    2    1    0    0    0 -0.92472839853E+01  0.47884717200E+01  0.27244359575E+02  0.95833292075E+02  0.91287036423E+02 0.  0.
         11    1    3    3    0    0  0.40811619196E+02 -0.15848545571E+01  0.17521708075E+02  0.44442212811E+02  0.51100000000E-03 0. -1.
         22    1    1    0    0    0  0.92472839853E+01 -0.47884717200E+01 -0.27244359575E+02  0.29166707925E+02  0.00000000000E+00 0. -1.
</event>
<event>
 5    1  0.8907853E-005  0.9118800E+02  0.7818608E-02  0.1130116E+00
         25   -1    0    0    0    0  0.00000000000E+00  0.00000000000E+00  0.99999998245E-14  0.12500000000E+03  0.12500000000E+03 0.  0.
        -11    1    3    3    0    0  0.24199609760E+02  0.27638180547E+02 -0.51164664121E+01  0.37090003576E+02  0.51100000000E-03 0. -1.
         23    2    1    0    0    0 -0.16704630394E+00 -0.24824628730E+02 -0.15319831841E+02  0.95828312636E+02  0.91280217786E+02 0.  0.
         11    1    3    3    0    0 -0.24366656063E+02 -0.52462809277E+02 -0.10203365429E+02  0.58738309060E+02  0.51100000000E-03 0.  1.
         22    1    1    0    0    0  0.16704630394E+00  0.24824628730E+02  0.15319831841E+02  0.29171687364E+02  0.00000000000E+00 0.  1.
</event>
<event>
 5    1  0.8907853E-005  0.9118800E+02  0.7818608E-02  0.1130116E+00
         25   -1    0    0    0    0  0.00000000000E+00  0.00000000000E+00  0.99999998245E-14  0.12500000000E+03  0.12500000000E+03 0.  0.
        -11    1    3    3    0    0  0.15700384878E+02 -0.24867790526E+02 -0.21161738654E+02  0.36231592211E+02  0.51100000000E-03 0.  1.
         23    2    1    0    0    0  0.86779471961E+01  0.81017944321E+01  0.27280488015E+02  0.95248178763E+02  0.90482289376E+02 0.  0.
         11    1    3    3    0    0 -0.70224376817E+01  0.32969584958E+02  0.48442226670E+02  0.59016586553E+02  0.51100000000E-03 0. -1.
         22    1    1    0    0    0 -0.86779471961E+01 -0.81017944321E+01 -0.27280488015E+02  0.29751821237E+02  0.00000000000E+00 0. -1.
</event>
<event>
 5    1  0.8907853E-005  0.9118800E+02  0.7818608E-02  0.1130116E+00
         25   -1    0    0    0    0  0.00000000000E+00  0.00000000000E+00  0.99999998245E-14  0.12500000000E+03  0.12500000000E+03 0.  0.
        -11    1    3    3    0    0  0.19417858626E+02 -0.57823367152E+02  0.65055199117E+01  0.61342618236E+02  0.51100000000E-03 0. -1.
         23    2    1    0    0    0  0.16507134587E+02 -0.23871891978E+02  0.32337354464E+00  0.95974885197E+02  0.91480715450E+02 0.  0.
         11    1    3    3    0    0 -0.29107240389E+01  0.33951475174E+02 -0.61821463671E+01  0.34632266962E+02  0.51100000000E-03 0.  1.
         22    1    1    0    0    0 -0.16507134587E+02  0.23871891978E+02 -0.32337354464E+00  0.29025114803E+02  0.00000000000E+00 0. -1.
</event>
<event>
 5    1  0.8907853E-005  0.9118800E+02  0.7818608E-02  0.1130116E+00
         25   -1    0    0    0    0  0.00000000000E+00  0.00000000000E+00  0.99999998245E-14  0.12500000000E+03  0.12500000000E+03 0.  0.
        -11    1    3    3    0    0 -0.62052726304E+01 -0.91335718651E-01  0.54723240373E+02  0.55074011910E+02  0.51100000000E-03 0. -1.
         23    2    1    0    0    0 -0.19735082066E+02  0.11453270925E+02  0.17789838911E+02  0.96066814080E+02  0.91606241708E+02 0.  0.
         11    1    3    3    0    0 -0.13529809435E+02  0.11544606644E+02 -0.36933401462E+02  0.40992802170E+02  0.51100000000E-03 0.  1.
         22    1    1    0    0    0  0.19735082066E+02 -0.11453270925E+02 -0.17789838911E+02  0.28933185920E+02  0.00000000000E+00 0. -1.
</event>
<event>
 5    1  0.8907853E-005  0.9118800E+02  0.7818608E-02  0.1130116E+00
         25   -1    0    0    0    0  0.00000000000E+00  0.00000000000E+00  0.99999998245E-14  0.12500000000E+03  0.12500000000E+03 0.  0.
        -11    1    3    3    0    0  0.12902096047E+02  0.31744907327E+02  0.47368965298E+02  0.58463852912E+02  0.51100000000E-03 0. -1.
         23    2    1    0    0    0  0.18134745795E+02  0.21123424952E+02  0.14067501354E+02  0.93807650279E+02  0.88469839888E+02 0.  0.
         11    1    3    3    0    0  0.52326497480E+01 -0.10621482375E+02 -0.33301463944E+02  0.35343797367E+02  0.51100000000E-03 0.  1.
         22    1    1    0    0    0 -0.18134745795E+02 -0.21123424952E+02 -0.14067501354E+02  0.31192349721E+02  0.00000000000E+00 0. -1.
</event>
<event>
 5    1  0.8907853E-005  0.9118800E+02  0.7818608E-02  0.1130116E+00
         25   -1    0    0    0    0  0.00000000000E+00  0.00000000000E+00  0.99999998245E-14  0.12500000000E+03  0.12500000000E+03 0.  0.
        -11    1    3    3    0    0 -0.13343390941E+02  0.29569208777E+02 -0.17931880763E+02  0.37066649936E+02  0.51100000000E-03 0. -1.
         23    2    1    0    0    0 -0.15223485104E+02 -0.25433762472E+02  0.12045395711E+01  0.95333829237E+02  0.90600537025E+02 0.  0.
         11    1    3    3    0    0 -0.18800941634E+01 -0.55002971248E+02  0.19136420334E+02  0.58267179301E+02  0.51100000000E-03 0.  1.
         22    1    1    0    0    0  0.15223485104E+02  0.25433762472E+02 -0.12045395711E+01  0.29666170763E+02  0.00000000000E+00 0.  1.
</event>
<event>
 5    1  0.8907853E-005  0.9118800E+02  0.7818608E-02  0.1130116E+00
         25   -1    0    0    0    0  0.00000000000E+00  0.00000000000E+00  0.99999998245E-14  0.12500000000E+03  0.12500000000E+03 0.  0.
        -11    1    3    3    0    0  0.34386190997E+02 -0.16351953687E+02  0.40826497646E+02  0.55826511901E+02  0.51100000000E-03 0. -1.
         23    2    1    0    0    0  0.34795253396E+02 -0.24300788752E+02  0.20077875009E+02  0.78049397685E+02  0.62348612023E+02 0.  0.
         11    1    3    3    0    0  0.40906239891E+00 -0.79488350656E+01 -0.20748622637E+02  0.22222885784E+02  0.51100000000E-03 0.  1.
         22    1    1    0    0    0 -0.34795253396E+02  0.24300788752E+02 -0.20077875009E+02  0.46950602315E+02  0.00000000000E+00 0. -1.
</event>
<event>
 5    1  0.8907853E-005  0.9118800E+02  0.7818608E-02  0.1130116E+00
         25   -1    0    0    0    0  0.00000000000E+00  0.00000000000E+00  0.99999998245E-14  0.12500000000E+03  0.12500000000E+03 0.  0.
        -11    1    3    3    0    0  0.10867053469E+02  0.23968558792E+02  0.23059572926E+02  0.34990406763E+02  0.51100000000E-03 0. -1.
         23    2    1    0    0    0  0.90963892399E+01 -0.17593780765E+02 -0.21375205782E+02  0.95859223740E+02  0.91322537936E+02 0.  0.
         11    1    3    3    0    0 -0.17706642288E+01 -0.41562339557E+02 -0.44434778707E+02  0.60868816978E+02  0.51100000000E-03 0.  1.
         22    1    1    0    0    0 -0.90963892399E+01  0.17593780765E+02  0.21375205782E+02  0.29140776260E+02  0.00000000000E+00 0.  1.
</event>
<event>
 5    1  0.8907853E-005  0.9118800E+02  0.7818608E-02  0.1130116E+00
         25   -1    0    0    0    0  0.00000000000E+00  0.00000000000E+00  0.99999998245E-14  0.12500000000E+03  0.12500000000E+03 0.  0.
        -11    1    3    3    0    0 -0.14437411955E+02  0.10415530067E+02 -0.50229298285E+02  0.53290754705E+02  0.51100000000E-03 0. -1.
         23    2    1    0    0    0 -0.12225205573E+00  0.26383934982E+02 -0.14682747482E+02  0.94805463337E+02  0.89868603161E+02 0.  0.
         11    1    3    3    0    0  0.14315159899E+02  0.15968404915E+02  0.35546550804E+02  0.41514708632E+02  0.51100000000E-03 0.  1.
         22    1    1    0    0    0  0.12225205573E+00 -0.26383934982E+02  0.14682747482E+02  0.30194536663E+02  0.00000000000E+00 0. -1.
</event>
<event>
 5    1  0.8907853E-005  0.9118800E+02  0.7818608E-02  0.1130116E+00
         25   -1    0    0    0    0  0.00000000000E+00  0.00000000000E+00  0.99999998245E-14  0.12500000000E+03  0.12500000000E+03 0.  0.
        -11    1    3    3    0    0  0.21023074777E+01 -0.31110853382E+02 -0.20944542312E+02  0.37562997056E+02  0.51100000000E-03 0.  1.
         23    2    1    0    0    0  0.35774555879E+00  0.26201355291E+02 -0.13914065223E+02  0.95331157556E+02  0.90596850877E+02 0.  0.
         11    1    3    3    0    0 -0.17445619189E+01  0.57312208672E+02  0.70304770893E+01  0.57768160500E+02  0.51100000000E-03 0. -1.
         22    1    1    0    0    0 -0.35774555879E+00 -0.26201355291E+02  0.13914065223E+02  0.29668842444E+02  0.00000000000E+00 0. -1.
</event>
<event>
 5    1  0.8907853E-005  0.9118800E+02  0.7818608E-02  0.1130116E+00
         25   -1    0    0    0    0  0.00000000000E+00  0.00000000000E+00  0.99999998245E-14  0.12500000000E+03  0.12500000000E+03 0.  0.
        -11    1    3    3    0    0 -0.95663567820E+01 -0.46074046952E+02  0.95052639855E+01  0.48007114351E+02  0.51100000000E-03 0.  1.
         23    2    1    0    0    0 -0.36850779722E+01 -0.25133159203E+02 -0.25363245825E+02  0.89103625114E+02  0.81553088712E+02 0.  0.
         11    1    3    3    0    0  0.58812788098E+01  0.20940887749E+02 -0.34868509811E+02  0.41096510762E+02  0.51100000000E-03 0. -1.
         22    1    1    0    0    0  0.36850779722E+01  0.25133159203E+02  0.25363245825E+02  0.35896374886E+02  0.00000000000E+00 0. -1.
</event>
<event>
 5    1  0.8907853E-005  0.9118800E+02  0.7818608E-02  0.1130116E+00
         25   -1    0    0    0    0  0.00000000000E+00  0.00000000000E+00  0.99999998245E-14  0.12500000000E+03  0.12500000000E+03 0.  0.
        -11    1    3    3    0    0  0.31609630130E+02  0.32734421941E+02  0.84321142881E+01  0.46279710980E+02  0.51100000000E-03 0. -1.
         23    2    1    0    0    0 -0.15536806881E+02  0.26077452997E+02 -0.58709825209E-01  0.94644944907E+02  0.89645056901E+02 0.  0.
         11    1    3    3    0    0 -0.47146437011E+02 -0.66569689447E+01 -0.84908241133E+01  0.48365233927E+02  0.51100000000E-03 0.  1.
         22    1    1    0    0    0  0.15536806881E+02 -0.26077452997E+02  0.58709825209E-01  0.30355055093E+02  0.00000000000E+00 0.  1.
</event>
<event>
 5    1  0.8907853E-005  0.9118800E+02  0.7818608E-02  0.1130116E+00
         25   -1    0    0    0    0  0.00000000000E+00  0.00000000000E+00  0.99999998245E-14  0.12500000000E+03  0.12500000000E+03 0.  0.
        -11    1    3    3    0    0 -0.68765326022E+01  0.95159553023E+01 -0.37582032583E+02  0.39373205092E+02  0.51100000000E-03 0. -1.
         23    2    1    0    0    0 -0.10188291537E+02  0.22832245538E+02  0.16417782981E+02  0.95089193947E+02  0.90262386888E+02 0.  0.
         11    1    3    3    0    0 -0.33117589343E+01  0.13316290235E+02  0.53999815564E+02  0.55715988855E+02  0.51100000000E-03 0.  1.
         22    1    1    0    0    0  0.10188291537E+02 -0.22832245538E+02 -0.16417782981E+02  0.29910806053E+02  0.00000000000E+00 0.  1.
</event>
<event>
 5    1  0.8907853E-005  0.9118800E+02  0.7818608E-02  0.1130116E+00
         25   -1    0    0    0    0  0.00000000000E+00  0.00000000000E+00  0.99999998245E-14  0.12500000000E+03  0.12500000000E+03 0.  0.
        -11    1    3    3    0    0  0.54283437094E+02 -0.20489563342E+02  0.21843679562E+02  0.61997258695E+02  0.51100000000E-03 0.  1.
         23    2    1    0    0    0  0.27372086618E+02 -0.65355932131E+01  0.59064058719E+01  0.96245335426E+02  0.91849517453E+02 0.  0.
         11    1    3    3    0    0 -0.26911350476E+02  0.13953970129E+02 -0.15937273690E+02  0.34248076730E+02  0.51100000000E-03 0. -1.
         22    1    1    0    0    0 -0.27372086618E+02  0.65355932131E+01 -0.59064058719E+01  0.28754664574E+02  0.00000000000E+00 0.  1.
</event>
<event>
 5    1  0.8907853E-005  0.9118800E+02  0.7818608E-02  0.1130116E+00
         25   -1    0    0    0    0  0.00000000000E+00  0.00000000000E+00  0.99999998245E-14  0.12500000000E+03  0.12500000000E+03 0.  0.
        -11    1    3    3    0    0 -0.40163109616E+02  0.40743569920E+02  0.88128491052E+01  0.57885923794E+02  0.51100000000E-03 0.  1.
         23    2    1    0    0    0 -0.12085518923E+02  0.29147869827E+02 -0.77813649265E+01  0.92500650419E+02  0.86603479172E+02 0.  0.
         11    1    3    3    0    0  0.28077590692E+02 -0.11595700094E+02 -0.16594214032E+02  0.34614726625E+02  0.51100000000E-03 0. -1.
         22    1    1    0    0    0  0.12085518923E+02 -0.29147869827E+02  0.77813649265E+01  0.32499349581E+02  0.00000000000E+00 0.  1.
</event>
<event>
 5    1  0.8907853E-005  0.9118800E+02  0.7818608E-02  0.1130116E+00
         25   -1    0    0    0    0  0.00000000000E+00  0.00000000000E+00  0.99999998245E-14  0.12500000000E+03  0.12500000000E+03 0.  0.
        -11    1    3    3    0    0  0.49693321901E+02 -0.21193832280E+02 -0.11707096965E+02  0.55278032598E+02  0.51100000000E-03 0.  1.
         23    2    1    0    0    0  0.35132396026E+02  0.78036877632E+01 -0.29297327498E+01  0.88892298228E+02  0.81228532900E+02 0.  0.
         11    1    3    3    0    0 -0.14560925875E+02  0.28997520044E+02  0.87773642155E+01  0.33614265630E+02  0.51100000000E-03 0. -1.
         22    1    1    0    0    0 -0.35132396026E+02 -0.78036877632E+01  0.29297327498E+01  0.36107701772E+02  0.00000000000E+00 0. -1.
</event>
<event>
 5    1  0.8907853E-005  0.9118800E+02  0.7818608E-02  0.1130116E+00
         25   -1    0    0    0    0  0.00000000000E+00  0.00000000000E+00  0.99999998245E-14  0.12500000000E+03  0.12500000000E+03 0.  0.
        -11    1    3    3    0    0  0.46321633584E+02 -0.72665336432E+01 -0.32646717312E+02  0.57134091404E+02  0.51100000000E-03 0.  1.
         23    2    1    0    0    0  0.24751688915E+02 -0.17237359230E+02 -0.36598467823E+01  0.94616334391E+02  0.89605153857E+02 0.  0.
         11    1    3    3    0    0 -0.21569944669E+02 -0.99708255872E+01  0.28986870530E+02  0.37482242987E+02  0.51100000000E-03 0. -1.
         22    1    1    0    0    0 -0.24751688915E+02  0.17237359230E+02  0.36598467823E+01  0.30383665609E+02  0.00000000000E+00 0.  1.
</event>
<event>
 5    1  0.8907853E-005  0.9118800E+02  0.7818608E-02  0.1130116E+00
         25   -1    0    0    0    0  0.00000000000E+00  0.00000000000E+00  0.99999998245E-14  0.12500000000E+03  0.12500000000E+03 0.  0.
        -11    1    3    3    0    0  0.39387096599E+02  0.12756631826E+02  0.43735203685E+02  0.60223276859E+02  0.51100000000E-03 0. -1.
         23    2    1    0    0    0  0.11611219240E+02  0.15133061784E+02  0.23822884053E+02  0.94481812377E+02  0.89417297512E+02 0.  0.
         11    1    3    3    0    0 -0.27775877359E+02  0.23764299579E+01 -0.19912319633E+02  0.34258535518E+02  0.51100000000E-03 0.  1.
         22    1    1    0    0    0 -0.11611219240E+02 -0.15133061784E+02 -0.23822884053E+02  0.30518187623E+02  0.00000000000E+00 0. -1.
</event>
<event>
 5    1  0.8907853E-005  0.9118800E+02  0.7818608E-02  0.1130116E+00
         25   -1    0    0    0    0  0.00000000000E+00  0.00000000000E+00  0.99999998245E-14  0.12500000000E+03  0.12500000000E+03 0.  0.
        -11    1    3    3    0    0  0.38873524471E+02 -0.24345004607E+02 -0.63157607806E+01  0.46300313051E+02  0.51100000000E-03 0. -1.
         23    2    1    0    0    0 -0.11842279005E+02 -0.25067507900E+02 -0.20503953320E+01  0.97200294150E+02  0.93140074820E+02 0.  0.
         11    1    3    3    0    0 -0.50715803476E+02 -0.72250329285E+00  0.42653654486E+01  0.50899981099E+02  0.51100000000E-03 0.  1.
         22    1    1    0    0    0  0.11842279005E+02  0.25067507900E+02  0.20503953320E+01  0.27799705850E+02  0.00000000000E+00 0.  1.
</event>
<event>
 5    1  0.8907853E-005  0.9118800E+02  0.7818608E-02  0.1130116E+00
         25   -1    0    0    0    0  0.00000000000E+00  0.00000000000E+00  0.99999998245E-14  0.12500000000E+03  0.12500000000E+03 0.  0.
        -11    1    3    3    0    0 -0.35091422888E+02  0.28098411377E+01  0.16611708812E+02  0.38926238419E+02  0.51100000000E-03 0.  1.
         23    2    1    0    0    0  0.21350081081E+02 -0.96067071117E+01  0.15859247556E+02  0.96722261110E+02  0.92496298724E+02 0.  0.
         11    1    3    3    0    0  0.56441503969E+02 -0.12416548249E+02 -0.75246125646E+00  0.57796022691E+02  0.51100000000E-03 0. -1.
         22    1    1    0    0    0 -0.21350081081E+02  0.96067071117E+01 -0.15859247556E+02  0.28277738890E+02  0.00000000000E+00 0. -1.
</event>
<event>
 5    1  0.8907853E-005  0.9118800E+02  0.7818608E-02  0.1130116E+00
         25   -1    0    0    0    0  0.00000000000E+00  0.00000000000E+00  0.99999998245E-14  0.12500000000E+03  0.12500000000E+03 0.  0.
        -11    1    3    3    0    0  0.12498753740E+02 -0.85981846051E+01  0.27167650660E+02  0.31116376174E+02  0.51100000000E-03 0. -1.
         23    2    1    0    0    0 -0.11882204321E+02  0.24151904639E+01 -0.29129935222E+02  0.93447297255E+02  0.87959219606E+02 0.  0.
         11    1    3    3    0    0 -0.24380958061E+02  0.11013375069E+02 -0.56297585882E+02  0.62330921081E+02  0.51100000000E-03 0.  1.
         22    1    1    0    0    0  0.11882204321E+02 -0.24151904639E+01  0.29129935222E+02  0.31552702745E+02  0.00000000000E+00 0.  1.
</event>
<event>
 5    1  0.8907853E-005  0.9118800E+02  0.7818608E-02  0.1130116E+00
         25   -1    0    0    0    0  0.00000000000E+00  0.00000000000E+00  0.99999998245E-14  0.12500000000E+03  0.12500000000E+03 0.  0.
        -11    1    3    3    0    0  0.22769474145E+02 -0.26784745488E+02  0.17479409991E+02  0.39260684120E+02  0.51100000000E-03 0. -1.
         23    2    1    0    0    0 -0.14117078087E+02 -0.12447019706E+02 -0.22602297939E+02  0.95587688540E+02  0.90950107944E+02 0.  0.
         11    1    3    3    0    0 -0.36886552232E+02  0.14337725782E+02 -0.40081707929E+02  0.56327004420E+02  0.51100000000E-03 0.  1.
         22    1    1    0    0    0  0.14117078087E+02  0.12447019706E+02  0.22602297939E+02  0.29412311460E+02  0.00000000000E+00 0.  1.
</event>
<event>
 5    1  0.8907853E-005  0.9118800E+02  0.7818608E-02  0.1130116E+00
         25   -1    0    0    0    0  0.00000000000E+00  0.00000000000E+00  0.99999998245E-14  0.12500000000E+03  0.12500000000E+03 0.  0.
        -11    1    3    3    0    0 -0.30521447585E+02  0.27625875898E+02 -0.10057907542E+02  0.42378169924E+02  0.51100000000E-03 0. -1.
         23    2    1    0    0    0 -0.18448931872E+02 -0.20399393736E+02  0.98998213847E+01  0.95768085669E+02  0.91197705109E+02 0.  0.
         11    1    3    3    0    0  0.12072515713E+02 -0.48025269634E+02  0.19957728926E+02  0.53389915744E+02  0.51100000000E-03 0.  1.
         22    1    1    0    0    0  0.18448931872E+02  0.20399393736E+02 -0.98998213847E+01  0.29231914331E+02  0.00000000000E+00 0.  1.
</event>
<event>
 5    1  0.8907853E-005  0.9118800E+02  0.7818608E-02  0.1130116E+00
         25   -1    0    0    0    0  0.00000000000E+00  0.00000000000E+00  0.99999998245E-14  0.12500000000E+03  0.12500000000E+03 0.  0.
        -11    1    3    3    0    0 -0.51580849442E+01  0.23660068752E+02  0.28534349643E+02  0.37424775263E+02  0.51100000000E-03 0.  1.
         23    2    1    0    0    0 -0.11529566362E+02  0.12676221069E+01 -0.25895936811E+02  0.96625058421E+02  0.92364845072E+02 0.  0.
         11    1    3    3    0    0 -0.63714814175E+01 -0.22392446645E+02 -0.54430286455E+02  0.59200283158E+02  0.51100000000E-03 0. -1.
         22    1    1    0    0    0  0.11529566362E+02 -0.12676221069E+01  0.25895936811E+02  0.28374941579E+02  0.00000000000E+00 0. -1.
</event>
<event>
 5    1  0.8907853E-005  0.9118800E+02  0.7818608E-02  0.1130116E+00
         25   -1    0    0    0    0  0.00000000000E+00  0.00000000000E+00  0.99999998245E-14  0.12500000000E+03  0.12500000000E+03 0.  0.
        -11    1    3    3    0    0  0.89526969926E+01  0.42345336612E+02  0.82623761338E+01  0.44062968305E+02  0.51100000000E-03 0.  1.
         23    2    1    0    0    0 -0.25525516192E+02 -0.90585733015E-01 -0.67490543773E+00  0.99465402294E+02  0.96131943564E+02 0.  0.
         11    1    3    3    0    0 -0.34478213185E+02 -0.42435922345E+02 -0.89372815715E+01  0.55402433989E+02  0.51100000000E-03 0. -1.
         22    1    1    0    0    0  0.25525516192E+02  0.90585733015E-01  0.67490543773E+00  0.25534597706E+02  0.00000000000E+00 0. -1.
</event>
<event>
 5    1  0.8907853E-005  0.9118800E+02  0.7818608E-02  0.1130116E+00
         25   -1    0    0    0    0  0.00000000000E+00  0.00000000000E+00  0.99999998245E-14  0.12500000000E+03  0.12500000000E+03 0.  0.
        -11    1    3    3    0    0  0.15302806134E+02  0.85367567207E+01  0.38251093189E+02  0.42073723644E+02  0.51100000000E-03 0.  1.
         23    2    1    0    0    0  0.11520471585E+02 -0.26091603955E+02 -0.32922256429E+01  0.96288820781E+02  0.91908678563E+02 0.  0.
         11    1    3    3    0    0 -0.37823345491E+01 -0.34628360675E+02 -0.41543318832E+02  0.54215097136E+02  0.51100000000E-03 0. -1.
         22    1    1    0    0    0 -0.11520471585E+02  0.26091603955E+02  0.32922256429E+01  0.28711179219E+02  0.00000000000E+00 0. -1.
</event>
<event>
 5    1  0.8907853E-005  0.9118800E+02  0.7818608E-02  0.1130116E+00
         25   -1    0    0    0    0  0.00000000000E+00  0.00000000000E+00  0.99999998245E-14  0.12500000000E+03  0.12500000000E+03 0.  0.
        -11    1    3    3    0    0 -0.31655289897E+01  0.20674112134E+02  0.44978585145E+02  0.49603554391E+02  0.51100000000E-03 0.  1.
         23    2    1    0    0    0 -0.28896395602E+02  0.35208225419E+01  0.26539094029E+02  0.85608105122E+02  0.76006751546E+02 0.  0.
         11    1    3    3    0    0 -0.25730866612E+02 -0.17153289592E+02 -0.18439491116E+02  0.36004550731E+02  0.51100000000E-03 0. -1.
         22    1    1    0    0    0  0.28896395602E+02 -0.35208225419E+01 -0.26539094029E+02  0.39391894878E+02  0.00000000000E+00 0.  1.
</event>
<event>
 5    1  0.8907853E-005  0.9118800E+02  0.7818608E-02  0.1130116E+00
         25   -1    0    0    0    0  0.00000000000E+00  0.00000000000E+00  0.99999998245E-14  0.12500000000E+03  0.12500000000E+03 0.  0.
        -11    1    3    3    0    0  0.14300434417E+02 -0.25447008610E+02  0.45018174193E+02  0.53653412563E+02  0.51100000000E-03 0.  1.
         23    2    1    0    0    0 -0.70825836234E+01  0.61482140256E+01  0.28079457504E+02  0.95395617551E+02  0.90685745228E+02 0.  0.
         11    1    3    3    0    0 -0.21383018040E+02  0.31595222636E+02 -0.16938716689E+02  0.41742204988E+02  0.51100000000E-03 0. -1.
         22    1    1    0    0    0  0.70825836234E+01 -0.61482140256E+01 -0.28079457504E+02  0.29604382449E+02  0.00000000000E+00 0.  1.
</event>
<event>
 5    1  0.8907853E-005  0.9118800E+02  0.7818608E-02  0.1130116E+00
         25   -1    0    0    0    0  0.00000000000E+00  0.00000000000E+00  0.99999998245E-14  0.12500000000E+03  0.12500000000E+03 0.  0.
        -11    1    3    3    0    0  0.50585233780E+02  0.68381615889E+01 -0.19559742981E+02  0.54664521184E+02  0.51100000000E-03 0.  1.
         23    2    1    0    0    0  0.97860086389E+01  0.70859269666E+01 -0.26337332692E+02  0.96023605825E+02  0.91547263510E+02 0.  0.
         11    1    3    3    0    0 -0.40799225141E+02  0.24776537767E+00 -0.67775897107E+01  0.41359084641E+02  0.51100000000E-03 0. -1.
         22    1    1    0    0    0 -0.97860086389E+01 -0.70859269666E+01  0.26337332692E+02  0.28976394175E+02  0.00000000000E+00 0.  1.
</event>
<event>
 5    1  0.8907853E-005  0.9118800E+02  0.7818608E-02  0.1130116E+00
         25   -1    0    0    0    0  0.00000000000E+00  0.00000000000E+00  0.99999998245E-14  0.12500000000E+03  0.12500000000E+03 0.  0.
        -11    1    3    3    0    0  0.27802599873E+02 -0.30813816311E+02 -0.26100275811E+02  0.49027545656E+02  0.51100000000E-03 0.  1.
         23    2    1    0    0    0  0.25325116664E+02  0.11782749086E+02 -0.50157569583E+01  0.96621266274E+02  0.92359712908E+02 0.  0.
         11    1    3    3    0    0 -0.24774832097E+01  0.42596565397E+02  0.21084518853E+02  0.47593720617E+02  0.51100000000E-03 0. -1.
         22    1    1    0    0    0 -0.25325116664E+02 -0.11782749086E+02  0.50157569583E+01  0.28378733726E+02  0.00000000000E+00 0.  1.
</event>
<event>
 5    1  0.8907853E-005  0.9118800E+02  0.7818608E-02  0.1130116E+00
         25   -1    0    0    0    0  0.00000000000E+00  0.00000000000E+00  0.99999998245E-14  0.12500000000E+03  0.12500000000E+03 0.  0.
        -11    1    3    3    0    0  0.47874750116E+01 -0.40426015605E+02 -0.16351737016E+02  0.43869829705E+02  0.51100000000E-03 0. -1.
         23    2    1    0    0    0 -0.51233055610E-01 -0.11710186689E+02  0.26699678617E+02  0.95845173035E+02  0.91303303658E+02 0.  0.
         11    1    3    3    0    0 -0.48387080672E+01  0.28715828916E+02  0.43051415632E+02  0.51975343330E+02  0.51100000000E-03 0.  1.
         22    1    1    0    0    0  0.51233055610E-01  0.11710186689E+02 -0.26699678617E+02  0.29154826965E+02  0.00000000000E+00 0.  1.
</event>
<event>
 5    1  0.8907853E-005  0.9118800E+02  0.7818608E-02  0.1130116E+00
         25   -1    0    0    0    0  0.00000000000E+00  0.00000000000E+00  0.99999998245E-14  0.12500000000E+03  0.12500000000E+03 0.  0.
        -11    1    3    3    0    0 -0.41207393691E+02  0.85599275168E+01 -0.42973900151E+01  0.42305900476E+02  0.51100000000E-03 0. -1.
         23    2    1    0    0    0 -0.15147360898E+01 -0.17007824124E+02 -0.25699773945E+02  0.94144872587E+02  0.88945028792E+02 0.  0.
         11    1    3    3    0    0  0.39692657601E+02 -0.25567751640E+02 -0.21402383930E+02  0.51838972111E+02  0.51100000000E-03 0.  1.
         22    1    1    0    0    0  0.15147360898E+01  0.17007824124E+02  0.25699773945E+02  0.30855127413E+02  0.00000000000E+00 0.  1.
</event>
<event>
 5    1  0.8907853E-005  0.9118800E+02  0.7818608E-02  0.1130116E+00
         25   -1    0    0    0    0  0.00000000000E+00  0.00000000000E+00  0.99999998245E-14  0.12500000000E+03  0.12500000000E+03 0.  0.
        -11    1    3    3    0    0 -0.45715966998E+00  0.36365526696E+02 -0.64964933280E+01  0.36944078723E+02  0.51100000000E-03 0.  1.
         23    2    1    0    0    0 -0.26946549028E+02 -0.12927885323E+02  0.65468330683E+01  0.94404122064E+02  0.89308625093E+02 0.  0.
         11    1    3    3    0    0 -0.26489389358E+02 -0.49293412019E+02  0.13043326396E+02  0.57460043341E+02  0.51100000000E-03 0. -1.
         22    1    1    0    0    0  0.26946549028E+02  0.12927885323E+02 -0.65468330683E+01  0.30595877936E+02  0.00000000000E+00 0. -1.
</event>
<event>
 5    1  0.8907853E-005  0.9118800E+02  0.7818608E-02  0.1130116E+00
         25   -1    0    0    0    0  0.00000000000E+00  0.00000000000E+00  0.99999998245E-14  0.12500000000E+03  0.12500000000E+03 0.  0.
        -11    1    3    3    0    0  0.40425345199E+02  0.20298382804E+02  0.19612503755E+02  0.49303987493E+02  0.51100000000E-03 0.  1.
         23    2    1    0    0    0  0.24659627623E+02 -0.91589065788E+01 -0.12704609023E+02  0.95787162160E+02  0.91223848526E+02 0.  0.
         11    1    3    3    0    0 -0.15765717576E+02 -0.29457289383E+02 -0.32317112778E+02  0.46483174666E+02  0.51100000000E-03 0. -1.
         22    1    1    0    0    0 -0.24659627623E+02  0.91589065788E+01  0.12704609023E+02  0.29212837840E+02  0.00000000000E+00 0.  1.
</event>
<event>
 5    1  0.8907853E-005  0.9118800E+02  0.7818608E-02  0.1130116E+00
         25   -1    0    0    0    0  0.00000000000E+00  0.00000000000E+00  0.99999998245E-14  0.12500000000E+03  0.12500000000E+03 0.  0.
        -11    1    3    3    0    0  0.18115318967E+02 -0.11007874931E+02  0.29506295376E+02  0.36331247692E+02  0.51100000000E-03 0.  1.
         23    2    1    0    0    0 -0.29646173843E+02  0.10175524590E+02  0.10057139675E+02  0.92082178343E+02  0.85997352202E+02 0.  0.
         11    1    3    3    0    0 -0.47761492810E+02  0.21183399522E+02 -0.19449155701E+02  0.55750930651E+02  0.51100000000E-03 0. -1.
         22    1    1    0    0    0  0.29646173843E+02 -0.10175524590E+02 -0.10057139675E+02  0.32917821657E+02  0.00000000000E+00 0. -1.
</event>
<event>
 5    1  0.8907853E-005  0.9118800E+02  0.7818608E-02  0.1130116E+00
         25   -1    0    0    0    0  0.00000000000E+00  0.00000000000E+00  0.99999998245E-14  0.12500000000E+03  0.12500000000E+03 0.  0.
        -11    1    3    3    0    0  0.37049802355E+02 -0.18902922762E+02 -0.29365581241E+02  0.50915083280E+02  0.51100000000E-03 0. -1.
         23    2    1    0    0    0  0.78238574425E+00  0.46823073238E+01 -0.30441744769E+02  0.94190326942E+02  0.89008885711E+02 0.  0.
         11    1    3    3    0    0 -0.36267416611E+02  0.23585230086E+02 -0.10761635281E+01  0.43275243662E+02  0.51100000000E-03 0.  1.
         22    1    1    0    0    0 -0.78238574425E+00 -0.46823073238E+01  0.30441744769E+02  0.30809673058E+02  0.00000000000E+00 0. -1.
</event>
<event>
 5    1  0.8907853E-005  0.9118800E+02  0.7818608E-02  0.1130116E+00
         25   -1    0    0    0    0  0.00000000000E+00  0.00000000000E+00  0.99999998245E-14  0.12500000000E+03  0.12500000000E+03 0.  0.
        -11    1    3    3    0    0  0.31326023624E+02 -0.39308422893E+02 -0.29137086554E+02  0.58098551441E+02  0.51100000000E-03 0.  1.
         23    2    1    0    0    0  0.61305498065E+01 -0.25773233379E+02 -0.27603259006E+02  0.86740581454E+02  0.77846935479E+02 0.  0.
         11    1    3    3    0    0 -0.25195473817E+02  0.13535189514E+02  0.15338275483E+01  0.28642030013E+02  0.51100000000E-03 0. -1.
         22    1    1    0    0    0 -0.61305498065E+01  0.25773233379E+02  0.27603259006E+02  0.38259418546E+02  0.00000000000E+00 0.  1.
</event>
<event>
 5    1  0.8907853E-005  0.9118800E+02  0.7818608E-02  0.1130116E+00
         25   -1    0    0    0    0  0.00000000000E+00  0.00000000000E+00  0.99999998245E-14  0.12500000000E+03  0.12500000000E+03 0.  0.
        -11    1    3    3    0    0 -0.14502874225E+02  0.29711249283E+02  0.14150926327E+02  0.35963042292E+02  0.51100000000E-03 0.  1.
         23    2    1    0    0    0 -0.11208603303E+02 -0.27962377780E+02  0.41407297695E+01  0.94591563635E+02  0.89570591763E+02 0.  0.
         11    1    3    3    0    0  0.32942709217E+01 -0.57673627063E+02 -0.10010196557E+02  0.58628521343E+02  0.51100000000E-03 0. -1.
         22    1    1    0    0    0  0.11208603303E+02  0.27962377780E+02 -0.41407297695E+01  0.30408436365E+02  0.00000000000E+00 0. -1.
</event>
<event>
 5    1  0.8907853E-005  0.9118800E+02  0.7818608E-02  0.1130116E+00
         25   -1    0    0    0    0  0.00000000000E+00  0.00000000000E+00  0.99999998245E-14  0.12500000000E+03  0.12500000000E+03 0.  0.
        -11    1    3    3    0    0  0.48340314859E+02  0.38718665854E+02 -0.48371366632E+00  0.61936702410E+02  0.51100000000E-03 0.  1.
         23    2    1    0    0    0  0.25683759543E+02  0.13085457187E+02 -0.11152821932E+01  0.96153361575E+02  0.91724262841E+02 0.  0.
         11    1    3    3    0    0 -0.22656555316E+02 -0.25633208667E+02 -0.63156852690E+00  0.34216659166E+02  0.51100000000E-03 0. -1.
         22    1    1    0    0    0 -0.25683759543E+02 -0.13085457187E+02  0.11152821932E+01  0.28846638425E+02  0.00000000000E+00 0.  1.
</event>
<event>
 5    1  0.8907853E-005  0.9118800E+02  0.7818608E-02  0.1130116E+00
         25   -1    0    0    0    0  0.00000000000E+00  0.00000000000E+00  0.99999998245E-14  0.12500000000E+03  0.12500000000E+03 0.  0.
        -11    1    3    3    0    0 -0.25359238619E+02 -0.33790904382E+02 -0.97084256671E+01  0.43349391362E+02  0.51100000000E-03 0. -1.
         23    2    1    0    0    0  0.66857067232E+01 -0.51681204851E+01 -0.32103987835E+02  0.91802497403E+02  0.85589861262E+02 0.  0.
         11    1    3    3    0    0  0.32044945342E+02  0.28622783896E+02 -0.22395562168E+02  0.48453106041E+02  0.51100000000E-03 0.  1.
         22    1    1    0    0    0 -0.66857067232E+01  0.51681204851E+01  0.32103987835E+02  0.33197502597E+02  0.00000000000E+00 0.  1.
</event>
<event>
 5    1  0.8907853E-005  0.9118800E+02  0.7818608E-02  0.1130116E+00
         25   -1    0    0    0    0  0.00000000000E+00  0.00000000000E+00  0.99999998245E-14  0.12500000000E+03  0.12500000000E+03 0.  0.
        -11    1    3    3    0    0  0.86188069684E+01  0.37700287904E+02 -0.29619532864E+01  0.38786192249E+02  0.51100000000E-03 0. -1.
         23    2    1    0    0    0 -0.27939790713E+02 -0.63676171139E+01  0.20947187260E+01  0.96267330452E+02  0.91879446086E+02 0.  0.
         11    1    3    3    0    0 -0.36558597681E+02 -0.44067905018E+02  0.50566720124E+01  0.57481138204E+02  0.51100000000E-03 0.  1.
         22    1    1    0    0    0  0.27939790713E+02  0.63676171139E+01 -0.20947187260E+01  0.28732669548E+02  0.00000000000E+00 0.  1.
</event>
<event>
 5    1  0.8907853E-005  0.9118800E+02  0.7818608E-02  0.1130116E+00
         25   -1    0    0    0    0  0.00000000000E+00  0.00000000000E+00  0.99999998245E-14  0.12500000000E+03  0.12500000000E+03 0.  0.
        -11    1    3    3    0    0  0.16640105456E+02 -0.16993584520E+02 -0.50407638280E+01  0.24312225827E+02  0.51100000000E-03 0.  1.
         23    2    1    0    0    0 -0.24227226672E+02 -0.35505199561E+02 -0.26976863425E+02  0.74252301842E+02  0.54204017015E+02 0.  0.
         11    1    3    3    0    0 -0.40867332128E+02 -0.18511615041E+02 -0.21936099597E+02  0.49940076016E+02  0.51100000000E-03 0. -1.
         22    1    1    0    0    0  0.24227226672E+02  0.35505199561E+02  0.26976863425E+02  0.50747698158E+02  0.00000000000E+00 0. -1.
</event>
<event>
 5    1  0.8907853E-005  0.9118800E+02  0.7818608E-02  0.1130116E+00
         25   -1    0    0    0    0  0.00000000000E+00  0.00000000000E+00  0.99999998245E-14  0.12500000000E+03  0.12500000000E+03 0.  0.
        -11    1    3    3    0    0 -0.31246122271E+02 -0.27646293860E+02 -0.16148920548E+02  0.44737292679E+02  0.51100000000E-03 0.  1.
         23    2    1    0    0    0 -0.15440707373E+02  0.19608295663E+02 -0.17390874832E+02  0.94580545199E+02  0.89555213694E+02 0.  0.
         11    1    3    3    0    0  0.15805414898E+02  0.47254589522E+02 -0.12419542839E+01  0.49843252519E+02  0.51100000000E-03 0. -1.
         22    1    1    0    0    0  0.15440707373E+02 -0.19608295663E+02  0.17390874832E+02  0.30419454801E+02  0.00000000000E+00 0. -1.
</event>
<event>
 5    1  0.8907853E-005  0.9118800E+02  0.7818608E-02  0.1130116E+00
         25   -1    0    0    0    0  0.00000000000E+00  0.00000000000E+00  0.99999998245E-14  0.12500000000E+03  0.12500000000E+03 0.  0.
        -11    1    3    3    0    0 -0.30315072813E+02  0.48191194587E+02 -0.20789827650E+02  0.60610327580E+02  0.51100000000E-03 0.  1.
         23    2    1    0    0    0 -0.15841739298E+02  0.15911682957E+02 -0.18229171161E+02  0.96078640424E+02  0.91622377758E+02 0.  0.
         11    1    3    3    0    0  0.14473333514E+02 -0.32279511630E+02  0.25606564892E+01  0.35468312844E+02  0.51100000000E-03 0. -1.
         22    1    1    0    0    0  0.15841739298E+02 -0.15911682957E+02  0.18229171161E+02  0.28921359576E+02  0.00000000000E+00 0.  1.
</event>
<event>
 5    1  0.8907853E-005  0.9118800E+02  0.7818608E-02  0.1130116E+00
         25   -1    0    0    0    0  0.00000000000E+00  0.00000000000E+00  0.99999998245E-14  0.12500000000E+03  0.12500000000E+03 0.  0.
        -11    1    3    3    0    0 -0.47027047582E+02  0.18073497405E+02 -0.26851867771E+02  0.57089555225E+02  0.51100000000E-03 0.  1.
         23    2    1    0    0    0 -0.27823583694E+02 -0.76807043642E+01 -0.56298687084E+01  0.95591830204E+02  0.90955799985E+02 0.  0.
         11    1    3    3    0    0  0.19203463889E+02 -0.25754201769E+02  0.21221999062E+02  0.38502274979E+02  0.51100000000E-03 0. -1.
         22    1    1    0    0    0  0.27823583694E+02  0.76807043642E+01  0.56298687084E+01  0.29408169796E+02  0.00000000000E+00 0.  1.
</event>
<event>
 5    1  0.8907853E-005  0.9118800E+02  0.7818608E-02  0.1130116E+00
         25   -1    0    0    0    0  0.00000000000E+00  0.00000000000E+00  0.99999998245E-14  0.12500000000E+03  0.12500000000E+03 0.  0.
        -11    1    3    3    0    0  0.17841820753E+02 -0.48485719753E+02 -0.34287103614E+02  0.62006459843E+02  0.51100000000E-03 0.  1.
         23    2    1    0    0    0  0.12137184056E+02 -0.21199339685E+02 -0.20520537595E+02  0.93096775977E+02  0.87459670673E+02 0.  0.
         11    1    3    3    0    0 -0.57046366975E+01  0.27286380068E+02  0.13766566020E+02  0.31090316134E+02  0.51100000000E-03 0. -1.
         22    1    1    0    0    0 -0.12137184056E+02  0.21199339685E+02  0.20520537595E+02  0.31903224023E+02  0.00000000000E+00 0.  1.
</event>
<event>
 5    1  0.8907853E-005  0.9118800E+02  0.7818608E-02  0.1130116E+00
         25   -1    0    0    0    0  0.00000000000E+00  0.00000000000E+00  0.99999998245E-14  0.12500000000E+03  0.12500000000E+03 0.  0.
        -11    1    3    3    0    0  0.41067731759E+02  0.10045269416E+02  0.24298774165E+02  0.48763679677E+02  0.51100000000E-03 0.  1.
         23    2    1    0    0    0  0.65000024096E+01 -0.21820448555E+02  0.17535308735E+02  0.96262062376E+02  0.91872278703E+02 0.  0.
         11    1    3    3    0    0 -0.34567729349E+02 -0.31865717971E+02 -0.67634654308E+01  0.47498382699E+02  0.51100000000E-03 0. -1.
         22    1    1    0    0    0 -0.65000024096E+01  0.21820448555E+02 -0.17535308735E+02  0.28737937624E+02  0.00000000000E+00 0.  1.
</event>
<event>
 5    1  0.8907853E-005  0.9118800E+02  0.7818608E-02  0.1130116E+00
         25   -1    0    0    0    0  0.00000000000E+00  0.00000000000E+00  0.99999998245E-14  0.12500000000E+03  0.12500000000E+03 0.  0.
        -11    1    3    3    0    0 -0.15975707949E+02 -0.46525298972E+02 -0.16755025166E+02  0.51966889049E+02  0.51100000000E-03 0. -1.
         23    2    1    0    0    0 -0.35573126538E+01 -0.21384621434E+02  0.18140652846E+02  0.96732708074E+02  0.92510415730E+02 0.  0.
         11    1    3    3    0    0  0.12418395295E+02  0.25140677538E+02  0.34895678011E+02  0.44765819024E+02  0.51100000000E-03 0.  1.
         22    1    1    0    0    0  0.35573126538E+01  0.21384621434E+02 -0.18140652846E+02  0.28267291926E+02  0.00000000000E+00 0. -1.
</event>
<event>
 5    1  0.8907853E-005  0.9118800E+02  0.7818608E-02  0.1130116E+00
         25   -1    0    0    0    0  0.00000000000E+00  0.00000000000E+00  0.99999998245E-14  0.12500000000E+03  0.12500000000E+03 0.  0.
        -11    1    3    3    0    0  0.34421226957E+02  0.17726001907E+02 -0.48456131861E+01  0.39019379496E+02  0.51100000000E-03 0.  1.
         23    2    1    0    0    0  0.10680332178E+02 -0.29370964046E+02 -0.10421508943E+02  0.92055639738E+02  0.85958768806E+02 0.  0.
         11    1    3    3    0    0 -0.23740894779E+02 -0.47096965952E+02 -0.55758957569E+01  0.53036260243E+02  0.51100000000E-03 0. -1.
         22    1    1    0    0    0 -0.10680332178E+02  0.29370964046E+02  0.10421508943E+02  0.32944360262E+02  0.00000000000E+00 0.  1.
</event>
<event>
 5    1  0.8907853E-005  0.9118800E+02  0.7818608E-02  0.1130116E+00
         25   -1    0    0    0    0  0.00000000000E+00  0.00000000000E+00  0.99999998245E-14  0.12500000000E+03  0.12500000000E+03 0.  0.
        -11    1    3    3    0    0 -0.43128440421E+01  0.18116352224E+02  0.33214130283E+02  0.38078619885E+02  0.51100000000E-03 0.  1.
         23    2    1    0    0    0  0.77332708559E+01 -0.25982309586E+02 -0.47213602907E+01  0.97483184549E+02  0.93518961378E+02 0.  0.
         11    1    3    3    0    0  0.12046114898E+02 -0.44098661810E+02 -0.37935490574E+02  0.59404564664E+02  0.51100000000E-03 0. -1.
         22    1    1    0    0    0 -0.77332708559E+01  0.25982309586E+02  0.47213602907E+01  0.27516815451E+02  0.00000000000E+00 0. -1.
</event>
<event>
 5    1  0.8907853E-005  0.9118800E+02  0.7818608E-02  0.1130116E+00
         25   -1    0    0    0    0  0.00000000000E+00  0.00000000000E+00  0.99999998245E-14  0.12500000000E+03  0.12500000000E+03 0.  0.
        -11    1    3    3    0    0  0.29605990575E+02  0.24619160666E+02 -0.27285978021E+02  0.47192609026E+02  0.51100000000E-03 0.  1.
         23    2    1    0    0    0  0.13248603053E+02  0.19221862642E+02  0.17920569702E+02  0.95569534412E+02  0.90925153852E+02 0.  0.
         11    1    3    3    0    0 -0.16357387523E+02 -0.53972980240E+01  0.45206547723E+02  0.48376925386E+02  0.51100000000E-03 0. -1.
         22    1    1    0    0    0 -0.13248603053E+02 -0.19221862642E+02 -0.17920569702E+02  0.29430465588E+02  0.00000000000E+00 0. -1.
</event>
<event>
 5    1  0.8907853E-005  0.9118800E+02  0.7818608E-02  0.1130116E+00
         25   -1    0    0    0    0  0.00000000000E+00  0.00000000000E+00  0.99999998245E-14  0.12500000000E+03  0.12500000000E+03 0.  0.
        -11    1    3    3    0    0  0.37724977323E+02 -0.36353181440E+02 -0.35308979670E+01  0.52508998806E+02  0.51100000000E-03 0.  1.
         23    2    1    0    0    0  0.34958342456E+02 -0.27745269279E+01  0.95547861583E+01  0.88653368168E+02  0.80860015101E+02 0.  0.
         11    1    3    3    0    0 -0.27666348667E+01  0.33578654512E+02  0.13085684125E+02  0.36144369363E+02  0.51100000000E-03 0. -1.
         22    1    1    0    0    0 -0.34958342456E+02  0.27745269279E+01 -0.95547861583E+01  0.36346631832E+02  0.00000000000E+00 0.  1.
</event>
<event>
 5    1  0.8907853E-005  0.9118800E+02  0.7818608E-02  0.1130116E+00
         25   -1    0    0    0    0  0.00000000000E+00  0.00000000000E+00  0.99999998245E-14  0.12500000000E+03  0.12500000000E+03 0.  0.
        -11    1    3    3    0    0 -0.18228763638E+02 -0.35191999769E+01 -0.34498382499E+02  0.39176663813E+02  0.51100000000E-03 0.  1.
         23    2    1    0    0    0  0.61887089024E+00  0.21935301296E+02  0.15338655364E+02  0.98226602895E+02  0.94507410947E+02 0.  0.
         11    1    3    3    0    0  0.18847634529E+02  0.25454501273E+02  0.49837037863E+02  0.59049939082E+02  0.51100000000E-03 0. -1.
         22    1    1    0    0    0 -0.61887089024E+00 -0.21935301296E+02 -0.15338655364E+02  0.26773397105E+02  0.00000000000E+00 0. -1.
</event>
<event>
 5    1  0.8907853E-005  0.9118800E+02  0.7818608E-02  0.1130116E+00
         25   -1    0    0    0    0  0.00000000000E+00  0.00000000000E+00  0.99999998245E-14  0.12500000000E+03  0.12500000000E+03 0.  0.
        -11    1    3    3    0    0  0.22439693328E+02 -0.13261524455E+01 -0.27164891485E+02  0.35259464639E+02  0.51100000000E-03 0.  1.
         23    2    1    0    0    0 -0.18760222378E+02 -0.22742472875E+02  0.90661962776E+01  0.94155844458E+02  0.88960446910E+02 0.  0.
         11    1    3    3    0    0 -0.41199915707E+02 -0.21416320429E+02  0.36231087763E+02  0.58896379819E+02  0.51100000000E-03 0. -1.
         22    1    1    0    0    0  0.18760222378E+02  0.22742472875E+02 -0.90661962776E+01  0.30844155542E+02  0.00000000000E+00 0. -1.
</event>
<event>
 5    1  0.8907853E-005  0.9118800E+02  0.7818608E-02  0.1130116E+00
         25   -1    0    0    0    0  0.00000000000E+00  0.00000000000E+00  0.99999998245E-14  0.12500000000E+03  0.12500000000E+03 0.  0.
        -11    1    3    3    0    0  0.20342373753E+02  0.33550162963E+02  0.45433418141E+02  0.60030168158E+02  0.51100000000E-03 0.  1.
         23    2    1    0    0    0  0.59272761630E+01  0.42952152685E+01  0.25987895890E+02  0.98000885020E+02  0.94208392699E+02 0.  0.
         11    1    3    3    0    0 -0.14415097590E+02 -0.29254947695E+02 -0.19445522251E+02  0.37970716862E+02  0.51100000000E-03 0. -1.
         22    1    1    0    0    0 -0.59272761630E+01 -0.42952152685E+01 -0.25987895890E+02  0.26999114980E+02  0.00000000000E+00 0.  1.
</event>
<event>
 5    1  0.8907853E-005  0.9118800E+02  0.7818608E-02  0.1130116E+00
         25   -1    0    0    0    0  0.00000000000E+00  0.00000000000E+00  0.99999998245E-14  0.12500000000E+03  0.12500000000E+03 0.  0.
        -11    1    3    3    0    0  0.31019347279E+02  0.13578923135E+02  0.46397784787E+01  0.34177691608E+02  0.51100000000E-03 0.  1.
         23    2    1    0    0    0 -0.11931650683E+02 -0.25350187209E+02  0.15238293776E+02  0.93106397557E+02  0.87473421045E+02 0.  0.
         11    1    3    3    0    0 -0.42950997961E+02 -0.38929110344E+02  0.10598515298E+02  0.58928705949E+02  0.51100000000E-03 0. -1.
         22    1    1    0    0    0  0.11931650683E+02  0.25350187209E+02 -0.15238293776E+02  0.31893602443E+02  0.00000000000E+00 0. -1.
</event>
<event>
 5    1  0.8907853E-005  0.9118800E+02  0.7818608E-02  0.1130116E+00
         25   -1    0    0    0    0  0.00000000000E+00  0.00000000000E+00  0.99999998245E-14  0.12500000000E+03  0.12500000000E+03 0.  0.
        -11    1    3    3    0    0 -0.31119148870E+02  0.29597440665E+02  0.43973311082E+02  0.61465941855E+02  0.51100000000E-03 0. -1.
         23    2    1    0    0    0 -0.82967460294E+01  0.18714583722E+02  0.21790636701E+02  0.95101781217E+02  0.90279816704E+02 0.  0.
         11    1    3    3    0    0  0.22822402841E+02 -0.10882856943E+02 -0.22182674380E+02  0.33635839362E+02  0.51100000000E-03 0.  1.
         22    1    1    0    0    0  0.82967460294E+01 -0.18714583722E+02 -0.21790636701E+02  0.29898218783E+02  0.00000000000E+00 0. -1.
</event>
<event>
 5    1  0.8907853E-005  0.9118800E+02  0.7818608E-02  0.1130116E+00
         25   -1    0    0    0    0  0.00000000000E+00  0.00000000000E+00  0.99999998245E-14  0.12500000000E+03  0.12500000000E+03 0.  0.
        -11    1    3    3    0    0 -0.23393283978E+02 -0.43525077390E+02  0.19015173660E+02  0.52945773454E+02  0.51100000000E-03 0.  1.
         23    2    1    0    0    0 -0.30429918698E+02 -0.57904547710E+01  0.62328881298E+01  0.93403192996E+02  0.87896520119E+02 0.  0.
         11    1    3    3    0    0 -0.70366347195E+01  0.37734622619E+02 -0.12782285530E+02  0.40457419542E+02  0.51100000000E-03 0. -1.
         22    1    1    0    0    0  0.30429918698E+02  0.57904547710E+01 -0.62328881298E+01  0.31596807004E+02  0.00000000000E+00 0. -1.
</event>
<event>
 5    1  0.8907853E-005  0.9118800E+02  0.7818608E-02  0.1130116E+00
         25   -1    0    0    0    0  0.00000000000E+00  0.00000000000E+00  0.99999998245E-14  0.12500000000E+03  0.12500000000E+03 0.  0.
        -11    1    3    3    0    0 -0.21012672555E+02 -0.18027008727E+02  0.23821847007E+02  0.36523770980E+02  0.51100000000E-03 0.  1.
         23    2    1    0    0    0  0.63817448720E+01  0.29191523028E+02  0.29260906256E+01  0.94976114665E+02  0.90105652798E+02 0.  0.
         11    1    3    3    0    0  0.27394417427E+02  0.47218531754E+02 -0.20895756381E+02  0.58452343684E+02  0.51100000000E-03 0. -1.
         22    1    1    0    0    0 -0.63817448720E+01 -0.29191523028E+02 -0.29260906256E+01  0.30023885335E+02  0.00000000000E+00 0. -1.
</event>
<event>
 5    1  0.8907853E-005  0.9118800E+02  0.7818608E-02  0.1130116E+00
         25   -1    0    0    0    0  0.00000000000E+00  0.00000000000E+00  0.99999998245E-14  0.12500000000E+03  0.12500000000E+03 0.  0.
        -11    1    3    3    0    0 -0.55141655161E+02  0.11526944158E+02 -0.22205576379E+02  0.60552127940E+02  0.51100000000E-03 0.  1.
         23    2    1    0    0    0 -0.21924426335E+02 -0.19475847212E+01 -0.17848260385E+02  0.96662146250E+02  0.92415023468E+02 0.  0.
         11    1    3    3    0    0  0.33217228826E+02 -0.13474528879E+02  0.43573159938E+01  0.36110018310E+02  0.51100000000E-03 0. -1.
         22    1    1    0    0    0  0.21924426335E+02  0.19475847212E+01  0.17848260385E+02  0.28337853750E+02  0.00000000000E+00 0.  1.
</event>
<event>
 5    1  0.8907853E-005  0.9118800E+02  0.7818608E-02  0.1130116E+00
         25   -1    0    0    0    0  0.00000000000E+00  0.00000000000E+00  0.99999998245E-14  0.12500000000E+03  0.12500000000E+03 0.  0.
        -11    1    3    3    0    0  0.13121458979E+02  0.28250242498E+02 -0.33576341093E+02  0.45799776947E+02  0.51100000000E-03 0.  1.
         23    2    1    0    0    0  0.30175723257E+02 -0.53995283089E+01 -0.33067304633E+01  0.94167166099E+02  0.88976353739E+02 0.  0.
         11    1    3    3    0    0  0.17054264277E+02 -0.33649770807E+02  0.30269610630E+02  0.48367389152E+02  0.51100000000E-03 0. -1.
         22    1    1    0    0    0 -0.30175723257E+02  0.53995283089E+01  0.33067304633E+01  0.30832833901E+02  0.00000000000E+00 0. -1.
</event>
<event>
 5    1  0.8907853E-005  0.9118800E+02  0.7818608E-02  0.1130116E+00
         25   -1    0    0    0    0  0.00000000000E+00  0.00000000000E+00  0.99999998245E-14  0.12500000000E+03  0.12500000000E+03 0.  0.
        -11    1    3    3    0    0 -0.13215099272E+02 -0.83912814944E+00  0.35920207237E+02  0.38283211373E+02  0.51100000000E-03 0.  1.
         23    2    1    0    0    0 -0.80317340402E+01 -0.27343629802E+02 -0.12621090591E+02  0.93831509980E+02  0.88503545098E+02 0.  0.
         11    1    3    3    0    0  0.51833652315E+01 -0.26504501652E+02 -0.48541297829E+02  0.55548298607E+02  0.51100000000E-03 0. -1.
         22    1    1    0    0    0  0.80317340402E+01  0.27343629802E+02  0.12621090591E+02  0.31168490020E+02  0.00000000000E+00 0. -1.
</event>
<event>
 5    1  0.8907853E-005  0.9118800E+02  0.7818608E-02  0.1130116E+00
         25   -1    0    0    0    0  0.00000000000E+00  0.00000000000E+00  0.99999998245E-14  0.12500000000E+03  0.12500000000E+03 0.  0.
        -11    1    3    3    0    0  0.16276446830E+02 -0.19903681101E+02 -0.28829790100E+02  0.38629471136E+02  0.51100000000E-03 0. -1.
         23    2    1    0    0    0 -0.21393004826E+02  0.17895840576E+02 -0.73359159945E+01  0.96160141664E+02  0.91733502146E+02 0.  0.
         11    1    3    3    0    0 -0.37669451656E+02  0.37799521676E+02  0.21493874106E+02  0.57530670527E+02  0.51100000000E-03 0.  1.
         22    1    1    0    0    0  0.21393004826E+02 -0.17895840576E+02  0.73359159945E+01  0.28839858336E+02  0.00000000000E+00 0.  1.
</event>
<event>
 5    1  0.8907853E-005  0.9118800E+02  0.7818608E-02  0.1130116E+00
         25   -1    0    0    0    0  0.00000000000E+00  0.00000000000E+00  0.99999998245E-14  0.12500000000E+03  0.12500000000E+03 0.  0.
        -11    1    3    3    0    0  0.75540711088E+01 -0.16570800232E+01  0.33547309574E+02  0.34427196872E+02  0.51100000000E-03 0.  1.
         23    2    1    0    0    0 -0.10926573394E+02 -0.29577853113E+01 -0.25921319147E+02  0.96714786789E+02  0.92486197334E+02 0.  0.
         11    1    3    3    0    0 -0.18480644503E+02 -0.13007052881E+01 -0.59468628721E+02  0.62287589917E+02  0.51100000000E-03 0. -1.
         22    1    1    0    0    0  0.10926573394E+02  0.29577853113E+01  0.25921319147E+02  0.28285213211E+02  0.00000000000E+00 0. -1.
</event>
<event>
 5    1  0.8907853E-005  0.9118800E+02  0.7818608E-02  0.1130116E+00
         25   -1    0    0    0    0  0.00000000000E+00  0.00000000000E+00  0.99999998245E-14  0.12500000000E+03  0.12500000000E+03 0.  0.
        -11    1    3    3    0    0 -0.45030038596E+02  0.41210483159E+02  0.92395212866E+01  0.61736351140E+02  0.51100000000E-03 0. -1.
         23    2    1    0    0    0 -0.24731645396E+02  0.14583506345E+02  0.77964162600E+01  0.95249083244E+02  0.90483538895E+02 0.  0.
         11    1    3    3    0    0  0.20298393200E+02 -0.26626976813E+02 -0.14431050265E+01  0.33512732105E+02  0.51100000000E-03 0.  1.
         22    1    1    0    0    0  0.24731645396E+02 -0.14583506345E+02 -0.77964162600E+01  0.29750916756E+02  0.00000000000E+00 0. -1.
</event>
<event>
 5    1  0.8907853E-005  0.9118800E+02  0.7818608E-02  0.1130116E+00
         25   -1    0    0    0    0  0.00000000000E+00  0.00000000000E+00  0.99999998245E-14  0.12500000000E+03  0.12500000000E+03 0.  0.
        -11    1    3    3    0    0  0.90175361035E+01 -0.16109819744E+02  0.19934475941E+02  0.27170306971E+02  0.51100000000E-03 0. -1.
         23    2    1    0    0    0  0.81552081964E+00  0.39523475672E+02  0.75119523074E+01  0.84760720299E+02  0.74600134549E+02 0.  0.
         11    1    3    3    0    0 -0.82020152838E+01  0.55633295416E+02 -0.12422523634E+02  0.57590413328E+02  0.51100000000E-03 0.  1.
         22    1    1    0    0    0 -0.81552081964E+00 -0.39523475672E+02 -0.75119523074E+01  0.40239279701E+02  0.00000000000E+00 0.  1.
</event>
<event>
 5    1  0.8907853E-005  0.9118800E+02  0.7818608E-02  0.1130116E+00
         25   -1    0    0    0    0  0.00000000000E+00  0.00000000000E+00  0.99999998245E-14  0.12500000000E+03  0.12500000000E+03 0.  0.
        -11    1    3    3    0    0  0.23015304054E+02 -0.45831120353E+02 -0.21745951778E+02  0.55705316017E+02  0.51100000000E-03 0.  1.
         23    2    1    0    0    0  0.21655704580E+02 -0.20315323174E+02  0.73321381898E+01  0.94415001276E+02  0.89323850785E+02 0.  0.
         11    1    3    3    0    0 -0.13595994746E+01  0.25515797180E+02  0.29078089968E+02  0.38709685259E+02  0.51100000000E-03 0. -1.
         22    1    1    0    0    0 -0.21655704580E+02  0.20315323174E+02 -0.73321381898E+01  0.30584998724E+02  0.00000000000E+00 0.  1.
</event>
<event>
 5    1  0.8907853E-005  0.9118800E+02  0.7818608E-02  0.1130116E+00
         25   -1    0    0    0    0  0.00000000000E+00  0.00000000000E+00  0.99999998245E-14  0.12500000000E+03  0.12500000000E+03 0.  0.
        -11    1    3    3    0    0  0.32371278451E+02  0.41536314484E+02 -0.15840901266E+02  0.54991810688E+02  0.51100000000E-03 0.  1.
         23    2    1    0    0    0  0.16976767996E+02  0.40463434977E+01 -0.22980675322E+02  0.96143545166E+02  0.91710884259E+02 0.  0.
         11    1    3    3    0    0 -0.15394510455E+02 -0.37489970987E+02 -0.71397740568E+01  0.41151734479E+02  0.51100000000E-03 0. -1.
         22    1    1    0    0    0 -0.16976767996E+02 -0.40463434977E+01  0.22980675322E+02  0.28856454834E+02  0.00000000000E+00 0.  1.
</event>
<event>
 5    1  0.8907853E-005  0.9118800E+02  0.7818608E-02  0.1130116E+00
         25   -1    0    0    0    0  0.00000000000E+00  0.00000000000E+00  0.99999998245E-14  0.12500000000E+03  0.12500000000E+03 0.  0.
        -11    1    3    3    0    0  0.22941617036E+02 -0.11708275104E+02 -0.18451757682E+02  0.31683889597E+02  0.51100000000E-03 0. -1.
         23    2    1    0    0    0 -0.22001598019E+02 -0.95518454461E+01  0.22195859611E+02  0.92320277684E+02  0.86342743881E+02 0.  0.
         11    1    3    3    0    0 -0.44943215055E+02  0.21564296577E+01  0.40647617293E+02  0.60636388087E+02  0.51100000000E-03 0.  1.
         22    1    1    0    0    0  0.22001598019E+02  0.95518454461E+01 -0.22195859611E+02  0.32679722316E+02  0.00000000000E+00 0.  1.
</event>
<event>
 5    1  0.8907853E-005  0.9118800E+02  0.7818608E-02  0.1130116E+00
         25   -1    0    0    0    0  0.00000000000E+00  0.00000000000E+00  0.99999998245E-14  0.12500000000E+03  0.12500000000E+03 0.  0.
        -11    1    3    3    0    0  0.19610144611E+02  0.40697171973E+02  0.19838335847E+02  0.49339407655E+02  0.51100000000E-03 0. -1.
         23    2    1    0    0    0  0.25794630687E+02 -0.47319173071E+01  0.13116690331E+02  0.95677626649E+02  0.91073633190E+02 0.  0.
         11    1    3    3    0    0  0.61844860755E+01 -0.45429089280E+02 -0.67216455159E+01  0.46338218994E+02  0.51100000000E-03 0.  1.
         22    1    1    0    0    0 -0.25794630687E+02  0.47319173071E+01 -0.13116690331E+02  0.29322373351E+02  0.00000000000E+00 0. -1.
</event>
<event>
 5    1  0.8907853E-005  0.9118800E+02  0.7818608E-02  0.1130116E+00
         25   -1    0    0    0    0  0.00000000000E+00  0.00000000000E+00  0.99999998245E-14  0.12500000000E+03  0.12500000000E+03 0.  0.
        -11    1    3    3    0    0  0.50828909658E+02 -0.24579450895E+02 -0.23444209595E+01  0.56508616805E+02  0.51100000000E-03 0. -1.
         23    2    1    0    0    0  0.13668380833E+02 -0.27595651848E+02  0.24938660861E+01  0.94103980782E+02  0.88887542408E+02 0.  0.
         11    1    3    3    0    0 -0.37160528825E+02 -0.30162009528E+01  0.48382870456E+01  0.37595363977E+02  0.51100000000E-03 0.  1.
         22    1    1    0    0    0 -0.13668380833E+02  0.27595651848E+02 -0.24938660861E+01  0.30896019218E+02  0.00000000000E+00 0. -1.
</event>
<event>
 5    1  0.8907853E-005  0.9118800E+02  0.7818608E-02  0.1130116E+00
         25   -1    0    0    0    0  0.00000000000E+00  0.00000000000E+00  0.99999998245E-14  0.12500000000E+03  0.12500000000E+03 0.  0.
        -11    1    3    3    0    0 -0.20363820795E+02 -0.14828128735E+02 -0.54406349096E+02  0.59955061682E+02  0.51100000000E-03 0. -1.
         23    2    1    0    0    0  0.51350017718E+00 -0.14551577204E+02 -0.25865587847E+02  0.95317669966E+02  0.90578239614E+02 0.  0.
         11    1    3    3    0    0  0.20877320972E+02  0.27655153046E+00  0.28540761249E+02  0.35362608284E+02  0.51100000000E-03 0.  1.
         22    1    1    0    0    0 -0.51350017718E+00  0.14551577204E+02  0.25865587847E+02  0.29682330034E+02  0.00000000000E+00 0. -1.
</event>
<event>
 5    1  0.8907853E-005  0.9118800E+02  0.7818608E-02  0.1130116E+00
         25   -1    0    0    0    0  0.00000000000E+00  0.00000000000E+00  0.99999998245E-14  0.12500000000E+03  0.12500000000E+03 0.  0.
        -11    1    3    3    0    0 -0.50394790006E+02 -0.32492505197E+02  0.75438234025E+01  0.60434319931E+02  0.51100000000E-03 0. -1.
         23    2    1    0    0    0 -0.15992369459E+02 -0.92819508397E+01 -0.81368585552E+01  0.10479804565E+03  0.10283244339E+03 0.  0.
         11    1    3    3    0    0  0.34402420546E+02  0.23210554357E+02 -0.15680681958E+02  0.44363725722E+02  0.51100000000E-03 0.  1.
         22    1    1    0    0    0  0.15992369459E+02  0.92819508397E+01  0.81368585552E+01  0.20201954347E+02  0.00000000000E+00 0. -1.
</event>
<event>
 5    1  0.8907853E-005  0.9118800E+02  0.7818608E-02  0.1130116E+00
         25   -1    0    0    0    0  0.00000000000E+00  0.00000000000E+00  0.99999998245E-14  0.12500000000E+03  0.12500000000E+03 0.  0.
        -11    1    3    3    0    0 -0.20880696625E+02 -0.45334751726E+01  0.33518684093E+02  0.39749944305E+02  0.51100000000E-03 0.  1.
         23    2    1    0    0    0  0.28406397912E+01 -0.23637491372E+02 -0.14872825304E+02  0.96928641548E+02  0.92774783142E+02 0.  0.
         11    1    3    3    0    0  0.23721336416E+02 -0.19104016200E+02 -0.48391509397E+02  0.57178697243E+02  0.51100000000E-03 0. -1.
         22    1    1    0    0    0 -0.28406397912E+01  0.23637491372E+02  0.14872825304E+02  0.28071358452E+02  0.00000000000E+00 0. -1.
</event>
<event>
 5    1  0.8907853E-005  0.9118800E+02  0.7818608E-02  0.1130116E+00
         25   -1    0    0    0    0  0.00000000000E+00  0.00000000000E+00  0.99999998245E-14  0.12500000000E+03  0.12500000000E+03 0.  0.
        -11    1    3    3    0    0 -0.23048312184E+02  0.37677546012E+02 -0.25570182476E+02  0.51035834470E+02  0.51100000000E-03 0. -1.
         23    2    1    0    0    0 -0.24716373476E+02 -0.54788733399E+01 -0.15267304241E+02  0.95436377934E+02  0.90741911395E+02 0.  0.
         11    1    3    3    0    0 -0.16680612921E+01 -0.43156419351E+02  0.10302878235E+02  0.44400543464E+02  0.51100000000E-03 0.  1.
         22    1    1    0    0    0  0.24716373476E+02  0.54788733399E+01  0.15267304241E+02  0.29563622066E+02  0.00000000000E+00 0.  1.
</event>
<event>
 5    1  0.8907853E-005  0.9118800E+02  0.7818608E-02  0.1130116E+00
         25   -1    0    0    0    0  0.00000000000E+00  0.00000000000E+00  0.99999998245E-14  0.12500000000E+03  0.12500000000E+03 0.  0.
        -11    1    3    3    0    0 -0.18444229911E+02  0.45862131355E+02  0.14995197612E+01  0.49454759824E+02  0.51100000000E-03 0. -1.
         23    2    1    0    0    0  0.18277532718E+02  0.19252130184E+02  0.11783664954E+02  0.95955766862E+02  0.91454588269E+02 0.  0.
         11    1    3    3    0    0  0.36721762629E+02 -0.26610001171E+02  0.10284145193E+02  0.46501007038E+02  0.51100000000E-03 0.  1.
         22    1    1    0    0    0 -0.18277532718E+02 -0.19252130184E+02 -0.11783664954E+02  0.29044233138E+02  0.00000000000E+00 0. -1.
</event>
<event>
 5    1  0.8907853E-005  0.9118800E+02  0.7818608E-02  0.1130116E+00
         25   -1    0    0    0    0  0.00000000000E+00  0.00000000000E+00  0.99999998245E-14  0.12500000000E+03  0.12500000000E+03 0.  0.
        -11    1    3    3    0    0  0.79435030094E+01  0.45111492916E+02 -0.24297006918E+02  0.51850656492E+02  0.51100000000E-03 0.  1.
         23    2    1    0    0    0 -0.10721065352E+02  0.59664123784E+01 -0.27042213176E+02  0.95304535491E+02  0.90560111930E+02 0.  0.
         11    1    3    3    0    0 -0.18664568361E+02 -0.39145080538E+02 -0.27452062584E+01  0.43453878999E+02  0.51100000000E-03 0. -1.
         22    1    1    0    0    0  0.10721065352E+02 -0.59664123784E+01  0.27042213176E+02  0.29695464509E+02  0.00000000000E+00 0. -1.
</event>
<event>
 5    1  0.8907853E-005  0.9118800E+02  0.7818608E-02  0.1130116E+00
         25   -1    0    0    0    0  0.00000000000E+00  0.00000000000E+00  0.99999998245E-14  0.12500000000E+03  0.12500000000E+03 0.  0.
        -11    1    3    3    0    0  0.64678037493E+01 -0.46847250779E+02  0.39803859795E+02  0.61812981207E+02  0.51100000000E-03 0.  1.
         23    2    1    0    0    0 -0.19689044776E+01 -0.21807725618E+02  0.23591165849E+02  0.92813099131E+02  0.87053287030E+02 0.  0.
         11    1    3    3    0    0 -0.84367082270E+01  0.25039525161E+02 -0.16212693946E+02  0.31000117923E+02  0.51100000000E-03 0. -1.
         22    1    1    0    0    0  0.19689044776E+01  0.21807725618E+02 -0.23591165849E+02  0.32186900869E+02  0.00000000000E+00 0.  1.
</event>
<event>
 5    1  0.8907853E-005  0.9118800E+02  0.7818608E-02  0.1130116E+00
         25   -1    0    0    0    0  0.00000000000E+00  0.00000000000E+00  0.99999998245E-14  0.12500000000E+03  0.12500000000E+03 0.  0.
        -11    1    3    3    0    0  0.51233945786E+02  0.19697663550E+02 -0.14351703867E+01  0.54908786769E+02  0.51100000000E-03 0. -1.
         23    2    1    0    0    0  0.16820644524E+02  0.66784974953E+01 -0.21563452737E+02  0.96848287709E+02  0.92666455242E+02 0.  0.
         11    1    3    3    0    0 -0.34413301261E+02 -0.13019166055E+02 -0.20128282350E+02  0.41939500940E+02  0.51100000000E-03 0.  1.
         22    1    1    0    0    0 -0.16820644524E+02 -0.66784974953E+01  0.21563452737E+02  0.28151712291E+02  0.00000000000E+00 0. -1.
</event>
<event>
 5    1  0.8907853E-005  0.9118800E+02  0.7818608E-02  0.1130116E+00
         25   -1    0    0    0    0  0.00000000000E+00  0.00000000000E+00  0.99999998245E-14  0.12500000000E+03  0.12500000000E+03 0.  0.
        -11    1    3    3    0    0  0.17463114388E+01 -0.30430212286E+02  0.14999906500E+02  0.33971232222E+02  0.51100000000E-03 0.  1.
         23    2    1    0    0    0  0.42400841246E+01  0.24902070786E+02 -0.13603674188E+02  0.96309384910E+02  0.91936642464E+02 0.  0.
         11    1    3    3    0    0  0.24937726858E+01  0.55332283072E+02 -0.28603580688E+02  0.62338152688E+02  0.51100000000E-03 0. -1.
         22    1    1    0    0    0 -0.42400841246E+01 -0.24902070786E+02  0.13603674188E+02  0.28690615090E+02  0.00000000000E+00 0. -1.
</event>
<event>
 5    1  0.8907853E-005  0.9118800E+02  0.7818608E-02  0.1130116E+00
         25   -1    0    0    0    0  0.00000000000E+00  0.00000000000E+00  0.99999998245E-14  0.12500000000E+03  0.12500000000E+03 0.  0.
        -11    1    3    3    0    0 -0.67818431015E+01  0.66529633779E+00 -0.39414790469E+02  0.39999521535E+02  0.51100000000E-03 0. -1.
         23    2    1    0    0    0 -0.88460327423E+01  0.19484873482E+02  0.15819581495E+02  0.98388503452E+02  0.94721306277E+02 0.  0.
         11    1    3    3    0    0 -0.20641896408E+01  0.18819577144E+02  0.55234371964E+02  0.58388981916E+02  0.51100000000E-03 0.  1.
         22    1    1    0    0    0  0.88460327423E+01 -0.19484873482E+02 -0.15819581495E+02  0.26611496548E+02  0.00000000000E+00 0.  1.
</event>
<event>
 5    1  0.8907853E-005  0.9118800E+02  0.7818608E-02  0.1130116E+00
         25   -1    0    0    0    0  0.00000000000E+00  0.00000000000E+00  0.99999998245E-14  0.12500000000E+03  0.12500000000E+03 0.  0.
        -11    1    3    3    0    0  0.43774636240E+02 -0.39447756342E+02  0.16212254825E+02  0.61116130973E+02  0.51100000000E-03 0.  1.
         23    2    1    0    0    0  0.14700151630E+02 -0.25132846421E+02  0.47042343778E+01  0.95506199834E+02  0.90838042463E+02 0.  0.
         11    1    3    3    0    0 -0.29074484610E+02  0.14314909921E+02 -0.11508020447E+02  0.34390068861E+02  0.51100000000E-03 0. -1.
         22    1    1    0    0    0 -0.14700151630E+02  0.25132846421E+02 -0.47042343778E+01  0.29493800166E+02  0.00000000000E+00 0.  1.
</event>
<event>
 5    1  0.8907853E-005  0.9118800E+02  0.7818608E-02  0.1130116E+00
         25   -1    0    0    0    0  0.00000000000E+00  0.00000000000E+00  0.99999998245E-14  0.12500000000E+03  0.12500000000E+03 0.  0.
        -11    1    3    3    0    0 -0.11952791960E+02 -0.10669788022E+02 -0.55094455693E+02  0.57376934917E+02  0.51100000000E-03 0.  1.
         23    2    1    0    0    0 -0.19817316331E+02  0.50720423825E+01 -0.21363256780E+02  0.95422299266E+02  0.90722515488E+02 0.  0.
         11    1    3    3    0    0 -0.78645243704E+01  0.15741830405E+02  0.33731198913E+02  0.38045364349E+02  0.51100000000E-03 0. -1.
         22    1    1    0    0    0  0.19817316331E+02 -0.50720423825E+01  0.21363256780E+02  0.29577700734E+02  0.00000000000E+00 0.  1.
</event>
<event>
 5    1  0.8907853E-005  0.9118800E+02  0.7818608E-02  0.1130116E+00
         25   -1    0    0    0    0  0.00000000000E+00  0.00000000000E+00  0.99999998245E-14  0.12500000000E+03  0.12500000000E+03 0.  0.
        -11    1    3    3    0    0 -0.35844250582E+02  0.24889997396E+02 -0.33488818525E+02  0.55007483460E+02  0.51100000000E-03 0.  1.
         23    2    1    0    0    0  0.42474729962E+01  0.18954013536E+02 -0.18372200085E+02  0.98263631662E+02  0.94556374272E+02 0.  0.
         11    1    3    3    0    0  0.40091723579E+02 -0.59359838604E+01  0.15116618441E+02  0.43256148202E+02  0.51100000000E-03 0. -1.
         22    1    1    0    0    0 -0.42474729962E+01 -0.18954013536E+02  0.18372200085E+02  0.26736368338E+02  0.00000000000E+00 0.  1.
</event>
<event>
 5    1  0.8907853E-005  0.9118800E+02  0.7818608E-02  0.1130116E+00
         25   -1    0    0    0    0  0.00000000000E+00  0.00000000000E+00  0.99999998245E-14  0.12500000000E+03  0.12500000000E+03 0.  0.
        -11    1    3    3    0    0  0.14644090994E+02 -0.25804191835E+02 -0.21850912559E+02  0.36847904923E+02  0.51100000000E-03 0.  1.
         23    2    1    0    0    0  0.12018159473E+02  0.10605586264E+02  0.24422885739E+02  0.95787126726E+02  0.91223799973E+02 0.  0.
         11    1    3    3    0    0 -0.26259315208E+01  0.36409778099E+02  0.46273798298E+02  0.58939221803E+02  0.51100000000E-03 0. -1.
         22    1    1    0    0    0 -0.12018159473E+02 -0.10605586264E+02 -0.24422885739E+02  0.29212873274E+02  0.00000000000E+00 0. -1.
</event>
<event>
 5    1  0.8907853E-005  0.9118800E+02  0.7818608E-02  0.1130116E+00
         25   -1    0    0    0    0  0.00000000000E+00  0.00000000000E+00  0.99999998245E-14  0.12500000000E+03  0.12500000000E+03 0.  0.
        -11    1    3    3    0    0  0.45055175683E+02  0.19384356108E+02 -0.36222432310E+02  0.60973655953E+02  0.51100000000E-03 0. -1.
         23    2    1    0    0    0  0.27365720710E+02  0.11307458966E+02 -0.97392329839E+01  0.93829598055E+02  0.88500844707E+02 0.  0.
         11    1    3    3    0    0 -0.17689454972E+02 -0.80768971419E+01  0.26483199326E+02  0.32855942103E+02  0.51100000000E-03 0.  1.
         22    1    1    0    0    0 -0.27365720710E+02 -0.11307458966E+02  0.97392329839E+01  0.31170401945E+02  0.00000000000E+00 0. -1.
</event>
<event>
 5    1  0.8907853E-005  0.9118800E+02  0.7818608E-02  0.1130116E+00
         25   -1    0    0    0    0  0.00000000000E+00  0.00000000000E+00  0.99999998245E-14  0.12500000000E+03  0.12500000000E+03 0.  0.
        -11    1    3    3    0    0  0.40909378644E+02 -0.26484899530E+02 -0.25558275867E+02  0.55029561417E+02  0.51100000000E-03 0.  1.
         23    2    1    0    0    0  0.13112712993E+02 -0.25318663874E+02  0.46648315992E+01  0.96108156234E+02  0.91662637200E+02 0.  0.
         11    1    3    3    0    0 -0.27796665651E+02  0.11662356559E+01  0.30223107467E+02  0.41078594817E+02  0.51100000000E-03 0. -1.
         22    1    1    0    0    0 -0.13112712993E+02  0.25318663874E+02 -0.46648315992E+01  0.28891843766E+02  0.00000000000E+00 0.  1.
</event>
<event>
 5    1  0.8907853E-005  0.9118800E+02  0.7818608E-02  0.1130116E+00
         25   -1    0    0    0    0  0.00000000000E+00  0.00000000000E+00  0.99999998245E-14  0.12500000000E+03  0.12500000000E+03 0.  0.
        -11    1    3    3    0    0  0.52048857454E+02  0.15026734446E+02 -0.28067705502E+02  0.61013788629E+02  0.51100000000E-03 0.  1.
         23    2    1    0    0    0  0.24783498738E+02 -0.24979357645E+01 -0.14722963661E+02  0.96065122227E+02  0.91603933086E+02 0.  0.
         11    1    3    3    0    0 -0.27265358717E+02 -0.17524670211E+02  0.13344741841E+02  0.35051333598E+02  0.51100000000E-03 0. -1.
         22    1    1    0    0    0 -0.24783498738E+02  0.24979357645E+01  0.14722963661E+02  0.28934877773E+02  0.00000000000E+00 0.  1.
</event>
<event>
 5    1  0.8907853E-005  0.9118800E+02  0.7818608E-02  0.1130116E+00
         25   -1    0    0    0    0  0.00000000000E+00  0.00000000000E+00  0.99999998245E-14  0.12500000000E+03  0.12500000000E+03 0.  0.
        -11    1    3    3    0    0  0.34754733855E+02 -0.29839791049E+02  0.14421681584E+02  0.48023843611E+02  0.51100000000E-03 0. -1.
         23    2    1    0    0    0  0.19216502842E+01  0.61146892535E+01 -0.17579247451E+02  0.10628871716E+03  0.10462876894E+03 0.  0.
         11    1    3    3    0    0 -0.32833083571E+02  0.35954480302E+02 -0.32000929036E+02  0.58264873551E+02  0.51100000000E-03 0.  1.
         22    1    1    0    0    0 -0.19216502842E+01 -0.61146892535E+01  0.17579247451E+02  0.18711282838E+02  0.00000000000E+00 0.  1.
</event>
<event>
 5    1  0.8907853E-005  0.9118800E+02  0.7818608E-02  0.1130116E+00
         25   -1    0    0    0    0  0.00000000000E+00  0.00000000000E+00  0.99999998245E-14  0.12500000000E+03  0.12500000000E+03 0.  0.
        -11    1    3    3    0    0  0.36996392162E+02  0.34619720942E+02 -0.85127703214E+01  0.51378257754E+02  0.51100000000E-03 0. -1.
         23    2    1    0    0    0  0.12973242380E+02  0.14639797757E+02  0.22351637332E+02  0.95297737668E+02  0.90550728418E+02 0.  0.
         11    1    3    3    0    0 -0.24023149781E+02 -0.19979923185E+02  0.30864407653E+02  0.43919479914E+02  0.51100000000E-03 0.  1.
         22    1    1    0    0    0 -0.12973242380E+02 -0.14639797757E+02 -0.22351637332E+02  0.29702262332E+02  0.00000000000E+00 0. -1.
</event>
<event>
 5    1  0.8907853E-005  0.9118800E+02  0.7818608E-02  0.1130116E+00
         25   -1    0    0    0    0  0.00000000000E+00  0.00000000000E+00  0.99999998245E-14  0.12500000000E+03  0.12500000000E+03 0.  0.
        -11    1    3    3    0    0  0.22516864908E+02 -0.22480558757E+02 -0.16710990266E+02  0.35939420185E+02  0.51100000000E-03 0.  1.
         23    2    1    0    0    0 -0.22155868052E+02 -0.76786997464E+01  0.18840820249E+02  0.94919750224E+02  0.90027426688E+02 0.  0.
         11    1    3    3    0    0 -0.44672732961E+02  0.14801859010E+02  0.35551810515E+02  0.58980330039E+02  0.51100000000E-03 0. -1.
         22    1    1    0    0    0  0.22155868052E+02  0.76786997464E+01 -0.18840820249E+02  0.30080249776E+02  0.00000000000E+00 0. -1.
</event>
<event>
 5    1  0.8907853E-005  0.9118800E+02  0.7818608E-02  0.1130116E+00
         25   -1    0    0    0    0  0.00000000000E+00  0.00000000000E+00  0.99999998245E-14  0.12500000000E+03  0.12500000000E+03 0.  0.
        -11    1    3    3    0    0  0.28909504439E+02 -0.15457888917E+02  0.46911316479E+02  0.57230912895E+02  0.51100000000E-03 0. -1.
         23    2    1    0    0    0 -0.35156336316E+01 -0.44002855604E+01  0.28153264399E+02  0.96288878651E+02  0.91908757268E+02 0.  0.
         11    1    3    3    0    0 -0.32425138070E+02  0.11057603356E+02 -0.18758052081E+02  0.39057965756E+02  0.51100000000E-03 0.  1.
         22    1    1    0    0    0  0.35156336316E+01  0.44002855604E+01 -0.28153264399E+02  0.28711121349E+02  0.00000000000E+00 0. -1.
</event>
<event>
 5    1  0.8907853E-005  0.9118800E+02  0.7818608E-02  0.1130116E+00
         25   -1    0    0    0    0  0.00000000000E+00  0.00000000000E+00  0.99999998245E-14  0.12500000000E+03  0.12500000000E+03 0.  0.
        -11    1    3    3    0    0  0.34276797556E+01  0.29281734263E+02 -0.19207833003E+02  0.35186784435E+02  0.51100000000E-03 0.  1.
         23    2    1    0    0    0 -0.23681471304E+02  0.26693017703E+02  0.20885029698E+02  0.83653733631E+02  0.72721615822E+02 0.  0.
         11    1    3    3    0    0 -0.27109151060E+02 -0.25887165600E+01  0.40092862701E+02  0.48466949196E+02  0.51100000000E-03 0. -1.
         22    1    1    0    0    0  0.23681471304E+02 -0.26693017703E+02 -0.20885029698E+02  0.41346266369E+02  0.00000000000E+00 0. -1.
</event>
<event>
 5    1  0.8907853E-005  0.9118800E+02  0.7818608E-02  0.1130116E+00
         25   -1    0    0    0    0  0.00000000000E+00  0.00000000000E+00  0.99999998245E-14  0.12500000000E+03  0.12500000000E+03 0.  0.
        -11    1    3    3    0    0 -0.45506378944E+02  0.42003648525E+02  0.91565878919E+00  0.61935252040E+02  0.51100000000E-03 0.  1.
         23    2    1    0    0    0 -0.32888713577E+02  0.26423759155E+02  0.53654304251E+01  0.82471534565E+02  0.70660339946E+02 0.  0.
         11    1    3    3    0    0  0.12617665367E+02 -0.15579889369E+02  0.44497716359E+01  0.20536282525E+02  0.51100000000E-03 0. -1.
         22    1    1    0    0    0  0.32888713577E+02 -0.26423759155E+02 -0.53654304251E+01  0.42528465435E+02  0.00000000000E+00 0.  1.
</event>
<event>
 5    1  0.8907853E-005  0.9118800E+02  0.7818608E-02  0.1130116E+00
         25   -1    0    0    0    0  0.00000000000E+00  0.00000000000E+00  0.99999998245E-14  0.12500000000E+03  0.12500000000E+03 0.  0.
        -11    1    3    3    0    0 -0.40526061303E+01 -0.27261335909E+02 -0.40584882450E+02  0.49058503195E+02  0.51100000000E-03 0.  1.
         23    2    1    0    0    0 -0.27462001997E+02  0.48549082836E+00 -0.13231589383E+02  0.94512753279E+02  0.89460540574E+02 0.  0.
         11    1    3    3    0    0 -0.23409395867E+02  0.27746826737E+02  0.27353293067E+02  0.45454250084E+02  0.51100000000E-03 0. -1.
         22    1    1    0    0    0  0.27462001997E+02 -0.48549082836E+00  0.13231589383E+02  0.30487246721E+02  0.00000000000E+00 0.  1.
</event>
<event>
 5    1  0.8907853E-005  0.9118800E+02  0.7818608E-02  0.1130116E+00
         25   -1    0    0    0    0  0.00000000000E+00  0.00000000000E+00  0.99999998245E-14  0.12500000000E+03  0.12500000000E+03 0.  0.
        -11    1    3    3    0    0  0.34235261502E+02  0.48363144980E+02  0.12615402598E+02  0.60582136850E+02  0.51100000000E-03 0. -1.
         23    2    1    0    0    0  0.76145194331E+01  0.24973773832E+02  0.12580286432E+02  0.96018386996E+02  0.91540137365E+02 0.  0.
         11    1    3    3    0    0 -0.26620742069E+02 -0.23389371147E+02 -0.35116165645E-01  0.35436250145E+02  0.51100000000E-03 0.  1.
         22    1    1    0    0    0 -0.76145194331E+01 -0.24973773832E+02 -0.12580286432E+02  0.28981613004E+02  0.00000000000E+00 0. -1.
</event>
<event>
 5    1  0.8907853E-005  0.9118800E+02  0.7818608E-02  0.1130116E+00
         25   -1    0    0    0    0  0.00000000000E+00  0.00000000000E+00  0.99999998245E-14  0.12500000000E+03  0.12500000000E+03 0.  0.
        -11    1    3    3    0    0 -0.28081769546E+02 -0.24698397416E+01  0.34545153054E+02  0.44587593442E+02  0.51100000000E-03 0. -1.
         23    2    1    0    0    0 -0.22862359268E+02  0.11287314226E+02 -0.14414587743E+02  0.95710560375E+02  0.91118824037E+02 0.  0.
         11    1    3    3    0    0  0.52194102782E+01  0.13757153967E+02 -0.48959740796E+02  0.51122966933E+02  0.51100000000E-03 0.  1.
         22    1    1    0    0    0  0.22862359268E+02 -0.11287314226E+02  0.14414587743E+02  0.29289439625E+02  0.00000000000E+00 0.  1.
</event>
<event>
 5    1  0.8907853E-005  0.9118800E+02  0.7818608E-02  0.1130116E+00
         25   -1    0    0    0    0  0.00000000000E+00  0.00000000000E+00  0.99999998245E-14  0.12500000000E+03  0.12500000000E+03 0.  0.
        -11    1    3    3    0    0 -0.36319739518E+02 -0.31993248321E+02  0.34857701576E+02  0.59646884044E+02  0.51100000000E-03 0.  1.
         23    2    1    0    0    0 -0.25777516125E+02 -0.10083661622E+02  0.73473446176E+01  0.96361842898E+02  0.92007938377E+02 0.  0.
         11    1    3    3    0    0  0.10542223393E+02  0.21909586699E+02 -0.27510356958E+02  0.36714958854E+02  0.51100000000E-03 0. -1.
         22    1    1    0    0    0  0.25777516125E+02  0.10083661622E+02 -0.73473446176E+01  0.28638157102E+02  0.00000000000E+00 0.  1.
</event>
<event>
 5    1  0.8907853E-005  0.9118800E+02  0.7818608E-02  0.1130116E+00
         25   -1    0    0    0    0  0.00000000000E+00  0.00000000000E+00  0.99999998245E-14  0.12500000000E+03  0.12500000000E+03 0.  0.
        -11    1    3    3    0    0 -0.12368994640E+02  0.24596059399E+02  0.29052239377E+02  0.40024877007E+02  0.51100000000E-03 0. -1.
         23    2    1    0    0    0  0.22728061919E+02 -0.14776202528E+02  0.96649851325E+01  0.96219574406E+02  0.91814452030E+02 0.  0.
         11    1    3    3    0    0  0.35097056559E+02 -0.39372261927E+02 -0.19387254245E+02  0.56194697399E+02  0.51100000000E-03 0.  1.
         22    1    1    0    0    0 -0.22728061919E+02  0.14776202528E+02 -0.96649851325E+01  0.28780425594E+02  0.00000000000E+00 0.  1.
</event>
<event>
 5    1  0.8907853E-005  0.9118800E+02  0.7818608E-02  0.1130116E+00
         25   -1    0    0    0    0  0.00000000000E+00  0.00000000000E+00  0.99999998245E-14  0.12500000000E+03  0.12500000000E+03 0.  0.
        -11    1    3    3    0    0  0.55129161636E+02 -0.17247518916E+02 -0.21186657644E+02  0.61527033358E+02  0.51100000000E-03 0. -1.
         23    2    1    0    0    0  0.19338498707E+02 -0.12413058427E+01 -0.13238633690E+02  0.10153130182E+03  0.98781706070E+02 0.  0.
         11    1    3    3    0    0 -0.35790662929E+02  0.16006213073E+02  0.79480239536E+01  0.40004268458E+02  0.51100000000E-03 0.  1.
         22    1    1    0    0    0 -0.19338498707E+02  0.12413058427E+01  0.13238633690E+02  0.23468698183E+02  0.00000000000E+00 0. -1.
</event>
<event>
 5    1  0.8907853E-005  0.9118800E+02  0.7818608E-02  0.1130116E+00
         25   -1    0    0    0    0  0.00000000000E+00  0.00000000000E+00  0.99999998245E-14  0.12500000000E+03  0.12500000000E+03 0.  0.
        -11    1    3    3    0    0  0.17642731767E+02  0.35271320633E+02  0.46912942328E+02  0.61287488132E+02  0.51100000000E-03 0. -1.
         23    2    1    0    0    0  0.11509926747E+02  0.23556747008E+02  0.17663950902E+02  0.93386491735E+02  0.87872765598E+02 0.  0.
         11    1    3    3    0    0 -0.61328050197E+01 -0.11714573625E+02 -0.29248991426E+02  0.32099003603E+02  0.51100000000E-03 0.  1.
         22    1    1    0    0    0 -0.11509926747E+02 -0.23556747008E+02 -0.17663950902E+02  0.31613508265E+02  0.00000000000E+00 0. -1.
</event>
<event>
 5    1  0.8907853E-005  0.9118800E+02  0.7818608E-02  0.1130116E+00
         25   -1    0    0    0    0  0.00000000000E+00  0.00000000000E+00  0.99999998245E-14  0.12500000000E+03  0.12500000000E+03 0.  0.
        -11    1    3    3    0    0  0.16559668262E+02 -0.22950548700E+02 -0.24316052157E+02  0.37312473670E+02  0.51100000000E-03 0.  1.
         23    2    1    0    0    0 -0.28663590176E+02 -0.80593968891E+01  0.71447144476E+01  0.94379708941E+02  0.89274448950E+02 0.  0.
         11    1    3    3    0    0 -0.45223258438E+02  0.14891151811E+02  0.31460766605E+02  0.57067235272E+02  0.51100000000E-03 0. -1.
         22    1    1    0    0    0  0.28663590176E+02  0.80593968891E+01 -0.71447144476E+01  0.30620291059E+02  0.00000000000E+00 0. -1.
</event>
<event>
 5    1  0.8907853E-005  0.9118800E+02  0.7818608E-02  0.1130116E+00
         25   -1    0    0    0    0  0.00000000000E+00  0.00000000000E+00  0.99999998245E-14  0.12500000000E+03  0.12500000000E+03 0.  0.
        -11    1    3    3    0    0  0.10030277097E+02  0.17287201333E+02 -0.34050474985E+02  0.39482763778E+02  0.51100000000E-03 0. -1.
         23    2    1    0    0    0 -0.26459040375E+02 -0.12826143954E+02 -0.45264310792E+01  0.95249716562E+02  0.90484413799E+02 0.  0.
         11    1    3    3    0    0 -0.36489317473E+02 -0.30113345287E+02  0.29524043906E+02  0.55766952784E+02  0.51100000000E-03 0.  1.
         22    1    1    0    0    0  0.26459040375E+02  0.12826143954E+02  0.45264310792E+01  0.29750283438E+02  0.00000000000E+00 0.  1.
</event>
<event>
 5    1  0.8907853E-005  0.9118800E+02  0.7818608E-02  0.1130116E+00
         25   -1    0    0    0    0  0.00000000000E+00  0.00000000000E+00  0.99999998245E-14  0.12500000000E+03  0.12500000000E+03 0.  0.
        -11    1    3    3    0    0  0.47079247349E+02  0.43225663714E+01 -0.27037503250E+02  0.54462525586E+02  0.51100000000E-03 0.  1.
         23    2    1    0    0    0  0.15031911904E+02  0.23407240087E+02 -0.10457917539E+02  0.95280893297E+02  0.90527472759E+02 0.  0.
         11    1    3    3    0    0 -0.32047335445E+02  0.19084673716E+02  0.16579585710E+02  0.40818367711E+02  0.51100000000E-03 0. -1.
         22    1    1    0    0    0 -0.15031911904E+02 -0.23407240087E+02  0.10457917539E+02  0.29719106703E+02  0.00000000000E+00 0. -1.
</event>
<event>
 5    1  0.8907853E-005  0.9118800E+02  0.7818608E-02  0.1130116E+00
         25   -1    0    0    0    0  0.00000000000E+00  0.00000000000E+00  0.99999998245E-14  0.12500000000E+03  0.12500000000E+03 0.  0.
        -11    1    3    3    0    0  0.45482822571E+02  0.25170268084E+02  0.49614618534E+01  0.52219207658E+02  0.51100000000E-03 0.  1.
         23    2    1    0    0    0  0.13648718742E+02  0.10975845525E+02 -0.22424544167E+02  0.96546232422E+02  0.92258105907E+02 0.  0.
         11    1    3    3    0    0 -0.31834103829E+02 -0.14194422559E+02 -0.27386006021E+02  0.44327024764E+02  0.51100000000E-03 0. -1.
         22    1    1    0    0    0 -0.13648718742E+02 -0.10975845525E+02  0.22424544167E+02  0.28453767578E+02  0.00000000000E+00 0.  1.
</event>
<event>
 5    1  0.8907853E-005  0.9118800E+02  0.7818608E-02  0.1130116E+00
         25   -1    0    0    0    0  0.00000000000E+00  0.00000000000E+00  0.99999998245E-14  0.12500000000E+03  0.12500000000E+03 0.  0.
        -11    1    3    3    0    0  0.31208009253E+02  0.32334474921E+02 -0.13399042529E+02  0.46893415859E+02  0.51100000000E-03 0.  1.
         23    2    1    0    0    0 -0.14627268139E+02  0.24463207383E+02  0.33000514266E+01  0.96306867928E+02  0.91933220231E+02 0.  0.
         11    1    3    3    0    0 -0.45835277392E+02 -0.78712675373E+01  0.16699093955E+02  0.49413452069E+02  0.51100000000E-03 0. -1.
         22    1    1    0    0    0  0.14627268139E+02 -0.24463207383E+02 -0.33000514266E+01  0.28693132072E+02  0.00000000000E+00 0.  1.
</event>
<event>
 5    1  0.8907853E-005  0.9118800E+02  0.7818608E-02  0.1130116E+00
         25   -1    0    0    0    0  0.00000000000E+00  0.00000000000E+00  0.99999998245E-14  0.12500000000E+03  0.12500000000E+03 0.  0.
        -11    1    3    3    0    0  0.55847534026E+02 -0.15324860686E+02 -0.12098323720E+02  0.59162216397E+02  0.51100000000E-03 0. -1.
         23    2    1    0    0    0  0.24420479802E+02 -0.15244637161E+02  0.62327780204E+01  0.95544842255E+02  0.90891201795E+02 0.  0.
         11    1    3    3    0    0 -0.31427054225E+02  0.80223524351E-01  0.18331101741E+02  0.36382625858E+02  0.51100000000E-03 0.  1.
         22    1    1    0    0    0 -0.24420479802E+02  0.15244637161E+02 -0.62327780204E+01  0.29455157745E+02  0.00000000000E+00 0. -1.
</event>
<event>
 5    1  0.8907853E-005  0.9118800E+02  0.7818608E-02  0.1130116E+00
         25   -1    0    0    0    0  0.00000000000E+00  0.00000000000E+00  0.99999998245E-14  0.12500000000E+03  0.12500000000E+03 0.  0.
        -11    1    3    3    0    0  0.50752621960E+02 -0.19032059939E+02  0.29420886222E+01  0.54283550244E+02  0.51100000000E-03 0. -1.
         23    2    1    0    0    0  0.23007440137E+02 -0.17806823987E+02  0.22474696818E+02  0.88236740090E+02  0.80213371843E+02 0.  0.
         11    1    3    3    0    0 -0.27745181823E+02  0.12252359520E+01  0.19532608196E+02  0.33953189846E+02  0.51100000000E-03 0.  1.
         22    1    1    0    0    0 -0.23007440137E+02  0.17806823987E+02 -0.22474696818E+02  0.36763259910E+02  0.00000000000E+00 0. -1.
</event>
<event>
 5    1  0.8907853E-005  0.9118800E+02  0.7818608E-02  0.1130116E+00
         25   -1    0    0    0    0  0.00000000000E+00  0.00000000000E+00  0.99999998245E-14  0.12500000000E+03  0.12500000000E+03 0.  0.
        -11    1    3    3    0    0 -0.13119664007E+02 -0.20749022096E+02  0.26297776405E+02  0.35975276868E+02  0.51100000000E-03 0. -1.
         23    2    1    0    0    0  0.26213263968E+02 -0.12474800038E+01 -0.13726964698E+02  0.95383771779E+02  0.90669415708E+02 0.  0.
         11    1    3    3    0    0  0.39332927975E+02  0.19501542092E+02 -0.40024741103E+02  0.59408494912E+02  0.51100000000E-03 0.  1.
         22    1    1    0    0    0 -0.26213263968E+02  0.12474800038E+01  0.13726964698E+02  0.29616228221E+02  0.00000000000E+00 0.  1.
</event>
<event>
 5    1  0.8907853E-005  0.9118800E+02  0.7818608E-02  0.1130116E+00
         25   -1    0    0    0    0  0.00000000000E+00  0.00000000000E+00  0.99999998245E-14  0.12500000000E+03  0.12500000000E+03 0.  0.
        -11    1    3    3    0    0  0.59584607426E+02  0.12706683522E+02 -0.61869954821E+01  0.61237767445E+02  0.51100000000E-03 0. -1.
         23    2    1    0    0    0  0.33315515307E+02  0.22092633516E+01  0.41463197357E+01  0.91354846232E+02  0.84933571443E+02 0.  0.
         11    1    3    3    0    0 -0.26269092120E+02 -0.10497420170E+02  0.10333315218E+02  0.30117078787E+02  0.51100000000E-03 0.  1.
         22    1    1    0    0    0 -0.33315515307E+02 -0.22092633516E+01 -0.41463197357E+01  0.33645153768E+02  0.00000000000E+00 0. -1.
</event>
<event>
 5    1  0.8907853E-005  0.9118800E+02  0.7818608E-02  0.1130116E+00
         25   -1    0    0    0    0  0.00000000000E+00  0.00000000000E+00  0.99999998245E-14  0.12500000000E+03  0.12500000000E+03 0.  0.
        -11    1    3    3    0    0 -0.59065741955E+02 -0.14428874977E+02  0.19111980887E+01  0.60832614478E+02  0.51100000000E-03 0. -1.
         23    2    1    0    0    0 -0.26721588503E+02 -0.77690246995E+01 -0.92254198169E+01  0.95682609125E+02  0.91080471459E+02 0.  0.
         11    1    3    3    0    0  0.32344153452E+02  0.66598502773E+01 -0.11136617906E+02  0.34849994647E+02  0.51100000000E-03 0.  1.
         22    1    1    0    0    0  0.26721588503E+02  0.77690246995E+01  0.92254198169E+01  0.29317390875E+02  0.00000000000E+00 0. -1.
</event>
<event>
 5    1  0.8907853E-005  0.9118800E+02  0.7818608E-02  0.1130116E+00
         25   -1    0    0    0    0  0.00000000000E+00  0.00000000000E+00  0.99999998245E-14  0.12500000000E+03  0.12500000000E+03 0.  0.
        -11    1    3    3    0    0 -0.68957936620E+01 -0.46794434855E+02 -0.14718876681E+02  0.49537020850E+02  0.51100000000E-03 0. -1.
         23    2    1    0    0    0 -0.17061304328E+01 -0.22310411325E+02  0.21768001603E+02  0.93782837599E+02  0.88434774833E+02 0.  0.
         11    1    3    3    0    0  0.51896632292E+01  0.24484023530E+02  0.36486878285E+02  0.44245816750E+02  0.51100000000E-03 0.  1.
         22    1    1    0    0    0  0.17061304328E+01  0.22310411325E+02 -0.21768001603E+02  0.31217162401E+02  0.00000000000E+00 0. -1.
</event>
<event>
 5    1  0.8907853E-005  0.9118800E+02  0.7818608E-02  0.1130116E+00
         25   -1    0    0    0    0  0.00000000000E+00  0.00000000000E+00  0.99999998245E-14  0.12500000000E+03  0.12500000000E+03 0.  0.
        -11    1    3    3    0    0 -0.16369167458E+02 -0.13426516636E+02  0.46062094684E+02  0.50694551573E+02  0.51100000000E-03 0. -1.
         23    2    1    0    0    0 -0.26248494468E+02  0.96741917951E+01  0.87277824222E+01  0.95695603833E+02  0.91098303816E+02 0.  0.
         11    1    3    3    0    0 -0.98793270098E+01  0.23100708431E+02 -0.37334312262E+02  0.45001052260E+02  0.51100000000E-03 0.  1.
         22    1    1    0    0    0  0.26248494468E+02 -0.96741917951E+01 -0.87277824222E+01  0.29304396167E+02  0.00000000000E+00 0. -1.
</event>
<event>
 5    1  0.8907853E-005  0.9118800E+02  0.7818608E-02  0.1130116E+00
         25   -1    0    0    0    0  0.00000000000E+00  0.00000000000E+00  0.99999998245E-14  0.12500000000E+03  0.12500000000E+03 0.  0.
        -11    1    3    3    0    0  0.42418829498E+02  0.11125655985E+02 -0.11861447711E+02  0.45429409628E+02  0.51100000000E-03 0.  1.
         23    2    1    0    0    0 -0.30021554868E+00  0.24542054716E+02  0.13601397118E+02  0.96939341016E+02  0.92789197938E+02 0.  0.
         11    1    3    3    0    0 -0.42719045047E+02  0.13416398731E+02  0.25462844828E+02  0.51509931388E+02  0.51100000000E-03 0. -1.
         22    1    1    0    0    0  0.30021554868E+00 -0.24542054716E+02 -0.13601397118E+02  0.28060658984E+02  0.00000000000E+00 0. -1.
</event>
<event>
 5    1  0.8907853E-005  0.9118800E+02  0.7818608E-02  0.1130116E+00
         25   -1    0    0    0    0  0.00000000000E+00  0.00000000000E+00  0.99999998245E-14  0.12500000000E+03  0.12500000000E+03 0.  0.
        -11    1    3    3    0    0 -0.29116792495E+02 -0.31437673760E+02  0.81389641938E+01  0.43616025439E+02  0.51100000000E-03 0.  1.
         23    2    1    0    0    0  0.17881718222E+02 -0.95038672984E+01  0.19693919283E+02  0.96752348825E+02  0.92536950491E+02 0.  0.
         11    1    3    3    0    0  0.46998510717E+02  0.21933806462E+02  0.11554955090E+02  0.53136323386E+02  0.51100000000E-03 0. -1.
         22    1    1    0    0    0 -0.17881718222E+02  0.95038672984E+01 -0.19693919283E+02  0.28247651175E+02  0.00000000000E+00 0. -1.
</event>
<event>
 5    1  0.8907853E-005  0.9118800E+02  0.7818608E-02  0.1130116E+00
         25   -1    0    0    0    0  0.00000000000E+00  0.00000000000E+00  0.99999998245E-14  0.12500000000E+03  0.12500000000E+03 0.  0.
        -11    1    3    3    0    0 -0.31886712517E+02  0.16927146683E+02 -0.50821003832E+02  0.62338312142E+02  0.51100000000E-03 0.  1.
         23    2    1    0    0    0 -0.11634547243E+02  0.64551163479E+01 -0.24159974779E+02  0.97418564251E+02  0.93432548198E+02 0.  0.
         11    1    3    3    0    0  0.20252165274E+02 -0.10472030335E+02  0.26661029053E+02  0.35080252109E+02  0.51100000000E-03 0. -1.
         22    1    1    0    0    0  0.11634547243E+02 -0.64551163479E+01  0.24159974779E+02  0.27581435749E+02  0.00000000000E+00 0.  1.
</event>
<event>
 5    1  0.8907853E-005  0.9118800E+02  0.7818608E-02  0.1130116E+00
         25   -1    0    0    0    0  0.00000000000E+00  0.00000000000E+00  0.99999998245E-14  0.12500000000E+03  0.12500000000E+03 0.  0.
        -11    1    3    3    0    0  0.20425704623E+02  0.23752786086E+02  0.13995028689E+02  0.34311296748E+02  0.51100000000E-03 0. -1.
         23    2    1    0    0    0 -0.19020461424E+02 -0.21838459575E+02  0.78405278491E+00  0.96029135185E+02  0.91554813069E+02 0.  0.
         11    1    3    3    0    0 -0.39446166047E+02 -0.45591245661E+02 -0.13210975904E+02  0.61717838437E+02  0.51100000000E-03 0.  1.
         22    1    1    0    0    0  0.19020461424E+02  0.21838459575E+02 -0.78405278491E+00  0.28970864815E+02  0.00000000000E+00 0.  1.
</event>
<event>
 5    1  0.8907853E-005  0.9118800E+02  0.7818608E-02  0.1130116E+00
         25   -1    0    0    0    0  0.00000000000E+00  0.00000000000E+00  0.99999998245E-14  0.12500000000E+03  0.12500000000E+03 0.  0.
        -11    1    3    3    0    0 -0.15299518113E+01 -0.36183690094E+01  0.44010988527E+02  0.44185975810E+02  0.51100000000E-03 0. -1.
         23    2    1    0    0    0 -0.22329177003E+02 -0.19178687350E+02 -0.31628329893E+00  0.95563386247E+02  0.90916701226E+02 0.  0.
         11    1    3    3    0    0 -0.20799225192E+02 -0.15560318341E+02 -0.44327271826E+02  0.51377410438E+02  0.51100000000E-03 0.  1.
         22    1    1    0    0    0  0.22329177003E+02  0.19178687350E+02  0.31628329893E+00  0.29436613753E+02  0.00000000000E+00 0. -1.
</event>
<event>
 5    1  0.8907853E-005  0.9118800E+02  0.7818608E-02  0.1130116E+00
         25   -1    0    0    0    0  0.00000000000E+00  0.00000000000E+00  0.99999998245E-14  0.12500000000E+03  0.12500000000E+03 0.  0.
        -11    1    3    3    0    0 -0.30818501775E+02 -0.11741159129E+02  0.24859781309E+02  0.41299438209E+02  0.51100000000E-03 0. -1.
         23    2    1    0    0    0  0.16233538001E+02 -0.23520807102E+02 -0.12676203047E+01  0.96392955693E+02  0.92050197845E+02 0.  0.
         11    1    3    3    0    0  0.47052039776E+02 -0.11779647973E+02 -0.26127401614E+02  0.55093517484E+02  0.51100000000E-03 0.  1.
         22    1    1    0    0    0 -0.16233538001E+02  0.23520807102E+02  0.12676203047E+01  0.28607044307E+02  0.00000000000E+00 0.  1.
</event>
<event>
 5    1  0.8907853E-005  0.9118800E+02  0.7818608E-02  0.1130116E+00
         25   -1    0    0    0    0  0.00000000000E+00  0.00000000000E+00  0.99999998245E-14  0.12500000000E+03  0.12500000000E+03 0.  0.
        -11    1    3    3    0    0  0.22314537664E+02 -0.31786669644E+02 -0.53838149417E+01  0.39208626880E+02  0.51100000000E-03 0.  1.
         23    2    1    0    0    0  0.11854784867E+02  0.22916530985E+02 -0.14126188991E+02  0.95584824800E+02  0.90946171992E+02 0.  0.
         11    1    3    3    0    0 -0.10459752798E+02  0.54703200629E+02 -0.87423740497E+01  0.56376197920E+02  0.51100000000E-03 0. -1.
         22    1    1    0    0    0 -0.11854784867E+02 -0.22916530985E+02  0.14126188991E+02  0.29415175200E+02  0.00000000000E+00 0. -1.
</event>
<event>
 5    1  0.8907853E-005  0.9118800E+02  0.7818608E-02  0.1130116E+00
         25   -1    0    0    0    0  0.00000000000E+00  0.00000000000E+00  0.99999998245E-14  0.12500000000E+03  0.12500000000E+03 0.  0.
        -11    1    3    3    0    0  0.21137046184E+02  0.22554778338E+02  0.17876950072E+02  0.35708235624E+02  0.51100000000E-03 0.  1.
         23    2    1    0    0    0  0.56594021868E+01 -0.16611554042E+02  0.38565639012E+02  0.82629242712E+02  0.70938781198E+02 0.  0.
         11    1    3    3    0    0 -0.15477643997E+02 -0.39166332380E+02  0.20688688940E+02  0.46921007088E+02  0.51100000000E-03 0. -1.
         22    1    1    0    0    0 -0.56594021868E+01  0.16611554042E+02 -0.38565639012E+02  0.42370757288E+02  0.00000000000E+00 0.  1.
</event>
<event>
 5    1  0.8907853E-005  0.9118800E+02  0.7818608E-02  0.1130116E+00
         25   -1    0    0    0    0  0.00000000000E+00  0.00000000000E+00  0.99999998245E-14  0.12500000000E+03  0.12500000000E+03 0.  0.
        -11    1    3    3    0    0  0.57772706489E+02  0.48061590049E+01 -0.51644596664E+01  0.58201859277E+02  0.51100000000E-03 0.  1.
         23    2    1    0    0    0  0.24929904938E+02  0.26418405629E+01  0.13997486919E+02  0.96287474478E+02  0.91906847512E+02 0.  0.
         11    1    3    3    0    0 -0.32842801551E+02 -0.21643184420E+01  0.19161946586E+02  0.38085615201E+02  0.51100000000E-03 0. -1.
         22    1    1    0    0    0 -0.24929904938E+02 -0.26418405629E+01 -0.13997486919E+02  0.28712525522E+02  0.00000000000E+00 0.  1.
</event>
<event>
 5    1  0.8907853E-005  0.9118800E+02  0.7818608E-02  0.1130116E+00
         25   -1    0    0    0    0  0.00000000000E+00  0.00000000000E+00  0.99999998245E-14  0.12500000000E+03  0.12500000000E+03 0.  0.
        -11    1    3    3    0    0 -0.19369158917E+02 -0.30868549184E+02 -0.73495124851E+01  0.37175892456E+02  0.51100000000E-03 0.  1.
         23    2    1    0    0    0  0.82487953266E+00 -0.48579509347E+01  0.34343629064E+02  0.90304683734E+02  0.83373682499E+02 0.  0.
         11    1    3    3    0    0  0.20194038450E+02  0.26010598249E+02  0.41693141549E+02  0.53128791278E+02  0.51100000000E-03 0. -1.
         22    1    1    0    0    0 -0.82487953266E+00  0.48579509347E+01 -0.34343629064E+02  0.34695316266E+02  0.00000000000E+00 0. -1.
</event>
<event>
 5    1  0.8907853E-005  0.9118800E+02  0.7818608E-02  0.1130116E+00
         25   -1    0    0    0    0  0.00000000000E+00  0.00000000000E+00  0.99999998245E-14  0.12500000000E+03  0.12500000000E+03 0.  0.
        -11    1    3    3    0    0 -0.19796231927E+02  0.20051166441E+02 -0.39608057025E+02  0.48608006086E+02  0.51100000000E-03 0.  1.
         23    2    1    0    0    0  0.17051634931E+02 -0.29908812206E+01 -0.25264874226E+02  0.94372928740E+02  0.89264954966E+02 0.  0.
         11    1    3    3    0    0  0.36847866858E+02 -0.23042047661E+02  0.14343182799E+02  0.45764922654E+02  0.51100000000E-03 0. -1.
         22    1    1    0    0    0 -0.17051634931E+02  0.29908812206E+01  0.25264874226E+02  0.30627071260E+02  0.00000000000E+00 0.  1.
</event>
<event>
 5    1  0.8907853E-005  0.9118800E+02  0.7818608E-02  0.1130116E+00
         25   -1    0    0    0    0  0.00000000000E+00  0.00000000000E+00  0.99999998245E-14  0.12500000000E+03  0.12500000000E+03 0.  0.
        -11    1    3    3    0    0 -0.20963047670E+00 -0.11075108238E+02  0.37839407328E+02  0.39427436064E+02  0.51100000000E-03 0.  1.
         23    2    1    0    0    0  0.17453245367E+02 -0.15200038152E+02 -0.16409800755E+02  0.96628561995E+02  0.92369586438E+02 0.  0.
         11    1    3    3    0    0  0.17662875843E+02 -0.41249299140E+01 -0.54249208083E+02  0.57201125930E+02  0.51100000000E-03 0. -1.
         22    1    1    0    0    0 -0.17453245367E+02  0.15200038152E+02  0.16409800755E+02  0.28371438005E+02  0.00000000000E+00 0. -1.
</event>
<event>
 5    1  0.8907853E-005  0.9118800E+02  0.7818608E-02  0.1130116E+00
         25   -1    0    0    0    0  0.00000000000E+00  0.00000000000E+00  0.99999998245E-14  0.12500000000E+03  0.12500000000E+03 0.  0.
        -11    1    3    3    0    0 -0.32313674194E+02 -0.43896278737E+02  0.16923432111E+02  0.57074156863E+02  0.51100000000E-03 0. -1.
         23    2    1    0    0    0 -0.21860565634E+02 -0.75572352748E+01  0.19177402886E+02  0.94953886836E+02  0.90074811734E+02 0.  0.
         11    1    3    3    0    0  0.10453108560E+02  0.36339043462E+02  0.22539707749E+01  0.37879729973E+02  0.51100000000E-03 0.  1.
         22    1    1    0    0    0  0.21860565634E+02  0.75572352748E+01 -0.19177402886E+02  0.30046113164E+02  0.00000000000E+00 0. -1.
</event>
<event>
 5    1  0.8907853E-005  0.9118800E+02  0.7818608E-02  0.1130116E+00
         25   -1    0    0    0    0  0.00000000000E+00  0.00000000000E+00  0.99999998245E-14  0.12500000000E+03  0.12500000000E+03 0.  0.
        -11    1    3    3    0    0  0.88188379944E+01 -0.25318437941E+02 -0.45289007965E+02  0.52629739179E+02  0.51100000000E-03 0. -1.
         23    2    1    0    0    0 -0.11709799954E+02 -0.35642703379E+01 -0.40209174589E+02  0.82969045227E+02  0.71535035519E+02 0.  0.
         11    1    3    3    0    0 -0.20528637948E+02  0.21754167603E+02  0.50798333753E+01  0.30339306048E+02  0.51100000000E-03 0.  1.
         22    1    1    0    0    0  0.11709799954E+02  0.35642703379E+01  0.40209174589E+02  0.42030954773E+02  0.00000000000E+00 0. -1.
</event>
<event>
 5    1  0.8907853E-005  0.9118800E+02  0.7818608E-02  0.1130116E+00
         25   -1    0    0    0    0  0.00000000000E+00  0.00000000000E+00  0.99999998245E-14  0.12500000000E+03  0.12500000000E+03 0.  0.
        -11    1    3    3    0    0 -0.22509699991E+02  0.62855607188E+01  0.29431195026E+02  0.37581778939E+02  0.51100000000E-03 0.  1.
         23    2    1    0    0    0 -0.45868717260E+01  0.21127911347E+02 -0.22075205063E+02  0.94101088875E+02  0.88883475510E+02 0.  0.
         11    1    3    3    0    0  0.17922828265E+02  0.14842350629E+02 -0.51506400090E+02  0.56519309936E+02  0.51100000000E-03 0. -1.
         22    1    1    0    0    0  0.45868717260E+01 -0.21127911347E+02  0.22075205063E+02  0.30898911125E+02  0.00000000000E+00 0. -1.
</event>
<event>
 5    1  0.8907853E-005  0.9118800E+02  0.7818608E-02  0.1130116E+00
         25   -1    0    0    0    0  0.00000000000E+00  0.00000000000E+00  0.99999998245E-14  0.12500000000E+03  0.12500000000E+03 0.  0.
        -11    1    3    3    0    0  0.22761239736E+02 -0.49581731099E+02 -0.15148720108E+02  0.56620718949E+02  0.51100000000E-03 0. -1.
         23    2    1    0    0    0  0.18800940499E+02 -0.13603149123E+02 -0.21494630567E+02  0.93368683667E+02  0.87847429767E+02 0.  0.
         11    1    3    3    0    0 -0.39602992370E+01  0.35978581976E+02 -0.63459104590E+01  0.36747964718E+02  0.51100000000E-03 0.  1.
         22    1    1    0    0    0 -0.18800940499E+02  0.13603149123E+02  0.21494630567E+02  0.31631316333E+02  0.00000000000E+00 0. -1.
</event>
<event>
 5    1  0.8907853E-005  0.9118800E+02  0.7818608E-02  0.1130116E+00
         25   -1    0    0    0    0  0.00000000000E+00  0.00000000000E+00  0.99999998245E-14  0.12500000000E+03  0.12500000000E+03 0.  0.
        -11    1    3    3    0    0 -0.27029265990E+02  0.23715794422E+02  0.58509657093E+01  0.36431496333E+02  0.51100000000E-03 0.  1.
         23    2    1    0    0    0  0.19696843200E+02  0.21864591892E+01 -0.22372710667E+02  0.95112135934E+02  0.90294152544E+02 0.  0.
         11    1    3    3    0    0  0.46726109190E+02 -0.21529335233E+02 -0.28223676376E+02  0.58680639602E+02  0.51100000000E-03 0. -1.
         22    1    1    0    0    0 -0.19696843200E+02 -0.21864591892E+01  0.22372710667E+02  0.29887864066E+02  0.00000000000E+00 0. -1.
</event>
<event>
 5    1  0.8907853E-005  0.9118800E+02  0.7818608E-02  0.1130116E+00
         25   -1    0    0    0    0  0.00000000000E+00  0.00000000000E+00  0.99999998245E-14  0.12500000000E+03  0.12500000000E+03 0.  0.
        -11    1    3    3    0    0  0.29819345995E+02 -0.15675438195E+02  0.15673985502E+02  0.37156245504E+02  0.51100000000E-03 0. -1.
         23    2    1    0    0    0 -0.61442034185E+01 -0.63568292823E+01 -0.28665221746E+02  0.95002409232E+02  0.90142122828E+02 0.  0.
         11    1    3    3    0    0 -0.35963549413E+02  0.93186089131E+01 -0.44339207247E+02  0.57846163728E+02  0.51100000000E-03 0.  1.
         22    1    1    0    0    0  0.61442034185E+01  0.63568292823E+01  0.28665221746E+02  0.29997590768E+02  0.00000000000E+00 0. -1.
</event>
<event>
 5    1  0.8907853E-005  0.9118800E+02  0.7818608E-02  0.1130116E+00
         25   -1    0    0    0    0  0.00000000000E+00  0.00000000000E+00  0.99999998245E-14  0.12500000000E+03  0.12500000000E+03 0.  0.
        -11    1    3    3    0    0 -0.36024886404E+01  0.26330256608E+02 -0.19516484216E+02  0.32972010765E+02  0.51100000000E-03 0.  1.
         23    2    1    0    0    0 -0.68733740094E+01 -0.17487338520E+02  0.23802700030E+02  0.94674782647E+02  0.89686652640E+02 0.  0.
         11    1    3    3    0    0 -0.32708853690E+01 -0.43817595128E+02  0.43319184246E+02  0.61702771882E+02  0.51100000000E-03 0. -1.
         22    1    1    0    0    0  0.68733740094E+01  0.17487338520E+02 -0.23802700030E+02  0.30325217353E+02  0.00000000000E+00 0. -1.
</event>
<event>
 5    1  0.8907853E-005  0.9118800E+02  0.7818608E-02  0.1130116E+00
         25   -1    0    0    0    0  0.00000000000E+00  0.00000000000E+00  0.99999998245E-14  0.12500000000E+03  0.12500000000E+03 0.  0.
        -11    1    3    3    0    0  0.41850101814E+01  0.15372156338E+02  0.34031493093E+02  0.37576056513E+02  0.51100000000E-03 0.  1.
         23    2    1    0    0    0 -0.21801152225E+02 -0.14229185480E+02 -0.10410953783E+02  0.96961670584E+02  0.92819274109E+02 0.  0.
         11    1    3    3    0    0 -0.25986162406E+02 -0.29601341818E+02 -0.44442446876E+02  0.59385614071E+02  0.51100000000E-03 0. -1.
         22    1    1    0    0    0  0.21801152225E+02  0.14229185480E+02  0.10410953783E+02  0.28038329416E+02  0.00000000000E+00 0. -1.
</event>
<event>
 5    1  0.8907853E-005  0.9118800E+02  0.7818608E-02  0.1130116E+00
         25   -1    0    0    0    0  0.00000000000E+00  0.00000000000E+00  0.99999998245E-14  0.12500000000E+03  0.12500000000E+03 0.  0.
        -11    1    3    3    0    0 -0.40036405478E+02 -0.21024088131E+02  0.42320342236E+02  0.61934945003E+02  0.51100000000E-03 0. -1.
         23    2    1    0    0    0 -0.20906192257E+02 -0.42971144458E+01  0.19588521207E+02  0.96030287707E+02  0.91556386597E+02 0.  0.
         11    1    3    3    0    0  0.19130213221E+02  0.16726973685E+02 -0.22731821029E+02  0.34095342704E+02  0.51100000000E-03 0.  1.
         22    1    1    0    0    0  0.20906192257E+02  0.42971144458E+01 -0.19588521207E+02  0.28969712293E+02  0.00000000000E+00 0. -1.
</event>
<event>
 5    1  0.8907853E-005  0.9118800E+02  0.7818608E-02  0.1130116E+00
         25   -1    0    0    0    0  0.00000000000E+00  0.00000000000E+00  0.99999998245E-14  0.12500000000E+03  0.12500000000E+03 0.  0.
        -11    1    3    3    0    0 -0.26499383963E+02 -0.27035225870E+01  0.23806413955E+02  0.35724945492E+02  0.51100000000E-03 0. -1.
         23    2    1    0    0    0  0.17226810101E+02  0.19832579495E+02 -0.11548437345E+02  0.96303996780E+02  0.91929316298E+02 0.  0.
         11    1    3    3    0    0  0.43726194063E+02  0.22536102082E+02 -0.35354851300E+02  0.60579051288E+02  0.51100000000E-03 0.  1.
         22    1    1    0    0    0 -0.17226810101E+02 -0.19832579495E+02  0.11548437345E+02  0.28696003220E+02  0.00000000000E+00 0.  1.
</event>
<event>
 5    1  0.8907853E-005  0.9118800E+02  0.7818608E-02  0.1130116E+00
         25   -1    0    0    0    0  0.00000000000E+00  0.00000000000E+00  0.99999998245E-14  0.12500000000E+03  0.12500000000E+03 0.  0.
        -11    1    3    3    0    0 -0.76046607897E+01 -0.17382946340E+01  0.55679593582E+02  0.56223390824E+02  0.51100000000E-03 0. -1.
         23    2    1    0    0    0  0.14659902727E+02  0.72580901584E+01  0.22862916425E+02  0.96887626066E+02  0.92719504510E+02 0.  0.
         11    1    3    3    0    0  0.22264563517E+02  0.89963847924E+01 -0.32816677157E+02  0.40664235242E+02  0.51100000000E-03 0.  1.
         22    1    1    0    0    0 -0.14659902727E+02 -0.72580901584E+01 -0.22862916425E+02  0.28112373934E+02  0.00000000000E+00 0. -1.
</event>
<event>
 5    1  0.8907853E-005  0.9118800E+02  0.7818608E-02  0.1130116E+00
         25   -1    0    0    0    0  0.00000000000E+00  0.00000000000E+00  0.99999998245E-14  0.12500000000E+03  0.12500000000E+03 0.  0.
        -11    1    3    3    0    0  0.31592259158E+02  0.41818946345E+02  0.18342108839E+02  0.55527723428E+02  0.51100000000E-03 0.  1.
         23    2    1    0    0    0  0.25035919955E+02  0.30133456021E+01  0.16376394209E+02  0.94932345835E+02  0.90044913564E+02 0.  0.
         11    1    3    3    0    0 -0.65563392033E+01 -0.38805600743E+02 -0.19657146305E+01  0.39404622407E+02  0.51100000000E-03 0. -1.
         22    1    1    0    0    0 -0.25035919955E+02 -0.30133456021E+01 -0.16376394209E+02  0.30067654165E+02  0.00000000000E+00 0.  1.
</event>
<event>
 5    1  0.8907853E-005  0.9118800E+02  0.7818608E-02  0.1130116E+00
         25   -1    0    0    0    0  0.00000000000E+00  0.00000000000E+00  0.99999998245E-14  0.12500000000E+03  0.12500000000E+03 0.  0.
        -11    1    3    3    0    0  0.21776670655E+02 -0.79825516174E+01 -0.41132013482E+02  0.47220621010E+02  0.51100000000E-03 0.  1.
         23    2    1    0    0    0 -0.18918877126E+02 -0.15457872978E+02 -0.18271874233E+02  0.94492113533E+02  0.89431696748E+02 0.  0.
         11    1    3    3    0    0 -0.40695547781E+02 -0.74753213608E+01  0.22860139249E+02  0.47271492523E+02  0.51100000000E-03 0. -1.
         22    1    1    0    0    0  0.18918877126E+02  0.15457872978E+02  0.18271874233E+02  0.30507886467E+02  0.00000000000E+00 0. -1.
</event>
<event>
 5    1  0.8907853E-005  0.9118800E+02  0.7818608E-02  0.1130116E+00
         25   -1    0    0    0    0  0.00000000000E+00  0.00000000000E+00  0.99999998245E-14  0.12500000000E+03  0.12500000000E+03 0.  0.
        -11    1    3    3    0    0  0.23562162177E+02 -0.62654514824E+01 -0.23961733751E+02  0.34184734215E+02  0.51100000000E-03 0.  1.
         23    2    1    0    0    0 -0.10988075445E+02 -0.18677414123E+02  0.22739793473E+02  0.93588508352E+02  0.88159668149E+02 0.  0.
         11    1    3    3    0    0 -0.34550237622E+02 -0.12411962641E+02  0.46701527225E+02  0.59403774137E+02  0.51100000000E-03 0. -1.
         22    1    1    0    0    0  0.10988075445E+02  0.18677414123E+02 -0.22739793473E+02  0.31411491648E+02  0.00000000000E+00 0. -1.
</event>
<event>
 5    1  0.8907853E-005  0.9118800E+02  0.7818608E-02  0.1130116E+00
         25   -1    0    0    0    0  0.00000000000E+00  0.00000000000E+00  0.99999998245E-14  0.12500000000E+03  0.12500000000E+03 0.  0.
        -11    1    3    3    0    0 -0.42443812917E+02  0.41767298299E+02 -0.26340995439E+01  0.59606400183E+02  0.51100000000E-03 0.  1.
         23    2    1    0    0    0 -0.23668557966E+02  0.88240834198E+01 -0.92549431999E+01  0.98097972975E+02  0.94337125480E+02 0.  0.
         11    1    3    3    0    0  0.18775254950E+02 -0.32943214879E+02 -0.66208436560E+01  0.38491572792E+02  0.51100000000E-03 0. -1.
         22    1    1    0    0    0  0.23668557966E+02 -0.88240834198E+01  0.92549431999E+01  0.26902027025E+02  0.00000000000E+00 0.  1.
</event>
<event>
 5    1  0.8907853E-005  0.9118800E+02  0.7818608E-02  0.1130116E+00
         25   -1    0    0    0    0  0.00000000000E+00  0.00000000000E+00  0.99999998245E-14  0.12500000000E+03  0.12500000000E+03 0.  0.
        -11    1    3    3    0    0 -0.16397092515E+02  0.24442436569E+02 -0.42626228750E+02  0.51800508937E+02  0.51100000000E-03 0. -1.
         23    2    1    0    0    0 -0.23016232514E+02  0.15726362018E+02  0.13237327933E+01  0.97092694685E+02  0.92995557266E+02 0.  0.
         11    1    3    3    0    0 -0.66191399987E+01 -0.87160745509E+01  0.43949961544E+02  0.45292185748E+02  0.51100000000E-03 0.  1.
         22    1    1    0    0    0  0.23016232514E+02 -0.15726362018E+02 -0.13237327933E+01  0.27907305315E+02  0.00000000000E+00 0.  1.
</event>
<event>
 5    1  0.8907853E-005  0.9118800E+02  0.7818608E-02  0.1130116E+00
         25   -1    0    0    0    0  0.00000000000E+00  0.00000000000E+00  0.99999998245E-14  0.12500000000E+03  0.12500000000E+03 0.  0.
        -11    1    3    3    0    0  0.30658512818E+02  0.32449908379E+02 -0.20071174625E+02  0.48946838643E+02  0.51100000000E-03 0. -1.
         23    2    1    0    0    0 -0.75326695328E+01  0.27283366702E+02  0.67521866858E+01  0.95901628329E+02  0.91380561840E+02 0.  0.
         11    1    3    3    0    0 -0.38191182351E+02 -0.51665416777E+01  0.26823361311E+02  0.46954789687E+02  0.51100000000E-03 0.  1.
         22    1    1    0    0    0  0.75326695328E+01 -0.27283366702E+02 -0.67521866858E+01  0.29098371671E+02  0.00000000000E+00 0. -1.
</event>
<event>
 5    1  0.8907853E-005  0.9118800E+02  0.7818608E-02  0.1130116E+00
         25   -1    0    0    0    0  0.00000000000E+00  0.00000000000E+00  0.99999998245E-14  0.12500000000E+03  0.12500000000E+03 0.  0.
        -11    1    3    3    0    0 -0.19065692497E+02  0.17809044136E+02 -0.44604939509E+02  0.51674590587E+02  0.51100000000E-03 0.  1.
         23    2    1    0    0    0 -0.23831848065E+01  0.29960810587E+02 -0.76757065243E+01  0.93979906326E+02  0.88712888475E+02 0.  0.
         11    1    3    3    0    0  0.16682507690E+02  0.12151766452E+02  0.36929232985E+02  0.42305315740E+02  0.51100000000E-03 0. -1.
         22    1    1    0    0    0  0.23831848065E+01 -0.29960810587E+02  0.76757065243E+01  0.31020093674E+02  0.00000000000E+00 0. -1.
</event>
<event>
 5    1  0.8907853E-005  0.9118800E+02  0.7818608E-02  0.1130116E+00
         25   -1    0    0    0    0  0.00000000000E+00  0.00000000000E+00  0.99999998245E-14  0.12500000000E+03  0.12500000000E+03 0.  0.
        -11    1    3    3    0    0 -0.20225899993E+02 -0.42655275151E+02  0.77678347643E+01  0.47842437082E+02  0.51100000000E-03 0. -1.
         23    2    1    0    0    0  0.37549942252E+01 -0.96113120539E+01 -0.23543030707E+02  0.99294911090E+02  0.95909998292E+02 0.  0.
         11    1    3    3    0    0  0.23980894219E+02  0.33043963097E+02 -0.31310865471E+02  0.51452474008E+02  0.51100000000E-03 0.  1.
         22    1    1    0    0    0 -0.37549942252E+01  0.96113120539E+01  0.23543030707E+02  0.25705088910E+02  0.00000000000E+00 0.  1.
</event>
<event>
 5    1  0.8907853E-005  0.9118800E+02  0.7818608E-02  0.1130116E+00
         25   -1    0    0    0    0  0.00000000000E+00  0.00000000000E+00  0.99999998245E-14  0.12500000000E+03  0.12500000000E+03 0.  0.
        -11    1    3    3    0    0  0.25518017894E+02 -0.34571843176E+02  0.43185967938E+02  0.60921337845E+02  0.51100000000E-03 0. -1.
         23    2    1    0    0    0  0.18650016092E+02 -0.18907882437E+02  0.13437728993E+02  0.95235865896E+02  0.90465277726E+02 0.  0.
         11    1    3    3    0    0 -0.68680018023E+01  0.15663960740E+02 -0.29748238944E+02  0.34314528051E+02  0.51100000000E-03 0.  1.
         22    1    1    0    0    0 -0.18650016092E+02  0.18907882437E+02 -0.13437728993E+02  0.29764134104E+02  0.00000000000E+00 0. -1.
</event>
<event>
 5    1  0.8907853E-005  0.9118800E+02  0.7818608E-02  0.1130116E+00
         25   -1    0    0    0    0  0.00000000000E+00  0.00000000000E+00  0.99999998245E-14  0.12500000000E+03  0.12500000000E+03 0.  0.
        -11    1    3    3    0    0 -0.55034057622E+00 -0.41027783143E+02 -0.81811779644E+01  0.41839138824E+02  0.51100000000E-03 0. -1.
         23    2    1    0    0    0  0.28578916137E+02 -0.11840008845E+02  0.16543401067E+02  0.89919743788E+02  0.82794540563E+02 0.  0.
         11    1    3    3    0    0  0.29129256713E+02  0.29187774298E+02  0.24724579032E+02  0.48080604964E+02  0.51100000000E-03 0.  1.
         22    1    1    0    0    0 -0.28578916137E+02  0.11840008845E+02 -0.16543401067E+02  0.35080256212E+02  0.00000000000E+00 0. -1.
</event>
<event>
 5    1  0.8907853E-005  0.9118800E+02  0.7818608E-02  0.1130116E+00
         25   -1    0    0    0    0  0.00000000000E+00  0.00000000000E+00  0.99999998245E-14  0.12500000000E+03  0.12500000000E+03 0.  0.
        -11    1    3    3    0    0 -0.16054515526E+02 -0.35323164454E+02 -0.39612987176E+02  0.55449636329E+02  0.51100000000E-03 0. -1.
         23    2    1    0    0    0  0.13291182486E+02 -0.19142257366E+02 -0.20082058562E+02  0.94236862562E+02  0.89074214229E+02 0.  0.
         11    1    3    3    0    0  0.29345698012E+02  0.16180907088E+02  0.19530928614E+02  0.38787226232E+02  0.51100000000E-03 0.  1.
         22    1    1    0    0    0 -0.13291182486E+02  0.19142257366E+02  0.20082058562E+02  0.30763137438E+02  0.00000000000E+00 0. -1.
</event>
<event>
 5    1  0.8907853E-005  0.9118800E+02  0.7818608E-02  0.1130116E+00
         25   -1    0    0    0    0  0.00000000000E+00  0.00000000000E+00  0.99999998245E-14  0.12500000000E+03  0.12500000000E+03 0.  0.
        -11    1    3    3    0    0 -0.57720140560E+01  0.59888085229E+02 -0.88889503056E+00  0.60172161614E+02  0.51100000000E-03 0.  1.
         23    2    1    0    0    0 -0.11664649091E+02  0.28792517754E+02  0.77564702860E+01  0.92980694132E+02  0.87293605338E+02 0.  0.
         11    1    3    3    0    0 -0.58926350347E+01 -0.31095567475E+02  0.86453653166E+01  0.32808532518E+02  0.51100000000E-03 0. -1.
         22    1    1    0    0    0  0.11664649091E+02 -0.28792517754E+02 -0.77564702860E+01  0.32019305868E+02  0.00000000000E+00 0.  1.
</event>
<event>
 5    1  0.8907853E-005  0.9118800E+02  0.7818608E-02  0.1130116E+00
         25   -1    0    0    0    0  0.00000000000E+00  0.00000000000E+00  0.99999998245E-14  0.12500000000E+03  0.12500000000E+03 0.  0.
        -11    1    3    3    0    0  0.51600949048E+02 -0.10182570306E+01 -0.45203535613E+01  0.51808574450E+02  0.51100000000E-03 0.  1.
         23    2    1    0    0    0  0.26135970930E+02 -0.28164629138E+00  0.23622509994E+02  0.89769455305E+02  0.82567329049E+02 0.  0.
         11    1    3    3    0    0 -0.25464978118E+02  0.73661073918E+00  0.28142863555E+02  0.37960880855E+02  0.51100000000E-03 0. -1.
         22    1    1    0    0    0 -0.26135970930E+02  0.28164629138E+00 -0.23622509994E+02  0.35230544695E+02  0.00000000000E+00 0. -1.
</event>
<event>
 5    1  0.8907853E-005  0.9118800E+02  0.7818608E-02  0.1130116E+00
         25   -1    0    0    0    0  0.00000000000E+00  0.00000000000E+00  0.99999998245E-14  0.12500000000E+03  0.12500000000E+03 0.  0.
        -11    1    3    3    0    0 -0.11027908314E+01  0.17728333007E+02  0.31366868054E+02  0.36047057448E+02  0.51100000000E-03 0. -1.
         23    2    1    0    0    0  0.58244593029E+01 -0.28664435975E+02 -0.49038439260E+01  0.95341579590E+02  0.90611229423E+02 0.  0.
         11    1    3    3    0    0  0.69272501343E+01 -0.46392768983E+02 -0.36270711980E+02  0.59294522143E+02  0.51100000000E-03 0.  1.
         22    1    1    0    0    0 -0.58244593029E+01  0.28664435975E+02  0.49038439260E+01  0.29658420410E+02  0.00000000000E+00 0.  1.
</event>
<event>
 5    1  0.8907853E-005  0.9118800E+02  0.7818608E-02  0.1130116E+00
         25   -1    0    0    0    0  0.00000000000E+00  0.00000000000E+00  0.99999998245E-14  0.12500000000E+03  0.12500000000E+03 0.  0.
        -11    1    3    3    0    0 -0.38826805047E+02 -0.25561668356E+02 -0.15240569565E+02  0.48920288635E+02  0.51100000000E-03 0.  1.
         23    2    1    0    0    0 -0.25014025106E+02  0.10612898682E+01  0.18354772384E+02  0.93956072132E+02  0.88679298786E+02 0.  0.
         11    1    3    3    0    0  0.13812779941E+02  0.26622958224E+02  0.33595341949E+02  0.45035783497E+02  0.51100000000E-03 0. -1.
         22    1    1    0    0    0  0.25014025106E+02 -0.10612898682E+01 -0.18354772384E+02  0.31043927868E+02  0.00000000000E+00 0. -1.
</event>
<event>
 5    1  0.8907853E-005  0.9118800E+02  0.7818608E-02  0.1130116E+00
         25   -1    0    0    0    0  0.00000000000E+00  0.00000000000E+00  0.99999998245E-14  0.12500000000E+03  0.12500000000E+03 0.  0.
        -11    1    3    3    0    0  0.44547589437E+02  0.19954168720E+01  0.17357784839E+02  0.47851458786E+02  0.51100000000E-03 0. -1.
         23    2    1    0    0    0 -0.65230465296E+01  0.14800562860E+02  0.18384964810E+02  0.10051298858E+03  0.97484599533E+02 0.  0.
         11    1    3    3    0    0 -0.51070635967E+02  0.12805145988E+02  0.10271799714E+01  0.52661529799E+02  0.51100000000E-03 0.  1.
         22    1    1    0    0    0  0.65230465296E+01 -0.14800562860E+02 -0.18384964810E+02  0.24487011416E+02  0.00000000000E+00 0.  1.
</event>
<event>
 5    1  0.8907853E-005  0.9118800E+02  0.7818608E-02  0.1130116E+00
         25   -1    0    0    0    0  0.00000000000E+00  0.00000000000E+00  0.99999998245E-14  0.12500000000E+03  0.12500000000E+03 0.  0.
        -11    1    3    3    0    0 -0.43957273258E+02  0.14148050194E+02 -0.10643113692E+02  0.47388659676E+02  0.51100000000E-03 0. -1.
         23    2    1    0    0    0 -0.15471792380E+02 -0.22883259601E+02  0.55308667285E+01  0.96828908147E+02  0.92640310000E+02 0.  0.
         11    1    3    3    0    0  0.28485480878E+02 -0.37031309795E+02  0.16173980420E+02  0.49440248471E+02  0.51100000000E-03 0.  1.
         22    1    1    0    0    0  0.15471792380E+02  0.22883259601E+02 -0.55308667285E+01  0.28171091853E+02  0.00000000000E+00 0. -1.
</event>
<event>
 5    1  0.8907853E-005  0.9118800E+02  0.7818608E-02  0.1130116E+00
         25   -1    0    0    0    0  0.00000000000E+00  0.00000000000E+00  0.99999998245E-14  0.12500000000E+03  0.12500000000E+03 0.  0.
        -11    1    3    3    0    0 -0.12945673625E+02 -0.21890742924E+02  0.21258005740E+02  0.33146612191E+02  0.51100000000E-03 0. -1.
         23    2    1    0    0    0  0.15815116246E+02  0.23647979244E+02 -0.92969281839E+01  0.95070454433E+02  0.90236431713E+02 0.  0.
         11    1    3    3    0    0  0.28760789871E+02  0.45538722168E+02 -0.30554933924E+02  0.61923842243E+02  0.51100000000E-03 0.  1.
         22    1    1    0    0    0 -0.15815116246E+02 -0.23647979244E+02  0.92969281839E+01  0.29929545567E+02  0.00000000000E+00 0.  1.
</event>
<event>
 5    1  0.8907853E-005  0.9118800E+02  0.7818608E-02  0.1130116E+00
         25   -1    0    0    0    0  0.00000000000E+00  0.00000000000E+00  0.99999998245E-14  0.12500000000E+03  0.12500000000E+03 0.  0.
        -11    1    3    3    0    0 -0.56172382622E+02  0.21433427247E+02  0.14774389315E+02  0.61911315225E+02  0.51100000000E-03 0. -1.
         23    2    1    0    0    0 -0.24226390917E+02  0.99021291624E+01  0.12623341595E+02  0.95942833383E+02  0.91436909100E+02 0.  0.
         11    1    3    3    0    0  0.31945991705E+02 -0.11531298085E+02 -0.21510477207E+01  0.34031518158E+02  0.51100000000E-03 0.  1.
         22    1    1    0    0    0  0.24226390917E+02 -0.99021291624E+01 -0.12623341595E+02  0.29057166617E+02  0.00000000000E+00 0. -1.
</event>
<event>
 5    1  0.8907853E-005  0.9118800E+02  0.7818608E-02  0.1130116E+00
         25   -1    0    0    0    0  0.00000000000E+00  0.00000000000E+00  0.99999998245E-14  0.12500000000E+03  0.12500000000E+03 0.  0.
        -11    1    3    3    0    0  0.25029696736E+02 -0.21874762969E+01  0.22489954732E+02  0.33720451292E+02  0.51100000000E-03 0. -1.
         23    2    1    0    0    0 -0.16551219634E+02 -0.94665872342E+01 -0.22562830642E+02  0.95459511314E+02  0.90773772801E+02 0.  0.
         11    1    3    3    0    0 -0.41580916370E+02 -0.72791109373E+01 -0.45052785374E+02  0.61739060022E+02  0.51100000000E-03 0.  1.
         22    1    1    0    0    0  0.16551219634E+02  0.94665872342E+01  0.22562830642E+02  0.29540488686E+02  0.00000000000E+00 0.  1.
</event>
<event>
 5    1  0.8907853E-005  0.9118800E+02  0.7818608E-02  0.1130116E+00
         25   -1    0    0    0    0  0.00000000000E+00  0.00000000000E+00  0.99999998245E-14  0.12500000000E+03  0.12500000000E+03 0.  0.
        -11    1    3    3    0    0 -0.49409001262E+02  0.35475472259E+02  0.10646348097E+02  0.61750330086E+02  0.51100000000E-03 0.  1.
         23    2    1    0    0    0 -0.25290089960E+02  0.12084805057E+02  0.80635655874E-01  0.96970771228E+02  0.92831529165E+02 0.  0.
         11    1    3    3    0    0  0.24118911302E+02 -0.23390667202E+02 -0.10565712441E+02  0.35220441142E+02  0.51100000000E-03 0. -1.
         22    1    1    0    0    0  0.25290089960E+02 -0.12084805057E+02 -0.80635655874E-01  0.28029228772E+02  0.00000000000E+00 0.  1.
</event>
<event>
 5    1  0.8907853E-005  0.9118800E+02  0.7818608E-02  0.1130116E+00
         25   -1    0    0    0    0  0.00000000000E+00  0.00000000000E+00  0.99999998245E-14  0.12500000000E+03  0.12500000000E+03 0.  0.
        -11    1    3    3    0    0 -0.61798631009E+01  0.17889070514E+02  0.52441187213E+02  0.55752019410E+02  0.51100000000E-03 0.  1.
         23    2    1    0    0    0  0.15745324002E+02  0.16560983233E+02  0.22094191847E+02  0.93214237355E+02  0.87627389204E+02 0.  0.
         11    1    3    3    0    0  0.21925187103E+02 -0.13280872814E+01 -0.30346995366E+02  0.37462217944E+02  0.51100000000E-03 0. -1.
         22    1    1    0    0    0 -0.15745324002E+02 -0.16560983233E+02 -0.22094191847E+02  0.31785762645E+02  0.00000000000E+00 0.  1.
</event>
<event>
 5    1  0.8907853E-005  0.9118800E+02  0.7818608E-02  0.1130116E+00
         25   -1    0    0    0    0  0.00000000000E+00  0.00000000000E+00  0.99999998245E-14  0.12500000000E+03  0.12500000000E+03 0.  0.
        -11    1    3    3    0    0  0.97983805557E+00 -0.54086249952E+02 -0.91383888377E+01  0.54861577332E+02  0.51100000000E-03 0.  1.
         23    2    1    0    0    0 -0.17545062393E+02 -0.17519415671E+02 -0.14617293203E+02  0.96217637339E+02  0.91811814788E+02 0.  0.
         11    1    3    3    0    0 -0.18524900448E+02  0.36566834281E+02 -0.54789043648E+01  0.41356060007E+02  0.51100000000E-03 0. -1.
         22    1    1    0    0    0  0.17545062393E+02  0.17519415671E+02  0.14617293203E+02  0.28782362661E+02  0.00000000000E+00 0.  1.
</event>
<event>
 5    1  0.8907853E-005  0.9118800E+02  0.7818608E-02  0.1130116E+00
         25   -1    0    0    0    0  0.00000000000E+00  0.00000000000E+00  0.99999998245E-14  0.12500000000E+03  0.12500000000E+03 0.  0.
        -11    1    3    3    0    0  0.64530121082E+01  0.40475614553E+02  0.33832724151E+02  0.53146683457E+02  0.51100000000E-03 0. -1.
         23    2    1    0    0    0  0.24762351511E+02  0.91181543746E+01  0.90742016659E+01  0.97095593046E+02  0.92999453018E+02 0.  0.
         11    1    3    3    0    0  0.18309339403E+02 -0.31357460179E+02 -0.24758522485E+02  0.43948909590E+02  0.51100000000E-03 0.  1.
         22    1    1    0    0    0 -0.24762351511E+02 -0.91181543746E+01 -0.90742016659E+01  0.27904406954E+02  0.00000000000E+00 0. -1.
</event>
<event>
 5    1  0.8907853E-005  0.9118800E+02  0.7818608E-02  0.1130116E+00
         25   -1    0    0    0    0  0.00000000000E+00  0.00000000000E+00  0.99999998245E-14  0.12500000000E+03  0.12500000000E+03 0.  0.
        -11    1    3    3    0    0  0.12563991432E+02 -0.40702492598E+02 -0.36054238482E+02  0.55807301468E+02  0.51100000000E-03 0. -1.
         23    2    1    0    0    0 -0.14876240763E+02 -0.18525075571E+02 -0.13712492461E+02  0.97568022061E+02  0.93632288850E+02 0.  0.
         11    1    3    3    0    0 -0.27440232195E+02  0.22177417027E+02  0.22341746021E+02  0.41760720593E+02  0.51100000000E-03 0.  1.
         22    1    1    0    0    0  0.14876240763E+02  0.18525075571E+02  0.13712492461E+02  0.27431977939E+02  0.00000000000E+00 0. -1.
</event>
<event>
 5    1  0.8907853E-005  0.9118800E+02  0.7818608E-02  0.1130116E+00
         25   -1    0    0    0    0  0.00000000000E+00  0.00000000000E+00  0.99999998245E-14  0.12500000000E+03  0.12500000000E+03 0.  0.
        -11    1    3    3    0    0  0.20203695872E+02  0.34423291326E+01  0.57949255570E+02  0.61466699750E+02  0.51100000000E-03 0.  1.
         23    2    1    0    0    0  0.14130590847E+02 -0.40618377756E+01  0.23187923341E+02  0.97543636209E+02  0.93599727842E+02 0.  0.
         11    1    3    3    0    0 -0.60731050248E+01 -0.75041669082E+01 -0.34761332229E+02  0.36076936459E+02  0.51100000000E-03 0. -1.
         22    1    1    0    0    0 -0.14130590847E+02  0.40618377756E+01 -0.23187923341E+02  0.27456363791E+02  0.00000000000E+00 0.  1.
</event>
<event>
 5    1  0.8907853E-005  0.9118800E+02  0.7818608E-02  0.1130116E+00
         25   -1    0    0    0    0  0.00000000000E+00  0.00000000000E+00  0.99999998245E-14  0.12500000000E+03  0.12500000000E+03 0.  0.
        -11    1    3    3    0    0 -0.15170025503E+02  0.59522656037E+02  0.45546630747E+01  0.61594003048E+02  0.51100000000E-03 0.  1.
         23    2    1    0    0    0 -0.19874311898E+01  0.33228010691E+02  0.65446245829E+01  0.91075338054E+02  0.84521207478E+02 0.  0.
         11    1    3    3    0    0  0.13182594313E+02 -0.26294645346E+02  0.19899615083E+01  0.29481335006E+02  0.51100000000E-03 0. -1.
         22    1    1    0    0    0  0.19874311898E+01 -0.33228010691E+02 -0.65446245829E+01  0.33924661946E+02  0.00000000000E+00 0.  1.
</event>
<event>
 5    1  0.8907853E-005  0.9118800E+02  0.7818608E-02  0.1130116E+00
         25   -1    0    0    0    0  0.00000000000E+00  0.00000000000E+00  0.99999998245E-14  0.12500000000E+03  0.12500000000E+03 0.  0.
        -11    1    3    3    0    0  0.27120221190E+02  0.77038876835E+01 -0.51521029095E+02  0.58730509295E+02  0.51100000000E-03 0. -1.
         23    2    1    0    0    0  0.17140274977E+02  0.19313247051E+02 -0.26988299001E+02  0.87648175133E+02  0.79290880833E+02 0.  0.
         11    1    3    3    0    0 -0.99799462125E+01  0.11609359368E+02  0.24532730094E+02  0.28917665837E+02  0.51100000000E-03 0.  1.
         22    1    1    0    0    0 -0.17140274977E+02 -0.19313247051E+02  0.26988299001E+02  0.37351824867E+02  0.00000000000E+00 0. -1.
</event>
<event>
 5    1  0.8907853E-005  0.9118800E+02  0.7818608E-02  0.1130116E+00
         25   -1    0    0    0    0  0.00000000000E+00  0.00000000000E+00  0.99999998245E-14  0.12500000000E+03  0.12500000000E+03 0.  0.
        -11    1    3    3    0    0 -0.14854020723E+02  0.27958564731E+02  0.29182008203E+02  0.43057088574E+02  0.51100000000E-03 0.  1.
         23    2    1    0    0    0  0.17734717903E+02 -0.12321473809E+02  0.19779874702E+02  0.95715492506E+02  0.91125589855E+02 0.  0.
         11    1    3    3    0    0  0.32588738626E+02 -0.40280038540E+02 -0.94021335006E+01  0.52658403932E+02  0.51100000000E-03 0. -1.
         22    1    1    0    0    0 -0.17734717903E+02  0.12321473809E+02 -0.19779874702E+02  0.29284507494E+02  0.00000000000E+00 0. -1.
</event>
<event>
 5    1  0.8907853E-005  0.9118800E+02  0.7818608E-02  0.1130116E+00
         25   -1    0    0    0    0  0.00000000000E+00  0.00000000000E+00  0.99999998245E-14  0.12500000000E+03  0.12500000000E+03 0.  0.
        -11    1    3    3    0    0  0.33342845477E+02  0.19055942667E+02  0.32556240358E+02  0.50346629301E+02  0.51100000000E-03 0.  1.
         23    2    1    0    0    0  0.28297880820E+02 -0.10479089480E+02 -0.31224251488E+00  0.94822543669E+02  0.89892357391E+02 0.  0.
         11    1    3    3    0    0 -0.50449646578E+01 -0.29535032147E+02 -0.32868482873E+02  0.44475914368E+02  0.51100000000E-03 0. -1.
         22    1    1    0    0    0 -0.28297880820E+02  0.10479089480E+02  0.31224251488E+00  0.30177456331E+02  0.00000000000E+00 0. -1.
</event>
<event>
 5    1  0.8907853E-005  0.9118800E+02  0.7818608E-02  0.1130116E+00
         25   -1    0    0    0    0  0.00000000000E+00  0.00000000000E+00  0.99999998245E-14  0.12500000000E+03  0.12500000000E+03 0.  0.
        -11    1    3    3    0    0  0.32887666946E+02  0.11813990789E+02  0.25508752151E+02  0.43265060407E+02  0.51100000000E-03 0. -1.
         23    2    1    0    0    0  0.15450754050E+02  0.15270310434E+01 -0.23808700772E+02  0.96576209665E+02  0.92298712972E+02 0.  0.
         11    1    3    3    0    0 -0.17436912896E+02 -0.10286959745E+02 -0.49317452923E+02  0.53311149258E+02  0.51100000000E-03 0.  1.
         22    1    1    0    0    0 -0.15450754050E+02 -0.15270310434E+01  0.23808700772E+02  0.28423790335E+02  0.00000000000E+00 0.  1.
</event>
<event>
 5    1  0.8907853E-005  0.9118800E+02  0.7818608E-02  0.1130116E+00
         25   -1    0    0    0    0  0.00000000000E+00  0.00000000000E+00  0.99999998245E-14  0.12500000000E+03  0.12500000000E+03 0.  0.
        -11    1    3    3    0    0 -0.52460764135E+02  0.14992011756E+01 -0.55532526110E+01  0.52775164544E+02  0.51100000000E-03 0. -1.
         23    2    1    0    0    0 -0.17808089375E+02 -0.22117934830E+02 -0.98826435617E+01  0.94933444957E+02  0.90046439349E+02 0.  0.
         11    1    3    3    0    0  0.34652674760E+02 -0.23617136006E+02 -0.43293909508E+01  0.42158280413E+02  0.51100000000E-03 0.  1.
         22    1    1    0    0    0  0.17808089375E+02  0.22117934830E+02  0.98826435617E+01  0.30066555043E+02  0.00000000000E+00 0. -1.
</event>
<event>
 5    1  0.8907853E-005  0.9118800E+02  0.7818608E-02  0.1130116E+00
         25   -1    0    0    0    0  0.00000000000E+00  0.00000000000E+00  0.99999998245E-14  0.12500000000E+03  0.12500000000E+03 0.  0.
        -11    1    3    3    0    0 -0.31543402801E+02  0.11527811832E+02 -0.30619938564E+02  0.45447302932E+02  0.51100000000E-03 0.  1.
         23    2    1    0    0    0  0.49800300827E+01 -0.22745995171E+02 -0.11125829495E+02  0.99193700810E+02  0.95777999574E+02 0.  0.
         11    1    3    3    0    0  0.36523432884E+02 -0.34273807003E+02  0.19494109069E+02  0.53746397877E+02  0.51100000000E-03 0. -1.
         22    1    1    0    0    0 -0.49800300827E+01  0.22745995171E+02  0.11125829495E+02  0.25806299190E+02  0.00000000000E+00 0. -1.
</event>
<event>
 5    1  0.8907853E-005  0.9118800E+02  0.7818608E-02  0.1130116E+00
         25   -1    0    0    0    0  0.00000000000E+00  0.00000000000E+00  0.99999998245E-14  0.12500000000E+03  0.12500000000E+03 0.  0.
        -11    1    3    3    0    0 -0.40129174076E+02 -0.42737780253E+02 -0.75403448081E+01  0.59107742920E+02  0.51100000000E-03 0.  1.
         23    2    1    0    0    0 -0.83388103838E+01 -0.24282463756E+02 -0.12919502459E+02  0.96258264693E+02  0.91867111488E+02 0.  0.
         11    1    3    3    0    0  0.31790363692E+02  0.18455316497E+02 -0.53791576512E+01  0.37150521773E+02  0.51100000000E-03 0. -1.
         22    1    1    0    0    0  0.83388103838E+01  0.24282463756E+02  0.12919502459E+02  0.28741735307E+02  0.00000000000E+00 0.  1.
</event>
<event>
 5    1  0.8907853E-005  0.9118800E+02  0.7818608E-02  0.1130116E+00
         25   -1    0    0    0    0  0.00000000000E+00  0.00000000000E+00  0.99999998245E-14  0.12500000000E+03  0.12500000000E+03 0.  0.
        -11    1    3    3    0    0 -0.31543786004E+02  0.17526131687E+02 -0.25813845581E+02  0.44368123144E+02  0.51100000000E-03 0.  1.
         23    2    1    0    0    0 -0.12406016919E+02 -0.25858741336E+02 -0.63561220014E+01  0.95623409895E+02  0.90999189413E+02 0.  0.
         11    1    3    3    0    0  0.19137769085E+02 -0.43384873024E+02  0.19457723580E+02  0.51255286752E+02  0.51100000000E-03 0. -1.
         22    1    1    0    0    0  0.12406016919E+02  0.25858741336E+02  0.63561220014E+01  0.29376590105E+02  0.00000000000E+00 0. -1.
</event>
<event>
 5    1  0.8907853E-005  0.9118800E+02  0.7818608E-02  0.1130116E+00
         25   -1    0    0    0    0  0.00000000000E+00  0.00000000000E+00  0.99999998245E-14  0.12500000000E+03  0.12500000000E+03 0.  0.
        -11    1    3    3    0    0  0.30092281936E+00  0.34071557081E+02 -0.30342892728E+01  0.34207725269E+02  0.51100000000E-03 0. -1.
         23    2    1    0    0    0  0.14962003165E+02 -0.14849001844E+02  0.24865327683E+02  0.92401857181E+02  0.86460767376E+02 0.  0.
         11    1    3    3    0    0  0.14661080345E+02 -0.48920558925E+02  0.27899616956E+02  0.58194131912E+02  0.51100000000E-03 0.  1.
         22    1    1    0    0    0 -0.14962003165E+02  0.14849001844E+02 -0.24865327683E+02  0.32598142819E+02  0.00000000000E+00 0.  1.
</event>
<event>
 5    1  0.8907853E-005  0.9118800E+02  0.7818608E-02  0.1130116E+00
         25   -1    0    0    0    0  0.00000000000E+00  0.00000000000E+00  0.99999998245E-14  0.12500000000E+03  0.12500000000E+03 0.  0.
        -11    1    3    3    0    0 -0.26532046238E+02  0.42640670020E+02  0.12873052156E+02  0.51844881034E+02  0.51100000000E-03 0. -1.
         23    2    1    0    0    0  0.14151463803E+02  0.22345555357E+02  0.65899972275E+01  0.97741683187E+02  0.93863841797E+02 0.  0.
         11    1    3    3    0    0  0.40683510041E+02 -0.20295114663E+02 -0.62830549282E+01  0.45896802154E+02  0.51100000000E-03 0.  1.
         22    1    1    0    0    0 -0.14151463803E+02 -0.22345555357E+02 -0.65899972275E+01  0.27258316813E+02  0.00000000000E+00 0. -1.
</event>
<event>
 5    1  0.8907853E-005  0.9118800E+02  0.7818608E-02  0.1130116E+00
         25   -1    0    0    0    0  0.00000000000E+00  0.00000000000E+00  0.99999998245E-14  0.12500000000E+03  0.12500000000E+03 0.  0.
        -11    1    3    3    0    0  0.85217555946E+01  0.29715963975E+02 -0.77556356293E+01  0.31871754229E+02  0.51100000000E-03 0.  1.
         23    2    1    0    0    0  0.60509914539E+01 -0.15812742621E+02  0.29655916334E+02  0.90851344091E+02  0.84189286865E+02 0.  0.
         11    1    3    3    0    0 -0.24707641407E+01 -0.45528706596E+02  0.37411551963E+02  0.58979589862E+02  0.51100000000E-03 0. -1.
         22    1    1    0    0    0 -0.60509914539E+01  0.15812742621E+02 -0.29655916334E+02  0.34148655909E+02  0.00000000000E+00 0. -1.
</event>
<event>
 5    1  0.8907853E-005  0.9118800E+02  0.7818608E-02  0.1130116E+00
         25   -1    0    0    0    0  0.00000000000E+00  0.00000000000E+00  0.99999998245E-14  0.12500000000E+03  0.12500000000E+03 0.  0.
        -11    1    3    3    0    0 -0.42999521135E+02  0.18038977025E+02  0.68349293083E+01  0.47128332974E+02  0.51100000000E-03 0.  1.
         23    2    1    0    0    0 -0.17836753276E+02 -0.74657215499E+01 -0.23847102543E+02  0.94298679745E+02  0.89160921576E+02 0.  0.
         11    1    3    3    0    0  0.25162767860E+02 -0.25504698575E+02 -0.30682031852E+02  0.47170346771E+02  0.51100000000E-03 0. -1.
         22    1    1    0    0    0  0.17836753276E+02  0.74657215499E+01  0.23847102543E+02  0.30701320255E+02  0.00000000000E+00 0.  1.
</event>
<event>
 5    1  0.8907853E-005  0.9118800E+02  0.7818608E-02  0.1130116E+00
         25   -1    0    0    0    0  0.00000000000E+00  0.00000000000E+00  0.99999998245E-14  0.12500000000E+03  0.12500000000E+03 0.  0.
        -11    1    3    3    0    0  0.31583849821E+02 -0.23627975839E+02  0.17073092216E+01  0.39480827205E+02  0.51100000000E-03 0.  1.
         23    2    1    0    0    0 -0.22450576776E+01  0.15894443660E+02 -0.22903200969E+02  0.97031620750E+02  0.92913428456E+02 0.  0.
         11    1    3    3    0    0 -0.33828907499E+02  0.39522419498E+02 -0.24610510191E+02  0.57550793545E+02  0.51100000000E-03 0. -1.
         22    1    1    0    0    0  0.22450576776E+01 -0.15894443660E+02  0.22903200969E+02  0.27968379250E+02  0.00000000000E+00 0. -1.
</event>
<event>
 5    1  0.8907853E-005  0.9118800E+02  0.7818608E-02  0.1130116E+00
         25   -1    0    0    0    0  0.00000000000E+00  0.00000000000E+00  0.99999998245E-14  0.12500000000E+03  0.12500000000E+03 0.  0.
        -11    1    3    3    0    0 -0.31948558475E+01 -0.24822556421E+02 -0.43763447786E+02  0.50414340951E+02  0.51100000000E-03 0.  1.
         23    2    1    0    0    0  0.19981909848E+02  0.63646951042E+01 -0.20343323241E+02  0.95782935373E+02  0.91218056563E+02 0.  0.
         11    1    3    3    0    0  0.23176765696E+02  0.31187251525E+02  0.23420124545E+02  0.45368594421E+02  0.51100000000E-03 0. -1.
         22    1    1    0    0    0 -0.19981909848E+02 -0.63646951042E+01  0.20343323241E+02  0.29217064627E+02  0.00000000000E+00 0.  1.
</event>
<event>
 5    1  0.8907853E-005  0.9118800E+02  0.7818608E-02  0.1130116E+00
         25   -1    0    0    0    0  0.00000000000E+00  0.00000000000E+00  0.99999998245E-14  0.12500000000E+03  0.12500000000E+03 0.  0.
        -11    1    3    3    0    0 -0.38909443295E+02  0.31549941766E+02 -0.33739547334E+02  0.60396197376E+02  0.51100000000E-03 0.  1.
         23    2    1    0    0    0 -0.25945223938E+02  0.70567858119E+01 -0.12307600957E+02  0.95429238892E+02  0.90732076594E+02 0.  0.
         11    1    3    3    0    0  0.12964219357E+02 -0.24493155954E+02  0.21431946377E+02  0.35033041516E+02  0.51100000000E-03 0. -1.
         22    1    1    0    0    0  0.25945223938E+02 -0.70567858119E+01  0.12307600957E+02  0.29570761108E+02  0.00000000000E+00 0.  1.
</event>
<event>
 5    1  0.8907853E-005  0.9118800E+02  0.7818608E-02  0.1130116E+00
         25   -1    0    0    0    0  0.00000000000E+00  0.00000000000E+00  0.99999998245E-14  0.12500000000E+03  0.12500000000E+03 0.  0.
        -11    1    3    3    0    0 -0.95946192020E+01  0.49518356060E+02  0.31318846559E+02  0.59371663734E+02  0.51100000000E-03 0. -1.
         23    2    1    0    0    0 -0.98546157199E+01  0.14290391814E+02  0.24045182305E+02  0.95343642482E+02  0.90614075178E+02 0.  0.
         11    1    3    3    0    0 -0.25999651790E+00 -0.35227964246E+02 -0.72736642542E+01  0.35971978748E+02  0.51100000000E-03 0.  1.
         22    1    1    0    0    0  0.98546157199E+01 -0.14290391814E+02 -0.24045182305E+02  0.29656357518E+02  0.00000000000E+00 0. -1.
</event>
<event>
 5    1  0.8907853E-005  0.9118800E+02  0.7818608E-02  0.1130116E+00
         25   -1    0    0    0    0  0.00000000000E+00  0.00000000000E+00  0.99999998245E-14  0.12500000000E+03  0.12500000000E+03 0.  0.
        -11    1    3    3    0    0 -0.48280466316E+02 -0.23264561906E+02 -0.11983697225E+02  0.54916775833E+02  0.51100000000E-03 0. -1.
         23    2    1    0    0    0 -0.11104516442E+02 -0.15891072393E+02 -0.23507100091E+02  0.94530011128E+02  0.89484651097E+02 0.  0.
         11    1    3    3    0    0  0.37175949874E+02  0.73734895132E+01 -0.11523402866E+02  0.39613235295E+02  0.51100000000E-03 0.  1.
         22    1    1    0    0    0  0.11104516442E+02  0.15891072393E+02  0.23507100091E+02  0.30469988872E+02  0.00000000000E+00 0.  1.
</event>
<event>
 5    1  0.8907853E-005  0.9118800E+02  0.7818608E-02  0.1130116E+00
         25   -1    0    0    0    0  0.00000000000E+00  0.00000000000E+00  0.99999998245E-14  0.12500000000E+03  0.12500000000E+03 0.  0.
        -11    1    3    3    0    0 -0.31543513651E+02  0.43788268471E+01 -0.27915078798E+02  0.42348778053E+02  0.51100000000E-03 0.  1.
         23    2    1    0    0    0 -0.14652766794E+02  0.13964357478E+02  0.21516739769E+02  0.95458893982E+02  0.90772922699E+02 0.  0.
         11    1    3    3    0    0  0.16890746856E+02  0.95855306310E+01  0.49431818567E+02  0.53110115929E+02  0.51100000000E-03 0. -1.
         22    1    1    0    0    0  0.14652766794E+02 -0.13964357478E+02 -0.21516739769E+02  0.29541106018E+02  0.00000000000E+00 0. -1.
</event>
<event>
 5    1  0.8907853E-005  0.9118800E+02  0.7818608E-02  0.1130116E+00
         25   -1    0    0    0    0  0.00000000000E+00  0.00000000000E+00  0.99999998245E-14  0.12500000000E+03  0.12500000000E+03 0.  0.
        -11    1    3    3    0    0 -0.44600027900E+02 -0.28691235416E+02 -0.24167682236E+02  0.58278867039E+02  0.51100000000E-03 0.  1.
         23    2    1    0    0    0 -0.18700663844E+02 -0.19525589570E+01 -0.22687757810E+02  0.95533719795E+02  0.90875904115E+02 0.  0.
         11    1    3    3    0    0  0.25899364057E+02  0.26738676459E+02  0.14799244256E+01  0.37254852756E+02  0.51100000000E-03 0. -1.
         22    1    1    0    0    0  0.18700663844E+02  0.19525589570E+01  0.22687757810E+02  0.29466280205E+02  0.00000000000E+00 0.  1.
</event>
<event>
 5    1  0.8907853E-005  0.9118800E+02  0.7818608E-02  0.1130116E+00
         25   -1    0    0    0    0  0.00000000000E+00  0.00000000000E+00  0.99999998245E-14  0.12500000000E+03  0.12500000000E+03 0.  0.
        -11    1    3    3    0    0 -0.15915667948E+02  0.13494532828E+02  0.47403256903E+02  0.51792660366E+02  0.51100000000E-03 0. -1.
         23    2    1    0    0    0 -0.14015491488E+02 -0.16837519086E+02  0.77299449769E+01  0.10176881191E+03  0.99081799429E+02 0.  0.
         11    1    3    3    0    0  0.19001764599E+01 -0.30332051914E+02 -0.39673311926E+02  0.49976151546E+02  0.51100000000E-03 0.  1.
         22    1    1    0    0    0  0.14015491488E+02  0.16837519086E+02 -0.77299449769E+01  0.23231188088E+02  0.00000000000E+00 0.  1.
</event>
<event>
 5    1  0.8907853E-005  0.9118800E+02  0.7818608E-02  0.1130116E+00
         25   -1    0    0    0    0  0.00000000000E+00  0.00000000000E+00  0.99999998245E-14  0.12500000000E+03  0.12500000000E+03 0.  0.
        -11    1    3    3    0    0 -0.66258751166E+01 -0.77768187922E+01 -0.22449220329E+02  0.24664724308E+02  0.51100000000E-03 0.  1.
         23    2    1    0    0    0 -0.13394304504E+02 -0.19031921310E+02  0.34652711736E+02  0.83257553348E+02  0.72037409288E+02 0.  0.
         11    1    3    3    0    0 -0.67684293877E+01 -0.11255102518E+02  0.57101932064E+02  0.58592829039E+02  0.51100000000E-03 0. -1.
         22    1    1    0    0    0  0.13394304504E+02  0.19031921310E+02 -0.34652711736E+02  0.41742446652E+02  0.00000000000E+00 0. -1.
</event>
<event>
 5    1  0.8907853E-005  0.9118800E+02  0.7818608E-02  0.1130116E+00
         25   -1    0    0    0    0  0.00000000000E+00  0.00000000000E+00  0.99999998245E-14  0.12500000000E+03  0.12500000000E+03 0.  0.
        -11    1    3    3    0    0  0.30363193985E+02 -0.28639597702E+02  0.11686801730E+02  0.43344335736E+02  0.51100000000E-03 0. -1.
         23    2    1    0    0    0  0.18468106061E+02  0.21157664792E+02 -0.33792643306E+01  0.96713304393E+02  0.92484193775E+02 0.  0.
         11    1    3    3    0    0 -0.11895087924E+02  0.49797262495E+02 -0.15066066060E+02  0.53368968657E+02  0.51100000000E-03 0.  1.
         22    1    1    0    0    0 -0.18468106061E+02 -0.21157664792E+02  0.33792643306E+01  0.28286695607E+02  0.00000000000E+00 0.  1.
</event>
<event>
 5    1  0.8907853E-005  0.9118800E+02  0.7818608E-02  0.1130116E+00
         25   -1    0    0    0    0  0.00000000000E+00  0.00000000000E+00  0.99999998245E-14  0.12500000000E+03  0.12500000000E+03 0.  0.
        -11    1    3    3    0    0 -0.30512719119E+01 -0.44247733794E+02  0.18174800109E+02  0.47932197586E+02  0.51100000000E-03 0.  1.
         23    2    1    0    0    0  0.12088402102E+02  0.11766264666E+02  0.39449468818E+01  0.10767553593E+03  0.10627268690E+03 0.  0.
         11    1    3    3    0    0  0.15139674014E+02  0.56013998460E+02 -0.14229853227E+02  0.59743338339E+02  0.51100000000E-03 0. -1.
         22    1    1    0    0    0 -0.12088402102E+02 -0.11766264666E+02 -0.39449468818E+01  0.17324464075E+02  0.00000000000E+00 0. -1.
</event>
<event>
 5    1  0.8907853E-005  0.9118800E+02  0.7818608E-02  0.1130116E+00
         25   -1    0    0    0    0  0.00000000000E+00  0.00000000000E+00  0.99999998245E-14  0.12500000000E+03  0.12500000000E+03 0.  0.
        -11    1    3    3    0    0  0.47147391595E+01 -0.29228536501E+02  0.16233553614E+02  0.33764839324E+02  0.51100000000E-03 0. -1.
         23    2    1    0    0    0  0.15720990480E+02  0.22196201545E+02 -0.13982594860E+02  0.94416771529E+02  0.89326328046E+02 0.  0.
         11    1    3    3    0    0  0.11006251321E+02  0.51424738047E+02 -0.30216148475E+02  0.60651932205E+02  0.51100000000E-03 0.  1.
         22    1    1    0    0    0 -0.15720990480E+02 -0.22196201545E+02  0.13982594860E+02  0.30583228471E+02  0.00000000000E+00 0.  1.
</event>
<event>
 5    1  0.8907853E-005  0.9118800E+02  0.7818608E-02  0.1130116E+00
         25   -1    0    0    0    0  0.00000000000E+00  0.00000000000E+00  0.99999998245E-14  0.12500000000E+03  0.12500000000E+03 0.  0.
        -11    1    3    3    0    0 -0.17929551044E+02  0.40462336563E+01 -0.38920537804E+02  0.43042410139E+02  0.51100000000E-03 0.  1.
         23    2    1    0    0    0  0.23313848436E+02  0.16892268735E+02 -0.13093174258E+02  0.93372235550E+02  0.87852483673E+02 0.  0.
         11    1    3    3    0    0  0.41243399480E+02  0.12846035079E+02  0.25827363546E+02  0.50329825411E+02  0.51100000000E-03 0. -1.
         22    1    1    0    0    0 -0.23313848436E+02 -0.16892268735E+02  0.13093174258E+02  0.31627764450E+02  0.00000000000E+00 0.  1.
</event>
<event>
 5    1  0.8907853E-005  0.9118800E+02  0.7818608E-02  0.1130116E+00
         25   -1    0    0    0    0  0.00000000000E+00  0.00000000000E+00  0.99999998245E-14  0.12500000000E+03  0.12500000000E+03 0.  0.
        -11    1    3    3    0    0  0.47954554515E+02 -0.13415426991E+02 -0.21265338660E+02  0.54146353604E+02  0.51100000000E-03 0.  1.
         23    2    1    0    0    0  0.15812412071E+02  0.12919142258E+02 -0.21013426972E+02  0.95699816975E+02  0.91104084672E+02 0.  0.
         11    1    3    3    0    0 -0.32142142444E+02  0.26334569249E+02  0.25191168891E+00  0.41553463371E+02  0.51100000000E-03 0. -1.
         22    1    1    0    0    0 -0.15812412071E+02 -0.12919142258E+02  0.21013426972E+02  0.29300183025E+02  0.00000000000E+00 0.  1.
</event>
<event>
 5    1  0.8907853E-005  0.9118800E+02  0.7818608E-02  0.1130116E+00
         25   -1    0    0    0    0  0.00000000000E+00  0.00000000000E+00  0.99999998245E-14  0.12500000000E+03  0.12500000000E+03 0.  0.
        -11    1    3    3    0    0  0.36195749747E+02 -0.25599432581E+02  0.36711588066E+02  0.57560437340E+02  0.51100000000E-03 0.  1.
         23    2    1    0    0    0  0.98705292084E+01 -0.25440775000E+02  0.29410272623E+02  0.84879873938E+02  0.74799521954E+02 0.  0.
         11    1    3    3    0    0 -0.26325220538E+02  0.15865758110E+00 -0.73013154427E+01  0.27319436599E+02  0.51100000000E-03 0. -1.
         22    1    1    0    0    0 -0.98705292084E+01  0.25440775000E+02 -0.29410272623E+02  0.40120126062E+02  0.00000000000E+00 0.  1.
</event>
<event>
 5    1  0.8907853E-005  0.9118800E+02  0.7818608E-02  0.1130116E+00
         25   -1    0    0    0    0  0.00000000000E+00  0.00000000000E+00  0.99999998245E-14  0.12500000000E+03  0.12500000000E+03 0.  0.
        -11    1    3    3    0    0 -0.47987118392E+02 -0.47592845550E+01  0.26390812290E+02  0.54971713586E+02  0.51100000000E-03 0. -1.
         23    2    1    0    0    0 -0.16663508887E+02 -0.21263213144E+02  0.20995352012E+02  0.90785944880E+02  0.84092129358E+02 0.  0.
         11    1    3    3    0    0  0.31323609505E+02 -0.16503928589E+02 -0.53954602784E+01  0.35814231294E+02  0.51100000000E-03 0.  1.
         22    1    1    0    0    0  0.16663508887E+02  0.21263213144E+02 -0.20995352012E+02  0.34214055120E+02  0.00000000000E+00 0. -1.
</event>
<event>
 5    1  0.8907853E-005  0.9118800E+02  0.7818608E-02  0.1130116E+00
         25   -1    0    0    0    0  0.00000000000E+00  0.00000000000E+00  0.99999998245E-14  0.12500000000E+03  0.12500000000E+03 0.  0.
        -11    1    3    3    0    0  0.13172017735E+01 -0.53276892628E+02 -0.68684648165E+01  0.53733956841E+02  0.51100000000E-03 0. -1.
         23    2    1    0    0    0 -0.22153595245E+02 -0.19341377727E+02 -0.58923132740E+01  0.95006833605E+02  0.90148257894E+02 0.  0.
         11    1    3    3    0    0 -0.23470797019E+02  0.33935514901E+02  0.97615154254E+00  0.41272876764E+02  0.51100000000E-03 0.  1.
         22    1    1    0    0    0  0.22153595245E+02  0.19341377727E+02  0.58923132740E+01  0.29993166395E+02  0.00000000000E+00 0. -1.
</event>
<event>
 5    1  0.8907853E-005  0.9118800E+02  0.7818608E-02  0.1130116E+00
         25   -1    0    0    0    0  0.00000000000E+00  0.00000000000E+00  0.99999998245E-14  0.12500000000E+03  0.12500000000E+03 0.  0.
        -11    1    3    3    0    0  0.20195217340E+02 -0.49360379264E+01  0.58330840126E+02  0.61924939918E+02  0.51100000000E-03 0.  1.
         23    2    1    0    0    0  0.13812954247E+02  0.97156449410E+00  0.24480185789E+02  0.96874901976E+02  0.92702348913E+02 0.  0.
         11    1    3    3    0    0 -0.63822630929E+01  0.59076024205E+01 -0.33850654337E+02  0.34949962058E+02  0.51100000000E-03 0. -1.
         22    1    1    0    0    0 -0.13812954247E+02 -0.97156449410E+00 -0.24480185789E+02  0.28125098024E+02  0.00000000000E+00 0.  1.
</event>
<event>
 5    1  0.8907853E-005  0.9118800E+02  0.7818608E-02  0.1130116E+00
         25   -1    0    0    0    0  0.00000000000E+00  0.00000000000E+00  0.99999998245E-14  0.12500000000E+03  0.12500000000E+03 0.  0.
        -11    1    3    3    0    0  0.12419505907E+02  0.26253220802E+02 -0.20353981276E+02  0.35464916234E+02  0.51100000000E-03 0. -1.
         23    2    1    0    0    0 -0.18473896805E+02 -0.19479350182E+02  0.72770461888E+01  0.97184800056E+02  0.93119278423E+02 0.  0.
         11    1    3    3    0    0 -0.30893402712E+02 -0.45732570984E+02  0.27631027465E+02  0.61719883822E+02  0.51100000000E-03 0.  1.
         22    1    1    0    0    0  0.18473896805E+02  0.19479350182E+02 -0.72770461888E+01  0.27815199944E+02  0.00000000000E+00 0.  1.
</event>
<event>
 5    1  0.8907853E-005  0.9118800E+02  0.7818608E-02  0.1130116E+00
         25   -1    0    0    0    0  0.00000000000E+00  0.00000000000E+00  0.99999998245E-14  0.12500000000E+03  0.12500000000E+03 0.  0.
        -11    1    3    3    0    0 -0.22852672657E+02 -0.30810767079E+02  0.18607730081E+02  0.42635614627E+02  0.51100000000E-03 0. -1.
         23    2    1    0    0    0 -0.10726265815E+02 -0.60652751582E+01 -0.26659197357E+02  0.95630744906E+02  0.91009264509E+02 0.  0.
         11    1    3    3    0    0  0.12126406841E+02  0.24745491921E+02 -0.45266927438E+02  0.52995130279E+02  0.51100000000E-03 0.  1.
         22    1    1    0    0    0  0.10726265815E+02  0.60652751582E+01  0.26659197357E+02  0.29369255094E+02  0.00000000000E+00 0. -1.
</event>
<event>
 5    1  0.8907853E-005  0.9118800E+02  0.7818608E-02  0.1130116E+00
         25   -1    0    0    0    0  0.00000000000E+00  0.00000000000E+00  0.99999998245E-14  0.12500000000E+03  0.12500000000E+03 0.  0.
        -11    1    3    3    0    0 -0.16803750329E+02  0.95925027550E+01 -0.56897346038E+02  0.60097338715E+02  0.51100000000E-03 0. -1.
         23    2    1    0    0    0 -0.18456687051E+02 -0.86268378607E+00 -0.23655747876E+02  0.94983539053E+02  0.90115951769E+02 0.  0.
         11    1    3    3    0    0 -0.16529367218E+01 -0.10455186541E+02  0.33241598162E+02  0.34886200338E+02  0.51100000000E-03 0.  1.
         22    1    1    0    0    0  0.18456687051E+02  0.86268378607E+00  0.23655747876E+02  0.30016460947E+02  0.00000000000E+00 0. -1.
</event>
<event>
 5    1  0.8907853E-005  0.9118800E+02  0.7818608E-02  0.1130116E+00
         25   -1    0    0    0    0  0.00000000000E+00  0.00000000000E+00  0.99999998245E-14  0.12500000000E+03  0.12500000000E+03 0.  0.
        -11    1    3    3    0    0  0.89047345704E+01 -0.11690017623E+02  0.35065682235E+02  0.38020427150E+02  0.51100000000E-03 0.  1.
         23    2    1    0    0    0  0.17742871472E+02 -0.12184365889E+02 -0.21087938645E+02  0.94867469133E+02  0.89954806894E+02 0.  0.
         11    1    3    3    0    0  0.88381369012E+01 -0.49434826607E+00 -0.56153620880E+02  0.56847041983E+02  0.51100000000E-03 0. -1.
         22    1    1    0    0    0 -0.17742871472E+02  0.12184365889E+02  0.21087938645E+02  0.30132530867E+02  0.00000000000E+00 0. -1.
</event>
<event>
 5    1  0.8907853E-005  0.9118800E+02  0.7818608E-02  0.1130116E+00
         25   -1    0    0    0    0  0.00000000000E+00  0.00000000000E+00  0.99999998245E-14  0.12500000000E+03  0.12500000000E+03 0.  0.
        -11    1    3    3    0    0 -0.53134257779E+01 -0.12800334759E+02 -0.39066154710E+02  0.41451725024E+02  0.51100000000E-03 0.  1.
         23    2    1    0    0    0 -0.20351962469E+02 -0.18640969364E+02  0.11925767919E+02  0.94934869772E+02  0.90048417215E+02 0.  0.
         11    1    3    3    0    0 -0.15038536692E+02 -0.58406346054E+01  0.50991922629E+02  0.53483144747E+02  0.51100000000E-03 0. -1.
         22    1    1    0    0    0  0.20351962469E+02  0.18640969364E+02 -0.11925767919E+02  0.30065130228E+02  0.00000000000E+00 0. -1.
</event>
<event>
 5    1  0.8907853E-005  0.9118800E+02  0.7818608E-02  0.1130116E+00
         25   -1    0    0    0    0  0.00000000000E+00  0.00000000000E+00  0.99999998245E-14  0.12500000000E+03  0.12500000000E+03 0.  0.
        -11    1    3    3    0    0 -0.46847471764E+01  0.35616269407E+01 -0.37925851510E+02  0.38379711510E+02  0.51100000000E-03 0. -1.
         23    2    1    0    0    0 -0.14076419721E+02 -0.23650907613E+02  0.11173028903E+02  0.95295663651E+02  0.90547865313E+02 0.  0.
         11    1    3    3    0    0 -0.93916725445E+01 -0.27212534554E+02  0.49098880413E+02  0.56915952141E+02  0.51100000000E-03 0.  1.
         22    1    1    0    0    0  0.14076419721E+02  0.23650907613E+02 -0.11173028903E+02  0.29704336349E+02  0.00000000000E+00 0.  1.
</event>
<event>
 5    1  0.8907853E-005  0.9118800E+02  0.7818608E-02  0.1130116E+00
         25   -1    0    0    0    0  0.00000000000E+00  0.00000000000E+00  0.99999998245E-14  0.12500000000E+03  0.12500000000E+03 0.  0.
        -11    1    3    3    0    0 -0.26883210691E+02 -0.38855271178E+02  0.18509203057E+02  0.50744750600E+02  0.51100000000E-03 0.  1.
         23    2    1    0    0    0 -0.18332857929E+02 -0.18988223151E+02 -0.17910501654E+02  0.93102784326E+02  0.87468257565E+02 0.  0.
         11    1    3    3    0    0  0.85503527624E+01  0.19867048027E+02 -0.36419704711E+02  0.42358033727E+02  0.51100000000E-03 0. -1.
         22    1    1    0    0    0  0.18332857929E+02  0.18988223151E+02  0.17910501654E+02  0.31897215674E+02  0.00000000000E+00 0.  1.
</event>
<event>
 5    1  0.8907853E-005  0.9118800E+02  0.7818608E-02  0.1130116E+00
         25   -1    0    0    0    0  0.00000000000E+00  0.00000000000E+00  0.99999998245E-14  0.12500000000E+03  0.12500000000E+03 0.  0.
        -11    1    3    3    0    0 -0.25225597569E+02 -0.22037885630E+02 -0.27598556565E+02  0.43401376712E+02  0.51100000000E-03 0. -1.
         23    2    1    0    0    0 -0.15996023118E+02 -0.22652959383E+01  0.22068260564E+02  0.97650183811E+02  0.93741911399E+02 0.  0.
         11    1    3    3    0    0  0.92295744511E+01  0.19772589692E+02  0.49666817129E+02  0.54248807099E+02  0.51100000000E-03 0.  1.
         22    1    1    0    0    0  0.15996023118E+02  0.22652959383E+01 -0.22068260564E+02  0.27349816189E+02  0.00000000000E+00 0.  1.
</event>
<event>
 5    1  0.8907853E-005  0.9118800E+02  0.7818608E-02  0.1130116E+00
         25   -1    0    0    0    0  0.00000000000E+00  0.00000000000E+00  0.99999998245E-14  0.12500000000E+03  0.12500000000E+03 0.  0.
        -11    1    3    3    0    0 -0.20055287447E+02 -0.40603273480E+02  0.24966277086E+02  0.51712236112E+02  0.51100000000E-03 0.  1.
         23    2    1    0    0    0 -0.49357942453E+01 -0.26455251126E+02 -0.13117699329E+02  0.95061456070E+02  0.90223965871E+02 0.  0.
         11    1    3    3    0    0  0.15119493201E+02  0.14148022355E+02 -0.38083976414E+02  0.43349219959E+02  0.51100000000E-03 0. -1.
         22    1    1    0    0    0  0.49357942453E+01  0.26455251126E+02  0.13117699329E+02  0.29938543930E+02  0.00000000000E+00 0. -1.
</event>
<event>
 5    1  0.8907853E-005  0.9118800E+02  0.7818608E-02  0.1130116E+00
         25   -1    0    0    0    0  0.00000000000E+00  0.00000000000E+00  0.99999998245E-14  0.12500000000E+03  0.12500000000E+03 0.  0.
        -11    1    3    3    0    0 -0.38842462698E+02  0.12262607907E+02  0.32226909355E+02  0.51939215897E+02  0.51100000000E-03 0.  1.
         23    2    1    0    0    0 -0.18449670581E+02  0.20706000444E+02 -0.65009803397E+01  0.96515064607E+02  0.92215867137E+02 0.  0.
         11    1    3    3    0    0  0.20392792117E+02  0.84433925367E+01 -0.38727889694E+02  0.44575848711E+02  0.51100000000E-03 0. -1.
         22    1    1    0    0    0  0.18449670581E+02 -0.20706000444E+02  0.65009803397E+01  0.28484935393E+02  0.00000000000E+00 0.  1.
</event>
<event>
 5    1  0.8907853E-005  0.9118800E+02  0.7818608E-02  0.1130116E+00
         25   -1    0    0    0    0  0.00000000000E+00  0.00000000000E+00  0.99999998245E-14  0.12500000000E+03  0.12500000000E+03 0.  0.
        -11    1    3    3    0    0  0.92495311248E+01  0.33520200134E+01 -0.29915186292E+02  0.31491399387E+02  0.51100000000E-03 0.  1.
         23    2    1    0    0    0 -0.17038026538E+02 -0.22258944826E+02  0.17879793854E+02  0.91751812059E+02  0.85515805643E+02 0.  0.
         11    1    3    3    0    0 -0.26287557663E+02 -0.25610964840E+02  0.47794980146E+02  0.60260412672E+02  0.51100000000E-03 0. -1.
         22    1    1    0    0    0  0.17038026538E+02  0.22258944826E+02 -0.17879793854E+02  0.33248187941E+02  0.00000000000E+00 0. -1.
</event>
<event>
 5    1  0.8907853E-005  0.9118800E+02  0.7818608E-02  0.1130116E+00
         25   -1    0    0    0    0  0.00000000000E+00  0.00000000000E+00  0.99999998245E-14  0.12500000000E+03  0.12500000000E+03 0.  0.
        -11    1    3    3    0    0  0.51761590171E+02 -0.23749565728E+02  0.24233251597E+02  0.61891474151E+02  0.51100000000E-03 0.  1.
         23    2    1    0    0    0  0.66848908759E+01 -0.82041414598E+01  0.40655069895E+01  0.11366315519E+03  0.11309636952E+03 0.  0.
         11    1    3    3    0    0 -0.45076699295E+02  0.15545424269E+02 -0.20167744607E+02  0.51771681041E+02  0.51100000000E-03 0. -1.
         22    1    1    0    0    0 -0.66848908759E+01  0.82041414598E+01 -0.40655069895E+01  0.11336844808E+02  0.00000000000E+00 0.  1.
</event>
<event>
 5    1  0.8907853E-005  0.9118800E+02  0.7818608E-02  0.1130116E+00
         25   -1    0    0    0    0  0.00000000000E+00  0.00000000000E+00  0.99999998245E-14  0.12500000000E+03  0.12500000000E+03 0.  0.
        -11    1    3    3    0    0  0.40291486724E+02  0.17100236753E+02 -0.35677542569E+02  0.56468655407E+02  0.51100000000E-03 0. -1.
         23    2    1    0    0    0  0.24522405933E+01  0.39656552026E+00 -0.25913680654E+02  0.98967528100E+02  0.95482364995E+02 0.  0.
         11    1    3    3    0    0 -0.37839246131E+02 -0.16703671233E+02  0.97638619147E+01  0.42498872693E+02  0.51100000000E-03 0.  1.
         22    1    1    0    0    0 -0.24522405933E+01 -0.39656552026E+00  0.25913680654E+02  0.26032471900E+02  0.00000000000E+00 0. -1.
</event>
<event>
 5    1  0.8907853E-005  0.9118800E+02  0.7818608E-02  0.1130116E+00
         25   -1    0    0    0    0  0.00000000000E+00  0.00000000000E+00  0.99999998245E-14  0.12500000000E+03  0.12500000000E+03 0.  0.
        -11    1    3    3    0    0  0.12291311768E+02  0.43482555172E+01 -0.51399129052E+02  0.53026918999E+02  0.51100000000E-03 0.  1.
         23    2    1    0    0    0  0.19306009215E+02 -0.14883342583E+02 -0.11126313345E+02  0.98203904633E+02  0.94477384375E+02 0.  0.
         11    1    3    3    0    0  0.70146974475E+01 -0.19231598100E+02  0.40272815707E+02  0.45176985634E+02  0.51100000000E-03 0. -1.
         22    1    1    0    0    0 -0.19306009215E+02  0.14883342583E+02  0.11126313345E+02  0.26796095367E+02  0.00000000000E+00 0.  1.
</event>
<event>
 5    1  0.8907853E-005  0.9118800E+02  0.7818608E-02  0.1130116E+00
         25   -1    0    0    0    0  0.00000000000E+00  0.00000000000E+00  0.99999998245E-14  0.12500000000E+03  0.12500000000E+03 0.  0.
        -11    1    3    3    0    0 -0.58049019038E+01 -0.37011682654E+02  0.47438066846E+02  0.60447760300E+02  0.51100000000E-03 0.  1.
         23    2    1    0    0    0 -0.54172173500E+01 -0.25216673110E+02  0.14554661172E+02  0.95384716642E+02  0.90670718319E+02 0.  0.
         11    1    3    3    0    0  0.38768455382E+00  0.11795009544E+02 -0.32883405674E+02  0.34936956342E+02  0.51100000000E-03 0. -1.
         22    1    1    0    0    0  0.54172173500E+01  0.25216673110E+02 -0.14554661172E+02  0.29615283358E+02  0.00000000000E+00 0.  1.
</event>
<event>
 5    1  0.8907853E-005  0.9118800E+02  0.7818608E-02  0.1130116E+00
         25   -1    0    0    0    0  0.00000000000E+00  0.00000000000E+00  0.99999998245E-14  0.12500000000E+03  0.12500000000E+03 0.  0.
        -11    1    3    3    0    0  0.22075779984E+02  0.37105845384E+02 -0.37641020252E+01  0.43339961789E+02  0.51100000000E-03 0.  1.
         23    2    1    0    0    0  0.13010547603E+01 -0.35284395678E+01 -0.29181164025E+02  0.95577509230E+02  0.90936116628E+02 0.  0.
         11    1    3    3    0    0 -0.20774725224E+02 -0.40634284951E+02 -0.25417062000E+02  0.52237547441E+02  0.51100000000E-03 0. -1.
         22    1    1    0    0    0 -0.13010547603E+01  0.35284395678E+01  0.29181164025E+02  0.29422490770E+02  0.00000000000E+00 0.  1.
</event>
<event>
 5    1  0.8907853E-005  0.9118800E+02  0.7818608E-02  0.1130116E+00
         25   -1    0    0    0    0  0.00000000000E+00  0.00000000000E+00  0.99999998245E-14  0.12500000000E+03  0.12500000000E+03 0.  0.
        -11    1    3    3    0    0 -0.18580293606E+02  0.15449098853E+02 -0.56198146837E+02  0.61172981569E+02  0.51100000000E-03 0.  1.
         23    2    1    0    0    0 -0.14627780208E+01  0.21337889674E+01 -0.28651910883E+02  0.96231531634E+02  0.91830729652E+02 0.  0.
         11    1    3    3    0    0  0.17117515585E+02 -0.13315309885E+02  0.27546235954E+02  0.35058550065E+02  0.51100000000E-03 0. -1.
         22    1    1    0    0    0  0.14627780208E+01 -0.21337889674E+01  0.28651910883E+02  0.28768468366E+02  0.00000000000E+00 0.  1.
</event>
<event>
 5    1  0.8907853E-005  0.9118800E+02  0.7818608E-02  0.1130116E+00
         25   -1    0    0    0    0  0.00000000000E+00  0.00000000000E+00  0.99999998245E-14  0.12500000000E+03  0.12500000000E+03 0.  0.
        -11    1    3    3    0    0 -0.15394041407E+02 -0.26514659424E+02  0.36900219860E+02  0.47975305118E+02  0.51100000000E-03 0. -1.
         23    2    1    0    0    0  0.23148746314E+02 -0.64505123396E+01  0.15423122400E+02  0.96445731144E+02  0.92121836640E+02 0.  0.
         11    1    3    3    0    0  0.38542787721E+02  0.20064147084E+02 -0.21477097460E+02  0.48470426026E+02  0.51100000000E-03 0.  1.
         22    1    1    0    0    0 -0.23148746314E+02  0.64505123396E+01 -0.15423122400E+02  0.28554268856E+02  0.00000000000E+00 0. -1.
</event>
<event>
 5    1  0.8907853E-005  0.9118800E+02  0.7818608E-02  0.1130116E+00
         25   -1    0    0    0    0  0.00000000000E+00  0.00000000000E+00  0.99999998245E-14  0.12500000000E+03  0.12500000000E+03 0.  0.
        -11    1    3    3    0    0  0.50987694212E+02 -0.33294645393E+02 -0.12485724380E+02  0.62162462037E+02  0.51100000000E-03 0. -1.
         23    2    1    0    0    0  0.16981309879E+02 -0.16153691065E+02 -0.61638485962E+01  0.10076573398E+03  0.97808146357E+02 0.  0.
         11    1    3    3    0    0 -0.34006384333E+02  0.17140954328E+02  0.63218757837E+01  0.38603271939E+02  0.51100000000E-03 0.  1.
         22    1    1    0    0    0 -0.16981309879E+02  0.16153691065E+02  0.61638485962E+01  0.24234266025E+02  0.00000000000E+00 0. -1.
</event>
<event>
 5    1  0.8907853E-005  0.9118800E+02  0.7818608E-02  0.1130116E+00
         25   -1    0    0    0    0  0.00000000000E+00  0.00000000000E+00  0.99999998245E-14  0.12500000000E+03  0.12500000000E+03 0.  0.
        -11    1    3    3    0    0 -0.25790035520E+02 -0.31090917054E+02 -0.42491413618E+02  0.58628417059E+02  0.51100000000E-03 0.  1.
         23    2    1    0    0    0  0.26156650794E+01 -0.26678942994E+01 -0.19950312577E+02  0.10470284907E+03  0.10271666013E+03 0.  0.
         11    1    3    3    0    0  0.28405700600E+02  0.28423022755E+02  0.22541101040E+02  0.46074432014E+02  0.51100000000E-03 0. -1.
         22    1    1    0    0    0 -0.26156650794E+01  0.26678942994E+01  0.19950312577E+02  0.20297150927E+02  0.00000000000E+00 0. -1.
</event>
<event>
 4    1  0.8907853E-005  0.9118800E+02  0.7818608E-02  0.1130116E+00
         25   -1    0    0    0    0  0.00000000000E+00  0.00000000000E+00  0.99999998245E-14  0.12500000000E+03  0.12500000000E+03 0.  0.
        -11    1    1    0    0    0  0.22148155265E+02  0.45711140727E+02  0.60128784024E+01  0.51148840409E+02  0.51100000000E-03 0. -1.
         11    1    1    0    0    0  0.12885445040E+02 -0.33625082778E+01  0.99442411470E+01  0.16620141036E+02  0.51100000000E-03 0.  1.
         22    1    1    0    0    0 -0.35033600304E+02 -0.42348632449E+02 -0.15957119549E+02  0.57231018556E+02  0.00000000000E+00 0. -1.
</event>
<event>
 5    1  0.8907853E-005  0.9118800E+02  0.7818608E-02  0.1130116E+00
         25   -1    0    0    0    0  0.00000000000E+00  0.00000000000E+00  0.99999998245E-14  0.12500000000E+03  0.12500000000E+03 0.  0.
        -11    1    3    3    0    0  0.24184082641E+02 -0.31747827613E+01 -0.23797055830E+02  0.34077103240E+02  0.51100000000E-03 0.  1.
         23    2    1    0    0    0 -0.27508405848E+02 -0.51994192666E+01  0.93111767615E+01  0.95496705850E+02  0.90824977085E+02 0.  0.
         11    1    3    3    0    0 -0.51692488489E+02 -0.20246365053E+01  0.33108232592E+02  0.61419602610E+02  0.51100000000E-03 0. -1.
         22    1    1    0    0    0  0.27508405848E+02  0.51994192666E+01 -0.93111767615E+01  0.29503294150E+02  0.00000000000E+00 0. -1.
</event>
<event>
 5    1  0.8907853E-005  0.9118800E+02  0.7818608E-02  0.1130116E+00
         25   -1    0    0    0    0  0.00000000000E+00  0.00000000000E+00  0.99999998245E-14  0.12500000000E+03  0.12500000000E+03 0.  0.
        -11    1    3    3    0    0  0.33323170979E+02 -0.84969348055E+01 -0.49862812560E+02  0.60571707107E+02  0.51100000000E-03 0.  1.
         23    2    1    0    0    0  0.23978946714E+02 -0.61907869513E+01 -0.16632206083E+02  0.95168037145E+02  0.90371507048E+02 0.  0.
         11    1    3    3    0    0 -0.93442242645E+01  0.23061478542E+01  0.33230606477E+02  0.34596330038E+02  0.51100000000E-03 0. -1.
         22    1    1    0    0    0 -0.23978946714E+02  0.61907869513E+01  0.16632206083E+02  0.29831962855E+02  0.00000000000E+00 0.  1.
</event>
<event>
 5    1  0.8907853E-005  0.9118800E+02  0.7818608E-02  0.1130116E+00
         25   -1    0    0    0    0  0.00000000000E+00  0.00000000000E+00  0.99999998245E-14  0.12500000000E+03  0.12500000000E+03 0.  0.
        -11    1    3    3    0    0  0.97500774759E+01 -0.26180518642E+02 -0.33951567134E+02  0.43968084769E+02  0.51100000000E-03 0. -1.
         23    2    1    0    0    0 -0.28109477739E+02 -0.86087925682E+01 -0.40231904008E+01  0.95327788939E+02  0.90592202947E+02 0.  0.
         11    1    3    3    0    0 -0.37859555215E+02  0.17571726074E+02  0.29928376734E+02  0.51359704170E+02  0.51100000000E-03 0.  1.
         22    1    1    0    0    0  0.28109477739E+02  0.86087925682E+01  0.40231904008E+01  0.29672211061E+02  0.00000000000E+00 0.  1.
</event>
<event>
 5    1  0.8907853E-005  0.9118800E+02  0.7818608E-02  0.1130116E+00
         25   -1    0    0    0    0  0.00000000000E+00  0.00000000000E+00  0.99999998245E-14  0.12500000000E+03  0.12500000000E+03 0.  0.
        -11    1    3    3    0    0  0.37077693925E+02 -0.10460436335E+02  0.43662523009E+02  0.58228790395E+02  0.51100000000E-03 0. -1.
         23    2    1    0    0    0  0.24566122174E+02  0.88803343924E+01  0.15448367338E+02  0.94651906963E+02  0.89654764183E+02 0.  0.
         11    1    3    3    0    0 -0.12511571751E+02  0.19340770727E+02 -0.28214155671E+02  0.36423116567E+02  0.51100000000E-03 0.  1.
         22    1    1    0    0    0 -0.24566122174E+02 -0.88803343924E+01 -0.15448367338E+02  0.30348093037E+02  0.00000000000E+00 0. -1.
</event>
<event>
 5    1  0.8907853E-005  0.9118800E+02  0.7818608E-02  0.1130116E+00
         25   -1    0    0    0    0  0.00000000000E+00  0.00000000000E+00  0.99999998245E-14  0.12500000000E+03  0.12500000000E+03 0.  0.
        -11    1    3    3    0    0 -0.45941066383E+02 -0.22353886078E+02 -0.22274079042E+02  0.55735198938E+02  0.51100000000E-03 0.  1.
         23    2    1    0    0    0 -0.80796300741E+01 -0.24700985679E+02 -0.16779184148E+02  0.94065227715E+02  0.88833028366E+02 0.  0.
         11    1    3    3    0    0  0.37861436309E+02 -0.23470996009E+01  0.54948948936E+01  0.38330028777E+02  0.51100000000E-03 0. -1.
         22    1    1    0    0    0  0.80796300741E+01  0.24700985679E+02  0.16779184148E+02  0.30934772285E+02  0.00000000000E+00 0.  1.
</event>
<event>
 5    1  0.8907853E-005  0.9118800E+02  0.7818608E-02  0.1130116E+00
         25   -1    0    0    0    0  0.00000000000E+00  0.00000000000E+00  0.99999998245E-14  0.12500000000E+03  0.12500000000E+03 0.  0.
        -11    1    3    3    0    0 -0.10688896719E+02  0.21153477007E+02  0.27160926139E+02  0.36047718534E+02  0.51100000000E-03 0.  1.
         23    2    1    0    0    0 -0.49181230158E+01 -0.21969892625E+01 -0.28137893931E+02  0.96351164584E+02  0.91993429907E+02 0.  0.
         11    1    3    3    0    0  0.57707737030E+01 -0.23350466269E+02 -0.55298820070E+02  0.60303446050E+02  0.51100000000E-03 0. -1.
         22    1    1    0    0    0  0.49181230158E+01  0.21969892625E+01  0.28137893931E+02  0.28648835416E+02  0.00000000000E+00 0. -1.
</event>
<event>
 5    1  0.8907853E-005  0.9118800E+02  0.7818608E-02  0.1130116E+00
         25   -1    0    0    0    0  0.00000000000E+00  0.00000000000E+00  0.99999998245E-14  0.12500000000E+03  0.12500000000E+03 0.  0.
        -11    1    3    3    0    0 -0.15178541477E+02  0.76128402196E+01  0.31475628198E+02  0.35763929151E+02  0.51100000000E-03 0. -1.
         23    2    1    0    0    0  0.16861544957E+02 -0.21987517639E+02 -0.95954539330E+01  0.95677050516E+02  0.91072842434E+02 0.  0.
         11    1    3    3    0    0  0.32040086434E+02 -0.29600357858E+02 -0.41071082131E+02  0.59913121365E+02  0.51100000000E-03 0.  1.
         22    1    1    0    0    0 -0.16861544957E+02  0.21987517639E+02  0.95954539330E+01  0.29322949484E+02  0.00000000000E+00 0.  1.
</event>
<event>
 5    1  0.8907853E-005  0.9118800E+02  0.7818608E-02  0.1130116E+00
         25   -1    0    0    0    0  0.00000000000E+00  0.00000000000E+00  0.99999998245E-14  0.12500000000E+03  0.12500000000E+03 0.  0.
        -11    1    3    3    0    0  0.23226277888E+02  0.23936594082E+02 -0.24848921485E+02  0.41591939363E+02  0.51100000000E-03 0.  1.
         23    2    1    0    0    0 -0.60636478243E+01 -0.19378420423E+02 -0.23561586662E+02  0.93896312613E+02  0.88595023298E+02 0.  0.
         11    1    3    3    0    0 -0.29289925712E+02 -0.43315014505E+02  0.12873348227E+01  0.52304373249E+02  0.51100000000E-03 0. -1.
         22    1    1    0    0    0  0.60636478243E+01  0.19378420423E+02  0.23561586662E+02  0.31103687387E+02  0.00000000000E+00 0. -1.
</event>
<event>
 5    1  0.8907853E-005  0.9118800E+02  0.7818608E-02  0.1130116E+00
         25   -1    0    0    0    0  0.00000000000E+00  0.00000000000E+00  0.99999998245E-14  0.12500000000E+03  0.12500000000E+03 0.  0.
        -11    1    3    3    0    0 -0.12626801963E+02 -0.36655180406E+02  0.17889129883E+02  0.42697299055E+02  0.51100000000E-03 0.  1.
         23    2    1    0    0    0 -0.22147323225E+01  0.14417654275E+02  0.25745459930E+02  0.95409418711E+02  0.90704766565E+02 0.  0.
         11    1    3    3    0    0  0.10412069640E+02  0.51072834680E+02  0.78563300470E+01  0.52712119655E+02  0.51100000000E-03 0. -1.
         22    1    1    0    0    0  0.22147323225E+01 -0.14417654275E+02 -0.25745459930E+02  0.29590581289E+02  0.00000000000E+00 0.  1.
</event>
<event>
 5    1  0.8907853E-005  0.9118800E+02  0.7818608E-02  0.1130116E+00
         25   -1    0    0    0    0  0.00000000000E+00  0.00000000000E+00  0.99999998245E-14  0.12500000000E+03  0.12500000000E+03 0.  0.
        -11    1    3    3    0    0 -0.26362459380E+02  0.21156545160E+02  0.29738892206E+02  0.45021998818E+02  0.51100000000E-03 0.  1.
         23    2    1    0    0    0  0.13461540767E+02  0.77596876331E+00  0.32470169664E+02  0.89841400407E+02  0.82676176143E+02 0.  0.
         11    1    3    3    0    0  0.39824000147E+02 -0.20380576396E+02  0.27312774581E+01  0.44819401589E+02  0.51100000000E-03 0. -1.
         22    1    1    0    0    0 -0.13461540767E+02 -0.77596876331E+00 -0.32470169664E+02  0.35158599593E+02  0.00000000000E+00 0.  1.
</event>
<event>
 5    1  0.8907853E-005  0.9118800E+02  0.7818608E-02  0.1130116E+00
         25   -1    0    0    0    0  0.00000000000E+00  0.00000000000E+00  0.99999998245E-14  0.12500000000E+03  0.12500000000E+03 0.  0.
        -11    1    3    3    0    0 -0.42585758619E+02 -0.41655094392E+02  0.88970566002E+01  0.60231647349E+02  0.51100000000E-03 0.  1.
         23    2    1    0    0    0 -0.13832757469E+02 -0.26402728735E+02  0.11873197623E+02  0.92915391764E+02  0.87200045533E+02 0.  0.
         11    1    3    3    0    0  0.28753001151E+02  0.15252365657E+02  0.29761410230E+01  0.32683744415E+02  0.51100000000E-03 0. -1.
         22    1    1    0    0    0  0.13832757469E+02  0.26402728735E+02 -0.11873197623E+02  0.32084608236E+02  0.00000000000E+00 0.  1.
</event>
<event>
 5    1  0.8907853E-005  0.9118800E+02  0.7818608E-02  0.1130116E+00
         25   -1    0    0    0    0  0.00000000000E+00  0.00000000000E+00  0.99999998245E-14  0.12500000000E+03  0.12500000000E+03 0.  0.
        -11    1    3    3    0    0  0.36061083482E+02  0.14416229190E+02  0.32694782899E+02  0.50765916077E+02  0.51100000000E-03 0. -1.
         23    2    1    0    0    0  0.21122126620E+02 -0.18467701713E+02  0.45034386458E+01  0.96583786333E+02  0.92308973471E+02 0.  0.
         11    1    3    3    0    0 -0.14938956862E+02 -0.32883930903E+02 -0.28191344254E+02  0.45817870257E+02  0.51100000000E-03 0.  1.
         22    1    1    0    0    0 -0.21122126620E+02  0.18467701713E+02 -0.45034386458E+01  0.28416213667E+02  0.00000000000E+00 0. -1.
</event>
<event>
 5    1  0.8907853E-005  0.9118800E+02  0.7818608E-02  0.1130116E+00
         25   -1    0    0    0    0  0.00000000000E+00  0.00000000000E+00  0.99999998245E-14  0.12500000000E+03  0.12500000000E+03 0.  0.
        -11    1    3    3    0    0 -0.13022703924E+02  0.21602490439E+02 -0.54732457652E+02  0.60265249784E+02  0.51100000000E-03 0.  1.
         23    2    1    0    0    0  0.26344878371E+00  0.18370578908E+02 -0.18791210458E+02  0.98719642979E+02  0.95157294753E+02 0.  0.
         11    1    3    3    0    0  0.13286152708E+02 -0.32319115305E+01  0.35941247193E+02  0.38454393195E+02  0.51100000000E-03 0. -1.
         22    1    1    0    0    0 -0.26344878371E+00 -0.18370578908E+02  0.18791210458E+02  0.26280357021E+02  0.00000000000E+00 0.  1.
</event>
<event>
 5    1  0.8907853E-005  0.9118800E+02  0.7818608E-02  0.1130116E+00
         25   -1    0    0    0    0  0.00000000000E+00  0.00000000000E+00  0.99999998245E-14  0.12500000000E+03  0.12500000000E+03 0.  0.
        -11    1    3    3    0    0 -0.53675239032E+02 -0.12042267859E+02  0.12811997412E+02  0.56481809269E+02  0.51100000000E-03 0.  1.
         23    2    1    0    0    0 -0.16552659157E+02 -0.15331919277E+02  0.20478107385E+02  0.94530159896E+02  0.89484858909E+02 0.  0.
         11    1    3    3    0    0  0.37122579875E+02 -0.32896514184E+01  0.76661099733E+01  0.38048350627E+02  0.51100000000E-03 0. -1.
         22    1    1    0    0    0  0.16552659157E+02  0.15331919277E+02 -0.20478107385E+02  0.30469840104E+02  0.00000000000E+00 0.  1.
</event>
<event>
 5    1  0.8907853E-005  0.9118800E+02  0.7818608E-02  0.1130116E+00
         25   -1    0    0    0    0  0.00000000000E+00  0.00000000000E+00  0.99999998245E-14  0.12500000000E+03  0.12500000000E+03 0.  0.
        -11    1    3    3    0    0  0.82950673780E+01  0.52922590804E+02 -0.17848655938E+02  0.56463999852E+02  0.51100000000E-03 0.  1.
         23    2    1    0    0    0  0.51139962573E+01  0.36216352692E+02  0.81467005180E+01  0.87528065311E+02  0.79101304210E+02 0.  0.
         11    1    3    3    0    0 -0.31810711207E+01 -0.16706238112E+02  0.25995356456E+02  0.31064065459E+02  0.51100000000E-03 0. -1.
         22    1    1    0    0    0 -0.51139962573E+01 -0.36216352692E+02 -0.81467005180E+01  0.37471934689E+02  0.00000000000E+00 0.  1.
</event>
<event>
 5    1  0.8907853E-005  0.9118800E+02  0.7818608E-02  0.1130116E+00
         25   -1    0    0    0    0  0.00000000000E+00  0.00000000000E+00  0.99999998245E-14  0.12500000000E+03  0.12500000000E+03 0.  0.
        -11    1    3    3    0    0  0.78654803120E+01 -0.22554109882E+02  0.35519104459E+02  0.42803743235E+02  0.51100000000E-03 0.  1.
         23    2    1    0    0    0 -0.27036388483E+02  0.45556757424E+00 -0.45559007464E+00  0.97955935839E+02  0.94148733182E+02 0.  0.
         11    1    3    3    0    0 -0.34901868795E+02  0.23009677456E+02 -0.35974694534E+02  0.55152192604E+02  0.51100000000E-03 0. -1.
         22    1    1    0    0    0  0.27036388483E+02 -0.45556757424E+00  0.45559007464E+00  0.27044064161E+02  0.00000000000E+00 0. -1.
</event>
<event>
 5    1  0.8907853E-005  0.9118800E+02  0.7818608E-02  0.1130116E+00
         25   -1    0    0    0    0  0.00000000000E+00  0.00000000000E+00  0.99999998245E-14  0.12500000000E+03  0.12500000000E+03 0.  0.
        -11    1    3    3    0    0  0.19550687710E+02 -0.47092123569E+02 -0.33067483610E+02  0.60772987130E+02  0.51100000000E-03 0. -1.
         23    2    1    0    0    0  0.15754730283E+02 -0.26158662681E+02 -0.84376511427E+01  0.93319073303E+02  0.87776809726E+02 0.  0.
         11    1    3    3    0    0 -0.37959574264E+01  0.20933460888E+02  0.24629832467E+02  0.32546086173E+02  0.51100000000E-03 0.  1.
         22    1    1    0    0    0 -0.15754730283E+02  0.26158662681E+02  0.84376511427E+01  0.31680926697E+02  0.00000000000E+00 0. -1.
</event>
<event>
 5    1  0.8907853E-005  0.9118800E+02  0.7818608E-02  0.1130116E+00
         25   -1    0    0    0    0  0.00000000000E+00  0.00000000000E+00  0.99999998245E-14  0.12500000000E+03  0.12500000000E+03 0.  0.
        -11    1    3    3    0    0  0.17920295215E+02 -0.40118083311E+02 -0.72829504053E+01  0.44538061880E+02  0.51100000000E-03 0.  1.
         23    2    1    0    0    0 -0.25559348553E+02 -0.11522913011E+02 -0.39722400114E+01  0.96683282086E+02  0.92443607251E+02 0.  0.
         11    1    3    3    0    0 -0.43479643769E+02  0.28595170300E+02  0.33107103939E+01  0.52145220206E+02  0.51100000000E-03 0. -1.
         22    1    1    0    0    0  0.25559348553E+02  0.11522913011E+02  0.39722400114E+01  0.28316717914E+02  0.00000000000E+00 0. -1.
</event>
<event>
 5    1  0.8907853E-005  0.9118800E+02  0.7818608E-02  0.1130116E+00
         25   -1    0    0    0    0  0.00000000000E+00  0.00000000000E+00  0.99999998245E-14  0.12500000000E+03  0.12500000000E+03 0.  0.
        -11    1    3    3    0    0 -0.52535360596E+02 -0.44285093781E+01 -0.30344279463E+02  0.60830511297E+02  0.51100000000E-03 0.  1.
         23    2    1    0    0    0 -0.26789084517E+02 -0.96385701349E+01 -0.77122171884E+01  0.95503637895E+02  0.90834516973E+02 0.  0.
         11    1    3    3    0    0  0.25746276079E+02 -0.52100607568E+01  0.22632062274E+02  0.34673126598E+02  0.51100000000E-03 0. -1.
         22    1    1    0    0    0  0.26789084517E+02  0.96385701349E+01  0.77122171884E+01  0.29496362105E+02  0.00000000000E+00 0.  1.
</event>
<event>
 5    1  0.8907853E-005  0.9118800E+02  0.7818608E-02  0.1130116E+00
         25   -1    0    0    0    0  0.00000000000E+00  0.00000000000E+00  0.99999998245E-14  0.12500000000E+03  0.12500000000E+03 0.  0.
        -11    1    3    3    0    0  0.20890708632E+02 -0.67717007821E+01  0.33907524140E+02  0.40397992923E+02  0.51100000000E-03 0.  1.
         23    2    1    0    0    0 -0.24988705846E+02  0.11359745730E+02  0.66633940222E+01  0.96753229162E+02  0.92538139653E+02 0.  0.
         11    1    3    3    0    0 -0.45879414478E+02  0.18131446512E+02 -0.27244130117E+02  0.56355236239E+02  0.51100000000E-03 0. -1.
         22    1    1    0    0    0  0.24988705846E+02 -0.11359745730E+02 -0.66633940222E+01  0.28246770838E+02  0.00000000000E+00 0. -1.
</event>
<event>
 5    1  0.8907853E-005  0.9118800E+02  0.7818608E-02  0.1130116E+00
         25   -1    0    0    0    0  0.00000000000E+00  0.00000000000E+00  0.99999998245E-14  0.12500000000E+03  0.12500000000E+03 0.  0.
        -11    1    3    3    0    0 -0.22235095469E+02 -0.36234647789E+02 -0.53727031795E+01  0.42851080624E+02  0.51100000000E-03 0.  1.
         23    2    1    0    0    0  0.10959479808E+02 -0.64149407544E+01  0.25089905583E+02  0.96879455469E+02  0.92708488647E+02 0.  0.
         11    1    3    3    0    0  0.33194575277E+02  0.29819707035E+02  0.30462608763E+02  0.54028374845E+02  0.51100000000E-03 0. -1.
         22    1    1    0    0    0 -0.10959479808E+02  0.64149407544E+01 -0.25089905583E+02  0.28120544531E+02  0.00000000000E+00 0. -1.
</event>
<event>
 5    1  0.8907853E-005  0.9118800E+02  0.7818608E-02  0.1130116E+00
         25   -1    0    0    0    0  0.00000000000E+00  0.00000000000E+00  0.99999998245E-14  0.12500000000E+03  0.12500000000E+03 0.  0.
        -11    1    3    3    0    0 -0.15011485359E+02 -0.29066181394E+01  0.32895218743E+02  0.36275177989E+02  0.51100000000E-03 0.  1.
         23    2    1    0    0    0 -0.11380759720E+02  0.25263239096E+02 -0.16133575954E+02  0.92936855823E+02  0.87230808524E+02 0.  0.
         11    1    3    3    0    0  0.36307256385E+01  0.28169857236E+02 -0.49028794697E+02  0.56661677835E+02  0.51100000000E-03 0. -1.
         22    1    1    0    0    0  0.11380759720E+02 -0.25263239096E+02  0.16133575954E+02  0.32063144177E+02  0.00000000000E+00 0. -1.
</event>
<event>
 5    1  0.8907853E-005  0.9118800E+02  0.7818608E-02  0.1130116E+00
         25   -1    0    0    0    0  0.00000000000E+00  0.00000000000E+00  0.99999998245E-14  0.12500000000E+03  0.12500000000E+03 0.  0.
        -11    1    3    3    0    0 -0.39360591573E+02 -0.28519530936E+02  0.75868819917E+01  0.49195331002E+02  0.51100000000E-03 0.  1.
         23    2    1    0    0    0 -0.28193014442E+02  0.39305746777E+01 -0.17392258263E+02  0.91641550874E+02  0.85354482709E+02 0.  0.
         11    1    3    3    0    0  0.11167577131E+02  0.32450105614E+02 -0.24979140255E+02  0.42446219872E+02  0.51100000000E-03 0. -1.
         22    1    1    0    0    0  0.28193014442E+02 -0.39305746777E+01  0.17392258263E+02  0.33358449126E+02  0.00000000000E+00 0. -1.
</event>
<event>
 5    1  0.8907853E-005  0.9118800E+02  0.7818608E-02  0.1130116E+00
         25   -1    0    0    0    0  0.00000000000E+00  0.00000000000E+00  0.99999998245E-14  0.12500000000E+03  0.12500000000E+03 0.  0.
        -11    1    3    3    0    0  0.11874680214E+02  0.16326475712E+02 -0.22895460255E+02  0.30524808598E+02  0.51100000000E-03 0.  1.
         23    2    1    0    0    0 -0.35963585742E+02 -0.56042353400E+01  0.15896226056E+01  0.88567681200E+02  0.80727444527E+02 0.  0.
         11    1    3    3    0    0 -0.47838265956E+02 -0.21930711052E+02  0.24485082861E+02  0.58042872602E+02  0.51100000000E-03 0. -1.
         22    1    1    0    0    0  0.35963585742E+02  0.56042353400E+01 -0.15896226056E+01  0.36432318800E+02  0.00000000000E+00 0. -1.
</event>
<event>
 5    1  0.8907853E-005  0.9118800E+02  0.7818608E-02  0.1130116E+00
         25   -1    0    0    0    0  0.00000000000E+00  0.00000000000E+00  0.99999998245E-14  0.12500000000E+03  0.12500000000E+03 0.  0.
        -11    1    3    3    0    0  0.20861762484E+02  0.44518486988E+02  0.82349657983E+01  0.49849006806E+02  0.51100000000E-03 0.  1.
         23    2    1    0    0    0 -0.15873991394E+02  0.17590818278E+02  0.16481182460E+02  0.96137396761E+02  0.91702503729E+02 0.  0.
         11    1    3    3    0    0 -0.36735753878E+02 -0.26927668710E+02  0.82462166618E+01  0.46288389955E+02  0.51100000000E-03 0. -1.
         22    1    1    0    0    0  0.15873991394E+02 -0.17590818278E+02 -0.16481182460E+02  0.28862603239E+02  0.00000000000E+00 0.  1.
</event>
<event>
 5    1  0.8907853E-005  0.9118800E+02  0.7818608E-02  0.1130116E+00
         25   -1    0    0    0    0  0.00000000000E+00  0.00000000000E+00  0.99999998245E-14  0.12500000000E+03  0.12500000000E+03 0.  0.
        -11    1    3    3    0    0  0.83285768345E+01 -0.20904623807E+02  0.61626398915E+00  0.22511069947E+02  0.51100000000E-03 0. -1.
         23    2    1    0    0    0  0.21296811304E+02  0.36827296415E+02 -0.59473044690E+01  0.82044507181E+02  0.69900835440E+02 0.  0.
         11    1    3    3    0    0  0.12968234469E+02  0.57731920221E+02 -0.65635684582E+01  0.59533437234E+02  0.51100000000E-03 0.  1.
         22    1    1    0    0    0 -0.21296811304E+02 -0.36827296415E+02  0.59473044690E+01  0.42955492819E+02  0.00000000000E+00 0.  1.
</event>
<event>
 5    1  0.8907853E-005  0.9118800E+02  0.7818608E-02  0.1130116E+00
         25   -1    0    0    0    0  0.00000000000E+00  0.00000000000E+00  0.99999998245E-14  0.12500000000E+03  0.12500000000E+03 0.  0.
        -11    1    3    3    0    0 -0.49693909957E+02  0.51484342009E+01  0.15001023906E+01  0.49982410596E+02  0.51100000000E-03 0.  1.
         23    2    1    0    0    0 -0.10579868861E+02  0.18681528222E+02 -0.19144672803E+02  0.96234541225E+02  0.91834826216E+02 0.  0.
         11    1    3    3    0    0  0.39114041096E+02  0.13533094021E+02 -0.20644775194E+02  0.46252130628E+02  0.51100000000E-03 0. -1.
         22    1    1    0    0    0  0.10579868861E+02 -0.18681528222E+02  0.19144672803E+02  0.28765458775E+02  0.00000000000E+00 0.  1.
</event>
<event>
 5    1  0.8907853E-005  0.9118800E+02  0.7818608E-02  0.1130116E+00
         25   -1    0    0    0    0  0.00000000000E+00  0.00000000000E+00  0.99999998245E-14  0.12500000000E+03  0.12500000000E+03 0.  0.
        -11    1    3    3    0    0  0.16002258289E+02 -0.25843066381E+02  0.43954837157E+01  0.30712483255E+02  0.51100000000E-03 0.  1.
         23    2    1    0    0    0 -0.28340659446E+02  0.14329182381E+02  0.12048853518E+02  0.91033938753E+02  0.84459959083E+02 0.  0.
         11    1    3    3    0    0 -0.44342917735E+02  0.40172248762E+02  0.76533698025E+01  0.60321455498E+02  0.51100000000E-03 0. -1.
         22    1    1    0    0    0  0.28340659446E+02 -0.14329182381E+02 -0.12048853518E+02  0.33966061247E+02  0.00000000000E+00 0. -1.
</event>
<event>
 5    1  0.8907853E-005  0.9118800E+02  0.7818608E-02  0.1130116E+00
         25   -1    0    0    0    0  0.00000000000E+00  0.00000000000E+00  0.99999998245E-14  0.12500000000E+03  0.12500000000E+03 0.  0.
        -11    1    3    3    0    0 -0.26193993511E+02 -0.11679537851E+02  0.47038269903E+02  0.55092066000E+02  0.51100000000E-03 0.  1.
         23    2    1    0    0    0 -0.24482903483E+02  0.98850560164E+01  0.12639582990E+02  0.95727385604E+02  0.91141902553E+02 0.  0.
         11    1    3    3    0    0  0.17110900280E+01  0.21564593867E+02 -0.34398686913E+02  0.40635319604E+02  0.51100000000E-03 0. -1.
         22    1    1    0    0    0  0.24482903483E+02 -0.98850560164E+01 -0.12639582990E+02  0.29272614396E+02  0.00000000000E+00 0.  1.
</event>
<event>
 5    1  0.8907853E-005  0.9118800E+02  0.7818608E-02  0.1130116E+00
         25   -1    0    0    0    0  0.00000000000E+00  0.00000000000E+00  0.99999998245E-14  0.12500000000E+03  0.12500000000E+03 0.  0.
        -11    1    3    3    0    0 -0.82694703124E+01 -0.33827217698E+02  0.11379820871E+02  0.36635571781E+02  0.51100000000E-03 0.  1.
         23    2    1    0    0    0 -0.11649140284E+01  0.24073547847E+02  0.17390262669E+02  0.95279401649E+02  0.90525413074E+02 0.  0.
         11    1    3    3    0    0  0.71045562840E+01  0.57900765545E+02  0.60104417977E+01  0.58643829868E+02  0.51100000000E-03 0. -1.
         22    1    1    0    0    0  0.11649140284E+01 -0.24073547847E+02 -0.17390262669E+02  0.29720598351E+02  0.00000000000E+00 0. -1.
</event>
<event>
 5    1  0.8907853E-005  0.9118800E+02  0.7818608E-02  0.1130116E+00
         25   -1    0    0    0    0  0.00000000000E+00  0.00000000000E+00  0.99999998245E-14  0.12500000000E+03  0.12500000000E+03 0.  0.
        -11    1    3    3    0    0 -0.30881001518E+02 -0.18901089255E+01 -0.17117733455E+02  0.35358528892E+02  0.51100000000E-03 0. -1.
         23    2    1    0    0    0  0.29588440877E+01  0.33560600826E+02  0.79170420699E+01  0.90391500448E+02  0.83503743102E+02 0.  0.
         11    1    3    3    0    0  0.33839845606E+02  0.35450709751E+02  0.25034775525E+02  0.55032971556E+02  0.51100000000E-03 0.  1.
         22    1    1    0    0    0 -0.29588440877E+01 -0.33560600826E+02 -0.79170420699E+01  0.34608499552E+02  0.00000000000E+00 0.  1.
</event>
<event>
 5    1  0.8907853E-005  0.9118800E+02  0.7818608E-02  0.1130116E+00
         25   -1    0    0    0    0  0.00000000000E+00  0.00000000000E+00  0.99999998245E-14  0.12500000000E+03  0.12500000000E+03 0.  0.
        -11    1    3    3    0    0 -0.27407680659E+02 -0.70231204612E+01  0.52608054216E+02  0.59733680187E+02  0.51100000000E-03 0.  1.
         23    2    1    0    0    0 -0.22399364397E+02  0.72115757500E+01  0.32604153435E+02  0.84790931727E+02  0.74650739659E+02 0.  0.
         11    1    3    3    0    0  0.50083162621E+01  0.14234696211E+02 -0.20003900780E+02  0.25057251539E+02  0.51100000000E-03 0. -1.
         22    1    1    0    0    0  0.22399364397E+02 -0.72115757500E+01 -0.32604153435E+02  0.40209068273E+02  0.00000000000E+00 0.  1.
</event>
<event>
 5    1  0.8907853E-005  0.9118800E+02  0.7818608E-02  0.1130116E+00
         25   -1    0    0    0    0  0.00000000000E+00  0.00000000000E+00  0.99999998245E-14  0.12500000000E+03  0.12500000000E+03 0.  0.
        -11    1    3    3    0    0  0.15429989727E+02  0.53927872318E+02 -0.20170630583E+02  0.59608341145E+02  0.51100000000E-03 0. -1.
         23    2    1    0    0    0 -0.10622740817E+01  0.29780727167E+02  0.11959945370E+00  0.95200093275E+02  0.90415835552E+02 0.  0.
         11    1    3    3    0    0 -0.16492263809E+02 -0.24147145151E+02  0.20290230036E+02  0.35591752130E+02  0.51100000000E-03 0.  1.
         22    1    1    0    0    0  0.10622740817E+01 -0.29780727167E+02 -0.11959945370E+00  0.29799906725E+02  0.00000000000E+00 0. -1.
</event>
<event>
 5    1  0.8907853E-005  0.9118800E+02  0.7818608E-02  0.1130116E+00
         25   -1    0    0    0    0  0.00000000000E+00  0.00000000000E+00  0.99999998245E-14  0.12500000000E+03  0.12500000000E+03 0.  0.
        -11    1    3    3    0    0  0.13351683332E+02  0.48872183028E+02  0.31704666313E+02  0.59765739249E+02  0.51100000000E-03 0.  1.
         23    2    1    0    0    0 -0.34286303652E+01  0.18631825476E+02  0.22564390452E+02  0.95537275360E+02  0.90880794671E+02 0.  0.
         11    1    3    3    0    0 -0.16780313698E+02 -0.30240357552E+02 -0.91402758607E+01  0.35771536111E+02  0.51100000000E-03 0. -1.
         22    1    1    0    0    0  0.34286303652E+01 -0.18631825476E+02 -0.22564390452E+02  0.29462724640E+02  0.00000000000E+00 0.  1.
</event>
<event>
 5    1  0.8907853E-005  0.9118800E+02  0.7818608E-02  0.1130116E+00
         25   -1    0    0    0    0  0.00000000000E+00  0.00000000000E+00  0.99999998245E-14  0.12500000000E+03  0.12500000000E+03 0.  0.
        -11    1    3    3    0    0 -0.45638137046E+02 -0.14188684190E+02  0.42163759956E+01  0.47978496630E+02  0.51100000000E-03 0.  1.
         23    2    1    0    0    0 -0.11669143180E+02  0.11869982656E+02  0.24521653947E+02  0.95362575971E+02  0.90640189721E+02 0.  0.
         11    1    3    3    0    0  0.33968993866E+02  0.26058666846E+02  0.20305277951E+02  0.47384079341E+02  0.51100000000E-03 0. -1.
         22    1    1    0    0    0  0.11669143180E+02 -0.11869982656E+02 -0.24521653947E+02  0.29637424029E+02  0.00000000000E+00 0. -1.
</event>
<event>
 5    1  0.8907853E-005  0.9118800E+02  0.7818608E-02  0.1130116E+00
         25   -1    0    0    0    0  0.00000000000E+00  0.00000000000E+00  0.99999998245E-14  0.12500000000E+03  0.12500000000E+03 0.  0.
        -11    1    3    3    0    0  0.67198625970E+01  0.46880167296E+02  0.61169200435E+00  0.47363285426E+02  0.51100000000E-03 0.  1.
         23    2    1    0    0    0  0.28953959237E+02  0.48926350436E+01  0.54989582449E+01  0.95125124687E+02  0.90312131919E+02 0.  0.
         11    1    3    3    0    0  0.22234096640E+02 -0.41987532252E+02  0.48872662405E+01  0.47761839261E+02  0.51100000000E-03 0. -1.
         22    1    1    0    0    0 -0.28953959237E+02 -0.48926350436E+01 -0.54989582449E+01  0.29874875313E+02  0.00000000000E+00 0. -1.
</event>
<event>
 5    1  0.8907853E-005  0.9118800E+02  0.7818608E-02  0.1130116E+00
         25   -1    0    0    0    0  0.00000000000E+00  0.00000000000E+00  0.99999998245E-14  0.12500000000E+03  0.12500000000E+03 0.  0.
        -11    1    3    3    0    0  0.37108780570E+02  0.34551646421E+02  0.16930480111E+02  0.53455766974E+02  0.51100000000E-03 0.  1.
         23    2    1    0    0    0  0.12874633528E+02  0.10774970318E+01  0.26181557529E+02  0.95804261561E+02  0.91247276071E+02 0.  0.
         11    1    3    3    0    0 -0.24234147042E+02 -0.33474149389E+02  0.92510774182E+01  0.42348494587E+02  0.51100000000E-03 0. -1.
         22    1    1    0    0    0 -0.12874633528E+02 -0.10774970318E+01 -0.26181557529E+02  0.29195738439E+02  0.00000000000E+00 0.  1.
</event>
<event>
 5    1  0.8907853E-005  0.9118800E+02  0.7818608E-02  0.1130116E+00
         25   -1    0    0    0    0  0.00000000000E+00  0.00000000000E+00  0.99999998245E-14  0.12500000000E+03  0.12500000000E+03 0.  0.
        -11    1    3    3    0    0  0.27381346091E+02  0.36178594886E+02 -0.99876403931E+01  0.46458387860E+02  0.51100000000E-03 0. -1.
         23    2    1    0    0    0 -0.15566632399E+02  0.28731012242E+02  0.36225707681E+01  0.92122741482E+02  0.86056291870E+02 0.  0.
         11    1    3    3    0    0 -0.42947978489E+02 -0.74475826439E+01  0.13610211161E+02  0.45664353622E+02  0.51100000000E-03 0.  1.
         22    1    1    0    0    0  0.15566632399E+02 -0.28731012242E+02 -0.36225707681E+01  0.32877258518E+02  0.00000000000E+00 0. -1.
</event>
<event>
 5    1  0.8907853E-005  0.9118800E+02  0.7818608E-02  0.1130116E+00
         25   -1    0    0    0    0  0.00000000000E+00  0.00000000000E+00  0.99999998245E-14  0.12500000000E+03  0.12500000000E+03 0.  0.
        -11    1    3    3    0    0 -0.12765436367E+01 -0.10797270416E+02  0.35883098617E+02  0.37494097919E+02  0.51100000000E-03 0. -1.
         23    2    1    0    0    0  0.27164423452E+02 -0.28118029690E+01 -0.13112043403E+02  0.94705812114E+02  0.89729889271E+02 0.  0.
         11    1    3    3    0    0  0.28440967089E+02  0.79854674470E+01 -0.48995142021E+02  0.57211714196E+02  0.51100000000E-03 0.  1.
         22    1    1    0    0    0 -0.27164423452E+02  0.28118029690E+01  0.13112043403E+02  0.30294187886E+02  0.00000000000E+00 0.  1.
</event>
<event>
 5    1  0.8907853E-005  0.9118800E+02  0.7818608E-02  0.1130116E+00
         25   -1    0    0    0    0  0.00000000000E+00  0.00000000000E+00  0.99999998245E-14  0.12500000000E+03  0.12500000000E+03 0.  0.
        -11    1    3    3    0    0  0.38859940358E+01  0.33523696301E+02 -0.14321715571E+02  0.36661297038E+02  0.51100000000E-03 0.  1.
         23    2    1    0    0    0 -0.19399176517E+02 -0.20119454985E+02  0.71435302198E+00  0.97042338819E+02  0.92927846768E+02 0.  0.
         11    1    3    3    0    0 -0.23285170553E+02 -0.53643151286E+02  0.15036068593E+02  0.60381041781E+02  0.51100000000E-03 0. -1.
         22    1    1    0    0    0  0.19399176517E+02  0.20119454985E+02 -0.71435302198E+00  0.27957661181E+02  0.00000000000E+00 0. -1.
</event>
<event>
 5    1  0.8907853E-005  0.9118800E+02  0.7818608E-02  0.1130116E+00
         25   -1    0    0    0    0  0.00000000000E+00  0.00000000000E+00  0.99999998245E-14  0.12500000000E+03  0.12500000000E+03 0.  0.
        -11    1    3    3    0    0  0.19977077111E+02 -0.50809455675E+02 -0.20050434360E+02  0.58161020574E+02  0.51100000000E-03 0.  1.
         23    2    1    0    0    0  0.14227265302E+02 -0.24581761382E+02  0.64370772430E+01  0.95877602536E+02  0.91347690907E+02 0.  0.
         11    1    3    3    0    0 -0.57498118087E+01  0.26227694293E+02  0.26487511603E+02  0.37716581963E+02  0.51100000000E-03 0. -1.
         22    1    1    0    0    0 -0.14227265302E+02  0.24581761382E+02 -0.64370772430E+01  0.29122397464E+02  0.00000000000E+00 0.  1.
</event>
<event>
 5    1  0.8907853E-005  0.9118800E+02  0.7818608E-02  0.1130116E+00
         25   -1    0    0    0    0  0.00000000000E+00  0.00000000000E+00  0.99999998245E-14  0.12500000000E+03  0.12500000000E+03 0.  0.
        -11    1    3    3    0    0  0.20762075349E+02 -0.48001386927E+02 -0.25596739804E+02  0.58227055640E+02  0.51100000000E-03 0.  1.
         23    2    1    0    0    0  0.10233397975E+02 -0.13036487423E+02 -0.25313258727E+02  0.94743868293E+02  0.89782888533E+02 0.  0.
         11    1    3    3    0    0 -0.10528677374E+02  0.34964899504E+02  0.28348107628E+00  0.36516812653E+02  0.51100000000E-03 0. -1.
         22    1    1    0    0    0 -0.10233397975E+02  0.13036487423E+02  0.25313258727E+02  0.30256131707E+02  0.00000000000E+00 0.  1.
</event>
<event>
 5    1  0.8907853E-005  0.9118800E+02  0.7818608E-02  0.1130116E+00
         25   -1    0    0    0    0  0.00000000000E+00  0.00000000000E+00  0.99999998245E-14  0.12500000000E+03  0.12500000000E+03 0.  0.
        -11    1    3    3    0    0 -0.67147357020E+01  0.30557334143E+02  0.15284330712E+02  0.34820239962E+02  0.51100000000E-03 0.  1.
         23    2    1    0    0    0  0.16860549481E+02 -0.21085088679E+02 -0.89669785116E+01  0.96552402614E+02  0.92266465487E+02 0.  0.
         11    1    3    3    0    0  0.23575285183E+02 -0.51642422822E+02 -0.24251309223E+02  0.61732162652E+02  0.51100000000E-03 0. -1.
         22    1    1    0    0    0 -0.16860549481E+02  0.21085088679E+02  0.89669785116E+01  0.28447597386E+02  0.00000000000E+00 0. -1.
</event>
<event>
 5    1  0.8907853E-005  0.9118800E+02  0.7818608E-02  0.1130116E+00
         25   -1    0    0    0    0  0.00000000000E+00  0.00000000000E+00  0.99999998245E-14  0.12500000000E+03  0.12500000000E+03 0.  0.
        -11    1    3    3    0    0 -0.28354511503E+02 -0.13362881787E+02 -0.49509907583E+02  0.58598429001E+02  0.51100000000E-03 0.  1.
         23    2    1    0    0    0  0.10093125116E+01 -0.11730045572E+02 -0.26709535305E+02  0.95810756140E+02  0.91256172586E+02 0.  0.
         11    1    3    3    0    0  0.29363824014E+02  0.16328362149E+01  0.22800372278E+02  0.37212327139E+02  0.51100000000E-03 0. -1.
         22    1    1    0    0    0 -0.10093125116E+01  0.11730045572E+02  0.26709535305E+02  0.29189243860E+02  0.00000000000E+00 0.  1.
</event>
<event>
 5    1  0.8907853E-005  0.9118800E+02  0.7818608E-02  0.1130116E+00
         25   -1    0    0    0    0  0.00000000000E+00  0.00000000000E+00  0.99999998245E-14  0.12500000000E+03  0.12500000000E+03 0.  0.
        -11    1    3    3    0    0  0.62177742711E+01 -0.46259341571E+02 -0.22124603997E+01  0.46727747439E+02  0.51100000000E-03 0. -1.
         23    2    1    0    0    0 -0.26367304814E+02 -0.16098259663E+02 -0.11401618341E+02  0.92069988945E+02  0.85979632682E+02 0.  0.
         11    1    3    3    0    0 -0.32585079085E+02  0.30161081908E+02 -0.91891579417E+01  0.45342241506E+02  0.51100000000E-03 0.  1.
         22    1    1    0    0    0  0.26367304814E+02  0.16098259663E+02  0.11401618341E+02  0.32930011055E+02  0.00000000000E+00 0. -1.
</event>
<event>
 5    1  0.8907853E-005  0.9118800E+02  0.7818608E-02  0.1130116E+00
         25   -1    0    0    0    0  0.00000000000E+00  0.00000000000E+00  0.99999998245E-14  0.12500000000E+03  0.12500000000E+03 0.  0.
        -11    1    3    3    0    0 -0.18935639184E+02  0.58365616711E+01  0.27564289426E+02  0.33947222792E+02  0.51100000000E-03 0.  1.
         23    2    1    0    0    0  0.43237355881E+01 -0.16973406375E+02 -0.24210157295E+02  0.95118183963E+02  0.90302524830E+02 0.  0.
         11    1    3    3    0    0  0.23259374773E+02 -0.22809968046E+02 -0.51774446721E+02  0.61170961171E+02  0.51100000000E-03 0. -1.
         22    1    1    0    0    0 -0.43237355881E+01  0.16973406375E+02  0.24210157295E+02  0.29881816037E+02  0.00000000000E+00 0. -1.
</event>
<event>
 5    1  0.8907853E-005  0.9118800E+02  0.7818608E-02  0.1130116E+00
         25   -1    0    0    0    0  0.00000000000E+00  0.00000000000E+00  0.99999998245E-14  0.12500000000E+03  0.12500000000E+03 0.  0.
        -11    1    3    3    0    0  0.63286752936E+01 -0.54367211379E+02 -0.25075057649E+02  0.60204686865E+02  0.51100000000E-03 0. -1.
         23    2    1    0    0    0  0.65665253093E+01 -0.19554507433E+02 -0.21505831874E+02  0.95200690944E+02  0.90416661827E+02 0.  0.
         11    1    3    3    0    0  0.23785001572E+00  0.34812703946E+02  0.35692257747E+01  0.34996004079E+02  0.51100000000E-03 0.  1.
         22    1    1    0    0    0 -0.65665253093E+01  0.19554507433E+02  0.21505831874E+02  0.29799309056E+02  0.00000000000E+00 0. -1.
</event>
<event>
 5    1  0.8907853E-005  0.9118800E+02  0.7818608E-02  0.1130116E+00
         25   -1    0    0    0    0  0.00000000000E+00  0.00000000000E+00  0.99999998245E-14  0.12500000000E+03  0.12500000000E+03 0.  0.
        -11    1    3    3    0    0 -0.25842940630E+02  0.27825488765E+02  0.96331510527E+00  0.37987410831E+02  0.51100000000E-03 0.  1.
         23    2    1    0    0    0  0.12208625546E+02 -0.88718799506E+01  0.24793559083E+02  0.95974470486E+02  0.91480148783E+02 0.  0.
         11    1    3    3    0    0  0.38051566176E+02 -0.36697368716E+02  0.23830243978E+02  0.57987059655E+02  0.51100000000E-03 0. -1.
         22    1    1    0    0    0 -0.12208625546E+02  0.88718799506E+01 -0.24793559083E+02  0.29025529514E+02  0.00000000000E+00 0. -1.
</event>
<event>
 5    1  0.8907853E-005  0.9118800E+02  0.7818608E-02  0.1130116E+00
         25   -1    0    0    0    0  0.00000000000E+00  0.00000000000E+00  0.99999998245E-14  0.12500000000E+03  0.12500000000E+03 0.  0.
        -11    1    3    3    0    0 -0.39314850012E+02 -0.22084318850E+02 -0.11702700280E+02  0.46586776714E+02  0.51100000000E-03 0.  1.
         23    2    1    0    0    0  0.10456684686E+02 -0.15359028361E+02 -0.20232807124E+02  0.97529861832E+02  0.93581330714E+02 0.  0.
         11    1    3    3    0    0  0.49771534698E+02  0.67252904883E+01 -0.85301068438E+01  0.50943085118E+02  0.51100000000E-03 0. -1.
         22    1    1    0    0    0 -0.10456684686E+02  0.15359028361E+02  0.20232807124E+02  0.27470138168E+02  0.00000000000E+00 0.  1.
</event>
<event>
 5    1  0.8907853E-005  0.9118800E+02  0.7818608E-02  0.1130116E+00
         25   -1    0    0    0    0  0.00000000000E+00  0.00000000000E+00  0.99999998245E-14  0.12500000000E+03  0.12500000000E+03 0.  0.
        -11    1    3    3    0    0 -0.81696333355E+01  0.19796627501E+02  0.54540969553E+02  0.58594937745E+02  0.51100000000E-03 0.  1.
         23    2    1    0    0    0 -0.15489661956E+02  0.16679459858E+02  0.18032453017E+02  0.95960313871E+02  0.91460802904E+02 0.  0.
         11    1    3    3    0    0 -0.73200286201E+01 -0.31171676434E+01 -0.36508516537E+02  0.37365376126E+02  0.51100000000E-03 0. -1.
         22    1    1    0    0    0  0.15489661956E+02 -0.16679459858E+02 -0.18032453017E+02  0.29039686129E+02  0.00000000000E+00 0.  1.
</event>
<event>
 5    1  0.8907853E-005  0.9118800E+02  0.7818608E-02  0.1130116E+00
         25   -1    0    0    0    0  0.00000000000E+00  0.00000000000E+00  0.99999998245E-14  0.12500000000E+03  0.12500000000E+03 0.  0.
        -11    1    3    3    0    0  0.52680128766E+02 -0.22901348073E+02  0.18576636235E+02  0.60371840492E+02  0.51100000000E-03 0.  1.
         23    2    1    0    0    0  0.17676067131E+02 -0.16369252084E+02  0.16012937200E+02  0.96072332953E+02  0.91613772099E+02 0.  0.
         11    1    3    3    0    0 -0.35004061635E+02  0.65320959885E+01 -0.25636990352E+01  0.35700492461E+02  0.51100000000E-03 0. -1.
         22    1    1    0    0    0 -0.17676067131E+02  0.16369252084E+02 -0.16012937200E+02  0.28927667047E+02  0.00000000000E+00 0.  1.
</event>
<event>
 5    1  0.8907853E-005  0.9118800E+02  0.7818608E-02  0.1130116E+00
         25   -1    0    0    0    0  0.00000000000E+00  0.00000000000E+00  0.99999998245E-14  0.12500000000E+03  0.12500000000E+03 0.  0.
        -11    1    3    3    0    0 -0.16043119454E+01  0.15378606038E+02 -0.34523795935E+02  0.37828135382E+02  0.51100000000E-03 0.  1.
         23    2    1    0    0    0 -0.26297039594E+02 -0.51947543776E+01  0.13007079299E+02  0.95205640192E+02  0.90423503847E+02 0.  0.
         11    1    3    3    0    0 -0.24692727649E+02 -0.20573360415E+02  0.47530875234E+02  0.57377504810E+02  0.51100000000E-03 0. -1.
         22    1    1    0    0    0  0.26297039594E+02  0.51947543776E+01 -0.13007079299E+02  0.29794359808E+02  0.00000000000E+00 0. -1.
</event>
<event>
 5    1  0.8907853E-005  0.9118800E+02  0.7818608E-02  0.1130116E+00
         25   -1    0    0    0    0  0.00000000000E+00  0.00000000000E+00  0.99999998245E-14  0.12500000000E+03  0.12500000000E+03 0.  0.
        -11    1    3    3    0    0  0.18340232257E+02 -0.12380551447E+02  0.48353398795E+02  0.53176059921E+02  0.51100000000E-03 0.  1.
         23    2    1    0    0    0  0.18905866497E+02  0.15617031510E+02  0.17308008631E+02  0.94985159938E+02  0.90118200073E+02 0.  0.
         11    1    3    3    0    0  0.56563423960E+00  0.27997582957E+02 -0.31045390164E+02  0.41809100017E+02  0.51100000000E-03 0. -1.
         22    1    1    0    0    0 -0.18905866497E+02 -0.15617031510E+02 -0.17308008631E+02  0.30014840062E+02  0.00000000000E+00 0.  1.
</event>
<event>
 5    1  0.8907853E-005  0.9118800E+02  0.7818608E-02  0.1130116E+00
         25   -1    0    0    0    0  0.00000000000E+00  0.00000000000E+00  0.99999998245E-14  0.12500000000E+03  0.12500000000E+03 0.  0.
        -11    1    3    3    0    0 -0.43688118934E+02  0.24460373168E+02  0.11796155036E+02  0.51440362221E+02  0.51100000000E-03 0.  1.
         23    2    1    0    0    0 -0.13604668330E+02  0.17516724473E+02 -0.19547228604E+02  0.95436225161E+02  0.90741700944E+02 0.  0.
         11    1    3    3    0    0  0.30083450604E+02 -0.69436486955E+01 -0.31343383641E+02  0.43995862939E+02  0.51100000000E-03 0. -1.
         22    1    1    0    0    0  0.13604668330E+02 -0.17516724473E+02  0.19547228604E+02  0.29563774839E+02  0.00000000000E+00 0.  1.
</event>
<event>
 5    1  0.8907853E-005  0.9118800E+02  0.7818608E-02  0.1130116E+00
         25   -1    0    0    0    0  0.00000000000E+00  0.00000000000E+00  0.99999998245E-14  0.12500000000E+03  0.12500000000E+03 0.  0.
        -11    1    3    3    0    0  0.44049416048E+02 -0.15393342755E+02 -0.24883819129E+01  0.46727915641E+02  0.51100000000E-03 0.  1.
         23    2    1    0    0    0  0.25321066362E+01 -0.50480448649E+01 -0.27928283927E+02  0.96506432935E+02  0.92204166033E+02 0.  0.
         11    1    3    3    0    0 -0.41517309412E+02  0.10345297890E+02 -0.25439902014E+02  0.49778517294E+02  0.51100000000E-03 0. -1.
         22    1    1    0    0    0 -0.25321066362E+01  0.50480448649E+01  0.27928283927E+02  0.28493567065E+02  0.00000000000E+00 0.  1.
</event>
<event>
 5    1  0.8907853E-005  0.9118800E+02  0.7818608E-02  0.1130116E+00
         25   -1    0    0    0    0  0.00000000000E+00  0.00000000000E+00  0.99999998245E-14  0.12500000000E+03  0.12500000000E+03 0.  0.
        -11    1    3    3    0    0  0.12350227808E+02 -0.51219073538E+02 -0.27137806409E+02  0.59265353774E+02  0.51100000000E-03 0. -1.
         23    2    1    0    0    0 -0.67220870550E+01 -0.28253483910E+02 -0.74761141121E+01  0.95011033868E+02  0.90154081810E+02 0.  0.
         11    1    3    3    0    0 -0.19072314863E+02  0.22965589627E+02  0.19661692296E+02  0.35745680094E+02  0.51100000000E-03 0.  1.
         22    1    1    0    0    0  0.67220870550E+01  0.28253483910E+02  0.74761141121E+01  0.29988966132E+02  0.00000000000E+00 0. -1.
</event>
<event>
 5    1  0.8907853E-005  0.9118800E+02  0.7818608E-02  0.1130116E+00
         25   -1    0    0    0    0  0.00000000000E+00  0.00000000000E+00  0.99999998245E-14  0.12500000000E+03  0.12500000000E+03 0.  0.
        -11    1    3    3    0    0  0.52934583160E+02  0.78123521256E+01  0.25562240673E+02  0.59300346446E+02  0.51100000000E-03 0. -1.
         23    2    1    0    0    0  0.17286927384E+02  0.51163304659E+01  0.23866131900E+02  0.95090019263E+02  0.90263529820E+02 0.  0.
         11    1    3    3    0    0 -0.35647655776E+02 -0.26960216597E+01 -0.16961087725E+01  0.35789672817E+02  0.51100000000E-03 0.  1.
         22    1    1    0    0    0 -0.17286927384E+02 -0.51163304659E+01 -0.23866131900E+02  0.29909980737E+02  0.00000000000E+00 0. -1.
</event>
<event>
 5    1  0.8907853E-005  0.9118800E+02  0.7818608E-02  0.1130116E+00
         25   -1    0    0    0    0  0.00000000000E+00  0.00000000000E+00  0.99999998245E-14  0.12500000000E+03  0.12500000000E+03 0.  0.
        -11    1    3    3    0    0 -0.54199557349E+02 -0.29273278859E+02 -0.20577514315E+01  0.61634010199E+02  0.51100000000E-03 0.  1.
         23    2    1    0    0    0 -0.27256029169E+02 -0.90801811171E+01  0.44524095627E+01  0.95928282368E+02  0.91417014784E+02 0.  0.
         11    1    3    3    0    0  0.26943528180E+02  0.20193097742E+02  0.65101609942E+01  0.34294272169E+02  0.51100000000E-03 0. -1.
         22    1    1    0    0    0  0.27256029169E+02  0.90801811171E+01 -0.44524095627E+01  0.29071717632E+02  0.00000000000E+00 0.  1.
</event>
<event>
 5    1  0.8907853E-005  0.9118800E+02  0.7818608E-02  0.1130116E+00
         25   -1    0    0    0    0  0.00000000000E+00  0.00000000000E+00  0.99999998245E-14  0.12500000000E+03  0.12500000000E+03 0.  0.
        -11    1    3    3    0    0  0.22622143273E+02 -0.19181073300E+02 -0.46530247269E+02  0.55179152316E+02  0.51100000000E-03 0.  1.
         23    2    1    0    0    0 -0.48133734795E+01 -0.23181515197E+02 -0.15974312883E+02  0.96439014668E+02  0.92112722612E+02 0.  0.
         11    1    3    3    0    0 -0.27435516752E+02 -0.40004418972E+01  0.30555934386E+02  0.41259862352E+02  0.51100000000E-03 0. -1.
         22    1    1    0    0    0  0.48133734795E+01  0.23181515197E+02  0.15974312883E+02  0.28560985332E+02  0.00000000000E+00 0.  1.
</event>
<event>
 5    1  0.8907853E-005  0.9118800E+02  0.7818608E-02  0.1130116E+00
         25   -1    0    0    0    0  0.00000000000E+00  0.00000000000E+00  0.99999998245E-14  0.12500000000E+03  0.12500000000E+03 0.  0.
        -11    1    3    3    0    0 -0.35378565519E+02 -0.61560321513E+01 -0.46761947363E+02  0.58959472110E+02  0.51100000000E-03 0. -1.
         23    2    1    0    0    0 -0.14576400341E+02 -0.17515406949E+02 -0.20327190193E+02  0.94463864216E+02  0.89392203541E+02 0.  0.
         11    1    3    3    0    0  0.20802165178E+02 -0.11359374798E+02  0.26434757170E+02  0.35504392106E+02  0.51100000000E-03 0.  1.
         22    1    1    0    0    0  0.14576400341E+02  0.17515406949E+02  0.20327190193E+02  0.30536135784E+02  0.00000000000E+00 0. -1.
</event>
<event>
 5    1  0.8907853E-005  0.9118800E+02  0.7818608E-02  0.1130116E+00
         25   -1    0    0    0    0  0.00000000000E+00  0.00000000000E+00  0.99999998245E-14  0.12500000000E+03  0.12500000000E+03 0.  0.
        -11    1    3    3    0    0  0.25597084160E+02  0.58937353772E+01 -0.30663801781E+02  0.40375928152E+02  0.51100000000E-03 0. -1.
         23    2    1    0    0    0 -0.12963914516E+02  0.26083141813E+02  0.34380742893E+01  0.95670599712E+02  0.91063988096E+02 0.  0.
         11    1    3    3    0    0 -0.38560998676E+02  0.20189406436E+02  0.34101876071E+02  0.55294671560E+02  0.51100000000E-03 0.  1.
         22    1    1    0    0    0  0.12963914516E+02 -0.26083141813E+02 -0.34380742893E+01  0.29329400288E+02  0.00000000000E+00 0.  1.
</event>
<event>
 5    1  0.8907853E-005  0.9118800E+02  0.7818608E-02  0.1130116E+00
         25   -1    0    0    0    0  0.00000000000E+00  0.00000000000E+00  0.99999998245E-14  0.12500000000E+03  0.12500000000E+03 0.  0.
        -11    1    3    3    0    0 -0.50530589666E+02  0.13577104718E+02  0.40911130265E+01  0.52482525383E+02  0.51100000000E-03 0.  1.
         23    2    1    0    0    0 -0.15539737175E+02 -0.48697260913E+01  0.23393466863E+02  0.96496457141E+02  0.92190640985E+02 0.  0.
         11    1    3    3    0    0  0.34990852491E+02 -0.18446830809E+02  0.19302353836E+02  0.44013931758E+02  0.51100000000E-03 0. -1.
         22    1    1    0    0    0  0.15539737175E+02  0.48697260913E+01 -0.23393466863E+02  0.28503542859E+02  0.00000000000E+00 0.  1.
</event>
<event>
 5    1  0.8907853E-005  0.9118800E+02  0.7818608E-02  0.1130116E+00
         25   -1    0    0    0    0  0.00000000000E+00  0.00000000000E+00  0.99999998245E-14  0.12500000000E+03  0.12500000000E+03 0.  0.
        -11    1    3    3    0    0 -0.10561609198E+01  0.34887643413E+02  0.24377904396E+01  0.34988654751E+02  0.51100000000E-03 0.  1.
         23    2    1    0    0    0  0.15712923979E+02 -0.23222839759E+02 -0.67384960883E+01  0.96162462033E+02  0.91736663926E+02 0.  0.
         11    1    3    3    0    0  0.16769084899E+02 -0.58110483171E+02 -0.91762865279E+01  0.61173807283E+02  0.51100000000E-03 0. -1.
         22    1    1    0    0    0 -0.15712923979E+02  0.23222839759E+02  0.67384960883E+01  0.28837537967E+02  0.00000000000E+00 0. -1.
</event>
<event>
 5    1  0.8907853E-005  0.9118800E+02  0.7818608E-02  0.1130116E+00
         25   -1    0    0    0    0  0.00000000000E+00  0.00000000000E+00  0.99999998245E-14  0.12500000000E+03  0.12500000000E+03 0.  0.
        -11    1    3    3    0    0  0.53133709356E+02 -0.34844634489E+01  0.17482366292E+02  0.56044318952E+02  0.51100000000E-03 0. -1.
         23    2    1    0    0    0  0.24988716140E+02  0.16968142462E+02  0.42605981213E+00  0.94791800453E+02  0.89849597179E+02 0.  0.
         11    1    3    3    0    0 -0.28144993215E+02  0.20452605910E+02 -0.17056306480E+02  0.38747481500E+02  0.51100000000E-03 0.  1.
         22    1    1    0    0    0 -0.24988716140E+02 -0.16968142462E+02 -0.42605981213E+00  0.30208199547E+02  0.00000000000E+00 0. -1.
</event>
<event>
 5    1  0.8907853E-005  0.9118800E+02  0.7818608E-02  0.1130116E+00
         25   -1    0    0    0    0  0.00000000000E+00  0.00000000000E+00  0.99999998245E-14  0.12500000000E+03  0.12500000000E+03 0.  0.
        -11    1    3    3    0    0  0.26082348566E+02  0.25494933841E+02  0.26695982809E+02  0.45199071414E+02  0.51100000000E-03 0. -1.
         23    2    1    0    0    0 -0.19094951903E+02  0.20882371342E+02  0.26630974545E+01  0.96578481583E+02  0.92301789776E+02 0.  0.
         11    1    3    3    0    0 -0.45177300470E+02 -0.46125624992E+01 -0.24032885355E+02  0.51379410169E+02  0.51100000000E-03 0.  1.
         22    1    1    0    0    0  0.19094951903E+02 -0.20882371342E+02 -0.26630974545E+01  0.28421518417E+02  0.00000000000E+00 0.  1.
</event>
<event>
 5    1  0.8907853E-005  0.9118800E+02  0.7818608E-02  0.1130116E+00
         25   -1    0    0    0    0  0.00000000000E+00  0.00000000000E+00  0.99999998245E-14  0.12500000000E+03  0.12500000000E+03 0.  0.
        -11    1    3    3    0    0 -0.87551988184E+01 -0.40583646475E+02 -0.30825655760E+02  0.51709833889E+02  0.51100000000E-03 0.  1.
         23    2    1    0    0    0  0.21854098219E+02 -0.17329025437E+02 -0.10460361774E+02  0.95212151806E+02  0.90432504950E+02 0.  0.
         11    1    3    3    0    0  0.30609297038E+02  0.23254621038E+02  0.20365293986E+02  0.43502317917E+02  0.51100000000E-03 0. -1.
         22    1    1    0    0    0 -0.21854098219E+02  0.17329025437E+02  0.10460361774E+02  0.29787848194E+02  0.00000000000E+00 0.  1.
</event>
<event>
 5    1  0.8907853E-005  0.9118800E+02  0.7818608E-02  0.1130116E+00
         25   -1    0    0    0    0  0.00000000000E+00  0.00000000000E+00  0.99999998245E-14  0.12500000000E+03  0.12500000000E+03 0.  0.
        -11    1    3    3    0    0 -0.24108436299E+02  0.28048641374E+02  0.28948480158E+01  0.37098829213E+02  0.51100000000E-03 0. -1.
         23    2    1    0    0    0  0.21216970612E+02 -0.54359983726E+01  0.19317830389E+02  0.95795745324E+02  0.91235608898E+02 0.  0.
         11    1    3    3    0    0  0.45325406911E+02 -0.33484639747E+02  0.16422982374E+02  0.58696916110E+02  0.51100000000E-03 0.  1.
         22    1    1    0    0    0 -0.21216970612E+02  0.54359983726E+01 -0.19317830389E+02  0.29204254676E+02  0.00000000000E+00 0.  1.
</event>
<event>
 5    1  0.8907853E-005  0.9118800E+02  0.7818608E-02  0.1130116E+00
         25   -1    0    0    0    0  0.00000000000E+00  0.00000000000E+00  0.99999998245E-14  0.12500000000E+03  0.12500000000E+03 0.  0.
        -11    1    3    3    0    0 -0.20168989112E+02 -0.18469458376E+02 -0.43947596489E+02  0.51761957574E+02  0.51100000000E-03 0.  1.
         23    2    1    0    0    0 -0.55276672994E+01 -0.27922090787E+02 -0.28601141881E+01  0.96392684277E+02  0.92049829273E+02 0.  0.
         11    1    3    3    0    0  0.14641321813E+02 -0.94526324118E+01  0.41087482301E+02  0.44630726703E+02  0.51100000000E-03 0. -1.
         22    1    1    0    0    0  0.55276672994E+01  0.27922090787E+02  0.28601141881E+01  0.28607315723E+02  0.00000000000E+00 0.  1.
</event>
<event>
 5    1  0.8907853E-005  0.9118800E+02  0.7818608E-02  0.1130116E+00
         25   -1    0    0    0    0  0.00000000000E+00  0.00000000000E+00  0.99999998245E-14  0.12500000000E+03  0.12500000000E+03 0.  0.
        -11    1    3    3    0    0  0.27609877857E+02 -0.22456124740E+02  0.17474926043E+02  0.39647899492E+02  0.51100000000E-03 0. -1.
         23    2    1    0    0    0  0.82327294359E+01  0.42835477612E+01 -0.27803166971E+02  0.95688863738E+02  0.91089054965E+02 0.  0.
         11    1    3    3    0    0 -0.19377148421E+02  0.26739672501E+02 -0.45278093013E+02  0.56040964246E+02  0.51100000000E-03 0.  1.
         22    1    1    0    0    0 -0.82327294359E+01 -0.42835477612E+01  0.27803166971E+02  0.29311136262E+02  0.00000000000E+00 0.  1.
</event>
<event>
 5    1  0.8907853E-005  0.9118800E+02  0.7818608E-02  0.1130116E+00
         25   -1    0    0    0    0  0.00000000000E+00  0.00000000000E+00  0.99999998245E-14  0.12500000000E+03  0.12500000000E+03 0.  0.
        -11    1    3    3    0    0 -0.22811739785E+01  0.29827087597E+02  0.26298221517E+02  0.39830332216E+02  0.51100000000E-03 0.  1.
         23    2    1    0    0    0  0.21760821362E+02 -0.17463297172E+02  0.75733777726E+01  0.96088823176E+02  0.91636268987E+02 0.  0.
         11    1    3    3    0    0  0.24041995341E+02 -0.47290384769E+02 -0.18724843745E+02  0.56258490960E+02  0.51100000000E-03 0. -1.
         22    1    1    0    0    0 -0.21760821362E+02  0.17463297172E+02 -0.75733777726E+01  0.28911176824E+02  0.00000000000E+00 0. -1.
</event>
<event>
 5    1  0.8907853E-005  0.9118800E+02  0.7818608E-02  0.1130116E+00
         25   -1    0    0    0    0  0.00000000000E+00  0.00000000000E+00  0.99999998245E-14  0.12500000000E+03  0.12500000000E+03 0.  0.
        -11    1    3    3    0    0 -0.39594949785E+02 -0.29645321263E+01 -0.18198371334E+02  0.43677559669E+02  0.51100000000E-03 0. -1.
         23    2    1    0    0    0 -0.19187435690E+02  0.32062680912E+02 -0.12576097819E+01  0.87613441213E+02  0.79236104795E+02 0.  0.
         11    1    3    3    0    0  0.20407514095E+02  0.35027213038E+02  0.16940761552E+02  0.43935881543E+02  0.51100000000E-03 0.  1.
         22    1    1    0    0    0  0.19187435690E+02 -0.32062680912E+02  0.12576097819E+01  0.37386558787E+02  0.00000000000E+00 0. -1.
</event>
<event>
 5    1  0.8907853E-005  0.9118800E+02  0.7818608E-02  0.1130116E+00
         25   -1    0    0    0    0  0.00000000000E+00  0.00000000000E+00  0.99999998245E-14  0.12500000000E+03  0.12500000000E+03 0.  0.
        -11    1    3    3    0    0  0.27694915977E+02  0.17579289085E+02  0.11468954035E+02  0.34750204066E+02  0.51100000000E-03 0.  1.
         23    2    1    0    0    0 -0.21444249811E+02 -0.32907484125E+01 -0.18948641311E+02  0.96194863608E+02  0.91780803559E+02 0.  0.
         11    1    3    3    0    0 -0.49139165787E+02 -0.20870037498E+02 -0.30417595345E+02  0.61444659542E+02  0.51100000000E-03 0. -1.
         22    1    1    0    0    0  0.21444249811E+02  0.32907484125E+01  0.18948641311E+02  0.28805136392E+02  0.00000000000E+00 0. -1.
</event>
<event>
 5    1  0.8907853E-005  0.9118800E+02  0.7818608E-02  0.1130116E+00
         25   -1    0    0    0    0  0.00000000000E+00  0.00000000000E+00  0.99999998245E-14  0.12500000000E+03  0.12500000000E+03 0.  0.
        -11    1    3    3    0    0  0.36208600987E+02 -0.19385552322E+02  0.30222270096E+02  0.50992627254E+02  0.51100000000E-03 0.  1.
         23    2    1    0    0    0  0.22589627407E+02 -0.13911301770E+02 -0.12139291063E+02  0.95825045487E+02  0.91275743611E+02 0.  0.
         11    1    3    3    0    0 -0.13618973581E+02  0.54742505517E+01 -0.42361561159E+02  0.44832418233E+02  0.51100000000E-03 0. -1.
         22    1    1    0    0    0 -0.22589627407E+02  0.13911301770E+02  0.12139291063E+02  0.29174954513E+02  0.00000000000E+00 0. -1.
</event>
<event>
 5    1  0.8907853E-005  0.9118800E+02  0.7818608E-02  0.1130116E+00
         25   -1    0    0    0    0  0.00000000000E+00  0.00000000000E+00  0.99999998245E-14  0.12500000000E+03  0.12500000000E+03 0.  0.
        -11    1    3    3    0    0  0.22083480739E+02  0.29825750359E+02 -0.25105568354E+02  0.44805636572E+02  0.51100000000E-03 0.  1.
         23    2    1    0    0    0 -0.11181052918E+02 -0.13268747755E+01 -0.32162978688E+02  0.90923120167E+02  0.84295788992E+02 0.  0.
         11    1    3    3    0    0 -0.33264533657E+02 -0.31152625135E+02 -0.70574103347E+01  0.46117483595E+02  0.51100000000E-03 0. -1.
         22    1    1    0    0    0  0.11181052918E+02  0.13268747755E+01  0.32162978688E+02  0.34076879833E+02  0.00000000000E+00 0. -1.
</event>
<event>
 5    1  0.8907853E-005  0.9118800E+02  0.7818608E-02  0.1130116E+00
         25   -1    0    0    0    0  0.00000000000E+00  0.00000000000E+00  0.99999998245E-14  0.12500000000E+03  0.12500000000E+03 0.  0.
        -11    1    3    3    0    0  0.50406725707E+02  0.13572491328E+02 -0.85258219916E+01  0.52893668413E+02  0.51100000000E-03 0. -1.
         23    2    1    0    0    0  0.22761661611E+02 -0.35332289230E+01  0.18725944804E+02  0.95314347662E+02  0.90573654643E+02 0.  0.
         11    1    3    3    0    0 -0.27645064095E+02 -0.17105720251E+02  0.27251766796E+02  0.42420679248E+02  0.51100000000E-03 0.  1.
         22    1    1    0    0    0 -0.22761661611E+02  0.35332289230E+01 -0.18725944804E+02  0.29685652338E+02  0.00000000000E+00 0. -1.
</event>
<event>
 5    1  0.8907853E-005  0.9118800E+02  0.7818608E-02  0.1130116E+00
         25   -1    0    0    0    0  0.00000000000E+00  0.00000000000E+00  0.99999998245E-14  0.12500000000E+03  0.12500000000E+03 0.  0.
        -11    1    3    3    0    0  0.25874268039E+02  0.23835117803E+02  0.68210447290E+00  0.35186017876E+02  0.51100000000E-03 0.  1.
         23    2    1    0    0    0 -0.25325478519E+02 -0.82301144421E+01  0.10471494228E+02  0.96385897929E+02  0.92040613222E+02 0.  0.
         11    1    3    3    0    0 -0.51199746557E+02 -0.32065232245E+02  0.97893897555E+01  0.61199880053E+02  0.51100000000E-03 0. -1.
         22    1    1    0    0    0  0.25325478519E+02  0.82301144421E+01 -0.10471494228E+02  0.28614102071E+02  0.00000000000E+00 0. -1.
</event>
<event>
 4    1  0.8907853E-005  0.9118800E+02  0.7818608E-02  0.1130116E+00
         25   -1    0    0    0    0  0.00000000000E+00  0.00000000000E+00  0.99999998245E-14  0.12500000000E+03  0.12500000000E+03 0.  0.
        -11    1    1    0    0    0 -0.25725299124E+01  0.53576810815E+02 -0.28089958689E+01  0.53712037992E+02  0.51100000000E-03 0.  1.
         11    1    1    0    0    0  0.13269977826E+02 -0.61604330069E+01 -0.13609832725E+02  0.19981761518E+02  0.51100000000E-03 0. -1.
         22    1    1    0    0    0 -0.10697447913E+02 -0.47416377808E+02  0.16418828594E+02  0.51306200489E+02  0.00000000000E+00 0.  1.
</event>
<event>
 5    1  0.8907853E-005  0.9118800E+02  0.7818608E-02  0.1130116E+00
         25   -1    0    0    0    0  0.00000000000E+00  0.00000000000E+00  0.99999998245E-14  0.12500000000E+03  0.12500000000E+03 0.  0.
        -11    1    3    3    0    0  0.40914280289E+02 -0.22556284023E+01 -0.80028437090E+01  0.41750589203E+02  0.51100000000E-03 0.  1.
         23    2    1    0    0    0 -0.10639678361E+02  0.15647146191E+02 -0.19829294536E+02  0.97591299532E+02  0.93663359341E+02 0.  0.
         11    1    3    3    0    0 -0.51553958650E+02  0.17902774593E+02 -0.11826450827E+02  0.55840710329E+02  0.51100000000E-03 0. -1.
         22    1    1    0    0    0  0.10639678361E+02 -0.15647146191E+02  0.19829294536E+02  0.27408700468E+02  0.00000000000E+00 0.  1.
</event>
<event>
 5    1  0.8907853E-005  0.9118800E+02  0.7818608E-02  0.1130116E+00
         25   -1    0    0    0    0  0.00000000000E+00  0.00000000000E+00  0.99999998245E-14  0.12500000000E+03  0.12500000000E+03 0.  0.
        -11    1    3    3    0    0 -0.20152323640E+02 -0.20145978184E+02 -0.48332218060E+02  0.56106861326E+02  0.51100000000E-03 0. -1.
         23    2    1    0    0    0 -0.10763184805E+02 -0.23342413695E+02 -0.73596991408E+01  0.98262767613E+02  0.94555232025E+02 0.  0.
         11    1    3    3    0    0  0.93891388348E+01 -0.31964355109E+01  0.40972518919E+02  0.42155906287E+02  0.51100000000E-03 0.  1.
         22    1    1    0    0    0  0.10763184805E+02  0.23342413695E+02  0.73596991408E+01  0.26737232387E+02  0.00000000000E+00 0. -1.
</event>
<event>
 5    1  0.8907853E-005  0.9118800E+02  0.7818608E-02  0.1130116E+00
         25   -1    0    0    0    0  0.00000000000E+00  0.00000000000E+00  0.99999998245E-14  0.12500000000E+03  0.12500000000E+03 0.  0.
        -11    1    3    3    0    0  0.29368055812E+02  0.13740173285E+02  0.13173183859E+02  0.34997254712E+02  0.51100000000E-03 0. -1.
         23    2    1    0    0    0 -0.21149746336E+02  0.18263820281E+01 -0.19372598727E+02  0.96260740740E+02  0.91870480488E+02 0.  0.
         11    1    3    3    0    0 -0.50517802148E+02 -0.11913791257E+02 -0.32545782586E+02  0.61263486029E+02  0.51100000000E-03 0.  1.
         22    1    1    0    0    0  0.21149746336E+02 -0.18263820281E+01  0.19372598727E+02  0.28739259260E+02  0.00000000000E+00 0.  1.
</event>
<event>
 5    1  0.8907853E-005  0.9118800E+02  0.7818608E-02  0.1130116E+00
         25   -1    0    0    0    0  0.00000000000E+00  0.00000000000E+00  0.99999998245E-14  0.12500000000E+03  0.12500000000E+03 0.  0.
        -11    1    3    3    0    0 -0.80465595729E+01  0.36463860772E+02 -0.13125389351E+02  0.39580754278E+02  0.51100000000E-03 0.  1.
         23    2    1    0    0    0  0.25797848621E+02 -0.81206382796E+01 -0.11585889687E+02  0.95577107562E+02  0.90935564498E+02 0.  0.
         11    1    3    3    0    0  0.33844408194E+02 -0.44584499051E+02  0.15394996642E+01  0.55996353284E+02  0.51100000000E-03 0. -1.
         22    1    1    0    0    0 -0.25797848621E+02  0.81206382796E+01  0.11585889687E+02  0.29422892438E+02  0.00000000000E+00 0. -1.
</event>
<event>
 5    1  0.8907853E-005  0.9118800E+02  0.7818608E-02  0.1130116E+00
         25   -1    0    0    0    0  0.00000000000E+00  0.00000000000E+00  0.99999998245E-14  0.12500000000E+03  0.12500000000E+03 0.  0.
        -11    1    3    3    0    0  0.36665694060E+02 -0.82299914591E+01 -0.27318535036E+02  0.46458672357E+02  0.51100000000E-03 0.  1.
         23    2    1    0    0    0  0.16646762995E+02 -0.16917843052E+02  0.16963878565E+02  0.95826359369E+02  0.91277542923E+02 0.  0.
         11    1    3    3    0    0 -0.20018931065E+02 -0.86878515925E+01  0.44282413601E+02  0.49367687012E+02  0.51100000000E-03 0. -1.
         22    1    1    0    0    0 -0.16646762995E+02  0.16917843052E+02 -0.16963878565E+02  0.29173640631E+02  0.00000000000E+00 0.  1.
</event>
<event>
 5    1  0.8907853E-005  0.9118800E+02  0.7818608E-02  0.1130116E+00
         25   -1    0    0    0    0  0.00000000000E+00  0.00000000000E+00  0.99999998245E-14  0.12500000000E+03  0.12500000000E+03 0.  0.
        -11    1    3    3    0    0 -0.21573817596E+02 -0.22144456063E+02 -0.18016934194E+02  0.35782907345E+02  0.51100000000E-03 0.  1.
         23    2    1    0    0    0  0.14690569988E+02  0.22032493042E+02  0.61124505030E+01  0.97822699778E+02  0.93971670968E+02 0.  0.
         11    1    3    3    0    0  0.36264387584E+02  0.44176949105E+02  0.24129384697E+02  0.62039792433E+02  0.51100000000E-03 0. -1.
         22    1    1    0    0    0 -0.14690569988E+02 -0.22032493042E+02 -0.61124505030E+01  0.27177300222E+02  0.00000000000E+00 0. -1.
</event>
<event>
 5    1  0.8907853E-005  0.9118800E+02  0.7818608E-02  0.1130116E+00
         25   -1    0    0    0    0  0.00000000000E+00  0.00000000000E+00  0.99999998245E-14  0.12500000000E+03  0.12500000000E+03 0.  0.
        -11    1    3    3    0    0 -0.23552541163E+02 -0.32104574827E+02  0.29595322740E+02  0.49611581797E+02  0.51100000000E-03 0. -1.
         23    2    1    0    0    0  0.15183719832E+02 -0.90920028592E+01  0.24242583354E+02  0.94984791995E+02  0.90117689710E+02 0.  0.
         11    1    3    3    0    0  0.38736260994E+02  0.23012571968E+02 -0.53527393860E+01  0.45373210197E+02  0.51100000000E-03 0.  1.
         22    1    1    0    0    0 -0.15183719832E+02  0.90920028592E+01 -0.24242583354E+02  0.30015208005E+02  0.00000000000E+00 0.  1.
</event>
<event>
 5    1  0.8907853E-005  0.9118800E+02  0.7818608E-02  0.1130116E+00
         25   -1    0    0    0    0  0.00000000000E+00  0.00000000000E+00  0.99999998245E-14  0.12500000000E+03  0.12500000000E+03 0.  0.
        -11    1    3    3    0    0  0.15649853233E+02  0.23578895170E+02 -0.54622987816E+02  0.61518720743E+02  0.51100000000E-03 0. -1.
         23    2    1    0    0    0  0.14794985463E+02  0.99321014186E+01 -0.23543099774E+02  0.95473473276E+02  0.90792997081E+02 0.  0.
         11    1    3    3    0    0 -0.85486777039E+00 -0.13646793751E+02  0.31079888042E+02  0.33954752533E+02  0.51100000000E-03 0.  1.
         22    1    1    0    0    0 -0.14794985463E+02 -0.99321014186E+01  0.23543099774E+02  0.29526526724E+02  0.00000000000E+00 0. -1.
</event>
<event>
 5    1  0.8907853E-005  0.9118800E+02  0.7818608E-02  0.1130116E+00
         25   -1    0    0    0    0  0.00000000000E+00  0.00000000000E+00  0.99999998245E-14  0.12500000000E+03  0.12500000000E+03 0.  0.
        -11    1    3    3    0    0 -0.39904364134E+02  0.29924827057E+02  0.38254550469E+01  0.50024870394E+02  0.51100000000E-03 0. -1.
         23    2    1    0    0    0  0.81687991970E+01  0.25006584206E+02 -0.15520600177E+01  0.98647250157E+02  0.95062150930E+02 0.  0.
         11    1    3    3    0    0  0.48073163331E+02 -0.49182428513E+01 -0.53775150646E+01  0.48622379764E+02  0.51100000000E-03 0.  1.
         22    1    1    0    0    0 -0.81687991970E+01 -0.25006584206E+02  0.15520600177E+01  0.26352749843E+02  0.00000000000E+00 0.  1.
</event>
<event>
 5    1  0.8907853E-005  0.9118800E+02  0.7818608E-02  0.1130116E+00
         25   -1    0    0    0    0  0.00000000000E+00  0.00000000000E+00  0.99999998245E-14  0.12500000000E+03  0.12500000000E+03 0.  0.
        -11    1    3    3    0    0 -0.25074727677E+02 -0.29944497923E+02  0.37004767058E+02  0.53803045538E+02  0.51100000000E-03 0. -1.
         23    2    1    0    0    0 -0.27691440149E+02  0.47811728532E+00  0.74010504445E+01  0.96332596886E+02  0.91968196793E+02 0.  0.
         11    1    3    3    0    0 -0.26167124719E+01  0.30422615208E+02 -0.29603716613E+02  0.42529551348E+02  0.51100000000E-03 0.  1.
         22    1    1    0    0    0  0.27691440149E+02 -0.47811728532E+00 -0.74010504445E+01  0.28667403114E+02  0.00000000000E+00 0. -1.
</event>
<event>
 5    1  0.8907853E-005  0.9118800E+02  0.7818608E-02  0.1130116E+00
         25   -1    0    0    0    0  0.00000000000E+00  0.00000000000E+00  0.99999998245E-14  0.12500000000E+03  0.12500000000E+03 0.  0.
        -11    1    3    3    0    0  0.52013455362E+02  0.64384623425E+01  0.31916201707E+02  0.61363647771E+02  0.51100000000E-03 0. -1.
         23    2    1    0    0    0  0.24991087808E+02  0.11512742331E+02  0.14693538809E+02  0.93807087527E+02  0.88469044765E+02 0.  0.
         11    1    3    3    0    0 -0.27022367554E+02  0.50742799885E+01 -0.17222662898E+02  0.32443439756E+02  0.51100000000E-03 0.  1.
         22    1    1    0    0    0 -0.24991087808E+02 -0.11512742331E+02 -0.14693538809E+02  0.31192912473E+02  0.00000000000E+00 0. -1.
</event>
<event>
 5    1  0.8907853E-005  0.9118800E+02  0.7818608E-02  0.1130116E+00
         25   -1    0    0    0    0  0.00000000000E+00  0.00000000000E+00  0.99999998245E-14  0.12500000000E+03  0.12500000000E+03 0.  0.
        -11    1    3    3    0    0 -0.24612881754E+02  0.38437325192E+02  0.12399462795E+02  0.47296602352E+02  0.51100000000E-03 0. -1.
         23    2    1    0    0    0 -0.11423819804E+02  0.10186770469E+02 -0.24814439458E+02  0.95844719910E+02  0.91302683298E+02 0.  0.
         11    1    3    3    0    0  0.13189061950E+02 -0.28250554723E+02 -0.37213902253E+02  0.48548117558E+02  0.51100000000E-03 0.  1.
         22    1    1    0    0    0  0.11423819804E+02 -0.10186770469E+02  0.24814439458E+02  0.29155280090E+02  0.00000000000E+00 0.  1.
</event>
<event>
 5    1  0.8907853E-005  0.9118800E+02  0.7818608E-02  0.1130116E+00
         25   -1    0    0    0    0  0.00000000000E+00  0.00000000000E+00  0.99999998245E-14  0.12500000000E+03  0.12500000000E+03 0.  0.
        -11    1    3    3    0    0 -0.33382418049E+02 -0.13008563767E+02  0.45826919894E+00  0.35830414134E+02  0.51100000000E-03 0.  1.
         23    2    1    0    0    0  0.25453740070E+02 -0.78265943659E+01  0.11629578060E+02  0.95941515030E+02  0.91435106811E+02 0.  0.
         11    1    3    3    0    0  0.58836158119E+02  0.51819694013E+01  0.11171308861E+02  0.60111100896E+02  0.51100000000E-03 0. -1.
         22    1    1    0    0    0 -0.25453740070E+02  0.78265943659E+01 -0.11629578060E+02  0.29058484970E+02  0.00000000000E+00 0. -1.
</event>
<event>
 5    1  0.8907853E-005  0.9118800E+02  0.7818608E-02  0.1130116E+00
         25   -1    0    0    0    0  0.00000000000E+00  0.00000000000E+00  0.99999998245E-14  0.12500000000E+03  0.12500000000E+03 0.  0.
        -11    1    3    3    0    0  0.24780098393E+02  0.96281480554E+01  0.23052460636E+02  0.35187646312E+02  0.51100000000E-03 0.  1.
         23    2    1    0    0    0 -0.24905713519E+02  0.10735048175E+02 -0.11317247250E+02  0.95612657307E+02  0.90984418043E+02 0.  0.
         11    1    3    3    0    0 -0.49685811912E+02  0.11069001199E+01 -0.34369707887E+02  0.60425010995E+02  0.51100000000E-03 0. -1.
         22    1    1    0    0    0  0.24905713519E+02 -0.10735048175E+02  0.11317247250E+02  0.29387342693E+02  0.00000000000E+00 0. -1.
</event>
<event>
 5    1  0.8907853E-005  0.9118800E+02  0.7818608E-02  0.1130116E+00
         25   -1    0    0    0    0  0.00000000000E+00  0.00000000000E+00  0.99999998245E-14  0.12500000000E+03  0.12500000000E+03 0.  0.
        -11    1    3    3    0    0 -0.23199220790E+02  0.16188958079E+02  0.22194977092E+02  0.35956963405E+02  0.51100000000E-03 0. -1.
         23    2    1    0    0    0  0.22093448338E+02 -0.17797884886E+02  0.41763642203E+00  0.96626428035E+02  0.92366698591E+02 0.  0.
         11    1    3    3    0    0  0.45292669128E+02 -0.33986842966E+02 -0.21777340670E+02  0.60669464629E+02  0.51100000000E-03 0.  1.
         22    1    1    0    0    0 -0.22093448338E+02  0.17797884886E+02 -0.41763642203E+00  0.28373571965E+02  0.00000000000E+00 0.  1.
</event>
<event>
 5    1  0.8907853E-005  0.9118800E+02  0.7818608E-02  0.1130116E+00
         25   -1    0    0    0    0  0.00000000000E+00  0.00000000000E+00  0.99999998245E-14  0.12500000000E+03  0.12500000000E+03 0.  0.
        -11    1    3    3    0    0  0.25936359796E+02 -0.19813558890E+02  0.67820948490E+01  0.33335696875E+02  0.51100000000E-03 0.  1.
         23    2    1    0    0    0 -0.16764702308E+02  0.19865754349E+02 -0.14312275239E+02  0.95326027198E+02  0.90589772047E+02 0.  0.
         11    1    3    3    0    0 -0.42701062104E+02  0.39679313239E+02 -0.21094370088E+02  0.61990330323E+02  0.51100000000E-03 0. -1.
         22    1    1    0    0    0  0.16764702308E+02 -0.19865754349E+02  0.14312275239E+02  0.29673972802E+02  0.00000000000E+00 0. -1.
</event>
<event>
 5    1  0.8907853E-005  0.9118800E+02  0.7818608E-02  0.1130116E+00
         25   -1    0    0    0    0  0.00000000000E+00  0.00000000000E+00  0.99999998245E-14  0.12500000000E+03  0.12500000000E+03 0.  0.
        -11    1    3    3    0    0  0.50005673930E+02 -0.29440951796E+01 -0.23126649552E+02  0.55173155079E+02  0.51100000000E-03 0.  1.
         23    2    1    0    0    0  0.30040629357E+02  0.44068892260E+01  0.86638306401E+01  0.93425927628E+02  0.87928845705E+02 0.  0.
         11    1    3    3    0    0 -0.19965044573E+02  0.73509844056E+01  0.31790480192E+02  0.38252772549E+02  0.51100000000E-03 0. -1.
         22    1    1    0    0    0 -0.30040629357E+02 -0.44068892260E+01 -0.86638306401E+01  0.31574072372E+02  0.00000000000E+00 0.  1.
</event>
<event>
 5    1  0.8907853E-005  0.9118800E+02  0.7818608E-02  0.1130116E+00
         25   -1    0    0    0    0  0.00000000000E+00  0.00000000000E+00  0.99999998245E-14  0.12500000000E+03  0.12500000000E+03 0.  0.
        -11    1    3    3    0    0  0.88263002717E+01 -0.12232449061E+02 -0.60187623597E+02  0.62049064627E+02  0.51100000000E-03 0. -1.
         23    2    1    0    0    0  0.79732927955E+01 -0.20877621084E+01 -0.28526202119E+02  0.95306964521E+02  0.90563464655E+02 0.  0.
         11    1    3    3    0    0 -0.85300747621E+00  0.10144686953E+02  0.31661421478E+02  0.33257899895E+02  0.51100000000E-03 0.  1.
         22    1    1    0    0    0 -0.79732927955E+01  0.20877621084E+01  0.28526202119E+02  0.29693035479E+02  0.00000000000E+00 0. -1.
</event>
<event>
 5    1  0.8907853E-005  0.9118800E+02  0.7818608E-02  0.1130116E+00
         25   -1    0    0    0    0  0.00000000000E+00  0.00000000000E+00  0.99999998245E-14  0.12500000000E+03  0.12500000000E+03 0.  0.
        -11    1    3    3    0    0 -0.81662258230E+00 -0.23181441841E+02 -0.56179158953E+02  0.60779470376E+02  0.51100000000E-03 0.  1.
         23    2    1    0    0    0  0.16111063941E+01 -0.10142084883E+01 -0.29006696821E+02  0.95930897105E+02  0.91420590002E+02 0.  0.
         11    1    3    3    0    0  0.24277289764E+01  0.22167233353E+02  0.27172462132E+02  0.35151426729E+02  0.51100000000E-03 0. -1.
         22    1    1    0    0    0 -0.16111063941E+01  0.10142084883E+01  0.29006696821E+02  0.29069102895E+02  0.00000000000E+00 0.  1.
</event>
<event>
 5    1  0.8907853E-005  0.9118800E+02  0.7818608E-02  0.1130116E+00
         25   -1    0    0    0    0  0.00000000000E+00  0.00000000000E+00  0.99999998245E-14  0.12500000000E+03  0.12500000000E+03 0.  0.
        -11    1    3    3    0    0 -0.41315133103E+02 -0.38836705034E+02 -0.20509524472E+02  0.60298179703E+02  0.51100000000E-03 0. -1.
         23    2    1    0    0    0 -0.11592029220E+02 -0.19380227678E+02 -0.18373497144E+02  0.95887223362E+02  0.91360855078E+02 0.  0.
         11    1    3    3    0    0  0.29723103883E+02  0.19456477357E+02  0.21360273281E+01  0.35589043659E+02  0.51100000000E-03 0.  1.
         22    1    1    0    0    0  0.11592029220E+02  0.19380227678E+02  0.18373497144E+02  0.29112776638E+02  0.00000000000E+00 0. -1.
</event>
<event>
 5    1  0.8907853E-005  0.9118800E+02  0.7818608E-02  0.1130116E+00
         25   -1    0    0    0    0  0.00000000000E+00  0.00000000000E+00  0.99999998245E-14  0.12500000000E+03  0.12500000000E+03 0.  0.
        -11    1    3    3    0    0 -0.18152344243E+02  0.19057762479E+02 -0.27230152216E+02  0.37870662816E+02  0.51100000000E-03 0. -1.
         23    2    1    0    0    0  0.29961425903E+02  0.91682387416E+01 -0.78352077671E+00  0.93657416371E+02  0.88257317502E+02 0.  0.
         11    1    3    3    0    0  0.48113770146E+02 -0.98895237374E+01  0.26446631439E+02  0.55786753554E+02  0.51100000000E-03 0.  1.
         22    1    1    0    0    0 -0.29961425903E+02 -0.91682387416E+01  0.78352077671E+00  0.31342583629E+02  0.00000000000E+00 0.  1.
</event>
<event>
 5    1  0.8907853E-005  0.9118800E+02  0.7818608E-02  0.1130116E+00
         25   -1    0    0    0    0  0.00000000000E+00  0.00000000000E+00  0.99999998245E-14  0.12500000000E+03  0.12500000000E+03 0.  0.
        -11    1    3    3    0    0  0.62962444178E+01  0.43820470417E+01  0.42215352235E+02  0.42906654432E+02  0.51100000000E-03 0.  1.
         23    2    1    0    0    0  0.90258672216E+01 -0.29302785769E+02  0.37484937087E+01  0.94110345777E+02  0.88896492868E+02 0.  0.
         11    1    3    3    0    0  0.27296228038E+01 -0.33684832811E+02 -0.38466858526E+02  0.51203691344E+02  0.51100000000E-03 0. -1.
         22    1    1    0    0    0 -0.90258672216E+01  0.29302785769E+02 -0.37484937087E+01  0.30889654223E+02  0.00000000000E+00 0. -1.
</event>
<event>
 5    1  0.8907853E-005  0.9118800E+02  0.7818608E-02  0.1130116E+00
         25   -1    0    0    0    0  0.00000000000E+00  0.00000000000E+00  0.99999998245E-14  0.12500000000E+03  0.12500000000E+03 0.  0.
        -11    1    3    3    0    0  0.37360136537E+01 -0.18348605443E+02  0.47787227598E+02  0.51324928071E+02  0.51100000000E-03 0. -1.
         23    2    1    0    0    0  0.15123664193E+01  0.18310880276E+02  0.22671315979E+02  0.95818427786E+02  0.91266680374E+02 0.  0.
         11    1    3    3    0    0 -0.22236472344E+01  0.36659485719E+02 -0.25115911619E+02  0.44493499715E+02  0.51100000000E-03 0.  1.
         22    1    1    0    0    0 -0.15123664193E+01 -0.18310880276E+02 -0.22671315979E+02  0.29181572214E+02  0.00000000000E+00 0. -1.
</event>
<event>
 5    1  0.8907853E-005  0.9118800E+02  0.7818608E-02  0.1130116E+00
         25   -1    0    0    0    0  0.00000000000E+00  0.00000000000E+00  0.99999998245E-14  0.12500000000E+03  0.12500000000E+03 0.  0.
        -11    1    3    3    0    0  0.84789714565E-01 -0.23792321293E+01 -0.36108242043E+02  0.36186642267E+02  0.51100000000E-03 0. -1.
         23    2    1    0    0    0 -0.23532890140E+02  0.14864554456E+02  0.13724502525E+02  0.93965924098E+02  0.88693184769E+02 0.  0.
         11    1    3    3    0    0 -0.23617679855E+02  0.17243786585E+02  0.49832744568E+02  0.57779281832E+02  0.51100000000E-03 0.  1.
         22    1    1    0    0    0  0.23532890140E+02 -0.14864554456E+02 -0.13724502525E+02  0.31034075902E+02  0.00000000000E+00 0.  1.
</event>
<event>
 5    1  0.8907853E-005  0.9118800E+02  0.7818608E-02  0.1130116E+00
         25   -1    0    0    0    0  0.00000000000E+00  0.00000000000E+00  0.99999998245E-14  0.12500000000E+03  0.12500000000E+03 0.  0.
        -11    1    3    3    0    0  0.48204573247E+02 -0.55173648967E+01 -0.33088611415E+02  0.58728003566E+02  0.51100000000E-03 0. -1.
         23    2    1    0    0    0  0.24217745307E+02 -0.14354655464E+02 -0.55438571366E+01  0.96306975182E+02  0.91933366062E+02 0.  0.
         11    1    3    3    0    0 -0.23986827939E+02 -0.88372905675E+01  0.27544754278E+02  0.37578971616E+02  0.51100000000E-03 0.  1.
         22    1    1    0    0    0 -0.24217745307E+02  0.14354655464E+02  0.55438571366E+01  0.28693024818E+02  0.00000000000E+00 0. -1.
</event>
<event>
 5    1  0.8907853E-005  0.9118800E+02  0.7818608E-02  0.1130116E+00
         25   -1    0    0    0    0  0.00000000000E+00  0.00000000000E+00  0.99999998245E-14  0.12500000000E+03  0.12500000000E+03 0.  0.
        -11    1    3    3    0    0 -0.38767874910E+02  0.30596207033E+02 -0.13907065126E+02  0.51307723303E+02  0.51100000000E-03 0.  1.
         23    2    1    0    0    0 -0.11597457884E+02 -0.19434005871E+01 -0.26896835252E+02  0.95644973484E+02  0.91028805171E+02 0.  0.
         11    1    3    3    0    0  0.27170417026E+02 -0.32539607620E+02 -0.12989770125E+02  0.44337250181E+02  0.51100000000E-03 0. -1.
         22    1    1    0    0    0  0.11597457884E+02  0.19434005871E+01  0.26896835252E+02  0.29355026516E+02  0.00000000000E+00 0. -1.
</event>
<event>
 5    1  0.8907853E-005  0.9118800E+02  0.7818608E-02  0.1130116E+00
         25   -1    0    0    0    0  0.00000000000E+00  0.00000000000E+00  0.99999998245E-14  0.12500000000E+03  0.12500000000E+03 0.  0.
        -11    1    3    3    0    0 -0.77715825397E+01 -0.47991133163E+02 -0.33966566953E+02  0.59306610325E+02  0.51100000000E-03 0.  1.
         23    2    1    0    0    0  0.14063793172E+01 -0.12911333600E+02 -0.25258331463E+02  0.96598173538E+02  0.92328453818E+02 0.  0.
         11    1    3    3    0    0  0.91779618569E+01  0.35079799563E+02  0.87082354904E+01  0.37291563213E+02  0.51100000000E-03 0. -1.
         22    1    1    0    0    0 -0.14063793172E+01  0.12911333600E+02  0.25258331463E+02  0.28401826462E+02  0.00000000000E+00 0.  1.
</event>
<event>
 5    1  0.8907853E-005  0.9118800E+02  0.7818608E-02  0.1130116E+00
         25   -1    0    0    0    0  0.00000000000E+00  0.00000000000E+00  0.99999998245E-14  0.12500000000E+03  0.12500000000E+03 0.  0.
        -11    1    3    3    0    0  0.60615922785E+01 -0.71986806924E+01  0.13860314053E+02  0.16753274623E+02  0.51100000000E-03 0.  1.
         23    2    1    0    0    0  0.23625058562E+02  0.16131702591E+02 -0.38695992065E+02  0.76877707635E+02  0.59953539586E+02 0.  0.
         11    1    3    3    0    0  0.17563466283E+02  0.23330383284E+02 -0.52556306118E+02  0.60124433013E+02  0.51100000000E-03 0. -1.
         22    1    1    0    0    0 -0.23625058562E+02 -0.16131702591E+02  0.38695992065E+02  0.48122292365E+02  0.00000000000E+00 0. -1.
</event>
<event>
 5    1  0.8907853E-005  0.9118800E+02  0.7818608E-02  0.1130116E+00
         25   -1    0    0    0    0  0.00000000000E+00  0.00000000000E+00  0.99999998245E-14  0.12500000000E+03  0.12500000000E+03 0.  0.
        -11    1    3    3    0    0 -0.41381346683E+02  0.43411597206E+02 -0.36346976287E+01  0.60084887055E+02  0.51100000000E-03 0.  1.
         23    2    1    0    0    0 -0.14512431771E+02  0.12019059317E+02  0.10089602233E+02  0.10362551671E+03  0.10139713594E+03 0.  0.
         11    1    3    3    0    0  0.26868914912E+02 -0.31392537889E+02  0.13724299862E+02  0.43540629654E+02  0.51100000000E-03 0. -1.
         22    1    1    0    0    0  0.14512431771E+02 -0.12019059317E+02 -0.10089602233E+02  0.21374483291E+02  0.00000000000E+00 0.  1.
</event>
<event>
 5    1  0.8907853E-005  0.9118800E+02  0.7818608E-02  0.1130116E+00
         25   -1    0    0    0    0  0.00000000000E+00  0.00000000000E+00  0.99999998245E-14  0.12500000000E+03  0.12500000000E+03 0.  0.
        -11    1    3    3    0    0 -0.51945655826E+02 -0.36875947820E+01  0.21003180128E+02  0.56152320435E+02  0.51100000000E-03 0. -1.
         23    2    1    0    0    0 -0.78476611629E+01 -0.87091931154E+01  0.21470099247E+02  0.10053776396E+03  0.97516362677E+02 0.  0.
         11    1    3    3    0    0  0.44097994663E+02 -0.50215983334E+01  0.46691911866E+00  0.44385443524E+02  0.51100000000E-03 0.  1.
         22    1    1    0    0    0  0.78476611629E+01  0.87091931154E+01 -0.21470099247E+02  0.24462236041E+02  0.00000000000E+00 0. -1.
</event>
<event>
 5    1  0.8907853E-005  0.9118800E+02  0.7818608E-02  0.1130116E+00
         25   -1    0    0    0    0  0.00000000000E+00  0.00000000000E+00  0.99999998245E-14  0.12500000000E+03  0.12500000000E+03 0.  0.
        -11    1    3    3    0    0 -0.51101978379E+02  0.15213809085E+02  0.13205735703E+02  0.54929624401E+02  0.51100000000E-03 0.  1.
         23    2    1    0    0    0 -0.25880460326E+02 -0.14561651155E+02  0.38658681442E+01  0.95053633817E+02  0.90213127949E+02 0.  0.
         11    1    3    3    0    0  0.25221518053E+02 -0.29775460240E+02 -0.93398675583E+01  0.40124009417E+02  0.51100000000E-03 0. -1.
         22    1    1    0    0    0  0.25880460326E+02  0.14561651155E+02 -0.38658681442E+01  0.29946366183E+02  0.00000000000E+00 0.  1.
</event>
<event>
 5    1  0.8907853E-005  0.9118800E+02  0.7818608E-02  0.1130116E+00
         25   -1    0    0    0    0  0.00000000000E+00  0.00000000000E+00  0.99999998245E-14  0.12500000000E+03  0.12500000000E+03 0.  0.
        -11    1    3    3    0    0  0.37604001111E+02 -0.54101345897E+01 -0.33885698715E+02  0.50907475222E+02  0.51100000000E-03 0. -1.
         23    2    1    0    0    0  0.34796962192E+02 -0.19205591350E+01  0.47730249961E+01  0.89824740331E+02  0.82650983555E+02 0.  0.
         11    1    3    3    0    0 -0.28070389190E+01  0.34895754547E+01  0.38658723711E+02  0.38917265109E+02  0.51100000000E-03 0.  1.
         22    1    1    0    0    0 -0.34796962192E+02  0.19205591350E+01 -0.47730249961E+01  0.35175259669E+02  0.00000000000E+00 0.  1.
</event>
<event>
 5    1  0.8907853E-005  0.9118800E+02  0.7818608E-02  0.1130116E+00
         25   -1    0    0    0    0  0.00000000000E+00  0.00000000000E+00  0.99999998245E-14  0.12500000000E+03  0.12500000000E+03 0.  0.
        -11    1    3    3    0    0  0.64973317740E+01  0.19514718192E+02  0.33124515528E+02  0.38990679342E+02  0.51100000000E-03 0.  1.
         23    2    1    0    0    0  0.15959841841E+02 -0.12451318626E+02 -0.16576252770E+02  0.98836589614E+02  0.95310793741E+02 0.  0.
         11    1    3    3    0    0  0.94625100669E+01 -0.31966036819E+02 -0.49700768298E+02  0.59845910272E+02  0.51100000000E-03 0. -1.
         22    1    1    0    0    0 -0.15959841841E+02  0.12451318626E+02  0.16576252770E+02  0.26163410386E+02  0.00000000000E+00 0. -1.
</event>
<event>
 5    1  0.8907853E-005  0.9118800E+02  0.7818608E-02  0.1130116E+00
         25   -1    0    0    0    0  0.00000000000E+00  0.00000000000E+00  0.99999998245E-14  0.12500000000E+03  0.12500000000E+03 0.  0.
        -11    1    3    3    0    0 -0.89923523366E+01 -0.30792045221E+02 -0.15232445165E+02  0.35511122700E+02  0.51100000000E-03 0. -1.
         23    2    1    0    0    0  0.22911553188E+02  0.18122402020E+02 -0.31346238147E+00  0.95785979682E+02  0.91222228215E+02 0.  0.
         11    1    3    3    0    0  0.31903905525E+02  0.48914447241E+02  0.14918982784E+02  0.60274856982E+02  0.51100000000E-03 0.  1.
         22    1    1    0    0    0 -0.22911553188E+02 -0.18122402020E+02  0.31346238147E+00  0.29214020318E+02  0.00000000000E+00 0.  1.
</event>
<event>
 5    1  0.8907853E-005  0.9118800E+02  0.7818608E-02  0.1130116E+00
         25   -1    0    0    0    0  0.00000000000E+00  0.00000000000E+00  0.99999998245E-14  0.12500000000E+03  0.12500000000E+03 0.  0.
        -11    1    3    3    0    0 -0.26305432256E+02 -0.19204328063E+02  0.96506031102E+01  0.33969340930E+02  0.51100000000E-03 0.  1.
         23    2    1    0    0    0  0.27087951915E+02 -0.18117130740E+02 -0.10058908443E+02  0.90894733482E+02  0.84253684611E+02 0.  0.
         11    1    3    3    0    0  0.53393384171E+02  0.10871973235E+01 -0.19709511553E+02  0.56925392552E+02  0.51100000000E-03 0. -1.
         22    1    1    0    0    0 -0.27087951915E+02  0.18117130740E+02  0.10058908443E+02  0.34105266518E+02  0.00000000000E+00 0. -1.
</event>
<event>
 5    1  0.8907853E-005  0.9118800E+02  0.7818608E-02  0.1130116E+00
         25   -1    0    0    0    0  0.00000000000E+00  0.00000000000E+00  0.99999998245E-14  0.12500000000E+03  0.12500000000E+03 0.  0.
        -11    1    3    3    0    0 -0.33993743518E+02 -0.17033542673E+01 -0.25480943730E+02  0.42517696407E+02  0.51100000000E-03 0.  1.
         23    2    1    0    0    0  0.51378818186E+01 -0.29126560862E+02 -0.31681789305E+01  0.95254551021E+02  0.90491092132E+02 0.  0.
         11    1    3    3    0    0  0.39131625336E+02 -0.27423206594E+02  0.22312764799E+02  0.52736854615E+02  0.51100000000E-03 0. -1.
         22    1    1    0    0    0 -0.51378818186E+01  0.29126560862E+02  0.31681789305E+01  0.29745448979E+02  0.00000000000E+00 0. -1.
</event>
<event>
 5    1  0.8907853E-005  0.9118800E+02  0.7818608E-02  0.1130116E+00
         25   -1    0    0    0    0  0.00000000000E+00  0.00000000000E+00  0.99999998245E-14  0.12500000000E+03  0.12500000000E+03 0.  0.
        -11    1    3    3    0    0 -0.36598632482E+02  0.41453197542E+02 -0.27678204218E+02  0.61837775469E+02  0.51100000000E-03 0.  1.
         23    2    1    0    0    0 -0.10531870364E+02  0.17759323208E+02 -0.15759222005E+02  0.99025648567E+02  0.95558422663E+02 0.  0.
         11    1    3    3    0    0  0.26066762119E+02 -0.23693874334E+02  0.11918982213E+02  0.37187873098E+02  0.51100000000E-03 0. -1.
         22    1    1    0    0    0  0.10531870364E+02 -0.17759323208E+02  0.15759222005E+02  0.25974351433E+02  0.00000000000E+00 0.  1.
</event>
<event>
 5    1  0.8907853E-005  0.9118800E+02  0.7818608E-02  0.1130116E+00
         25   -1    0    0    0    0  0.00000000000E+00  0.00000000000E+00  0.99999998245E-14  0.12500000000E+03  0.12500000000E+03 0.  0.
        -11    1    3    3    0    0  0.20105210285E+02  0.28294322614E+02 -0.12095612157E+02  0.36757203464E+02  0.51100000000E-03 0. -1.
         23    2    1    0    0    0  0.11562431972E+02 -0.27585992200E+02  0.20144066159E+01  0.95021096872E+02  0.90168033238E+02 0.  0.
         11    1    3    3    0    0 -0.85427783130E+01 -0.55880314814E+02  0.14110018773E+02  0.58263893408E+02  0.51100000000E-03 0.  1.
         22    1    1    0    0    0 -0.11562431972E+02  0.27585992200E+02 -0.20144066159E+01  0.29978903128E+02  0.00000000000E+00 0.  1.
</event>
<event>
 5    1  0.8907853E-005  0.9118800E+02  0.7818608E-02  0.1130116E+00
         25   -1    0    0    0    0  0.00000000000E+00  0.00000000000E+00  0.99999998245E-14  0.12500000000E+03  0.12500000000E+03 0.  0.
        -11    1    3    3    0    0 -0.15919331617E+02 -0.46637536928E+02 -0.29847648379E+02  0.57613948691E+02  0.51100000000E-03 0.  1.
         23    2    1    0    0    0  0.10171528803E+02 -0.21859617979E+02 -0.15420420657E+02  0.96380211922E+02  0.92032890754E+02 0.  0.
         11    1    3    3    0    0  0.26090860420E+02  0.24777918948E+02  0.14427227722E+02  0.38766263231E+02  0.51100000000E-03 0. -1.
         22    1    1    0    0    0 -0.10171528803E+02  0.21859617979E+02  0.15420420657E+02  0.28619788078E+02  0.00000000000E+00 0.  1.
</event>
<event>
 5    1  0.8907853E-005  0.9118800E+02  0.7818608E-02  0.1130116E+00
         25   -1    0    0    0    0  0.00000000000E+00  0.00000000000E+00  0.99999998245E-14  0.12500000000E+03  0.12500000000E+03 0.  0.
        -11    1    3    3    0    0  0.31234543829E+02 -0.43725402075E+02  0.16878017693E+02  0.56323840391E+02  0.51100000000E-03 0.  1.
         23    2    1    0    0    0 -0.20547658842E+01 -0.29008383132E+02  0.13717928359E+01  0.95886598098E+02  0.91359999586E+02 0.  0.
         11    1    3    3    0    0 -0.33289309713E+02  0.14717018944E+02 -0.15506224857E+02  0.39562757707E+02  0.51100000000E-03 0. -1.
         22    1    1    0    0    0  0.20547658842E+01  0.29008383132E+02 -0.13717928359E+01  0.29113401902E+02  0.00000000000E+00 0.  1.
</event>
<event>
 5    1  0.8907853E-005  0.9118800E+02  0.7818608E-02  0.1130116E+00
         25   -1    0    0    0    0  0.00000000000E+00  0.00000000000E+00  0.99999998245E-14  0.12500000000E+03  0.12500000000E+03 0.  0.
        -11    1    3    3    0    0 -0.42733606183E+02  0.96494854269E+01  0.29708970889E+02  0.52932944543E+02  0.51100000000E-03 0.  1.
         23    2    1    0    0    0 -0.23471641107E+02 -0.16207474078E+02  0.44958572923E+00  0.96472780024E+02  0.92158531922E+02 0.  0.
         11    1    3    3    0    0  0.19261965077E+02 -0.25856959505E+02 -0.29259385160E+02  0.43539835481E+02  0.51100000000E-03 0. -1.
         22    1    1    0    0    0  0.23471641107E+02  0.16207474078E+02 -0.44958572923E+00  0.28527219976E+02  0.00000000000E+00 0.  1.
</event>
<event>
 5    1  0.8907853E-005  0.9118800E+02  0.7818608E-02  0.1130116E+00
         25   -1    0    0    0    0  0.00000000000E+00  0.00000000000E+00  0.99999998245E-14  0.12500000000E+03  0.12500000000E+03 0.  0.
        -11    1    3    3    0    0  0.46670042617E+02  0.84732384440E+00  0.10191039051E+02  0.47777276113E+02  0.51100000000E-03 0. -1.
         23    2    1    0    0    0  0.10125394703E+02  0.28596148578E+02  0.58119569025E+00  0.94658590675E+02  0.89664082378E+02 0.  0.
         11    1    3    3    0    0 -0.36544647915E+02  0.27748824734E+02 -0.96098433611E+01  0.46881314561E+02  0.51100000000E-03 0.  1.
         22    1    1    0    0    0 -0.10125394703E+02 -0.28596148578E+02 -0.58119569025E+00  0.30341409325E+02  0.00000000000E+00 0.  1.
</event>
<event>
 5    1  0.8907853E-005  0.9118800E+02  0.7818608E-02  0.1130116E+00
         25   -1    0    0    0    0  0.00000000000E+00  0.00000000000E+00  0.99999998245E-14  0.12500000000E+03  0.12500000000E+03 0.  0.
        -11    1    3    3    0    0 -0.96423002034E+01  0.57449255870E+02  0.10942477952E+02  0.59271652391E+02  0.51100000000E-03 0.  1.
         23    2    1    0    0    0  0.72258392669E+01  0.27322053796E+02  0.13064918929E+02  0.93864819202E+02  0.88550577640E+02 0.  0.
         11    1    3    3    0    0  0.16868139470E+02 -0.30127202074E+02  0.21224409769E+01  0.34593166810E+02  0.51100000000E-03 0. -1.
         22    1    1    0    0    0 -0.72258392669E+01 -0.27322053796E+02 -0.13064918929E+02  0.31135180798E+02  0.00000000000E+00 0.  1.
</event>
<event>
 5    1  0.8907853E-005  0.9118800E+02  0.7818608E-02  0.1130116E+00
         25   -1    0    0    0    0  0.00000000000E+00  0.00000000000E+00  0.99999998245E-14  0.12500000000E+03  0.12500000000E+03 0.  0.
        -11    1    3    3    0    0 -0.44492120374E+02  0.38776021431E+01 -0.36894858205E+02  0.57929397856E+02  0.51100000000E-03 0. -1.
         23    2    1    0    0    0 -0.22896366860E+02 -0.10789584155E+02 -0.49073885921E+01  0.99217424403E+02  0.95808956266E+02 0.  0.
         11    1    3    3    0    0  0.21595753514E+02 -0.14667186298E+02  0.31987469612E+02  0.41288026548E+02  0.51100000000E-03 0.  1.
         22    1    1    0    0    0  0.22896366860E+02  0.10789584155E+02  0.49073885921E+01  0.25782575597E+02  0.00000000000E+00 0. -1.
</event>
<event>
 5    1  0.8907853E-005  0.9118800E+02  0.7818608E-02  0.1130116E+00
         25   -1    0    0    0    0  0.00000000000E+00  0.00000000000E+00  0.99999998245E-14  0.12500000000E+03  0.12500000000E+03 0.  0.
        -11    1    3    3    0    0 -0.58048576618E+02  0.21522308475E+02  0.13650955822E+01  0.61925039328E+02  0.51100000000E-03 0.  1.
         23    2    1    0    0    0 -0.30515133254E+02  0.53031102202E+01 -0.13688234252E+01  0.93997257975E+02  0.88737334272E+02 0.  0.
         11    1    3    3    0    0  0.27533443365E+02 -0.16219198255E+02 -0.27339190075E+01  0.32072218647E+02  0.51100000000E-03 0. -1.
         22    1    1    0    0    0  0.30515133254E+02 -0.53031102202E+01  0.13688234252E+01  0.31002742025E+02  0.00000000000E+00 0.  1.
</event>
<event>
 5    1  0.8907853E-005  0.9118800E+02  0.7818608E-02  0.1130116E+00
         25   -1    0    0    0    0  0.00000000000E+00  0.00000000000E+00  0.99999998245E-14  0.12500000000E+03  0.12500000000E+03 0.  0.
        -11    1    3    3    0    0  0.11314392949E+02 -0.29548331861E+02 -0.24487511744E+02  0.40009469320E+02  0.51100000000E-03 0.  1.
         23    2    1    0    0    0  0.16964699203E+02  0.22934788194E+02 -0.10312341286E+02  0.94666027109E+02  0.89674448854E+02 0.  0.
         11    1    3    3    0    0  0.56503062541E+01  0.52483120055E+02  0.14175170458E+02  0.54656557789E+02  0.51100000000E-03 0. -1.
         22    1    1    0    0    0 -0.16964699203E+02 -0.22934788194E+02  0.10312341286E+02  0.30333972891E+02  0.00000000000E+00 0. -1.
</event>
<event>
 5    1  0.8907853E-005  0.9118800E+02  0.7818608E-02  0.1130116E+00
         25   -1    0    0    0    0  0.00000000000E+00  0.00000000000E+00  0.99999998245E-14  0.12500000000E+03  0.12500000000E+03 0.  0.
        -11    1    3    3    0    0  0.43204493942E+02 -0.19422572488E+02  0.32540303810E+02  0.57469435278E+02  0.51100000000E-03 0.  1.
         23    2    1    0    0    0  0.25915104549E+02  0.47681697610E+01  0.46384980779E+01  0.98244743487E+02  0.94531401512E+02 0.  0.
         11    1    3    3    0    0 -0.17289389394E+02  0.24190742249E+02 -0.27901805733E+02  0.40775308209E+02  0.51100000000E-03 0. -1.
         22    1    1    0    0    0 -0.25915104549E+02 -0.47681697610E+01 -0.46384980779E+01  0.26755256513E+02  0.00000000000E+00 0.  1.
</event>
<event>
 5    1  0.8907853E-005  0.9118800E+02  0.7818608E-02  0.1130116E+00
         25   -1    0    0    0    0  0.00000000000E+00  0.00000000000E+00  0.99999998245E-14  0.12500000000E+03  0.12500000000E+03 0.  0.
        -11    1    3    3    0    0 -0.16331740335E+02 -0.47557997702E+02 -0.16751267178E+02  0.53000885277E+02  0.51100000000E-03 0.  1.
         23    2    1    0    0    0  0.10466557337E+02 -0.25367672658E+02  0.88146620189E+01  0.96176990007E+02  0.91756457548E+02 0.  0.
         11    1    3    3    0    0  0.26798297672E+02  0.22190325044E+02  0.25565929197E+02  0.43176104730E+02  0.51100000000E-03 0. -1.
         22    1    1    0    0    0 -0.10466557337E+02  0.25367672658E+02 -0.88146620189E+01  0.28823009993E+02  0.00000000000E+00 0.  1.
</event>
<event>
 5    1  0.8907853E-005  0.9118800E+02  0.7818608E-02  0.1130116E+00
         25   -1    0    0    0    0  0.00000000000E+00  0.00000000000E+00  0.99999998245E-14  0.12500000000E+03  0.12500000000E+03 0.  0.
        -11    1    3    3    0    0 -0.96842256702E+01  0.14519389642E+02  0.50739116731E+02  0.53656825003E+02  0.51100000000E-03 0. -1.
         23    2    1    0    0    0 -0.22860865853E+02  0.11950958775E+02  0.87176880376E+01  0.97770554763E+02  0.93902282670E+02 0.  0.
         11    1    3    3    0    0 -0.13176640183E+02 -0.25684308669E+01 -0.42021428694E+02  0.44113729760E+02  0.51100000000E-03 0.  1.
         22    1    1    0    0    0  0.22860865853E+02 -0.11950958775E+02 -0.87176880376E+01  0.27229445237E+02  0.00000000000E+00 0.  1.
</event>
<event>
 5    1  0.8907853E-005  0.9118800E+02  0.7818608E-02  0.1130116E+00
         25   -1    0    0    0    0  0.00000000000E+00  0.00000000000E+00  0.99999998245E-14  0.12500000000E+03  0.12500000000E+03 0.  0.
        -11    1    3    3    0    0  0.18739526866E+02  0.45814112859E+02  0.10923534883E+02  0.50689509948E+02  0.51100000000E-03 0.  1.
         23    2    1    0    0    0  0.40351776334E+01  0.19851484178E+02 -0.21981172748E+02  0.95107926837E+02  0.90288325432E+02 0.  0.
         11    1    3    3    0    0 -0.14704349232E+02 -0.25962628681E+02 -0.32904707631E+02  0.44418416889E+02  0.51100000000E-03 0. -1.
         22    1    1    0    0    0 -0.40351776334E+01 -0.19851484178E+02  0.21981172748E+02  0.29892073163E+02  0.00000000000E+00 0. -1.
</event>
<event>
 5    1  0.8907853E-005  0.9118800E+02  0.7818608E-02  0.1130116E+00
         25   -1    0    0    0    0  0.00000000000E+00  0.00000000000E+00  0.99999998245E-14  0.12500000000E+03  0.12500000000E+03 0.  0.
        -11    1    3    3    0    0  0.20130843552E+02  0.40630028509E+02  0.57078241063E+01  0.45701524428E+02  0.51100000000E-03 0.  1.
         23    2    1    0    0    0  0.17372958498E+02 -0.86913999410E+01  0.19992797608E+02  0.97123987443E+02  0.93037609925E+02 0.  0.
         11    1    3    3    0    0 -0.27578850544E+01 -0.49321428450E+02  0.14284973502E+02  0.51422463015E+02  0.51100000000E-03 0. -1.
         22    1    1    0    0    0 -0.17372958498E+02  0.86913999410E+01 -0.19992797608E+02  0.27876012557E+02  0.00000000000E+00 0. -1.
</event>
<event>
 5    1  0.8907853E-005  0.9118800E+02  0.7818608E-02  0.1130116E+00
         25   -1    0    0    0    0  0.00000000000E+00  0.00000000000E+00  0.99999998245E-14  0.12500000000E+03  0.12500000000E+03 0.  0.
        -11    1    3    3    0    0 -0.25182906720E+02 -0.17311122092E+01 -0.22090041193E+02  0.33543187990E+02  0.51100000000E-03 0. -1.
         23    2    1    0    0    0  0.13518548720E+02  0.28312906358E+02  0.99517545119E+01  0.92084817427E+02  0.86001188113E+02 0.  0.
         11    1    3    3    0    0  0.38701455440E+02  0.30044018568E+02  0.32041795705E+02  0.58541629437E+02  0.51100000000E-03 0.  1.
         22    1    1    0    0    0 -0.13518548720E+02 -0.28312906358E+02 -0.99517545119E+01  0.32915182573E+02  0.00000000000E+00 0.  1.
</event>
<event>
 5    1  0.8907853E-005  0.9118800E+02  0.7818608E-02  0.1130116E+00
         25   -1    0    0    0    0  0.00000000000E+00  0.00000000000E+00  0.99999998245E-14  0.12500000000E+03  0.12500000000E+03 0.  0.
        -11    1    3    3    0    0  0.17597875562E+02 -0.16887581534E+02  0.52624787608E+02  0.58002102595E+02  0.51100000000E-03 0.  1.
         23    2    1    0    0    0 -0.13553406831E+01 -0.20663225760E+02  0.18436974636E+02  0.97274057619E+02  0.93239017609E+02 0.  0.
         11    1    3    3    0    0 -0.18953216245E+02 -0.37756442266E+01 -0.34187812972E+02  0.39271955024E+02  0.51100000000E-03 0. -1.
         22    1    1    0    0    0  0.13553406831E+01  0.20663225760E+02 -0.18436974636E+02  0.27725942381E+02  0.00000000000E+00 0.  1.
</event>
<event>
 5    1  0.8907853E-005  0.9118800E+02  0.7818608E-02  0.1130116E+00
         25   -1    0    0    0    0  0.00000000000E+00  0.00000000000E+00  0.99999998245E-14  0.12500000000E+03  0.12500000000E+03 0.  0.
        -11    1    3    3    0    0 -0.23632881642E+02 -0.15101743009E+02  0.24651811984E+02  0.37340160297E+02  0.51100000000E-03 0.  1.
         23    2    1    0    0    0  0.19227647200E+02 -0.10248205963E+02 -0.17047380640E+02  0.97335196928E+02  0.93320947444E+02 0.  0.
         11    1    3    3    0    0  0.42860528843E+02  0.48535370450E+01 -0.41699192625E+02  0.59995036631E+02  0.51100000000E-03 0. -1.
         22    1    1    0    0    0 -0.19227647200E+02  0.10248205963E+02  0.17047380640E+02  0.27664803072E+02  0.00000000000E+00 0. -1.
</event>
<event>
 5    1  0.8907853E-005  0.9118800E+02  0.7818608E-02  0.1130116E+00
         25   -1    0    0    0    0  0.00000000000E+00  0.00000000000E+00  0.99999998245E-14  0.12500000000E+03  0.12500000000E+03 0.  0.
        -11    1    3    3    0    0 -0.42297027117E+02  0.31621811625E+02  0.72295369601E+01  0.53303317704E+02  0.51100000000E-03 0. -1.
         23    2    1    0    0    0 -0.26531089400E+02  0.16603189755E+01 -0.15637542966E+02  0.94158662255E+02  0.88964406163E+02 0.  0.
         11    1    3    3    0    0  0.15765937716E+02 -0.29961492649E+02 -0.22867079926E+02  0.40855344552E+02  0.51100000000E-03 0.  1.
         22    1    1    0    0    0  0.26531089400E+02 -0.16603189755E+01  0.15637542966E+02  0.30841337745E+02  0.00000000000E+00 0. -1.
</event>
<event>
 5    1  0.8907853E-005  0.9118800E+02  0.7818608E-02  0.1130116E+00
         25   -1    0    0    0    0  0.00000000000E+00  0.00000000000E+00  0.99999998245E-14  0.12500000000E+03  0.12500000000E+03 0.  0.
        -11    1    3    3    0    0  0.41640686559E+02 -0.98457833331E+01 -0.22965923810E+02  0.48562535799E+02  0.51100000000E-03 0. -1.
         23    2    1    0    0    0  0.18851183431E+02  0.19386733180E+02  0.79339217581E+01  0.96819161570E+02  0.92627157964E+02 0.  0.
         11    1    3    3    0    0 -0.22789503128E+02  0.29232516513E+02  0.30899845568E+02  0.48256625772E+02  0.51100000000E-03 0.  1.
         22    1    1    0    0    0 -0.18851183431E+02 -0.19386733180E+02 -0.79339217581E+01  0.28180838430E+02  0.00000000000E+00 0.  1.
</event>
<event>
 5    1  0.8907853E-005  0.9118800E+02  0.7818608E-02  0.1130116E+00
         25   -1    0    0    0    0  0.00000000000E+00  0.00000000000E+00  0.99999998245E-14  0.12500000000E+03  0.12500000000E+03 0.  0.
        -11    1    3    3    0    0  0.21152938069E+02  0.80313584692E+01  0.56754891046E+02  0.61098831133E+02  0.51100000000E-03 0.  1.
         23    2    1    0    0    0  0.58302154172E+01  0.12165635082E+02  0.25640285565E+02  0.96027282961E+02  0.91552284190E+02 0.  0.
         11    1    3    3    0    0 -0.15322722652E+02  0.41342766129E+01 -0.31114605482E+02  0.34928451829E+02  0.51100000000E-03 0. -1.
         22    1    1    0    0    0 -0.58302154172E+01 -0.12165635082E+02 -0.25640285565E+02  0.28972717039E+02  0.00000000000E+00 0.  1.
</event>
<event>
 5    1  0.8907853E-005  0.9118800E+02  0.7818608E-02  0.1130116E+00
         25   -1    0    0    0    0  0.00000000000E+00  0.00000000000E+00  0.99999998245E-14  0.12500000000E+03  0.12500000000E+03 0.  0.
        -11    1    3    3    0    0 -0.46195116236E+02  0.20682758572E+02  0.20245881150E+02  0.54512943141E+02  0.51100000000E-03 0.  1.
         23    2    1    0    0    0 -0.78303995213E+01  0.27445701429E+02  0.94042534174E+01  0.94949681101E+02  0.90068975098E+02 0.  0.
         11    1    3    3    0    0  0.38364716714E+02  0.67629428572E+01 -0.10841627732E+02  0.40436737960E+02  0.51100000000E-03 0. -1.
         22    1    1    0    0    0  0.78303995213E+01 -0.27445701429E+02 -0.94042534174E+01  0.30050318899E+02  0.00000000000E+00 0.  1.
</event>
<event>
 5    1  0.8907853E-005  0.9118800E+02  0.7818608E-02  0.1130116E+00
         25   -1    0    0    0    0  0.00000000000E+00  0.00000000000E+00  0.99999998245E-14  0.12500000000E+03  0.12500000000E+03 0.  0.
        -11    1    3    3    0    0  0.43836817334E+01 -0.20861027929E+02 -0.52914575541E+02  0.57046923289E+02  0.51100000000E-03 0. -1.
         23    2    1    0    0    0  0.11404777923E+02 -0.22772801013E+02 -0.15450911176E+02  0.95210738820E+02  0.90430551834E+02 0.  0.
         11    1    3    3    0    0  0.70210961899E+01 -0.19117730847E+01  0.37463664365E+02  0.38163815531E+02  0.51100000000E-03 0.  1.
         22    1    1    0    0    0 -0.11404777923E+02  0.22772801013E+02  0.15450911176E+02  0.29789261180E+02  0.00000000000E+00 0. -1.
</event>
<event>
 5    1  0.8907853E-005  0.9118800E+02  0.7818608E-02  0.1130116E+00
         25   -1    0    0    0    0  0.00000000000E+00  0.00000000000E+00  0.99999998245E-14  0.12500000000E+03  0.12500000000E+03 0.  0.
        -11    1    3    3    0    0 -0.37079570722E+02 -0.66139751871E+01  0.19940506256E+02  0.42617637460E+02  0.51100000000E-03 0.  1.
         23    2    1    0    0    0 -0.71742140113E+01 -0.33192266940E+02 -0.62966480623E+01  0.90462430484E+02  0.83609853611E+02 0.  0.
         11    1    3    3    0    0  0.29905356710E+02 -0.26578291753E+02 -0.26237154319E+02  0.47844793023E+02  0.51100000000E-03 0. -1.
         22    1    1    0    0    0  0.71742140113E+01  0.33192266940E+02  0.62966480623E+01  0.34537569516E+02  0.00000000000E+00 0. -1.
</event>
<event>
 5    1  0.8907853E-005  0.9118800E+02  0.7818608E-02  0.1130116E+00
         25   -1    0    0    0    0  0.00000000000E+00  0.00000000000E+00  0.99999998245E-14  0.12500000000E+03  0.12500000000E+03 0.  0.
        -11    1    3    3    0    0 -0.48280970277E+02 -0.15780114024E+02  0.16258565380E+02  0.53332963896E+02  0.51100000000E-03 0.  1.
         23    2    1    0    0    0 -0.69066213920E+01 -0.14456716858E+02  0.24679135754E+02  0.95576237105E+02  0.90934367960E+02 0.  0.
         11    1    3    3    0    0  0.41374348885E+02  0.13233971662E+01  0.84205703738E+01  0.42243273209E+02  0.51100000000E-03 0. -1.
         22    1    1    0    0    0  0.69066213920E+01  0.14456716858E+02 -0.24679135754E+02  0.29423762895E+02  0.00000000000E+00 0.  1.
</event>
<event>
 5    1  0.8907853E-005  0.9118800E+02  0.7818608E-02  0.1130116E+00
         25   -1    0    0    0    0  0.00000000000E+00  0.00000000000E+00  0.99999998245E-14  0.12500000000E+03  0.12500000000E+03 0.  0.
        -11    1    3    3    0    0 -0.19850768345E+02  0.17816684667E+02 -0.46246120355E+02  0.53387179215E+02  0.51100000000E-03 0. -1.
         23    2    1    0    0    0 -0.54550627826E+01 -0.15760699773E+02 -0.22627328560E+02  0.96890333245E+02  0.92723154127E+02 0.  0.
         11    1    3    3    0    0  0.14395705562E+02 -0.33577384440E+02  0.23618791794E+02  0.43503154030E+02  0.51100000000E-03 0.  1.
         22    1    1    0    0    0  0.54550627826E+01  0.15760699773E+02  0.22627328560E+02  0.28109666755E+02  0.00000000000E+00 0. -1.
</event>
<event>
 5    1  0.8907853E-005  0.9118800E+02  0.7818608E-02  0.1130116E+00
         25   -1    0    0    0    0  0.00000000000E+00  0.00000000000E+00  0.99999998245E-14  0.12500000000E+03  0.12500000000E+03 0.  0.
        -11    1    3    3    0    0  0.15506626244E+02 -0.35999617203E+02 -0.57275297418E+01  0.39613539269E+02  0.51100000000E-03 0.  1.
         23    2    1    0    0    0  0.21547948789E+02  0.13640195769E+02  0.16801748751E+02  0.94460389676E+02  0.89387344849E+02 0.  0.
         11    1    3    3    0    0  0.60413225454E+01  0.49639812972E+02  0.22529278493E+02  0.54846850408E+02  0.51100000000E-03 0. -1.
         22    1    1    0    0    0 -0.21547948789E+02 -0.13640195769E+02 -0.16801748751E+02  0.30539610324E+02  0.00000000000E+00 0. -1.
</event>
<event>
 5    1  0.8907853E-005  0.9118800E+02  0.7818608E-02  0.1130116E+00
         25   -1    0    0    0    0  0.00000000000E+00  0.00000000000E+00  0.99999998245E-14  0.12500000000E+03  0.12500000000E+03 0.  0.
        -11    1    3    3    0    0  0.36275958652E+02  0.33354818521E+02  0.27802101334E+02  0.56581321419E+02  0.51100000000E-03 0.  1.
         23    2    1    0    0    0  0.57229482167E+01  0.27774554813E+02  0.27033937009E+01  0.96513400188E+02  0.92213610964E+02 0.  0.
         11    1    3    3    0    0 -0.30553010435E+02 -0.55802637084E+01 -0.25098707634E+02  0.39932078769E+02  0.51100000000E-03 0. -1.
         22    1    1    0    0    0 -0.57229482167E+01 -0.27774554813E+02 -0.27033937009E+01  0.28486599812E+02  0.00000000000E+00 0.  1.
</event>
<event>
 5    1  0.8907853E-005  0.9118800E+02  0.7818608E-02  0.1130116E+00
         25   -1    0    0    0    0  0.00000000000E+00  0.00000000000E+00  0.99999998245E-14  0.12500000000E+03  0.12500000000E+03 0.  0.
        -11    1    3    3    0    0  0.60100944736E+02  0.14878860234E+01  0.15314003113E+01  0.60138860566E+02  0.51100000000E-03 0. -1.
         23    2    1    0    0    0  0.27956347115E+02 -0.11289230765E+02 -0.11048781438E+01  0.94830067435E+02  0.89902818970E+02 0.  0.
         11    1    3    3    0    0 -0.32144597621E+02 -0.12777116788E+02 -0.26362784551E+01  0.34691206868E+02  0.51100000000E-03 0.  1.
         22    1    1    0    0    0 -0.27956347115E+02  0.11289230765E+02  0.11048781438E+01  0.30169932565E+02  0.00000000000E+00 0. -1.
</event>
<event>
 5    1  0.8907853E-005  0.9118800E+02  0.7818608E-02  0.1130116E+00
         25   -1    0    0    0    0  0.00000000000E+00  0.00000000000E+00  0.99999998245E-14  0.12500000000E+03  0.12500000000E+03 0.  0.
        -11    1    3    3    0    0  0.16864111509E+02  0.13647524412E+02 -0.15222825488E+02  0.26502596018E+02  0.51100000000E-03 0. -1.
         23    2    1    0    0    0 -0.29664334545E+02  0.19441433532E+02  0.19199555240E+02  0.84669304454E+02  0.74446800560E+02 0.  0.
         11    1    3    3    0    0 -0.46528446054E+02  0.57939091193E+01  0.34422380728E+02  0.58166708437E+02  0.51100000000E-03 0.  1.
         22    1    1    0    0    0  0.29664334545E+02 -0.19441433532E+02 -0.19199555240E+02  0.40330695546E+02  0.00000000000E+00 0.  1.
</event>
<event>
 5    1  0.8907853E-005  0.9118800E+02  0.7818608E-02  0.1130116E+00
         25   -1    0    0    0    0  0.00000000000E+00  0.00000000000E+00  0.99999998245E-14  0.12500000000E+03  0.12500000000E+03 0.  0.
        -11    1    3    3    0    0  0.18756163859E+02 -0.13738641465E+02 -0.31910664519E+02  0.39482077736E+02  0.51100000000E-03 0.  1.
         23    2    1    0    0    0  0.58195019140E+01 -0.20853385617E+02  0.21255310994E+02  0.94659951555E+02  0.89665979550E+02 0.  0.
         11    1    3    3    0    0 -0.12936661945E+02 -0.71147441522E+01  0.53165975514E+02  0.55177873819E+02  0.51100000000E-03 0. -1.
         22    1    1    0    0    0 -0.58195019140E+01  0.20853385617E+02 -0.21255310994E+02  0.30340048445E+02  0.00000000000E+00 0. -1.
</event>
<event>
 5    1  0.8907853E-005  0.9118800E+02  0.7818608E-02  0.1130116E+00
         25   -1    0    0    0    0  0.00000000000E+00  0.00000000000E+00  0.99999998245E-14  0.12500000000E+03  0.12500000000E+03 0.  0.
        -11    1    3    3    0    0  0.10972433176E+02 -0.36893614146E+02 -0.34726705526E+02  0.51840882819E+02  0.51100000000E-03 0.  1.
         23    2    1    0    0    0  0.18700706619E+02 -0.23490959859E+02  0.50792908190E+01  0.94547728847E+02  0.89509397337E+02 0.  0.
         11    1    3    3    0    0  0.77282734433E+01  0.13402654286E+02  0.39805996345E+02  0.42706846027E+02  0.51100000000E-03 0. -1.
         22    1    1    0    0    0 -0.18700706619E+02  0.23490959859E+02 -0.50792908190E+01  0.30452271153E+02  0.00000000000E+00 0.  1.
</event>
<event>
 5    1  0.8907853E-005  0.9118800E+02  0.7818608E-02  0.1130116E+00
         25   -1    0    0    0    0  0.00000000000E+00  0.00000000000E+00  0.99999998245E-14  0.12500000000E+03  0.12500000000E+03 0.  0.
        -11    1    3    3    0    0 -0.34562714240E+02 -0.21791872121E+02 -0.43565443382E+02  0.59727839100E+02  0.51100000000E-03 0.  1.
         23    2    1    0    0    0 -0.27862095844E+02 -0.25157650226E+01 -0.28241070628E+02  0.85248477656E+02  0.75412992342E+02 0.  0.
         11    1    3    3    0    0  0.67006183960E+01  0.19276107098E+02  0.15324372754E+02  0.25520638556E+02  0.51100000000E-03 0. -1.
         22    1    1    0    0    0  0.27862095844E+02  0.25157650226E+01  0.28241070628E+02  0.39751522344E+02  0.00000000000E+00 0.  1.
</event>
<event>
 5    1  0.8907853E-005  0.9118800E+02  0.7818608E-02  0.1130116E+00
         25   -1    0    0    0    0  0.00000000000E+00  0.00000000000E+00  0.99999998245E-14  0.12500000000E+03  0.12500000000E+03 0.  0.
        -11    1    3    3    0    0 -0.14119564857E+02  0.38309326355E+02  0.37744379827E+02  0.55602201452E+02  0.51100000000E-03 0.  1.
         23    2    1    0    0    0  0.55184483835E+01  0.29571358027E+02  0.53999509466E+01  0.94437311009E+02  0.89355065622E+02 0.  0.
         11    1    3    3    0    0  0.19638013241E+02 -0.87379683279E+01 -0.32344428880E+02  0.38835109558E+02  0.51100000000E-03 0. -1.
         22    1    1    0    0    0 -0.55184483835E+01 -0.29571358027E+02 -0.53999509466E+01  0.30562688991E+02  0.00000000000E+00 0.  1.
</event>
<event>
 5    1  0.8907853E-005  0.9118800E+02  0.7818608E-02  0.1130116E+00
         25   -1    0    0    0    0  0.00000000000E+00  0.00000000000E+00  0.99999998245E-14  0.12500000000E+03  0.12500000000E+03 0.  0.
        -11    1    3    3    0    0 -0.17056662019E+02 -0.36695807478E+02 -0.13741255909E+02  0.42735630566E+02  0.51100000000E-03 0. -1.
         23    2    1    0    0    0  0.26354895322E+02 -0.69445425204E+01 -0.11521205081E+02  0.95410384512E+02  0.90706097523E+02 0.  0.
         11    1    3    3    0    0  0.43411557341E+02  0.29751264957E+02  0.22200508286E+01  0.52674753946E+02  0.51100000000E-03 0.  1.
         22    1    1    0    0    0 -0.26354895322E+02  0.69445425204E+01  0.11521205081E+02  0.29589615488E+02  0.00000000000E+00 0.  1.
</event>
<event>
 5    1  0.8907853E-005  0.9118800E+02  0.7818608E-02  0.1130116E+00
         25   -1    0    0    0    0  0.00000000000E+00  0.00000000000E+00  0.99999998245E-14  0.12500000000E+03  0.12500000000E+03 0.  0.
        -11    1    3    3    0    0  0.32296858511E+02 -0.13359730455E+02  0.47225216025E+02  0.58751940363E+02  0.51100000000E-03 0. -1.
         23    2    1    0    0    0  0.17131649551E+02  0.90674433426E+01  0.19275359503E+02  0.97664099995E+02  0.93760466076E+02 0.  0.
         11    1    3    3    0    0 -0.15165208960E+02  0.22427173798E+02 -0.27949856522E+02  0.38912159632E+02  0.51100000000E-03 0.  1.
         22    1    1    0    0    0 -0.17131649551E+02 -0.90674433426E+01 -0.19275359503E+02  0.27335900005E+02  0.00000000000E+00 0.  1.
</event>
<event>
 5    1  0.8907853E-005  0.9118800E+02  0.7818608E-02  0.1130116E+00
         25   -1    0    0    0    0  0.00000000000E+00  0.00000000000E+00  0.99999998245E-14  0.12500000000E+03  0.12500000000E+03 0.  0.
        -11    1    3    3    0    0  0.59276110000E+01  0.56133260943E+02  0.23730806289E+01  0.56495230491E+02  0.51100000000E-03 0. -1.
         23    2    1    0    0    0  0.54057851638E+01  0.22235863311E+02 -0.17856821869E+02  0.95973766732E+02  0.91479187158E+02 0.  0.
         11    1    3    3    0    0 -0.52182583611E+00 -0.33897397632E+02 -0.20229902498E+02  0.39478536241E+02  0.51100000000E-03 0.  1.
         22    1    1    0    0    0 -0.54057851638E+01 -0.22235863311E+02  0.17856821869E+02  0.29026233268E+02  0.00000000000E+00 0. -1.
</event>
<event>
 5    1  0.8907853E-005  0.9118800E+02  0.7818608E-02  0.1130116E+00
         25   -1    0    0    0    0  0.00000000000E+00  0.00000000000E+00  0.99999998245E-14  0.12500000000E+03  0.12500000000E+03 0.  0.
        -11    1    3    3    0    0  0.15384152264E+02 -0.34692427674E+02 -0.22673740711E+02  0.44207863519E+02  0.51100000000E-03 0. -1.
         23    2    1    0    0    0  0.76782081601E+00  0.14660630822E+02 -0.25302573202E+02  0.95746900069E+02  0.91168662474E+02 0.  0.
         11    1    3    3    0    0 -0.14616331448E+02  0.49353058497E+02 -0.26288324914E+01  0.51539036550E+02  0.51100000000E-03 0.  1.
         22    1    1    0    0    0 -0.76782081601E+00 -0.14660630822E+02  0.25302573202E+02  0.29253099931E+02  0.00000000000E+00 0.  1.
</event>
<event>
 5    1  0.8907853E-005  0.9118800E+02  0.7818608E-02  0.1130116E+00
         25   -1    0    0    0    0  0.00000000000E+00  0.00000000000E+00  0.99999998245E-14  0.12500000000E+03  0.12500000000E+03 0.  0.
        -11    1    3    3    0    0 -0.47588026269E+02  0.81645106548E+01  0.94214098790E+01  0.49193926889E+02  0.51100000000E-03 0.  1.
         23    2    1    0    0    0 -0.18183502308E+02 -0.15059731492E+01 -0.24068165915E+02  0.94797610661E+02  0.89857680057E+02 0.  0.
         11    1    3    3    0    0  0.29404523962E+02 -0.96704838040E+01 -0.33489575794E+02  0.45603683771E+02  0.51100000000E-03 0. -1.
         22    1    1    0    0    0  0.18183502308E+02  0.15059731492E+01  0.24068165915E+02  0.30202389339E+02  0.00000000000E+00 0.  1.
</event>
<event>
 5    1  0.8907853E-005  0.9118800E+02  0.7818608E-02  0.1130116E+00
         25   -1    0    0    0    0  0.00000000000E+00  0.00000000000E+00  0.99999998245E-14  0.12500000000E+03  0.12500000000E+03 0.  0.
        -11    1    3    3    0    0  0.22942454320E+02  0.29514675681E+02  0.38383189467E+02  0.53579301271E+02  0.51100000000E-03 0.  1.
         23    2    1    0    0    0 -0.55363227569E+01  0.27999422973E+02  0.77669767658E+01  0.95420539481E+02  0.90720090775E+02 0.  0.
         11    1    3    3    0    0 -0.28478777077E+02 -0.15152527075E+01 -0.30616212701E+02  0.41841238210E+02  0.51100000000E-03 0. -1.
         22    1    1    0    0    0  0.55363227569E+01 -0.27999422973E+02 -0.77669767658E+01  0.29579460519E+02  0.00000000000E+00 0.  1.
</event>
<event>
 5    1  0.8907853E-005  0.9118800E+02  0.7818608E-02  0.1130116E+00
         25   -1    0    0    0    0  0.00000000000E+00  0.00000000000E+00  0.99999998245E-14  0.12500000000E+03  0.12500000000E+03 0.  0.
        -11    1    3    3    0    0  0.64174671543E+01 -0.16517827666E+02  0.28375657826E+02  0.33454453707E+02  0.51100000000E-03 0. -1.
         23    2    1    0    0    0 -0.16198869610E+02  0.15794169187E+02 -0.19252360025E+02  0.95292887662E+02  0.90544033019E+02 0.  0.
         11    1    3    3    0    0 -0.22616336764E+02  0.32311996853E+02 -0.47628017851E+02  0.61838433955E+02  0.51100000000E-03 0.  1.
         22    1    1    0    0    0  0.16198869610E+02 -0.15794169187E+02  0.19252360025E+02  0.29707112338E+02  0.00000000000E+00 0.  1.
</event>
<event>
 5    1  0.8907853E-005  0.9118800E+02  0.7818608E-02  0.1130116E+00
         25   -1    0    0    0    0  0.00000000000E+00  0.00000000000E+00  0.99999998245E-14  0.12500000000E+03  0.12500000000E+03 0.  0.
        -11    1    3    3    0    0 -0.37283692933E+01  0.42453792959E+01 -0.38071817050E+02  0.38488793651E+02  0.51100000000E-03 0. -1.
         23    2    1    0    0    0  0.19113117925E+02  0.24128519365E+02  0.76054974484E+01  0.93292898035E+02  0.87739526491E+02 0.  0.
         11    1    3    3    0    0  0.22841487218E+02  0.19883140069E+02  0.45677314498E+02  0.54804104385E+02  0.51100000000E-03 0.  1.
         22    1    1    0    0    0 -0.19113117925E+02 -0.24128519365E+02 -0.76054974484E+01  0.31707101965E+02  0.00000000000E+00 0.  1.
</event>
<event>
 5    1  0.8907853E-005  0.9118800E+02  0.7818608E-02  0.1130116E+00
         25   -1    0    0    0    0  0.00000000000E+00  0.00000000000E+00  0.99999998245E-14  0.12500000000E+03  0.12500000000E+03 0.  0.
        -11    1    3    3    0    0 -0.47974143721E+02  0.65768087773E+01  0.21897774136E+02  0.53144006170E+02  0.51100000000E-03 0. -1.
         23    2    1    0    0    0 -0.22501160806E+02  0.16783831699E+02 -0.99808652777E+01  0.95207099574E+02  0.90425521250E+02 0.  0.
         11    1    3    3    0    0  0.25472982915E+02  0.10207022922E+02 -0.31878639414E+02  0.42063093403E+02  0.51100000000E-03 0.  1.
         22    1    1    0    0    0  0.22501160806E+02 -0.16783831699E+02  0.99808652777E+01  0.29792900426E+02  0.00000000000E+00 0. -1.
</event>
<event>
 5    1  0.8907853E-005  0.9118800E+02  0.7818608E-02  0.1130116E+00
         25   -1    0    0    0    0  0.00000000000E+00  0.00000000000E+00  0.99999998245E-14  0.12500000000E+03  0.12500000000E+03 0.  0.
        -11    1    3    3    0    0 -0.22088496080E+02 -0.54300623150E+02 -0.16798195500E+02  0.60980642058E+02  0.51100000000E-03 0. -1.
         23    2    1    0    0    0 -0.10320352158E+02 -0.23256613669E+02 -0.17382603070E+02  0.94185480087E+02  0.89002078749E+02 0.  0.
         11    1    3    3    0    0  0.11768143922E+02  0.31044009481E+02 -0.58440756991E+00  0.33204838028E+02  0.51100000000E-03 0.  1.
         22    1    1    0    0    0  0.10320352158E+02  0.23256613669E+02  0.17382603070E+02  0.30814519913E+02  0.00000000000E+00 0. -1.
</event>
<event>
 5    1  0.8907853E-005  0.9118800E+02  0.7818608E-02  0.1130116E+00
         25   -1    0    0    0    0  0.00000000000E+00  0.00000000000E+00  0.99999998245E-14  0.12500000000E+03  0.12500000000E+03 0.  0.
        -11    1    3    3    0    0 -0.30617578842E+02 -0.18837935799E+02 -0.30952650357E+01  0.36081638338E+02  0.51100000000E-03 0.  1.
         23    2    1    0    0    0 -0.98796091436E+00  0.25259366757E+02  0.18751988607E+02  0.93525426890E+02  0.88070180666E+02 0.  0.
         11    1    3    3    0    0  0.29629617927E+02  0.44097302556E+02  0.21847253643E+02  0.57443788552E+02  0.51100000000E-03 0. -1.
         22    1    1    0    0    0  0.98796091436E+00 -0.25259366757E+02 -0.18751988607E+02  0.31474573110E+02  0.00000000000E+00 0. -1.
</event>
<event>
 5    1  0.8907853E-005  0.9118800E+02  0.7818608E-02  0.1130116E+00
         25   -1    0    0    0    0  0.00000000000E+00  0.00000000000E+00  0.99999998245E-14  0.12500000000E+03  0.12500000000E+03 0.  0.
        -11    1    3    3    0    0 -0.64913508674E+01 -0.38522465381E+02 -0.97157898478E+01  0.40255615108E+02  0.51100000000E-03 0. -1.
         23    2    1    0    0    0  0.28819082679E+02  0.33880246872E+01 -0.71311290310E+01  0.95119048894E+02  0.90303722091E+02 0.  0.
         11    1    3    3    0    0  0.35310433547E+02  0.41910490068E+02  0.25846608168E+01  0.54863433786E+02  0.51100000000E-03 0.  1.
         22    1    1    0    0    0 -0.28819082679E+02 -0.33880246872E+01  0.71311290310E+01  0.29880951106E+02  0.00000000000E+00 0.  1.
</event>
<event>
 5    1  0.8907853E-005  0.9118800E+02  0.7818608E-02  0.1130116E+00
         25   -1    0    0    0    0  0.00000000000E+00  0.00000000000E+00  0.99999998245E-14  0.12500000000E+03  0.12500000000E+03 0.  0.
        -11    1    3    3    0    0 -0.39733800523E+02  0.73986541181E+01  0.32256337308E+02  0.51710601268E+02  0.51100000000E-03 0.  1.
         23    2    1    0    0    0 -0.26778364871E+02  0.11716231835E+02 -0.83906543924E+01  0.94590231919E+02  0.89568733272E+02 0.  0.
         11    1    3    3    0    0  0.12955435652E+02  0.43175777168E+01 -0.40646991700E+02  0.42879630651E+02  0.51100000000E-03 0. -1.
         22    1    1    0    0    0  0.26778364871E+02 -0.11716231835E+02  0.83906543924E+01  0.30409768081E+02  0.00000000000E+00 0. -1.
</event>
<event>
 5    1  0.8907853E-005  0.9118800E+02  0.7818608E-02  0.1130116E+00
         25   -1    0    0    0    0  0.00000000000E+00  0.00000000000E+00  0.99999998245E-14  0.12500000000E+03  0.12500000000E+03 0.  0.
        -11    1    3    3    0    0  0.98143887800E+01 -0.80019725873E+01 -0.34963486358E+02  0.37186007732E+02  0.51100000000E-03 0. -1.
         23    2    1    0    0    0  0.14371434029E+02 -0.23135005479E+02  0.17931540003E+02  0.92391615780E+02  0.86445959680E+02 0.  0.
         11    1    3    3    0    0  0.45570452488E+01 -0.15133032892E+02  0.52895026362E+02  0.55205608048E+02  0.51100000000E-03 0.  1.
         22    1    1    0    0    0 -0.14371434029E+02  0.23135005479E+02 -0.17931540003E+02  0.32608384220E+02  0.00000000000E+00 0.  1.
</event>
<event>
 5    1  0.8907853E-005  0.9118800E+02  0.7818608E-02  0.1130116E+00
         25   -1    0    0    0    0  0.00000000000E+00  0.00000000000E+00  0.99999998245E-14  0.12500000000E+03  0.12500000000E+03 0.  0.
        -11    1    3    3    0    0 -0.13291727739E+02 -0.12856080352E+02  0.34044742793E+02  0.38742655309E+02  0.51100000000E-03 0.  1.
         23    2    1    0    0    0 -0.28616018066E+02 -0.15303704368E+01 -0.15920148682E+02  0.92217845439E+02  0.86194323245E+02 0.  0.
         11    1    3    3    0    0 -0.15324290326E+02  0.11325709916E+02 -0.49964891474E+02  0.53475190130E+02  0.51100000000E-03 0. -1.
         22    1    1    0    0    0  0.28616018066E+02  0.15303704368E+01  0.15920148682E+02  0.32782154561E+02  0.00000000000E+00 0. -1.
</event>
<event>
 5    1  0.8907853E-005  0.9118800E+02  0.7818608E-02  0.1130116E+00
         25   -1    0    0    0    0  0.00000000000E+00  0.00000000000E+00  0.99999998245E-14  0.12500000000E+03  0.12500000000E+03 0.  0.
        -11    1    3    3    0    0 -0.18564019935E+02  0.36229224903E+02  0.28949751183E+02  0.49952654254E+02  0.51100000000E-03 0. -1.
         23    2    1    0    0    0  0.10050302035E+02  0.29141735273E+00  0.27285592773E+02  0.95920848224E+02  0.91406849065E+02 0.  0.
         11    1    3    3    0    0  0.28614321970E+02 -0.35937807551E+02 -0.16641584106E+01  0.45968193969E+02  0.51100000000E-03 0.  1.
         22    1    1    0    0    0 -0.10050302035E+02 -0.29141735273E+00 -0.27285592773E+02  0.29079151776E+02  0.00000000000E+00 0. -1.
</event>
<event>
 5    1  0.8907853E-005  0.9118800E+02  0.7818608E-02  0.1130116E+00
         25   -1    0    0    0    0  0.00000000000E+00  0.00000000000E+00  0.99999998245E-14  0.12500000000E+03  0.12500000000E+03 0.  0.
        -11    1    3    3    0    0 -0.18735811842E+02 -0.48662752477E+01  0.30922634001E+02  0.36481784139E+02  0.51100000000E-03 0.  1.
         23    2    1    0    0    0 -0.14061040565E+02 -0.24527686761E+01 -0.26902392045E+02  0.94545646720E+02  0.89506489598E+02 0.  0.
         11    1    3    3    0    0  0.46747712776E+01  0.24135065716E+01 -0.57825026045E+02  0.58063862581E+02  0.51100000000E-03 0. -1.
         22    1    1    0    0    0  0.14061040565E+02  0.24527686761E+01  0.26902392045E+02  0.30454353280E+02  0.00000000000E+00 0. -1.
</event>
<event>
 5    1  0.8907853E-005  0.9118800E+02  0.7818608E-02  0.1130116E+00
         25   -1    0    0    0    0  0.00000000000E+00  0.00000000000E+00  0.99999998245E-14  0.12500000000E+03  0.12500000000E+03 0.  0.
        -11    1    3    3    0    0 -0.13344548137E+02 -0.15314472601E+02  0.27249242508E+02  0.33987221916E+02  0.51100000000E-03 0.  1.
         23    2    1    0    0    0 -0.40659323875E+01  0.16547599880E+02 -0.24315818162E+02  0.95308016556E+02  0.90564916711E+02 0.  0.
         11    1    3    3    0    0  0.92786157500E+01  0.31862072481E+02 -0.51565060670E+02  0.61320794640E+02  0.51100000000E-03 0. -1.
         22    1    1    0    0    0  0.40659323875E+01 -0.16547599880E+02  0.24315818162E+02  0.29691983444E+02  0.00000000000E+00 0. -1.
</event>
<event>
 5    1  0.8907853E-005  0.9118800E+02  0.7818608E-02  0.1130116E+00
         25   -1    0    0    0    0  0.00000000000E+00  0.00000000000E+00  0.99999998245E-14  0.12500000000E+03  0.12500000000E+03 0.  0.
        -11    1    3    3    0    0  0.34634124486E+02 -0.13086723446E+02 -0.24622275180E+02  0.44463933078E+02  0.51100000000E-03 0. -1.
         23    2    1    0    0    0  0.18681248622E+02  0.19423157997E+02  0.11579140283E+02  0.95668709433E+02  0.91061393347E+02 0.  0.
         11    1    3    3    0    0 -0.15952875864E+02  0.32509881442E+02  0.36201415464E+02  0.51204776355E+02  0.51100000000E-03 0.  1.
         22    1    1    0    0    0 -0.18681248622E+02 -0.19423157997E+02 -0.11579140283E+02  0.29331290567E+02  0.00000000000E+00 0. -1.
</event>
<event>
 5    1  0.8907853E-005  0.9118800E+02  0.7818608E-02  0.1130116E+00
         25   -1    0    0    0    0  0.00000000000E+00  0.00000000000E+00  0.99999998245E-14  0.12500000000E+03  0.12500000000E+03 0.  0.
        -11    1    3    3    0    0  0.10120428521E+02 -0.12639747507E+02 -0.45968389235E+02  0.48736835142E+02  0.51100000000E-03 0.  1.
         23    2    1    0    0    0 -0.11907413036E+02 -0.26004835099E+02 -0.68305229258E+01  0.95594320665E+02  0.90959222546E+02 0.  0.
         11    1    3    3    0    0 -0.22027841557E+02 -0.13365087591E+02  0.39137866310E+02  0.46857485523E+02  0.51100000000E-03 0. -1.
         22    1    1    0    0    0  0.11907413036E+02  0.26004835099E+02  0.68305229258E+01  0.29405679335E+02  0.00000000000E+00 0. -1.
</event>
<event>
 5    1  0.8907853E-005  0.9118800E+02  0.7818608E-02  0.1130116E+00
         25   -1    0    0    0    0  0.00000000000E+00  0.00000000000E+00  0.99999998245E-14  0.12500000000E+03  0.12500000000E+03 0.  0.
        -11    1    3    3    0    0 -0.50346723884E+02  0.83050943172E+01 -0.20224598278E+02  0.54888993188E+02  0.51100000000E-03 0. -1.
         23    2    1    0    0    0 -0.11029400366E+02  0.16648168594E+02 -0.22211637823E+02  0.95130851289E+02  0.90320057696E+02 0.  0.
         11    1    3    3    0    0  0.39317323518E+02  0.83430742766E+01 -0.19870395454E+01  0.40241858101E+02  0.51100000000E-03 0.  1.
         22    1    1    0    0    0  0.11029400366E+02 -0.16648168594E+02  0.22211637823E+02  0.29869148711E+02  0.00000000000E+00 0. -1.
</event>
<event>
 5    1  0.8907853E-005  0.9118800E+02  0.7818608E-02  0.1130116E+00
         25   -1    0    0    0    0  0.00000000000E+00  0.00000000000E+00  0.99999998245E-14  0.12500000000E+03  0.12500000000E+03 0.  0.
        -11    1    3    3    0    0 -0.18526690170E+02  0.19878987072E+02 -0.33159202207E+02  0.42871261550E+02  0.51100000000E-03 0.  1.
         23    2    1    0    0    0  0.13459244759E+02  0.24988346014E+02  0.82485152797E+01  0.95443161361E+02  0.90751255310E+02 0.  0.
         11    1    3    3    0    0  0.31985934929E+02  0.51093589423E+01  0.41407717486E+02  0.52571899811E+02  0.51100000000E-03 0. -1.
         22    1    1    0    0    0 -0.13459244759E+02 -0.24988346014E+02 -0.82485152797E+01  0.29556838639E+02  0.00000000000E+00 0. -1.
</event>
<event>
 5    1  0.8907853E-005  0.9118800E+02  0.7818608E-02  0.1130116E+00
         25   -1    0    0    0    0  0.00000000000E+00  0.00000000000E+00  0.99999998245E-14  0.12500000000E+03  0.12500000000E+03 0.  0.
        -11    1    3    3    0    0 -0.36067539080E+02  0.19415883848E+02  0.25521356575E+02  0.48261615830E+02  0.51100000000E-03 0. -1.
         23    2    1    0    0    0 -0.15188824527E+02 -0.20199891423E+02  0.18703749187E+02  0.93558526790E+02  0.88117147579E+02 0.  0.
         11    1    3    3    0    0  0.20878714552E+02 -0.39615775271E+02 -0.68176073882E+01  0.45296910959E+02  0.51100000000E-03 0.  1.
         22    1    1    0    0    0  0.15188824527E+02  0.20199891423E+02 -0.18703749187E+02  0.31441473210E+02  0.00000000000E+00 0. -1.
</event>
<event>
 5    1  0.8907853E-005  0.9118800E+02  0.7818608E-02  0.1130116E+00
         25   -1    0    0    0    0  0.00000000000E+00  0.00000000000E+00  0.99999998245E-14  0.12500000000E+03  0.12500000000E+03 0.  0.
        -11    1    3    3    0    0 -0.56623968303E+02 -0.26784442115E+01 -0.15793778426E+02  0.58846336224E+02  0.51100000000E-03 0. -1.
         23    2    1    0    0    0 -0.28361160407E+02  0.10796040957E+02  0.15020572601E+01  0.94616351503E+02  0.89605177728E+02 0.  0.
         11    1    3    3    0    0  0.28262807896E+02  0.13474485169E+02  0.17295835686E+02  0.35770015279E+02  0.51100000000E-03 0.  1.
         22    1    1    0    0    0  0.28361160407E+02 -0.10796040957E+02 -0.15020572601E+01  0.30383648497E+02  0.00000000000E+00 0. -1.
</event>
<event>
 5    1  0.8907853E-005  0.9118800E+02  0.7818608E-02  0.1130116E+00
         25   -1    0    0    0    0  0.00000000000E+00  0.00000000000E+00  0.99999998245E-14  0.12500000000E+03  0.12500000000E+03 0.  0.
        -11    1    3    3    0    0  0.18812057005E+02  0.26054806596E+02  0.28075036220E+02  0.42672638711E+02  0.51100000000E-03 0. -1.
         23    2    1    0    0    0  0.24027714692E+02 -0.49397445644E+01 -0.15188805433E+02  0.96148103006E+02  0.91717096288E+02 0.  0.
         11    1    3    3    0    0  0.52156576866E+01 -0.30994551161E+02 -0.43263841653E+02  0.53475464295E+02  0.51100000000E-03 0.  1.
         22    1    1    0    0    0 -0.24027714692E+02  0.49397445644E+01  0.15188805433E+02  0.28851896994E+02  0.00000000000E+00 0.  1.
</event>
<event>
 5    1  0.8907853E-005  0.9118800E+02  0.7818608E-02  0.1130116E+00
         25   -1    0    0    0    0  0.00000000000E+00  0.00000000000E+00  0.99999998245E-14  0.12500000000E+03  0.12500000000E+03 0.  0.
        -11    1    3    3    0    0  0.17822948679E+02  0.16032283039E+02  0.39936741702E+02  0.46579340239E+02  0.51100000000E-03 0. -1.
         23    2    1    0    0    0  0.25204785545E+02  0.68258508734E+01 -0.93536395914E+01  0.97262587934E+02  0.93223639618E+02 0.  0.
         11    1    3    3    0    0  0.73818368652E+01 -0.92064321652E+01 -0.49290381293E+02  0.50683247696E+02  0.51100000000E-03 0.  1.
         22    1    1    0    0    0 -0.25204785545E+02 -0.68258508734E+01  0.93536395914E+01  0.27737412066E+02  0.00000000000E+00 0.  1.
</event>
<event>
 5    1  0.8907853E-005  0.9118800E+02  0.7818608E-02  0.1130116E+00
         25   -1    0    0    0    0  0.00000000000E+00  0.00000000000E+00  0.99999998245E-14  0.12500000000E+03  0.12500000000E+03 0.  0.
        -11    1    3    3    0    0 -0.55380367084E+02  0.22983951660E+01  0.27780562851E+02  0.62000220575E+02  0.51100000000E-03 0. -1.
         23    2    1    0    0    0 -0.27539740077E+02  0.54358354065E+01  0.99112286216E+01  0.95230585446E+02  0.90457981193E+02 0.  0.
         11    1    3    3    0    0  0.27840627007E+02  0.31374402404E+01 -0.17869334230E+02  0.33230364871E+02  0.51100000000E-03 0.  1.
         22    1    1    0    0    0  0.27539740077E+02 -0.54358354065E+01 -0.99112286216E+01  0.29769414554E+02  0.00000000000E+00 0. -1.
</event>
<event>
 5    1  0.8907853E-005  0.9118800E+02  0.7818608E-02  0.1130116E+00
         25   -1    0    0    0    0  0.00000000000E+00  0.00000000000E+00  0.99999998245E-14  0.12500000000E+03  0.12500000000E+03 0.  0.
        -11    1    3    3    0    0 -0.22494613564E+02 -0.97830515843E+01 -0.25608183941E+02  0.35461173454E+02  0.51100000000E-03 0.  1.
         23    2    1    0    0    0  0.76467507261E+00 -0.58186517515E+01  0.29244101767E+02  0.95172849209E+02  0.90378162751E+02 0.  0.
         11    1    3    3    0    0  0.23259288637E+02  0.39643998329E+01  0.54852285707E+02  0.59711675755E+02  0.51100000000E-03 0. -1.
         22    1    1    0    0    0 -0.76467507261E+00  0.58186517515E+01 -0.29244101767E+02  0.29827150791E+02  0.00000000000E+00 0. -1.
</event>
<event>
 5    1  0.8907853E-005  0.9118800E+02  0.7818608E-02  0.1130116E+00
         25   -1    0    0    0    0  0.00000000000E+00  0.00000000000E+00  0.99999998245E-14  0.12500000000E+03  0.12500000000E+03 0.  0.
        -11    1    3    3    0    0  0.19128684031E+02 -0.15840905551E+02  0.30099599123E+02  0.39023412319E+02  0.51100000000E-03 0. -1.
         23    2    1    0    0    0  0.62293464073E+01 -0.22982355583E+02 -0.21640818210E+02  0.92823635420E+02  0.87068414796E+02 0.  0.
         11    1    3    3    0    0 -0.12899337623E+02 -0.71414500321E+01 -0.51740417333E+02  0.53800223101E+02  0.51100000000E-03 0.  1.
         22    1    1    0    0    0 -0.62293464073E+01  0.22982355583E+02  0.21640818210E+02  0.32176364580E+02  0.00000000000E+00 0.  1.
</event>
<event>
 5    1  0.8907853E-005  0.9118800E+02  0.7818608E-02  0.1130116E+00
         25   -1    0    0    0    0  0.00000000000E+00  0.00000000000E+00  0.99999998245E-14  0.12500000000E+03  0.12500000000E+03 0.  0.
        -11    1    3    3    0    0  0.28880287097E+01  0.13790995139E+02  0.33495754750E+02  0.36338654946E+02  0.51100000000E-03 0. -1.
         23    2    1    0    0    0 -0.18282049067E+02 -0.24105336496E+01 -0.21028774155E+02  0.97031207873E+02  0.92912872995E+02 0.  0.
         11    1    3    3    0    0 -0.21170077777E+02 -0.16201528789E+02 -0.54524528905E+02  0.60692552927E+02  0.51100000000E-03 0.  1.
         22    1    1    0    0    0  0.18282049067E+02  0.24105336496E+01  0.21028774155E+02  0.27968792127E+02  0.00000000000E+00 0.  1.
</event>
<event>
 5    1  0.8907853E-005  0.9118800E+02  0.7818608E-02  0.1130116E+00
         25   -1    0    0    0    0  0.00000000000E+00  0.00000000000E+00  0.99999998245E-14  0.12500000000E+03  0.12500000000E+03 0.  0.
        -11    1    3    3    0    0 -0.11959085053E+02  0.55135558958E+02 -0.69647900648E+01  0.56845913467E+02  0.51100000000E-03 0. -1.
         23    2    1    0    0    0 -0.91986355570E+01  0.19059904242E+02 -0.20557114506E+02  0.95495935829E+02  0.90823917319E+02 0.  0.
         11    1    3    3    0    0  0.27604494962E+01 -0.36075654717E+02 -0.13592324441E+02  0.38650022362E+02  0.51100000000E-03 0.  1.
         22    1    1    0    0    0  0.91986355570E+01 -0.19059904242E+02  0.20557114506E+02  0.29504064171E+02  0.00000000000E+00 0. -1.
</event>
<event>
 5    1  0.8907853E-005  0.9118800E+02  0.7818608E-02  0.1130116E+00
         25   -1    0    0    0    0  0.00000000000E+00  0.00000000000E+00  0.99999998245E-14  0.12500000000E+03  0.12500000000E+03 0.  0.
        -11    1    3    3    0    0  0.45124569719E+02 -0.20464325525E+02 -0.65738525250E+01  0.49982306357E+02  0.51100000000E-03 0. -1.
         23    2    1    0    0    0  0.18994295945E+02  0.92000523433E+01  0.18616203865E+02  0.96857731294E+02  0.92679193045E+02 0.  0.
         11    1    3    3    0    0 -0.26130273773E+02  0.29664377868E+02  0.25190056390E+02  0.46875424937E+02  0.51100000000E-03 0.  1.
         22    1    1    0    0    0 -0.18994295945E+02 -0.92000523433E+01 -0.18616203865E+02  0.28142268706E+02  0.00000000000E+00 0.  1.
</event>
<event>
 5    1  0.8907853E-005  0.9118800E+02  0.7818608E-02  0.1130116E+00
         25   -1    0    0    0    0  0.00000000000E+00  0.00000000000E+00  0.99999998245E-14  0.12500000000E+03  0.12500000000E+03 0.  0.
        -11    1    3    3    0    0 -0.19030420648E+02 -0.14291357558E+02  0.31815136130E+02  0.39731633469E+02  0.51100000000E-03 0.  1.
         23    2    1    0    0    0  0.26392995963E+02 -0.10597493521E+02 -0.20127465542E+01  0.96487752570E+02  0.92178837823E+02 0.  0.
         11    1    3    3    0    0  0.45423416611E+02  0.36938640370E+01 -0.33827882684E+02  0.56756119100E+02  0.51100000000E-03 0. -1.
         22    1    1    0    0    0 -0.26392995963E+02  0.10597493521E+02  0.20127465542E+01  0.28512247430E+02  0.00000000000E+00 0. -1.
</event>
<event>
 5    1  0.8907853E-005  0.9118800E+02  0.7818608E-02  0.1130116E+00
         25   -1    0    0    0    0  0.00000000000E+00  0.00000000000E+00  0.99999998245E-14  0.12500000000E+03  0.12500000000E+03 0.  0.
        -11    1    3    3    0    0  0.43242490518E+02  0.24089822686E+02  0.36422893969E+02  0.61456161193E+02  0.51100000000E-03 0.  1.
         23    2    1    0    0    0  0.20528109986E+02  0.16481049401E+02  0.10764319951E+02  0.96558852467E+02  0.92275203153E+02 0.  0.
         11    1    3    3    0    0 -0.22714380531E+02 -0.76087732858E+01 -0.25658574018E+02  0.35102691275E+02  0.51100000000E-03 0. -1.
         22    1    1    0    0    0 -0.20528109986E+02 -0.16481049401E+02 -0.10764319951E+02  0.28441147533E+02  0.00000000000E+00 0.  1.
</event>
<event>
 5    1  0.8907853E-005  0.9118800E+02  0.7818608E-02  0.1130116E+00
         25   -1    0    0    0    0  0.00000000000E+00  0.00000000000E+00  0.99999998245E-14  0.12500000000E+03  0.12500000000E+03 0.  0.
        -11    1    3    3    0    0  0.38354774734E+02 -0.41864368311E+02 -0.20556088182E+02  0.60384326117E+02  0.51100000000E-03 0. -1.
         23    2    1    0    0    0  0.84174370923E+01 -0.24849136287E+02 -0.13340110375E+02  0.95567171963E+02  0.90921906001E+02 0.  0.
         11    1    3    3    0    0 -0.29937337642E+02  0.17015232023E+02  0.72159778071E+01  0.35182845847E+02  0.51100000000E-03 0.  1.
         22    1    1    0    0    0 -0.84174370923E+01  0.24849136287E+02  0.13340110375E+02  0.29432828037E+02  0.00000000000E+00 0. -1.
</event>
<event>
 5    1  0.8907853E-005  0.9118800E+02  0.7818608E-02  0.1130116E+00
         25   -1    0    0    0    0  0.00000000000E+00  0.00000000000E+00  0.99999998245E-14  0.12500000000E+03  0.12500000000E+03 0.  0.
        -11    1    3    3    0    0  0.27068464021E+02 -0.26509237461E+02  0.26642881414E+02  0.46317216513E+02  0.51100000000E-03 0. -1.
         23    2    1    0    0    0  0.21502032604E+02  0.18062190178E+02  0.39497389546E+01  0.96641922527E+02  0.92387664933E+02 0.  0.
         11    1    3    3    0    0 -0.55664314168E+01  0.44571427639E+02 -0.22693142460E+02  0.50324706014E+02  0.51100000000E-03 0.  1.
         22    1    1    0    0    0 -0.21502032604E+02 -0.18062190178E+02 -0.39497389546E+01  0.28358077473E+02  0.00000000000E+00 0.  1.
</event>
<event>
 5    1  0.8907853E-005  0.9118800E+02  0.7818608E-02  0.1130116E+00
         25   -1    0    0    0    0  0.00000000000E+00  0.00000000000E+00  0.99999998245E-14  0.12500000000E+03  0.12500000000E+03 0.  0.
        -11    1    3    3    0    0 -0.33087694597E+02 -0.38992080276E+02 -0.20354968291E+02  0.55040917438E+02  0.51100000000E-03 0.  1.
         23    2    1    0    0    0  0.49565816824E+00 -0.28728477438E+02  0.11945386305E+01  0.96242426815E+02  0.91845558977E+02 0.  0.
         11    1    3    3    0    0  0.33583352765E+02  0.10263602838E+02  0.21549506921E+02  0.41201509377E+02  0.51100000000E-03 0. -1.
         22    1    1    0    0    0 -0.49565816824E+00  0.28728477438E+02 -0.11945386305E+01  0.28757573185E+02  0.00000000000E+00 0.  1.
</event>
<event>
 5    1  0.8907853E-005  0.9118800E+02  0.7818608E-02  0.1130116E+00
         25   -1    0    0    0    0  0.00000000000E+00  0.00000000000E+00  0.99999998245E-14  0.12500000000E+03  0.12500000000E+03 0.  0.
        -11    1    3    3    0    0  0.21243143594E+02 -0.27021623250E+02 -0.16790246563E+02  0.38253779588E+02  0.51100000000E-03 0.  1.
         23    2    1    0    0    0  0.12719232974E+02  0.26497952388E+02  0.18120784375E+01  0.95551672433E+02  0.90900594653E+02 0.  0.
         11    1    3    3    0    0 -0.85239106193E+01  0.53519575639E+02  0.18602325001E+02  0.57297892845E+02  0.51100000000E-03 0. -1.
         22    1    1    0    0    0 -0.12719232974E+02 -0.26497952388E+02 -0.18120784375E+01  0.29448327567E+02  0.00000000000E+00 0. -1.
</event>
<event>
 5    1  0.8907853E-005  0.9118800E+02  0.7818608E-02  0.1130116E+00
         25   -1    0    0    0    0  0.00000000000E+00  0.00000000000E+00  0.99999998245E-14  0.12500000000E+03  0.12500000000E+03 0.  0.
        -11    1    3    3    0    0  0.17878779190E+02 -0.14693105199E+02 -0.33157141634E+02  0.40434318682E+02  0.51100000000E-03 0. -1.
         23    2    1    0    0    0 -0.99436716408E+01  0.26104094997E+02 -0.16540935734E+02  0.92536128754E+02  0.86654672053E+02 0.  0.
         11    1    3    3    0    0 -0.27822450830E+02  0.40797200196E+02  0.16616205900E+02  0.52101810072E+02  0.51100000000E-03 0.  1.
         22    1    1    0    0    0  0.99436716408E+01 -0.26104094997E+02  0.16540935734E+02  0.32463871246E+02  0.00000000000E+00 0.  1.
</event>
<event>
 5    1  0.8907853E-005  0.9118800E+02  0.7818608E-02  0.1130116E+00
         25   -1    0    0    0    0  0.00000000000E+00  0.00000000000E+00  0.99999998245E-14  0.12500000000E+03  0.12500000000E+03 0.  0.
        -11    1    3    3    0    0 -0.54100512088E+02 -0.17917458420E+01 -0.26776381595E+02  0.60390813647E+02  0.51100000000E-03 0.  1.
         23    2    1    0    0    0 -0.23117178781E+02 -0.97012851691E+01 -0.19635697905E+02  0.93155384742E+02  0.87543396013E+02 0.  0.
         11    1    3    3    0    0  0.30983333307E+02 -0.79095393271E+01  0.71406836905E+01  0.32764571095E+02  0.51100000000E-03 0. -1.
         22    1    1    0    0    0  0.23117178781E+02  0.97012851691E+01  0.19635697905E+02  0.31844615258E+02  0.00000000000E+00 0.  1.
</event>
<event>
 5    1  0.8907853E-005  0.9118800E+02  0.7818608E-02  0.1130116E+00
         25   -1    0    0    0    0  0.00000000000E+00  0.00000000000E+00  0.99999998245E-14  0.12500000000E+03  0.12500000000E+03 0.  0.
        -11    1    3    3    0    0  0.11300143915E+02 -0.45351281009E+02 -0.10767691036E+02  0.47962225888E+02  0.51100000000E-03 0.  1.
         23    2    1    0    0    0 -0.97578206488E+01 -0.60744862164E+01 -0.27208059151E+02  0.95463701495E+02  0.90779542705E+02 0.  0.
         11    1    3    3    0    0 -0.21057964564E+02  0.39276794793E+02 -0.16440368115E+02  0.47501475606E+02  0.51100000000E-03 0. -1.
         22    1    1    0    0    0  0.97578206488E+01  0.60744862164E+01  0.27208059151E+02  0.29536298505E+02  0.00000000000E+00 0. -1.
</event>
<event>
 5    1  0.8907853E-005  0.9118800E+02  0.7818608E-02  0.1130116E+00
         25   -1    0    0    0    0  0.00000000000E+00  0.00000000000E+00  0.99999998245E-14  0.12500000000E+03  0.12500000000E+03 0.  0.
        -11    1    3    3    0    0 -0.25356865506E+02  0.16441445543E+02  0.19459092810E+02  0.35943678902E+02  0.51100000000E-03 0.  1.
         23    2    1    0    0    0  0.13887663232E+02 -0.25517277479E+02  0.25251161756E+01  0.95838812581E+02  0.91294595378E+02 0.  0.
         11    1    3    3    0    0  0.39244528738E+02 -0.41958723022E+02 -0.16933976634E+02  0.59895133678E+02  0.51100000000E-03 0. -1.
         22    1    1    0    0    0 -0.13887663232E+02  0.25517277479E+02 -0.25251161756E+01  0.29161187419E+02  0.00000000000E+00 0. -1.
</event>
<event>
 5    1  0.8907853E-005  0.9118800E+02  0.7818608E-02  0.1130116E+00
         25   -1    0    0    0    0  0.00000000000E+00  0.00000000000E+00  0.99999998245E-14  0.12500000000E+03  0.12500000000E+03 0.  0.
        -11    1    3    3    0    0  0.15975438532E+02  0.44518478246E+01  0.36844917574E+02  0.40405216701E+02  0.51100000000E-03 0. -1.
         23    2    1    0    0    0  0.22154152039E+02 -0.34783546890E+01 -0.18049777683E+02  0.96212852202E+02  0.91805299686E+02 0.  0.
         11    1    3    3    0    0  0.61787135074E+01 -0.79302025136E+01 -0.54894695258E+02  0.55807635501E+02  0.51100000000E-03 0.  1.
         22    1    1    0    0    0 -0.22154152039E+02  0.34783546890E+01  0.18049777683E+02  0.28787147798E+02  0.00000000000E+00 0. -1.
</event>
<event>
 5    1  0.8907853E-005  0.9118800E+02  0.7818608E-02  0.1130116E+00
         25   -1    0    0    0    0  0.00000000000E+00  0.00000000000E+00  0.99999998245E-14  0.12500000000E+03  0.12500000000E+03 0.  0.
        -11    1    3    3    0    0  0.66082202678E+00  0.42176507413E+02 -0.27679343124E+02  0.50452358709E+02  0.51100000000E-03 0. -1.
         23    2    1    0    0    0 -0.23934569457E+02  0.14511823860E+02  0.54861961241E+00  0.97004328365E+02  0.92876703705E+02 0.  0.
         11    1    3    3    0    0 -0.24595391484E+02 -0.27664683553E+02  0.28227962736E+02  0.46551969656E+02  0.51100000000E-03 0.  1.
         22    1    1    0    0    0  0.23934569457E+02 -0.14511823860E+02 -0.54861961241E+00  0.27995671635E+02  0.00000000000E+00 0. -1.
</event>
<event>
 5    1  0.8907853E-005  0.9118800E+02  0.7818608E-02  0.1130116E+00
         25   -1    0    0    0    0  0.00000000000E+00  0.00000000000E+00  0.99999998245E-14  0.12500000000E+03  0.12500000000E+03 0.  0.
        -11    1    3    3    0    0  0.19481907831E+02 -0.34522327305E+02  0.44814836291E+02  0.59830639036E+02  0.51100000000E-03 0.  1.
         23    2    1    0    0    0  0.19271086139E+02 -0.13924015858E+02  0.12535917393E+02  0.98122459126E+02  0.94369564910E+02 0.  0.
         11    1    3    3    0    0 -0.21082169265E+00  0.20598311448E+02 -0.32278918898E+02  0.38291820090E+02  0.51100000000E-03 0. -1.
         22    1    1    0    0    0 -0.19271086139E+02  0.13924015858E+02 -0.12535917393E+02  0.26877540874E+02  0.00000000000E+00 0.  1.
</event>
<event>
 5    1  0.8907853E-005  0.9118800E+02  0.7818608E-02  0.1130116E+00
         25   -1    0    0    0    0  0.00000000000E+00  0.00000000000E+00  0.99999998245E-14  0.12500000000E+03  0.12500000000E+03 0.  0.
        -11    1    3    3    0    0  0.34212345851E+02  0.44446164989E+02  0.25251861912E+02  0.61510996749E+02  0.51100000000E-03 0.  1.
         23    2    1    0    0    0  0.13104340897E+02  0.25127131145E+02  0.59036910911E+01  0.96052633308E+02  0.91586889493E+02 0.  0.
         11    1    3    3    0    0 -0.21108004954E+02 -0.19319033844E+02 -0.19348170820E+02  0.34541636559E+02  0.51100000000E-03 0. -1.
         22    1    1    0    0    0 -0.13104340897E+02 -0.25127131145E+02 -0.59036910911E+01  0.28947366692E+02  0.00000000000E+00 0.  1.
</event>
<event>
 5    1  0.8907853E-005  0.9118800E+02  0.7818608E-02  0.1130116E+00
         25   -1    0    0    0    0  0.00000000000E+00  0.00000000000E+00  0.99999998245E-14  0.12500000000E+03  0.12500000000E+03 0.  0.
        -11    1    3    3    0    0  0.33437554009E+02 -0.34173555357E+02  0.11141867985E+02  0.49092190074E+02  0.51100000000E-03 0. -1.
         23    2    1    0    0    0 -0.14464311585E+02 -0.20169147373E+02  0.22431265610E+00  0.10017942121E+03  0.97055939036E+02 0.  0.
         11    1    3    3    0    0 -0.47901865594E+02  0.14004407984E+02 -0.10917555329E+02  0.51087231134E+02  0.51100000000E-03 0.  1.
         22    1    1    0    0    0  0.14464311585E+02  0.20169147373E+02 -0.22431265610E+00  0.24820578792E+02  0.00000000000E+00 0. -1.
</event>
<event>
 5    1  0.8907853E-005  0.9118800E+02  0.7818608E-02  0.1130116E+00
         25   -1    0    0    0    0  0.00000000000E+00  0.00000000000E+00  0.99999998245E-14  0.12500000000E+03  0.12500000000E+03 0.  0.
        -11    1    3    3    0    0  0.27299003248E+02  0.15254618088E+02 -0.39402926968E+02  0.50304369644E+02  0.51100000000E-03 0. -1.
         23    2    1    0    0    0 -0.22652217858E+00  0.28668275364E+02 -0.58291236771E+01  0.95744231210E+02  0.91165003168E+02 0.  0.
         11    1    3    3    0    0 -0.27525525426E+02  0.13413657276E+02  0.33573803291E+02  0.45439861567E+02  0.51100000000E-03 0.  1.
         22    1    1    0    0    0  0.22652217858E+00 -0.28668275364E+02  0.58291236771E+01  0.29255768790E+02  0.00000000000E+00 0. -1.
</event>
<event>
 5    1  0.8907853E-005  0.9118800E+02  0.7818608E-02  0.1130116E+00
         25   -1    0    0    0    0  0.00000000000E+00  0.00000000000E+00  0.99999998245E-14  0.12500000000E+03  0.12500000000E+03 0.  0.
        -11    1    3    3    0    0  0.33954849899E+02 -0.37238574097E+02 -0.64995910667E+01  0.50812281160E+02  0.51100000000E-03 0.  1.
         23    2    1    0    0    0 -0.38226334629E+01 -0.25463847765E+02  0.14332230437E+02  0.95530814418E+02  0.90871907675E+02 0.  0.
         11    1    3    3    0    0 -0.37777483362E+02  0.11774726332E+02  0.20831821503E+02  0.44718533258E+02  0.51100000000E-03 0. -1.
         22    1    1    0    0    0  0.38226334629E+01  0.25463847765E+02 -0.14332230437E+02  0.29469185582E+02  0.00000000000E+00 0.  1.
</event>
<event>
 5    1  0.8907853E-005  0.9118800E+02  0.7818608E-02  0.1130116E+00
         25   -1    0    0    0    0  0.00000000000E+00  0.00000000000E+00  0.99999998245E-14  0.12500000000E+03  0.12500000000E+03 0.  0.
        -11    1    3    3    0    0  0.11359966038E+01  0.19818989410E+02  0.55729514725E+02  0.59159628474E+02  0.51100000000E-03 0. -1.
         23    2    1    0    0    0  0.12452388695E+02  0.15941615757E+01  0.28751030261E+02  0.93627638335E+02  0.88215132397E+02 0.  0.
         11    1    3    3    0    0  0.11316392091E+02 -0.18224827834E+02 -0.26978484463E+02  0.34468009861E+02  0.51100000000E-03 0.  1.
         22    1    1    0    0    0 -0.12452388695E+02 -0.15941615757E+01 -0.28751030261E+02  0.31372361665E+02  0.00000000000E+00 0. -1.
</event>
<event>
 5    1  0.8907853E-005  0.9118800E+02  0.7818608E-02  0.1130116E+00
         25   -1    0    0    0    0  0.00000000000E+00  0.00000000000E+00  0.99999998245E-14  0.12500000000E+03  0.12500000000E+03 0.  0.
        -11    1    3    3    0    0  0.40256084763E+02 -0.11213433507E+02  0.34679201174E+02  0.54304147593E+02  0.51100000000E-03 0. -1.
         23    2    1    0    0    0  0.18333501979E+02 -0.21193950873E+02 -0.53871128062E+00  0.96971602646E+02  0.92832648683E+02 0.  0.
         11    1    3    3    0    0 -0.21922582784E+02 -0.99805173655E+01 -0.35217912455E+02  0.42667455053E+02  0.51100000000E-03 0.  1.
         22    1    1    0    0    0 -0.18333501979E+02  0.21193950873E+02  0.53871128062E+00  0.28028397354E+02  0.00000000000E+00 0. -1.
</event>
<event>
 5    1  0.8907853E-005  0.9118800E+02  0.7818608E-02  0.1130116E+00
         25   -1    0    0    0    0  0.00000000000E+00  0.00000000000E+00  0.99999998245E-14  0.12500000000E+03  0.12500000000E+03 0.  0.
        -11    1    3    3    0    0 -0.51245179863E+02 -0.21744935485E+02  0.21393828488E+02  0.59637291823E+02  0.51100000000E-03 0.  1.
         23    2    1    0    0    0 -0.18418829505E+02 -0.69009200980E+01  0.21762855409E+02  0.95665756289E+02  0.91057339476E+02 0.  0.
         11    1    3    3    0    0  0.32826350358E+02  0.14844015387E+02  0.36902692138E+00  0.36028464466E+02  0.51100000000E-03 0. -1.
         22    1    1    0    0    0  0.18418829505E+02  0.69009200980E+01 -0.21762855409E+02  0.29334243711E+02  0.00000000000E+00 0.  1.
</event>
<event>
 5    1  0.8907853E-005  0.9118800E+02  0.7818608E-02  0.1130116E+00
         25   -1    0    0    0    0  0.00000000000E+00  0.00000000000E+00  0.99999998245E-14  0.12500000000E+03  0.12500000000E+03 0.  0.
        -11    1    3    3    0    0 -0.38670549650E+02  0.15406583766E+02 -0.20936702646E+02  0.46595276064E+02  0.51100000000E-03 0.  1.
         23    2    1    0    0    0  0.88416366799E+01  0.77696245130E+01 -0.27427954875E+02  0.95153152379E+02  0.90350916403E+02 0.  0.
         11    1    3    3    0    0  0.47512186330E+02 -0.76369592532E+01 -0.64912522299E+01  0.48557876315E+02  0.51100000000E-03 0. -1.
         22    1    1    0    0    0 -0.88416366799E+01 -0.77696245130E+01  0.27427954875E+02  0.29846847621E+02  0.00000000000E+00 0.  1.
</event>
<event>
 5    1  0.8907853E-005  0.9118800E+02  0.7818608E-02  0.1130116E+00
         25   -1    0    0    0    0  0.00000000000E+00  0.00000000000E+00  0.99999998245E-14  0.12500000000E+03  0.12500000000E+03 0.  0.
        -11    1    3    3    0    0 -0.26923895141E+02  0.13996567666E+02  0.53354832658E+02  0.61380275368E+02  0.51100000000E-03 0.  1.
         23    2    1    0    0    0 -0.56686595931E+01  0.33918395972E+01  0.28435441340E+02  0.95807319382E+02  0.91251464895E+02 0.  0.
         11    1    3    3    0    0  0.21255235548E+02 -0.10604728069E+02 -0.24919391318E+02  0.34427044014E+02  0.51100000000E-03 0. -1.
         22    1    1    0    0    0  0.56686595931E+01 -0.33918395972E+01 -0.28435441340E+02  0.29192680618E+02  0.00000000000E+00 0.  1.
</event>
<event>
 5    1  0.8907853E-005  0.9118800E+02  0.7818608E-02  0.1130116E+00
         25   -1    0    0    0    0  0.00000000000E+00  0.00000000000E+00  0.99999998245E-14  0.12500000000E+03  0.12500000000E+03 0.  0.
        -11    1    3    3    0    0  0.30512377752E+01 -0.12925400535E+02  0.30623310953E+02  0.33379083345E+02  0.51100000000E-03 0.  1.
         23    2    1    0    0    0 -0.12649926020E+02  0.28032227887E+01 -0.26952278924E+02  0.95095083590E+02  0.90270542800E+02 0.  0.
         11    1    3    3    0    0 -0.15701163796E+02  0.15728623324E+02 -0.57575589877E+02  0.61716000244E+02  0.51100000000E-03 0. -1.
         22    1    1    0    0    0  0.12649926020E+02 -0.28032227887E+01  0.26952278924E+02  0.29904916410E+02  0.00000000000E+00 0. -1.
</event>
<event>
 5    1  0.8907853E-005  0.9118800E+02  0.7818608E-02  0.1130116E+00
         25   -1    0    0    0    0  0.00000000000E+00  0.00000000000E+00  0.99999998245E-14  0.12500000000E+03  0.12500000000E+03 0.  0.
        -11    1    3    3    0    0 -0.24653387361E+02  0.20122777648E+02 -0.96799644583E+01  0.33262853168E+02  0.51100000000E-03 0.  1.
         23    2    1    0    0    0  0.18330209581E+02 -0.20700512951E+02  0.98051613135E+01  0.95663179994E+02  0.91053802768E+02 0.  0.
         11    1    3    3    0    0  0.42983596942E+02 -0.40823290599E+02  0.19485125772E+02  0.62400326826E+02  0.51100000000E-03 0. -1.
         22    1    1    0    0    0 -0.18330209581E+02  0.20700512951E+02 -0.98051613135E+01  0.29336820006E+02  0.00000000000E+00 0. -1.
</event>
<event>
 5    1  0.8907853E-005  0.9118800E+02  0.7818608E-02  0.1130116E+00
         25   -1    0    0    0    0  0.00000000000E+00  0.00000000000E+00  0.99999998245E-14  0.12500000000E+03  0.12500000000E+03 0.  0.
        -11    1    3    3    0    0 -0.23595331749E+01 -0.20463813427E+02  0.48515091370E+02  0.52707202047E+02  0.51100000000E-03 0. -1.
         23    2    1    0    0    0  0.20459460415E+02  0.30885235046E+01  0.16524452397E+02  0.98520082612E+02  0.94894787280E+02 0.  0.
         11    1    3    3    0    0  0.22818993590E+02  0.23552336932E+02 -0.31990638973E+02  0.45812880564E+02  0.51100000000E-03 0.  1.
         22    1    1    0    0    0 -0.20459460415E+02 -0.30885235046E+01 -0.16524452397E+02  0.26479917388E+02  0.00000000000E+00 0.  1.
</event>
<event>
 5    1  0.8907853E-005  0.9118800E+02  0.7818608E-02  0.1130116E+00
         25   -1    0    0    0    0  0.00000000000E+00  0.00000000000E+00  0.99999998245E-14  0.12500000000E+03  0.12500000000E+03 0.  0.
        -11    1    3    3    0    0 -0.38489370451E+02 -0.47932117260E+02 -0.68072369190E+00  0.61476685725E+02  0.51100000000E-03 0. -1.
         23    2    1    0    0    0 -0.25323537493E+02 -0.21083337016E+02 -0.49359884525E+01  0.91681046942E+02  0.85412304356E+02 0.  0.
         11    1    3    3    0    0  0.13165832958E+02  0.26848780244E+02 -0.42552647607E+01  0.30204361217E+02  0.51100000000E-03 0.  1.
         22    1    1    0    0    0  0.25323537493E+02  0.21083337016E+02  0.49359884525E+01  0.33318953058E+02  0.00000000000E+00 0. -1.
</event>
<event>
 5    1  0.8907853E-005  0.9118800E+02  0.7818608E-02  0.1130116E+00
         25   -1    0    0    0    0  0.00000000000E+00  0.00000000000E+00  0.99999998245E-14  0.12500000000E+03  0.12500000000E+03 0.  0.
        -11    1    3    3    0    0 -0.11687809153E+01  0.51258041260E+02  0.10217184248E+02  0.52279476822E+02  0.51100000000E-03 0. -1.
         23    2    1    0    0    0  0.14782382842E+02  0.16438952507E+02 -0.15133652697E+02  0.98208481828E+02  0.94483440120E+02 0.  0.
         11    1    3    3    0    0  0.15951163757E+02 -0.34819088752E+02 -0.25350836945E+02  0.45929005006E+02  0.51100000000E-03 0.  1.
         22    1    1    0    0    0 -0.14782382842E+02 -0.16438952507E+02  0.15133652697E+02  0.26791518172E+02  0.00000000000E+00 0.  1.
</event>
<event>
 5    1  0.8907853E-005  0.9118800E+02  0.7818608E-02  0.1130116E+00
         25   -1    0    0    0    0  0.00000000000E+00  0.00000000000E+00  0.99999998245E-14  0.12500000000E+03  0.12500000000E+03 0.  0.
        -11    1    3    3    0    0 -0.22728611222E+02  0.29477019416E+02 -0.23139413122E+02  0.43828265784E+02  0.51100000000E-03 0. -1.
         23    2    1    0    0    0  0.13034361170E+02 -0.11798787422E+02 -0.19765944317E+02  0.98546294957E+02  0.94929309169E+02 0.  0.
         11    1    3    3    0    0  0.35762972392E+02 -0.41275806839E+02  0.33734688053E+01  0.54718029173E+02  0.51100000000E-03 0.  1.
         22    1    1    0    0    0 -0.13034361170E+02  0.11798787422E+02  0.19765944317E+02  0.26453705043E+02  0.00000000000E+00 0.  1.
</event>
<event>
 5    1  0.8907853E-005  0.9118800E+02  0.7818608E-02  0.1130116E+00
         25   -1    0    0    0    0  0.00000000000E+00  0.00000000000E+00  0.99999998245E-14  0.12500000000E+03  0.12500000000E+03 0.  0.
        -11    1    3    3    0    0  0.95748797615E+01 -0.21148931099E+02 -0.31198398138E+02  0.38888245727E+02  0.51100000000E-03 0. -1.
         23    2    1    0    0    0 -0.16832247761E+02 -0.17071040794E+02  0.18098982842E+02  0.94961388541E+02  0.90085221514E+02 0.  0.
         11    1    3    3    0    0 -0.26407127522E+02  0.40778903056E+01  0.49297380980E+02  0.56073142814E+02  0.51100000000E-03 0.  1.
         22    1    1    0    0    0  0.16832247761E+02  0.17071040794E+02 -0.18098982842E+02  0.30038611459E+02  0.00000000000E+00 0.  1.
</event>
<event>
 5    1  0.8907853E-005  0.9118800E+02  0.7818608E-02  0.1130116E+00
         25   -1    0    0    0    0  0.00000000000E+00  0.00000000000E+00  0.99999998245E-14  0.12500000000E+03  0.12500000000E+03 0.  0.
        -11    1    3    3    0    0 -0.53619191802E+02 -0.93265056822E+01 -0.30657273645E+02  0.62464949094E+02  0.51100000000E-03 0.  1.
         23    2    1    0    0    0 -0.21504162790E+02 -0.26992180183E+01 -0.11029898492E+02  0.10068182869E+03  0.97700855534E+02 0.  0.
         11    1    3    3    0    0  0.32115029012E+02  0.66272876639E+01  0.19627375153E+02  0.38216879594E+02  0.51100000000E-03 0. -1.
         22    1    1    0    0    0  0.21504162790E+02  0.26992180183E+01  0.11029898492E+02  0.24318171312E+02  0.00000000000E+00 0.  1.
</event>
<event>
 5    1  0.8907853E-005  0.9118800E+02  0.7818608E-02  0.1130116E+00
         25   -1    0    0    0    0  0.00000000000E+00  0.00000000000E+00  0.99999998245E-14  0.12500000000E+03  0.12500000000E+03 0.  0.
        -11    1    3    3    0    0 -0.37977103925E+01  0.10991001030E+02  0.34012929975E+02  0.35945849741E+02  0.51100000000E-03 0.  1.
         23    2    1    0    0    0 -0.34855391924E+01 -0.20193144325E+02 -0.18742596372E+02  0.97229566443E+02  0.93179351847E+02 0.  0.
         11    1    3    3    0    0  0.31217120002E+00 -0.31184145355E+02 -0.52755526347E+02  0.61283716702E+02  0.51100000000E-03 0. -1.
         22    1    1    0    0    0  0.34855391924E+01  0.20193144325E+02  0.18742596372E+02  0.27770433557E+02  0.00000000000E+00 0. -1.
</event>
<event>
 5    1  0.8907853E-005  0.9118800E+02  0.7818608E-02  0.1130116E+00
         25   -1    0    0    0    0  0.00000000000E+00  0.00000000000E+00  0.99999998245E-14  0.12500000000E+03  0.12500000000E+03 0.  0.
        -11    1    3    3    0    0  0.13186945001E+02  0.29768036717E+02  0.16062035174E+02  0.36304552093E+02  0.51100000000E-03 0.  1.
         23    2    1    0    0    0 -0.43801599764E+01 -0.26793005856E+02  0.10863199459E+02  0.95758589864E+02  0.91184688770E+02 0.  0.
         11    1    3    3    0    0 -0.17567104978E+02 -0.56561042574E+02 -0.51988357147E+01  0.59454037772E+02  0.51100000000E-03 0. -1.
         22    1    1    0    0    0  0.43801599764E+01  0.26793005856E+02 -0.10863199459E+02  0.29241410136E+02  0.00000000000E+00 0. -1.
</event>
<event>
 5    1  0.8907853E-005  0.9118800E+02  0.7818608E-02  0.1130116E+00
         25   -1    0    0    0    0  0.00000000000E+00  0.00000000000E+00  0.99999998245E-14  0.12500000000E+03  0.12500000000E+03 0.  0.
        -11    1    3    3    0    0 -0.19772204365E+02  0.43256355866E+02  0.34576177688E+02  0.58801058256E+02  0.51100000000E-03 0. -1.
         23    2    1    0    0    0 -0.22261053934E+02  0.12426917016E+02  0.16645996391E+02  0.94552143185E+02  0.89515561755E+02 0.  0.
         11    1    3    3    0    0 -0.24888495694E+01 -0.30829438850E+02 -0.17930181298E+02  0.35751084929E+02  0.51100000000E-03 0.  1.
         22    1    1    0    0    0  0.22261053934E+02 -0.12426917016E+02 -0.16645996391E+02  0.30447856815E+02  0.00000000000E+00 0. -1.
</event>
<event>
 5    1  0.8907853E-005  0.9118800E+02  0.7818608E-02  0.1130116E+00
         25   -1    0    0    0    0  0.00000000000E+00  0.00000000000E+00  0.99999998245E-14  0.12500000000E+03  0.12500000000E+03 0.  0.
        -11    1    3    3    0    0  0.22741650414E+02 -0.25440711488E+02  0.61080768457E+01  0.34665848721E+02  0.51100000000E-03 0.  1.
         23    2    1    0    0    0 -0.22488824521E+02  0.16729093171E+02  0.50863311871E+01  0.96513502293E+02  0.92213749372E+02 0.  0.
         11    1    3    3    0    0 -0.45230474936E+02  0.42169804658E+02 -0.10217456586E+01  0.61847653571E+02  0.51100000000E-03 0. -1.
         22    1    1    0    0    0  0.22488824521E+02 -0.16729093171E+02 -0.50863311871E+01  0.28486497707E+02  0.00000000000E+00 0. -1.
</event>
<event>
 5    1  0.8907853E-005  0.9118800E+02  0.7818608E-02  0.1130116E+00
         25   -1    0    0    0    0  0.00000000000E+00  0.00000000000E+00  0.99999998245E-14  0.12500000000E+03  0.12500000000E+03 0.  0.
        -11    1    3    3    0    0  0.57685472908E+01 -0.59679116579E+02  0.72509751813E+01  0.60394120036E+02  0.51100000000E-03 0. -1.
         23    2    1    0    0    0 -0.38335177447E+00 -0.28597072575E+02 -0.76306928111E+01  0.95399881906E+02  0.90691622967E+02 0.  0.
         11    1    3    3    0    0 -0.61518990652E+01  0.31082044005E+02 -0.14881667992E+02  0.35005761870E+02  0.51100000000E-03 0.  1.
         22    1    1    0    0    0  0.38335177447E+00  0.28597072575E+02  0.76306928111E+01  0.29600118094E+02  0.00000000000E+00 0. -1.
</event>
<event>
 5    1  0.8907853E-005  0.9118800E+02  0.7818608E-02  0.1130116E+00
         25   -1    0    0    0    0  0.00000000000E+00  0.00000000000E+00  0.99999998245E-14  0.12500000000E+03  0.12500000000E+03 0.  0.
        -11    1    3    3    0    0  0.25803995129E+02 -0.14580644461E+02  0.32036059634E+02  0.43643447099E+02  0.51100000000E-03 0.  1.
         23    2    1    0    0    0 -0.23330097432E+02 -0.98566122387E+01  0.12828925301E+02  0.96609375220E+02  0.92343618107E+02 0.  0.
         11    1    3    3    0    0 -0.49134092561E+02  0.47240322228E+01 -0.19207134333E+02  0.52965928121E+02  0.51100000000E-03 0. -1.
         22    1    1    0    0    0  0.23330097432E+02  0.98566122387E+01 -0.12828925301E+02  0.28390624780E+02  0.00000000000E+00 0. -1.
</event>
<event>
 5    1  0.8907853E-005  0.9118800E+02  0.7818608E-02  0.1130116E+00
         25   -1    0    0    0    0  0.00000000000E+00  0.00000000000E+00  0.99999998245E-14  0.12500000000E+03  0.12500000000E+03 0.  0.
        -11    1    3    3    0    0 -0.38138715501E+02  0.22823598564E+02  0.20527189989E+02  0.48957571432E+02  0.51100000000E-03 0.  1.
         23    2    1    0    0    0 -0.20548290672E+02 -0.18862126274E+02  0.95754811710E+01  0.95509291349E+02  0.90842296521E+02 0.  0.
         11    1    3    3    0    0  0.17590424828E+02 -0.41685724838E+02 -0.10951708818E+02  0.46551719916E+02  0.51100000000E-03 0. -1.
         22    1    1    0    0    0  0.20548290672E+02  0.18862126274E+02 -0.95754811710E+01  0.29490708651E+02  0.00000000000E+00 0. -1.
</event>
<event>
 5    1  0.8907853E-005  0.9118800E+02  0.7818608E-02  0.1130116E+00
         25   -1    0    0    0    0  0.00000000000E+00  0.00000000000E+00  0.99999998245E-14  0.12500000000E+03  0.12500000000E+03 0.  0.
        -11    1    3    3    0    0  0.97732436551E+01  0.21123117734E+00 -0.36264519824E+02  0.37558971078E+02  0.51100000000E-03 0.  1.
         23    2    1    0    0    0 -0.20048783922E+02  0.20793932554E+02  0.82527403308E+01  0.94959209551E+02  0.90082197951E+02 0.  0.
         11    1    3    3    0    0 -0.29822027578E+02  0.20582701377E+02  0.44517260154E+02  0.57400238473E+02  0.51100000000E-03 0. -1.
         22    1    1    0    0    0  0.20048783922E+02 -0.20793932554E+02 -0.82527403308E+01  0.30040790449E+02  0.00000000000E+00 0. -1.
</event>
<event>
 5    1  0.8907853E-005  0.9118800E+02  0.7818608E-02  0.1130116E+00
         25   -1    0    0    0    0  0.00000000000E+00  0.00000000000E+00  0.99999998245E-14  0.12500000000E+03  0.12500000000E+03 0.  0.
        -11    1    3    3    0    0 -0.21636509778E+02  0.31058609563E+01  0.35220980313E+02  0.41452411053E+02  0.51100000000E-03 0.  1.
         23    2    1    0    0    0  0.67965556551E+01  0.27235077488E+02 -0.52044780543E+01  0.96451283630E+02  0.92129370494E+02 0.  0.
         11    1    3    3    0    0  0.28433065433E+02  0.24129216531E+02 -0.40425458367E+02  0.54998872577E+02  0.51100000000E-03 0. -1.
         22    1    1    0    0    0 -0.67965556551E+01 -0.27235077488E+02  0.52044780543E+01  0.28548716370E+02  0.00000000000E+00 0. -1.
</event>
<event>
 5    1  0.8907853E-005  0.9118800E+02  0.7818608E-02  0.1130116E+00
         25   -1    0    0    0    0  0.00000000000E+00  0.00000000000E+00  0.99999998245E-14  0.12500000000E+03  0.12500000000E+03 0.  0.
        -11    1    3    3    0    0 -0.42645199564E+02  0.27644095703E+02  0.12088493623E+02  0.52239264461E+02  0.51100000000E-03 0. -1.
         23    2    1    0    0    0  0.16822625575E+01  0.24948327419E+02  0.13325720299E+02  0.96665853289E+02  0.92420037451E+02 0.  0.
         11    1    3    3    0    0  0.44327462122E+02 -0.26957682836E+01  0.12372266762E+01  0.44426588828E+02  0.51100000000E-03 0.  1.
         22    1    1    0    0    0 -0.16822625575E+01 -0.24948327419E+02 -0.13325720299E+02  0.28334146711E+02  0.00000000000E+00 0. -1.
</event>
<event>
 5    1  0.8907853E-005  0.9118800E+02  0.7818608E-02  0.1130116E+00
         25   -1    0    0    0    0  0.00000000000E+00  0.00000000000E+00  0.99999998245E-14  0.12500000000E+03  0.12500000000E+03 0.  0.
        -11    1    3    3    0    0 -0.92533804023E+00 -0.31926336979E+02 -0.66599666049E+01  0.32626712963E+02  0.51100000000E-03 0.  1.
         23    2    1    0    0    0  0.12234241596E+02  0.22751378639E+02  0.17460811962E+02  0.93820169151E+02  0.88487526171E+02 0.  0.
         11    1    3    3    0    0  0.13159579636E+02  0.54677715617E+02  0.24120778567E+02  0.61193456188E+02  0.51100000000E-03 0. -1.
         22    1    1    0    0    0 -0.12234241596E+02 -0.22751378639E+02 -0.17460811962E+02  0.31179830849E+02  0.00000000000E+00 0. -1.
</event>
<event>
 5    1  0.8907853E-005  0.9118800E+02  0.7818608E-02  0.1130116E+00
         25   -1    0    0    0    0  0.00000000000E+00  0.00000000000E+00  0.99999998245E-14  0.12500000000E+03  0.12500000000E+03 0.  0.
        -11    1    3    3    0    0 -0.28113869880E+02 -0.44788525500E+02  0.19075230694E+02  0.56216244293E+02  0.51100000000E-03 0.  1.
         23    2    1    0    0    0 -0.24883640068E+02 -0.44487312612E+01  0.39718622711E+01  0.99411673702E+02  0.96062055076E+02 0.  0.
         11    1    3    3    0    0  0.32302298126E+01  0.40339794239E+02 -0.15103368422E+02  0.43195429409E+02  0.51100000000E-03 0. -1.
         22    1    1    0    0    0  0.24883640068E+02  0.44487312612E+01 -0.39718622711E+01  0.25588326298E+02  0.00000000000E+00 0.  1.
</event>
<event>
 5    1  0.8907853E-005  0.9118800E+02  0.7818608E-02  0.1130116E+00
         25   -1    0    0    0    0  0.00000000000E+00  0.00000000000E+00  0.99999998245E-14  0.12500000000E+03  0.12500000000E+03 0.  0.
        -11    1    3    3    0    0  0.50696373684E+02 -0.30391145580E+02  0.20599958771E+01  0.59143787650E+02  0.51100000000E-03 0. -1.
         23    2    1    0    0    0  0.29103904171E+02 -0.90614903823E+00  0.31947391631E+01  0.95707258537E+02  0.91114294347E+02 0.  0.
         11    1    3    3    0    0 -0.21592469512E+02  0.29484996542E+02  0.11347432860E+01  0.36563470887E+02  0.51100000000E-03 0.  1.
         22    1    1    0    0    0 -0.29103904171E+02  0.90614903823E+00 -0.31947391631E+01  0.29292741463E+02  0.00000000000E+00 0. -1.
</event>
<event>
 5    1  0.8907853E-005  0.9118800E+02  0.7818608E-02  0.1130116E+00
         25   -1    0    0    0    0  0.00000000000E+00  0.00000000000E+00  0.99999998245E-14  0.12500000000E+03  0.12500000000E+03 0.  0.
        -11    1    3    3    0    0 -0.17725857851E+02  0.17086901962E+02  0.32143248981E+02  0.40488970233E+02  0.51100000000E-03 0.  1.
         23    2    1    0    0    0  0.11324860848E+01 -0.28088921395E+02  0.50561761920E+01  0.96437175428E+02  0.92110226668E+02 0.  0.
         11    1    3    3    0    0  0.18858343935E+02 -0.45175823357E+02 -0.27087072789E+02  0.55948205195E+02  0.51100000000E-03 0. -1.
         22    1    1    0    0    0 -0.11324860848E+01  0.28088921395E+02 -0.50561761920E+01  0.28562824572E+02  0.00000000000E+00 0. -1.
</event>
<event>
 5    1  0.8907853E-005  0.9118800E+02  0.7818608E-02  0.1130116E+00
         25   -1    0    0    0    0  0.00000000000E+00  0.00000000000E+00  0.99999998245E-14  0.12500000000E+03  0.12500000000E+03 0.  0.
        -11    1    3    3    0    0  0.27721056179E+02 -0.32808623015E+01  0.37857138973E+02  0.47035986060E+02  0.51100000000E-03 0. -1.
         23    2    1    0    0    0  0.22261351673E+02  0.11141328794E+02 -0.10641397301E+02  0.97927203282E+02  0.94110577623E+02 0.  0.
         11    1    3    3    0    0 -0.54597045057E+01  0.14422191095E+02 -0.48498536275E+02  0.50891217222E+02  0.51100000000E-03 0.  1.
         22    1    1    0    0    0 -0.22261351673E+02 -0.11141328794E+02  0.10641397301E+02  0.27072796718E+02  0.00000000000E+00 0. -1.
</event>
<event>
 5    1  0.8907853E-005  0.9118800E+02  0.7818608E-02  0.1130116E+00
         25   -1    0    0    0    0  0.00000000000E+00  0.00000000000E+00  0.99999998245E-14  0.12500000000E+03  0.12500000000E+03 0.  0.
        -11    1    3    3    0    0  0.12683069738E+02  0.27528831723E+02 -0.27317848990E+02  0.40803942306E+02  0.51100000000E-03 0.  1.
         23    2    1    0    0    0 -0.21756884212E+02  0.14454186294E+02  0.13341382246E+02  0.95669504057E+02  0.91062484120E+02 0.  0.
         11    1    3    3    0    0 -0.34439953950E+02 -0.13074645429E+02  0.40659231236E+02  0.54865561750E+02  0.51100000000E-03 0. -1.
         22    1    1    0    0    0  0.21756884212E+02 -0.14454186294E+02 -0.13341382246E+02  0.29330495943E+02  0.00000000000E+00 0. -1.
</event>
<event>
 5    1  0.8907853E-005  0.9118800E+02  0.7818608E-02  0.1130116E+00
         25   -1    0    0    0    0  0.00000000000E+00  0.00000000000E+00  0.99999998245E-14  0.12500000000E+03  0.12500000000E+03 0.  0.
        -11    1    3    3    0    0  0.29088066824E+02  0.36348529245E+02 -0.31343160716E+02  0.56122410263E+02  0.51100000000E-03 0. -1.
         23    2    1    0    0    0  0.29105023836E+02  0.47912249934E+01 -0.18426009345E+02  0.90221039840E+02  0.83248182923E+02 0.  0.
         11    1    3    3    0    0  0.16957012185E-01 -0.31557304252E+02  0.12917151371E+02  0.34098629576E+02  0.51100000000E-03 0.  1.
         22    1    1    0    0    0 -0.29105023836E+02 -0.47912249934E+01  0.18426009345E+02  0.34778960160E+02  0.00000000000E+00 0. -1.
</event>
<event>
 5    1  0.8907853E-005  0.9118800E+02  0.7818608E-02  0.1130116E+00
         25   -1    0    0    0    0  0.00000000000E+00  0.00000000000E+00  0.99999998245E-14  0.12500000000E+03  0.12500000000E+03 0.  0.
        -11    1    3    3    0    0  0.46395578883E+02  0.13878913350E+02  0.20306407747E+02  0.52512133565E+02  0.51100000000E-03 0.  1.
         23    2    1    0    0    0  0.81841974880E+01  0.26170464492E+02 -0.18349049755E+00  0.97579059663E+02  0.93647022994E+02 0.  0.
         11    1    3    3    0    0 -0.38211381395E+02  0.12291551142E+02 -0.20489898244E+02  0.45066926098E+02  0.51100000000E-03 0. -1.
         22    1    1    0    0    0 -0.81841974880E+01 -0.26170464492E+02  0.18349049755E+00  0.27420940337E+02  0.00000000000E+00 0. -1.
</event>
<event>
 5    1  0.8907853E-005  0.9118800E+02  0.7818608E-02  0.1130116E+00
         25   -1    0    0    0    0  0.00000000000E+00  0.00000000000E+00  0.99999998245E-14  0.12500000000E+03  0.12500000000E+03 0.  0.
        -11    1    3    3    0    0  0.30927643443E+02 -0.12722975512E+02 -0.15097305176E+01  0.33476447262E+02  0.51100000000E-03 0. -1.
         23    2    1    0    0    0 -0.20757616454E+02  0.11565223799E+02  0.19433427393E+02  0.94303238891E+02  0.89167313084E+02 0.  0.
         11    1    3    3    0    0 -0.51685259896E+02  0.24288199311E+02  0.20943157911E+02  0.60826791629E+02  0.51100000000E-03 0.  1.
         22    1    1    0    0    0  0.20757616454E+02 -0.11565223799E+02 -0.19433427393E+02  0.30696761109E+02  0.00000000000E+00 0.  1.
</event>
<event>
 5    1  0.8907853E-005  0.9118800E+02  0.7818608E-02  0.1130116E+00
         25   -1    0    0    0    0  0.00000000000E+00  0.00000000000E+00  0.99999998245E-14  0.12500000000E+03  0.12500000000E+03 0.  0.
        -11    1    3    3    0    0  0.84626874068E+01  0.19758046658E+02 -0.28883169325E+02  0.36003263136E+02  0.51100000000E-03 0. -1.
         23    2    1    0    0    0  0.38760886832E+01 -0.29679895040E+02  0.28571944047E+01  0.94932013820E+02  0.90044452661E+02 0.  0.
         11    1    3    3    0    0 -0.45865987236E+01 -0.49437941698E+02  0.31740363730E+02  0.58928750684E+02  0.51100000000E-03 0.  1.
         22    1    1    0    0    0 -0.38760886832E+01  0.29679895040E+02 -0.28571944047E+01  0.30067986180E+02  0.00000000000E+00 0.  1.
</event>
<event>
 5    1  0.8907853E-005  0.9118800E+02  0.7818608E-02  0.1130116E+00
         25   -1    0    0    0    0  0.00000000000E+00  0.00000000000E+00  0.99999998245E-14  0.12500000000E+03  0.12500000000E+03 0.  0.
        -11    1    3    3    0    0 -0.21777801923E+02 -0.21830590446E+02 -0.10653193988E+02  0.32624191611E+02  0.51100000000E-03 0.  1.
         23    2    1    0    0    0  0.92189558375E+01  0.11691022525E+02  0.28549285314E+02  0.92801694978E+02  0.87036910242E+02 0.  0.
         11    1    3    3    0    0  0.30996757761E+02  0.33521612971E+02  0.39202479301E+02  0.60177503367E+02  0.51100000000E-03 0. -1.
         22    1    1    0    0    0 -0.92189558375E+01 -0.11691022525E+02 -0.28549285314E+02  0.32198305022E+02  0.00000000000E+00 0. -1.
</event>
<event>
 5    1  0.8907853E-005  0.9118800E+02  0.7818608E-02  0.1130116E+00
         25   -1    0    0    0    0  0.00000000000E+00  0.00000000000E+00  0.99999998245E-14  0.12500000000E+03  0.12500000000E+03 0.  0.
        -11    1    3    3    0    0  0.25728784776E+02 -0.17377604236E+02  0.38973771359E+02  0.49828770296E+02  0.51100000000E-03 0.  1.
         23    2    1    0    0    0  0.37012342298E+02 -0.22119917909E+02  0.10795280902E+02  0.80550676716E+02  0.67176403438E+02 0.  0.
         11    1    3    3    0    0  0.11283557522E+02 -0.47423136734E+01 -0.28178490457E+02  0.30721906419E+02  0.51100000000E-03 0. -1.
         22    1    1    0    0    0 -0.37012342298E+02  0.22119917909E+02 -0.10795280902E+02  0.44449323284E+02  0.00000000000E+00 0.  1.
</event>
<event>
 5    1  0.8907853E-005  0.9118800E+02  0.7818608E-02  0.1130116E+00
         25   -1    0    0    0    0  0.00000000000E+00  0.00000000000E+00  0.99999998245E-14  0.12500000000E+03  0.12500000000E+03 0.  0.
        -11    1    3    3    0    0  0.10296651173E+02  0.26453295658E+02 -0.16139101553E+02  0.32653766639E+02  0.51100000000E-03 0. -1.
         23    2    1    0    0    0 -0.16578641241E+02 -0.36235157813E+01  0.27882257379E+02  0.92359511515E+02  0.86399524759E+02 0.  0.
         11    1    3    3    0    0 -0.26875292414E+02 -0.30076811439E+02  0.44021358932E+02  0.59705744875E+02  0.51100000000E-03 0.  1.
         22    1    1    0    0    0  0.16578641241E+02  0.36235157813E+01 -0.27882257379E+02  0.32640488485E+02  0.00000000000E+00 0.  1.
</event>
<event>
 5    1  0.8907853E-005  0.9118800E+02  0.7818608E-02  0.1130116E+00
         25   -1    0    0    0    0  0.00000000000E+00  0.00000000000E+00  0.99999998245E-14  0.12500000000E+03  0.12500000000E+03 0.  0.
        -11    1    3    3    0    0 -0.34599003543E+02  0.17862541760E+01  0.49745416673E+01  0.35000397358E+02  0.51100000000E-03 0. -1.
         23    2    1    0    0    0  0.22025774734E+02 -0.19205572607E+02 -0.15087528046E+01  0.95737992092E+02  0.91156448060E+02 0.  0.
         11    1    3    3    0    0  0.56624778277E+02 -0.20991826783E+02 -0.64832944719E+01  0.60737594734E+02  0.51100000000E-03 0.  1.
         22    1    1    0    0    0 -0.22025774734E+02  0.19205572607E+02  0.15087528046E+01  0.29262007908E+02  0.00000000000E+00 0.  1.
</event>
<event>
 5    1  0.8907853E-005  0.9118800E+02  0.7818608E-02  0.1130116E+00
         25   -1    0    0    0    0  0.00000000000E+00  0.00000000000E+00  0.99999998245E-14  0.12500000000E+03  0.12500000000E+03 0.  0.
        -11    1    3    3    0    0 -0.88330086599E+00 -0.35633586192E+01  0.44490813389E+02  0.44642023042E+02  0.51100000000E-03 0. -1.
         23    2    1    0    0    0  0.41358464836E+01  0.29091558535E+02  0.66561480371E+01  0.94871470152E+02  0.89960366484E+02 0.  0.
         11    1    3    3    0    0  0.50191473496E+01  0.32654917154E+02 -0.37834665351E+02  0.50229447110E+02  0.51100000000E-03 0.  1.
         22    1    1    0    0    0 -0.41358464836E+01 -0.29091558535E+02 -0.66561480371E+01  0.30128529848E+02  0.00000000000E+00 0. -1.
</event>
<event>
 5    1  0.8907853E-005  0.9118800E+02  0.7818608E-02  0.1130116E+00
         25   -1    0    0    0    0  0.00000000000E+00  0.00000000000E+00  0.99999998245E-14  0.12500000000E+03  0.12500000000E+03 0.  0.
        -11    1    3    3    0    0  0.12637592143E+02  0.25597603178E+02  0.98432003103E+01  0.30196599415E+02  0.51100000000E-03 0.  1.
         23    2    1    0    0    0 -0.21180523079E+02 -0.11348899097E+02  0.32013991376E+02  0.84971163989E+02  0.74951924573E+02 0.  0.
         11    1    3    3    0    0 -0.33818115222E+02 -0.36946502275E+02  0.22170791066E+02  0.54774564574E+02  0.51100000000E-03 0. -1.
         22    1    1    0    0    0  0.21180523079E+02  0.11348899097E+02 -0.32013991376E+02  0.40028836011E+02  0.00000000000E+00 0. -1.
</event>
<event>
 5    1  0.8907853E-005  0.9118800E+02  0.7818608E-02  0.1130116E+00
         25   -1    0    0    0    0  0.00000000000E+00  0.00000000000E+00  0.99999998245E-14  0.12500000000E+03  0.12500000000E+03 0.  0.
        -11    1    3    3    0    0  0.41603257571E+02  0.84249187932E+01 -0.37392434381E+02  0.56568581796E+02  0.51100000000E-03 0. -1.
         23    2    1    0    0    0  0.12479075680E+02  0.21741352471E+02 -0.13464975363E+02  0.96544432906E+02  0.92255667721E+02 0.  0.
         11    1    3    3    0    0 -0.29124181891E+02  0.13316433678E+02  0.23927459018E+02  0.39975851111E+02  0.51100000000E-03 0.  1.
         22    1    1    0    0    0 -0.12479075680E+02 -0.21741352471E+02  0.13464975363E+02  0.28455567094E+02  0.00000000000E+00 0. -1.
</event>
<event>
 5    1  0.8907853E-005  0.9118800E+02  0.7818608E-02  0.1130116E+00
         25   -1    0    0    0    0  0.00000000000E+00  0.00000000000E+00  0.99999998245E-14  0.12500000000E+03  0.12500000000E+03 0.  0.
        -11    1    3    3    0    0 -0.26352502283E+02 -0.22497096268E+02 -0.27108284548E+02  0.43993554169E+02  0.51100000000E-03 0.  1.
         23    2    1    0    0    0 -0.46247974511E+01 -0.14514449248E+02  0.21975013435E+02  0.98261278940E+02  0.94553264011E+02 0.  0.
         11    1    3    3    0    0  0.21727704832E+02  0.79826470199E+01  0.49083297983E+02  0.54267724771E+02  0.51100000000E-03 0. -1.
         22    1    1    0    0    0  0.46247974511E+01  0.14514449248E+02 -0.21975013435E+02  0.26738721060E+02  0.00000000000E+00 0. -1.
</event>
<event>
 5    1  0.8907853E-005  0.9118800E+02  0.7818608E-02  0.1130116E+00
         25   -1    0    0    0    0  0.00000000000E+00  0.00000000000E+00  0.99999998245E-14  0.12500000000E+03  0.12500000000E+03 0.  0.
        -11    1    3    3    0    0 -0.49027799547E+01 -0.34040666858E+02  0.25950558152E+02  0.43084054128E+02  0.51100000000E-03 0. -1.
         23    2    1    0    0    0 -0.85249985115E+01 -0.16868595870E+02 -0.23084507825E+02  0.95165127321E+02  0.90367482151E+02 0.  0.
         11    1    3    3    0    0 -0.36222185568E+01  0.17172070988E+02 -0.49035065977E+02  0.52081073193E+02  0.51100000000E-03 0.  1.
         22    1    1    0    0    0  0.85249985115E+01  0.16868595870E+02  0.23084507825E+02  0.29834872679E+02  0.00000000000E+00 0.  1.
</event>
<event>
 5    1  0.8907853E-005  0.9118800E+02  0.7818608E-02  0.1130116E+00
         25   -1    0    0    0    0  0.00000000000E+00  0.00000000000E+00  0.99999998245E-14  0.12500000000E+03  0.12500000000E+03 0.  0.
        -11    1    3    3    0    0  0.13879836643E+02  0.22104054480E+02  0.41369346180E+02  0.48914843282E+02  0.51100000000E-03 0.  1.
         23    2    1    0    0    0 -0.21245057642E+02  0.12241513859E+00  0.21153358533E+02  0.95019472371E+02  0.90165781163E+02 0.  0.
         11    1    3    3    0    0 -0.35124894285E+02 -0.21981639342E+02 -0.20215987647E+02  0.46104629089E+02  0.51100000000E-03 0. -1.
         22    1    1    0    0    0  0.21245057642E+02 -0.12241513859E+00 -0.21153358533E+02  0.29980527629E+02  0.00000000000E+00 0.  1.
</event>
<event>
 5    1  0.8907853E-005  0.9118800E+02  0.7818608E-02  0.1130116E+00
         25   -1    0    0    0    0  0.00000000000E+00  0.00000000000E+00  0.99999998245E-14  0.12500000000E+03  0.12500000000E+03 0.  0.
        -11    1    3    3    0    0  0.28136715394E+02 -0.33821514614E+02  0.23037909077E+02  0.49662006190E+02  0.51100000000E-03 0. -1.
         23    2    1    0    0    0  0.26216410470E+02  0.94174604717E+01  0.43497542388E+01  0.96805867603E+02  0.92609216069E+02 0.  0.
         11    1    3    3    0    0 -0.19203049238E+01  0.43238975086E+02 -0.18688154838E+02  0.47143861413E+02  0.51100000000E-03 0.  1.
         22    1    1    0    0    0 -0.26216410470E+02 -0.94174604717E+01 -0.43497542388E+01  0.28194132397E+02  0.00000000000E+00 0. -1.
</event>
<event>
 5    1  0.8907853E-005  0.9118800E+02  0.7818608E-02  0.1130116E+00
         25   -1    0    0    0    0  0.00000000000E+00  0.00000000000E+00  0.99999998245E-14  0.12500000000E+03  0.12500000000E+03 0.  0.
        -11    1    3    3    0    0 -0.72627411615E+01  0.38352352447E+02  0.21406837833E+02  0.44518569763E+02  0.51100000000E-03 0.  1.
         23    2    1    0    0    0 -0.29678924517E+02 -0.36685616775E+01  0.68343463678E+01  0.94324192014E+02  0.89196681573E+02 0.  0.
         11    1    3    3    0    0 -0.22416183356E+02 -0.42020914125E+02 -0.14572491465E+02  0.49805622252E+02  0.51100000000E-03 0. -1.
         22    1    1    0    0    0  0.29678924517E+02  0.36685616775E+01 -0.68343463678E+01  0.30675807986E+02  0.00000000000E+00 0.  1.
</event>
<event>
 5    1  0.8907853E-005  0.9118800E+02  0.7818608E-02  0.1130116E+00
         25   -1    0    0    0    0  0.00000000000E+00  0.00000000000E+00  0.99999998245E-14  0.12500000000E+03  0.12500000000E+03 0.  0.
        -11    1    3    3    0    0 -0.10675802340E+01 -0.41218277391E+02  0.40649972561E+02  0.57900832361E+02  0.51100000000E-03 0. -1.
         23    2    1    0    0    0 -0.15345881876E+02 -0.11112223068E+02  0.21542680063E+02  0.96310896557E+02  0.91938697725E+02 0.  0.
         11    1    3    3    0    0 -0.14278301642E+02  0.30106054323E+02 -0.19107292498E+02  0.38410064196E+02  0.51100000000E-03 0.  1.
         22    1    1    0    0    0  0.15345881876E+02  0.11112223068E+02 -0.21542680063E+02  0.28689103443E+02  0.00000000000E+00 0. -1.
</event>
<event>
 5    1  0.8907853E-005  0.9118800E+02  0.7818608E-02  0.1130116E+00
         25   -1    0    0    0    0  0.00000000000E+00  0.00000000000E+00  0.99999998245E-14  0.12500000000E+03  0.12500000000E+03 0.  0.
        -11    1    3    3    0    0 -0.35067891275E+02  0.12459587711E+02 -0.11879207282E+02  0.39065507681E+02  0.51100000000E-03 0.  1.
         23    2    1    0    0    0  0.45196198647E+01 -0.20772442711E+02  0.16553552518E+02  0.98056699518E+02  0.94282420840E+02 0.  0.
         11    1    3    3    0    0  0.39587511140E+02 -0.33232030422E+02  0.28432759800E+02  0.58991191837E+02  0.51100000000E-03 0. -1.
         22    1    1    0    0    0 -0.45196198647E+01  0.20772442711E+02 -0.16553552518E+02  0.26943300482E+02  0.00000000000E+00 0. -1.
</event>
<event>
 5    1  0.8907853E-005  0.9118800E+02  0.7818608E-02  0.1130116E+00
         25   -1    0    0    0    0  0.00000000000E+00  0.00000000000E+00  0.99999998245E-14  0.12500000000E+03  0.12500000000E+03 0.  0.
        -11    1    3    3    0    0 -0.30672547752E+02  0.26384493042E+02 -0.35391162892E+02  0.53753893531E+02  0.51100000000E-03 0.  1.
         23    2    1    0    0    0 -0.26388266655E+01 -0.11146278368E+02 -0.17881774849E+02  0.10376416238E+03  0.10156791125E+03 0.  0.
         11    1    3    3    0    0  0.28033721086E+02 -0.37530771410E+02  0.17509388043E+02  0.50010268850E+02  0.51100000000E-03 0. -1.
         22    1    1    0    0    0  0.26388266655E+01  0.11146278368E+02  0.17881774849E+02  0.21235837619E+02  0.00000000000E+00 0.  1.
</event>
<event>
 5    1  0.8907853E-005  0.9118800E+02  0.7818608E-02  0.1130116E+00
         25   -1    0    0    0    0  0.00000000000E+00  0.00000000000E+00  0.99999998245E-14  0.12500000000E+03  0.12500000000E+03 0.  0.
        -11    1    3    3    0    0 -0.57789239004E+00 -0.38843995182E+02 -0.39027844098E+02  0.55066891473E+02  0.51100000000E-03 0. -1.
         23    2    1    0    0    0 -0.20421959480E+02 -0.19644889652E+02 -0.10468596560E+02  0.94791232524E+02  0.89848807065E+02 0.  0.
         11    1    3    3    0    0 -0.19844067090E+02  0.19199105529E+02  0.28559247538E+02  0.39724341052E+02  0.51100000000E-03 0.  1.
         22    1    1    0    0    0  0.20421959480E+02  0.19644889652E+02  0.10468596560E+02  0.30208767476E+02  0.00000000000E+00 0. -1.
</event>
<event>
 5    1  0.8907853E-005  0.9118800E+02  0.7818608E-02  0.1130116E+00
         25   -1    0    0    0    0  0.00000000000E+00  0.00000000000E+00  0.99999998245E-14  0.12500000000E+03  0.12500000000E+03 0.  0.
        -11    1    3    3    0    0 -0.57689159310E+02 -0.13122901843E+02  0.17203957289E+02  0.61613519631E+02  0.51100000000E-03 0. -1.
         23    2    1    0    0    0 -0.26992245894E+02 -0.23568049264E+00  0.12558169747E+02  0.95228461392E+02  0.90455046006E+02 0.  0.
         11    1    3    3    0    0  0.30696913416E+02  0.12887221350E+02 -0.46457875421E+01  0.33614941761E+02  0.51100000000E-03 0.  1.
         22    1    1    0    0    0  0.26992245894E+02  0.23568049264E+00 -0.12558169747E+02  0.29771538608E+02  0.00000000000E+00 0. -1.
</event>
<event>
 5    1  0.8907853E-005  0.9118800E+02  0.7818608E-02  0.1130116E+00
         25   -1    0    0    0    0  0.00000000000E+00  0.00000000000E+00  0.99999998245E-14  0.12500000000E+03  0.12500000000E+03 0.  0.
        -11    1    3    3    0    0  0.69535519574E+01 -0.44979158042E+02  0.80354581439E+01  0.46217368281E+02  0.51100000000E-03 0.  1.
         23    2    1    0    0    0 -0.10787555647E+02 -0.38491343981E+01  0.27615857580E+02  0.95103130894E+02  0.90281685427E+02 0.  0.
         11    1    3    3    0    0 -0.17741107604E+02  0.41130023644E+02  0.19580399436E+02  0.48885762613E+02  0.51100000000E-03 0. -1.
         22    1    1    0    0    0  0.10787555647E+02  0.38491343981E+01 -0.27615857580E+02  0.29896869106E+02  0.00000000000E+00 0. -1.
</event>
<event>
 5    1  0.8907853E-005  0.9118800E+02  0.7818608E-02  0.1130116E+00
         25   -1    0    0    0    0  0.00000000000E+00  0.00000000000E+00  0.99999998245E-14  0.12500000000E+03  0.12500000000E+03 0.  0.
        -11    1    3    3    0    0 -0.36708717258E+02  0.25963851709E+02 -0.14737283552E+02  0.47316371850E+02  0.51100000000E-03 0. -1.
         23    2    1    0    0    0 -0.18347434074E+02 -0.22537749767E+01  0.21410894958E+02  0.96713355419E+02  0.92484262741E+02 0.  0.
         11    1    3    3    0    0  0.18361283184E+02 -0.28217626686E+02  0.36148178510E+02  0.49396983569E+02  0.51100000000E-03 0.  1.
         22    1    1    0    0    0  0.18347434074E+02  0.22537749767E+01 -0.21410894958E+02  0.28286644581E+02  0.00000000000E+00 0.  1.
</event>
<event>
 5    1  0.8907853E-005  0.9118800E+02  0.7818608E-02  0.1130116E+00
         25   -1    0    0    0    0  0.00000000000E+00  0.00000000000E+00  0.99999998245E-14  0.12500000000E+03  0.12500000000E+03 0.  0.
        -11    1    3    3    0    0 -0.50914847071E+01  0.28260897258E+01  0.34196615793E+02  0.34688881960E+02  0.51100000000E-03 0. -1.
         23    2    1    0    0    0  0.74266167632E+01 -0.15315177513E+02 -0.23230943017E+02  0.96200937303E+02  0.91789075198E+02 0.  0.
         11    1    3    3    0    0  0.12518101470E+02 -0.18141267238E+02 -0.57427558810E+02  0.61512055343E+02  0.51100000000E-03 0.  1.
         22    1    1    0    0    0 -0.74266167632E+01  0.15315177513E+02  0.23230943017E+02  0.28799062697E+02  0.00000000000E+00 0.  1.
</event>
<event>
 5    1  0.8907853E-005  0.9118800E+02  0.7818608E-02  0.1130116E+00
         25   -1    0    0    0    0  0.00000000000E+00  0.00000000000E+00  0.99999998245E-14  0.12500000000E+03  0.12500000000E+03 0.  0.
        -11    1    3    3    0    0  0.22550201470E+02  0.48084594662E+02 -0.18787109421E+02  0.56334672367E+02  0.51100000000E-03 0.  1.
         23    2    1    0    0    0  0.25875608976E+02  0.11491020655E+02 -0.14081550169E+02  0.93379108951E+02  0.87862262876E+02 0.  0.
         11    1    3    3    0    0  0.33254075059E+01 -0.36593574007E+02  0.47055592514E+01  0.37044436584E+02  0.51100000000E-03 0. -1.
         22    1    1    0    0    0 -0.25875608976E+02 -0.11491020655E+02  0.14081550169E+02  0.31620891049E+02  0.00000000000E+00 0.  1.
</event>
<event>
 5    1  0.8907853E-005  0.9118800E+02  0.7818608E-02  0.1130116E+00
         25   -1    0    0    0    0  0.00000000000E+00  0.00000000000E+00  0.99999998245E-14  0.12500000000E+03  0.12500000000E+03 0.  0.
        -11    1    3    3    0    0  0.21579364192E+02  0.31351605743E+02  0.48133948327E+02  0.61363418447E+02  0.51100000000E-03 0.  1.
         23    2    1    0    0    0  0.17738660281E+01  0.15228248361E+02  0.24126162416E+02  0.96414726489E+02  0.92079756853E+02 0.  0.
         11    1    3    3    0    0 -0.19805498164E+02 -0.16123357383E+02 -0.24007785912E+02  0.35051308042E+02  0.51100000000E-03 0. -1.
         22    1    1    0    0    0 -0.17738660281E+01 -0.15228248361E+02 -0.24126162416E+02  0.28585273511E+02  0.00000000000E+00 0.  1.
</event>
<event>
 5    1  0.8907853E-005  0.9118800E+02  0.7818608E-02  0.1130116E+00
         25   -1    0    0    0    0  0.00000000000E+00  0.00000000000E+00  0.99999998245E-14  0.12500000000E+03  0.12500000000E+03 0.  0.
        -11    1    3    3    0    0 -0.71019509242E+01  0.60815921536E+02  0.40682948652E+01  0.61364200008E+02  0.51100000000E-03 0.  1.
         23    2    1    0    0    0 -0.97351822997E-02  0.22086431682E+02 -0.62099860318E+01  0.10205714739E+03  0.99444893526E+02 0.  0.
         11    1    3    3    0    0  0.70922157419E+01 -0.38729489854E+02 -0.10278280897E+02  0.40692947386E+02  0.51100000000E-03 0. -1.
         22    1    1    0    0    0  0.97351822997E-02 -0.22086431682E+02  0.62099860318E+01  0.22942852607E+02  0.00000000000E+00 0.  1.
</event>
<event>
 5    1  0.8907853E-005  0.9118800E+02  0.7818608E-02  0.1130116E+00
         25   -1    0    0    0    0  0.00000000000E+00  0.00000000000E+00  0.99999998245E-14  0.12500000000E+03  0.12500000000E+03 0.  0.
        -11    1    3    3    0    0 -0.34585390187E+02  0.12836337527E+02 -0.98496572402E+01  0.38182934978E+02  0.51100000000E-03 0.  1.
         23    2    1    0    0    0  0.41777249642E+01 -0.28869883832E+02 -0.57442655163E+01  0.95269205112E+02  0.90511332318E+02 0.  0.
         11    1    3    3    0    0  0.38763115151E+02 -0.41706221360E+02  0.41053917239E+01  0.57086270134E+02  0.51100000000E-03 0. -1.
         22    1    1    0    0    0 -0.41777249642E+01  0.28869883832E+02  0.57442655163E+01  0.29730794888E+02  0.00000000000E+00 0.  1.
</event>
<event>
 5    1  0.8907853E-005  0.9118800E+02  0.7818608E-02  0.1130116E+00
         25   -1    0    0    0    0  0.00000000000E+00  0.00000000000E+00  0.99999998245E-14  0.12500000000E+03  0.12500000000E+03 0.  0.
        -11    1    3    3    0    0  0.67668205010E+01 -0.25288474720E+02 -0.20000304642E+02  0.32944028281E+02  0.51100000000E-03 0. -1.
         23    2    1    0    0    0 -0.69441747835E+01  0.30070980682E+02 -0.16303940402E+02  0.90095789434E+02  0.83059902231E+02 0.  0.
         11    1    3    3    0    0 -0.13710995285E+02  0.55359455402E+02  0.36963642397E+01  0.57151761153E+02  0.51100000000E-03 0.  1.
         22    1    1    0    0    0  0.69441747835E+01 -0.30070980682E+02  0.16303940402E+02  0.34904210566E+02  0.00000000000E+00 0.  1.
</event>
<event>
 5    1  0.8907853E-005  0.9118800E+02  0.7818608E-02  0.1130116E+00
         25   -1    0    0    0    0  0.00000000000E+00  0.00000000000E+00  0.99999998245E-14  0.12500000000E+03  0.12500000000E+03 0.  0.
        -11    1    3    3    0    0  0.31287906897E+02 -0.32831249023E+02 -0.27443072456E+01  0.45435176383E+02  0.51100000000E-03 0.  1.
         23    2    1    0    0    0 -0.26824117703E+01 -0.11053303795E+02  0.27090499272E+02  0.95618611189E+02  0.90992597486E+02 0.  0.
         11    1    3    3    0    0 -0.33970318668E+02  0.21777945228E+02  0.29834806517E+02  0.50183434806E+02  0.51100000000E-03 0. -1.
         22    1    1    0    0    0  0.26824117703E+01  0.11053303795E+02 -0.27090499272E+02  0.29381388811E+02  0.00000000000E+00 0.  1.
</event>
<event>
 5    1  0.8907853E-005  0.9118800E+02  0.7818608E-02  0.1130116E+00
         25   -1    0    0    0    0  0.00000000000E+00  0.00000000000E+00  0.99999998245E-14  0.12500000000E+03  0.12500000000E+03 0.  0.
        -11    1    3    3    0    0  0.42240396925E+02  0.32261147611E+01  0.58869830434E+01  0.42770498225E+02  0.51100000000E-03 0. -1.
         23    2    1    0    0    0  0.64625632650E+01  0.66562287356E+01 -0.30022294146E+02  0.93576947145E+02  0.88143274197E+02 0.  0.
         11    1    3    3    0    0 -0.35777833660E+02  0.34301139745E+01 -0.35909277190E+02  0.50806448920E+02  0.51100000000E-03 0.  1.
         22    1    1    0    0    0 -0.64625632650E+01 -0.66562287356E+01  0.30022294146E+02  0.31423052855E+02  0.00000000000E+00 0.  1.
</event>
<event>
 5    1  0.8907853E-005  0.9118800E+02  0.7818608E-02  0.1130116E+00
         25   -1    0    0    0    0  0.00000000000E+00  0.00000000000E+00  0.99999998245E-14  0.12500000000E+03  0.12500000000E+03 0.  0.
        -11    1    3    3    0    0 -0.53573897154E+01 -0.60343361938E+02 -0.11942239050E+02  0.61746579082E+02  0.51100000000E-03 0.  1.
         23    2    1    0    0    0 -0.35579339073E+00 -0.30585845150E+02  0.55498705319E+00  0.94407051088E+02  0.89312724581E+02 0.  0.
         11    1    3    3    0    0  0.50015963247E+01  0.29757516788E+02  0.12497226104E+02  0.32660472007E+02  0.51100000000E-03 0. -1.
         22    1    1    0    0    0  0.35579339073E+00  0.30585845150E+02 -0.55498705319E+00  0.30592948912E+02  0.00000000000E+00 0.  1.
</event>
<event>
 5    1  0.8907853E-005  0.9118800E+02  0.7818608E-02  0.1130116E+00
         25   -1    0    0    0    0  0.00000000000E+00  0.00000000000E+00  0.99999998245E-14  0.12500000000E+03  0.12500000000E+03 0.  0.
        -11    1    3    3    0    0  0.23278099355E+02 -0.10161418748E+02  0.21666412276E+02  0.33384993062E+02  0.51100000000E-03 0.  1.
         23    2    1    0    0    0 -0.12566503682E+02  0.14348350928E+02 -0.22622641830E+02  0.95409864608E+02  0.90705381053E+02 0.  0.
         11    1    3    3    0    0 -0.35844603037E+02  0.24509769676E+02 -0.44289054106E+02  0.62024871546E+02  0.51100000000E-03 0. -1.
         22    1    1    0    0    0  0.12566503682E+02 -0.14348350928E+02  0.22622641830E+02  0.29590135392E+02  0.00000000000E+00 0. -1.
</event>
<event>
 5    1  0.8907853E-005  0.9118800E+02  0.7818608E-02  0.1130116E+00
         25   -1    0    0    0    0  0.00000000000E+00  0.00000000000E+00  0.99999998245E-14  0.12500000000E+03  0.12500000000E+03 0.  0.
        -11    1    3    3    0    0  0.93886178213E+01  0.30134578301E+02 -0.43557614071E+02  0.53791306898E+02  0.51100000000E-03 0.  1.
         23    2    1    0    0    0  0.25634022585E+02  0.61942489362E+01 -0.14038789014E+02  0.95124266858E+02  0.90310944600E+02 0.  0.
         11    1    3    3    0    0  0.16245404764E+02 -0.23940329365E+02  0.29518825057E+02  0.41332959960E+02  0.51100000000E-03 0. -1.
         22    1    1    0    0    0 -0.25634022585E+02 -0.61942489362E+01  0.14038789014E+02  0.29875733142E+02  0.00000000000E+00 0.  1.
</event>
<event>
 5    1  0.8907853E-005  0.9118800E+02  0.7818608E-02  0.1130116E+00
         25   -1    0    0    0    0  0.00000000000E+00  0.00000000000E+00  0.99999998245E-14  0.12500000000E+03  0.12500000000E+03 0.  0.
        -11    1    3    3    0    0  0.32092243947E+01 -0.33735987893E+02 -0.16248994480E+02  0.37582520169E+02  0.51100000000E-03 0.  1.
         23    2    1    0    0    0  0.23638082125E+02  0.17356617514E+02 -0.13606330936E+02  0.92671323262E+02  0.86849472167E+02 0.  0.
         11    1    3    3    0    0  0.20428857730E+02  0.51092605407E+02  0.26426635441E+01  0.55088803094E+02  0.51100000000E-03 0. -1.
         22    1    1    0    0    0 -0.23638082125E+02 -0.17356617514E+02  0.13606330936E+02  0.32328676738E+02  0.00000000000E+00 0.  1.
</event>
<event>
 5    1  0.8907853E-005  0.9118800E+02  0.7818608E-02  0.1130116E+00
         25   -1    0    0    0    0  0.00000000000E+00  0.00000000000E+00  0.99999998245E-14  0.12500000000E+03  0.12500000000E+03 0.  0.
        -11    1    3    3    0    0 -0.35904547337E+02 -0.11063486224E+02  0.46330718502E+02  0.59649582765E+02  0.51100000000E-03 0.  1.
         23    2    1    0    0    0 -0.45313831536E+01 -0.67730777803E+01  0.27109970602E+02  0.96691723437E+02  0.92455020736E+02 0.  0.
         11    1    3    3    0    0  0.31373164183E+02  0.42904084437E+01 -0.19220747900E+02  0.37042140672E+02  0.51100000000E-03 0. -1.
         22    1    1    0    0    0  0.45313831536E+01  0.67730777803E+01 -0.27109970602E+02  0.28308276563E+02  0.00000000000E+00 0.  1.
</event>
<event>
 5    1  0.8907853E-005  0.9118800E+02  0.7818608E-02  0.1130116E+00
         25   -1    0    0    0    0  0.00000000000E+00  0.00000000000E+00  0.99999998245E-14  0.12500000000E+03  0.12500000000E+03 0.  0.
        -11    1    3    3    0    0  0.37021767657E+02  0.14532239677E+02  0.28399432063E+02  0.48870492245E+02  0.51100000000E-03 0.  1.
         23    2    1    0    0    0  0.25188655912E+02 -0.10808827988E+02 -0.95162990591E+01  0.95985191765E+02  0.91494797345E+02 0.  0.
         11    1    3    3    0    0 -0.11833111745E+02 -0.25341067666E+02 -0.37915731123E+02  0.47114699520E+02  0.51100000000E-03 0. -1.
         22    1    1    0    0    0 -0.25188655912E+02  0.10808827988E+02  0.95162990591E+01  0.29014808235E+02  0.00000000000E+00 0. -1.
</event>
<event>
 4    1  0.8907853E-005  0.9118800E+02  0.7818608E-02  0.1130116E+00
         25   -1    0    0    0    0  0.00000000000E+00  0.00000000000E+00  0.99999998245E-14  0.12500000000E+03  0.12500000000E+03 0.  0.
        -11    1    1    0    0    0  0.15336571605E+02 -0.11151045637E+01  0.63576630071E+00  0.15390194471E+02  0.51100000000E-03 0.  1.
         11    1    1    0    0    0 -0.17367459852E+02  0.53160424533E+02  0.89883492635E+01  0.56643179828E+02  0.51100000000E-03 0. -1.
         22    1    1    0    0    0  0.20308882469E+01 -0.52045319969E+02 -0.96241155642E+01  0.52966625701E+02  0.00000000000E+00 0. -1.
</event>
<event>
 5    1  0.8907853E-005  0.9118800E+02  0.7818608E-02  0.1130116E+00
         25   -1    0    0    0    0  0.00000000000E+00  0.00000000000E+00  0.99999998245E-14  0.12500000000E+03  0.12500000000E+03 0.  0.
        -11    1    3    3    0    0 -0.22818158017E+02 -0.75916765275E+01 -0.19550006975E+02  0.30992009628E+02  0.51100000000E-03 0. -1.
         23    2    1    0    0    0  0.70720049804E+01  0.42910757342E+01  0.32106817663E+02  0.91844693851E+02  0.85651465036E+02 0.  0.
         11    1    3    3    0    0  0.29890162997E+02  0.11882752262E+02  0.51656824637E+02  0.60852684224E+02  0.51100000000E-03 0.  1.
         22    1    1    0    0    0 -0.70720049804E+01 -0.42910757342E+01 -0.32106817663E+02  0.33155306149E+02  0.00000000000E+00 0.  1.
</event>
<event>
 5    1  0.8907853E-005  0.9118800E+02  0.7818608E-02  0.1130116E+00
         25   -1    0    0    0    0  0.00000000000E+00  0.00000000000E+00  0.99999998245E-14  0.12500000000E+03  0.12500000000E+03 0.  0.
        -11    1    3    3    0    0  0.30618890195E+02 -0.44013471708E+02 -0.12852784180E+02  0.55135253604E+02  0.51100000000E-03 0. -1.
         23    2    1    0    0    0 -0.39779390957E+01 -0.24829825592E+02  0.62839034788E+01  0.99080283926E+02  0.95629864486E+02 0.  0.
         11    1    3    3    0    0 -0.34596829291E+02  0.19183646115E+02  0.19136687659E+02  0.43945030323E+02  0.51100000000E-03 0.  1.
         22    1    1    0    0    0  0.39779390957E+01  0.24829825592E+02 -0.62839034788E+01  0.25919716074E+02  0.00000000000E+00 0. -1.
</event>
<event>
 5    1  0.8907853E-005  0.9118800E+02  0.7818608E-02  0.1130116E+00
         25   -1    0    0    0    0  0.00000000000E+00  0.00000000000E+00  0.99999998245E-14  0.12500000000E+03  0.12500000000E+03 0.  0.
        -11    1    3    3    0    0 -0.39523201109E+02 -0.20498593354E+01 -0.34410229900E+01  0.39725633899E+02  0.51100000000E-03 0.  1.
         23    2    1    0    0    0  0.82495041822E+01 -0.12253588616E+02  0.24786983343E+02  0.96145203234E+02  0.91713144142E+02 0.  0.
         11    1    3    3    0    0  0.47772705292E+02 -0.10203729280E+02  0.28228006332E+02  0.56419569334E+02  0.51100000000E-03 0. -1.
         22    1    1    0    0    0 -0.82495041822E+01  0.12253588616E+02 -0.24786983343E+02  0.28854796766E+02  0.00000000000E+00 0. -1.
</event>
<event>
 5    1  0.8907853E-005  0.9118800E+02  0.7818608E-02  0.1130116E+00
         25   -1    0    0    0    0  0.00000000000E+00  0.00000000000E+00  0.99999998245E-14  0.12500000000E+03  0.12500000000E+03 0.  0.
        -11    1    3    3    0    0 -0.15883965564E+02 -0.87222580340E+00 -0.36593155696E+02  0.39901380727E+02  0.51100000000E-03 0.  1.
         23    2    1    0    0    0  0.25459418127E+02  0.14804847359E+02 -0.30687906096E+01  0.95389479024E+02  0.90677283572E+02 0.  0.
         11    1    3    3    0    0  0.41343383690E+02  0.15677073162E+02  0.33524365087E+02  0.55488098297E+02  0.51100000000E-03 0. -1.
         22    1    1    0    0    0 -0.25459418127E+02 -0.14804847359E+02  0.30687906096E+01  0.29610520976E+02  0.00000000000E+00 0. -1.
</event>
<event>
 5    1  0.8907853E-005  0.9118800E+02  0.7818608E-02  0.1130116E+00
         25   -1    0    0    0    0  0.00000000000E+00  0.00000000000E+00  0.99999998245E-14  0.12500000000E+03  0.12500000000E+03 0.  0.
        -11    1    3    3    0    0 -0.23768032593E+02  0.27151911269E+02  0.47242333138E+02  0.59447318691E+02  0.51100000000E-03 0.  1.
         23    2    1    0    0    0  0.24738001428E+01  0.16694745546E+02  0.21511827604E+02  0.97657854092E+02  0.93752138765E+02 0.  0.
         11    1    3    3    0    0  0.26241832736E+02 -0.10457165723E+02 -0.25730505534E+02  0.38210535401E+02  0.51100000000E-03 0. -1.
         22    1    1    0    0    0 -0.24738001428E+01 -0.16694745546E+02 -0.21511827604E+02  0.27342145908E+02  0.00000000000E+00 0.  1.
</event>
<event>
 5    1  0.8907853E-005  0.9118800E+02  0.7818608E-02  0.1130116E+00
         25   -1    0    0    0    0  0.00000000000E+00  0.00000000000E+00  0.99999998245E-14  0.12500000000E+03  0.12500000000E+03 0.  0.
        -11    1    3    3    0    0 -0.14704755150E+02  0.25195135171E+02  0.20850283549E+02  0.35857481572E+02  0.51100000000E-03 0. -1.
         23    2    1    0    0    0  0.26365723088E+01  0.26823839959E+02 -0.27042575959E+02  0.86819234971E+02  0.77973128337E+02 0.  0.
         11    1    3    3    0    0  0.17341327459E+02  0.16287047884E+01 -0.47892859508E+02  0.50961753399E+02  0.51100000000E-03 0.  1.
         22    1    1    0    0    0 -0.26365723088E+01 -0.26823839959E+02  0.27042575959E+02  0.38180765029E+02  0.00000000000E+00 0.  1.
</event>
<event>
 5    1  0.8907853E-005  0.9118800E+02  0.7818608E-02  0.1130116E+00
         25   -1    0    0    0    0  0.00000000000E+00  0.00000000000E+00  0.99999998245E-14  0.12500000000E+03  0.12500000000E+03 0.  0.
        -11    1    3    3    0    0 -0.48558438082E+02 -0.16678591523E+02  0.11824366086E+02  0.52686933463E+02  0.51100000000E-03 0.  1.
         23    2    1    0    0    0 -0.23560191878E+02  0.16106473766E+02  0.12311877165E+02  0.93918116888E+02  0.88625781925E+02 0.  0.
         11    1    3    3    0    0  0.24998246204E+02  0.32785065289E+02  0.48751107916E+00  0.41231183425E+02  0.51100000000E-03 0. -1.
         22    1    1    0    0    0  0.23560191878E+02 -0.16106473766E+02 -0.12311877165E+02  0.31081883112E+02  0.00000000000E+00 0.  1.
</event>
<event>
 5    1  0.8907853E-005  0.9118800E+02  0.7818608E-02  0.1130116E+00
         25   -1    0    0    0    0  0.00000000000E+00  0.00000000000E+00  0.99999998245E-14  0.12500000000E+03  0.12500000000E+03 0.  0.
        -11    1    3    3    0    0  0.10963449808E+02  0.33372024999E+02  0.27337043370E+02  0.44510709101E+02  0.51100000000E-03 0.  1.
         23    2    1    0    0    0  0.20156044642E+02 -0.13941513823E+02  0.20211963175E+02  0.93232793660E+02  0.87653855677E+02 0.  0.
         11    1    3    3    0    0  0.91925948340E+01 -0.47313538822E+02 -0.71250801952E+01  0.48722084559E+02  0.51100000000E-03 0. -1.
         22    1    1    0    0    0 -0.20156044642E+02  0.13941513823E+02 -0.20211963175E+02  0.31767206340E+02  0.00000000000E+00 0. -1.
</event>
<event>
 5    1  0.8907853E-005  0.9118800E+02  0.7818608E-02  0.1130116E+00
         25   -1    0    0    0    0  0.00000000000E+00  0.00000000000E+00  0.99999998245E-14  0.12500000000E+03  0.12500000000E+03 0.  0.
        -11    1    3    3    0    0  0.88104682827E+01  0.26791244867E+02 -0.12078927297E+02  0.30680541680E+02  0.51100000000E-03 0. -1.
         23    2    1    0    0    0 -0.19740786433E+02 -0.17461639677E+02  0.19615445567E+02  0.92146184179E+02  0.86090336535E+02 0.  0.
         11    1    3    3    0    0 -0.28551254716E+02 -0.44252884544E+02  0.31694372864E+02  0.61465642499E+02  0.51100000000E-03 0.  1.
         22    1    1    0    0    0  0.19740786433E+02  0.17461639677E+02 -0.19615445567E+02  0.32853815821E+02  0.00000000000E+00 0.  1.
</event>
<event>
 5    1  0.8907853E-005  0.9118800E+02  0.7818608E-02  0.1130116E+00
         25   -1    0    0    0    0  0.00000000000E+00  0.00000000000E+00  0.99999998245E-14  0.12500000000E+03  0.12500000000E+03 0.  0.
        -11    1    3    3    0    0  0.12796065372E+02 -0.27731264074E+02  0.39693964723E+02  0.50083661326E+02  0.51100000000E-03 0. -1.
         23    2    1    0    0    0  0.97302868534E+01 -0.26686979175E+02 -0.60626091613E+01  0.95954715192E+02  0.91453150837E+02 0.  0.
         11    1    3    3    0    0 -0.30657785190E+01  0.10442848995E+01 -0.45756573884E+02  0.45871053866E+02  0.51100000000E-03 0.  1.
         22    1    1    0    0    0 -0.97302868534E+01  0.26686979175E+02  0.60626091613E+01  0.29045284808E+02  0.00000000000E+00 0. -1.
</event>
<event>
 5    1  0.8907853E-005  0.9118800E+02  0.7818608E-02  0.1130116E+00
         25   -1    0    0    0    0  0.00000000000E+00  0.00000000000E+00  0.99999998245E-14  0.12500000000E+03  0.12500000000E+03 0.  0.
        -11    1    3    3    0    0  0.29693061539E-01 -0.38720123680E+02 -0.12675245267E+02  0.40742001698E+02  0.51100000000E-03 0. -1.
         23    2    1    0    0    0 -0.15433529116E+02 -0.18299186346E+02  0.27595106767E+02  0.88468589414E+02  0.80573862719E+02 0.  0.
         11    1    3    3    0    0 -0.15463222178E+02  0.20420937334E+02  0.40270352035E+02  0.47726587716E+02  0.51100000000E-03 0.  1.
         22    1    1    0    0    0  0.15433529116E+02  0.18299186346E+02 -0.27595106767E+02  0.36531410586E+02  0.00000000000E+00 0.  1.
</event>
<event>
 5    1  0.8907853E-005  0.9118800E+02  0.7818608E-02  0.1130116E+00
         25   -1    0    0    0    0  0.00000000000E+00  0.00000000000E+00  0.99999998245E-14  0.12500000000E+03  0.12500000000E+03 0.  0.
        -11    1    3    3    0    0  0.28356601778E+02  0.20840381161E+02  0.20556132249E+02  0.40755035574E+02  0.51100000000E-03 0. -1.
         23    2    1    0    0    0 -0.61799716267E+01 -0.19379823709E+02  0.23584698867E+02  0.93855054391E+02  0.88536792339E+02 0.  0.
         11    1    3    3    0    0 -0.34536573405E+02 -0.40220204870E+02  0.30285666185E+01  0.53100018817E+02  0.51100000000E-03 0.  1.
         22    1    1    0    0    0  0.61799716267E+01  0.19379823709E+02 -0.23584698867E+02  0.31144945609E+02  0.00000000000E+00 0.  1.
</event>
<event>
 5    1  0.8907853E-005  0.9118800E+02  0.7818608E-02  0.1130116E+00
         25   -1    0    0    0    0  0.00000000000E+00  0.00000000000E+00  0.99999998245E-14  0.12500000000E+03  0.12500000000E+03 0.  0.
        -11    1    3    3    0    0 -0.47596602269E+02 -0.26816767376E+02  0.79384259133E+01  0.55205019394E+02  0.51100000000E-03 0. -1.
         23    2    1    0    0    0 -0.81166414670E+01 -0.23843469776E+02  0.15377623427E+02  0.95489625181E+02  0.90815231626E+02 0.  0.
         11    1    3    3    0    0  0.39479960802E+02  0.29732976002E+01  0.74391975138E+01  0.40284605787E+02  0.51100000000E-03 0.  1.
         22    1    1    0    0    0  0.81166414670E+01  0.23843469776E+02 -0.15377623427E+02  0.29510374819E+02  0.00000000000E+00 0. -1.
</event>
<event>
 5    1  0.8907853E-005  0.9118800E+02  0.7818608E-02  0.1130116E+00
         25   -1    0    0    0    0  0.00000000000E+00  0.00000000000E+00  0.99999998245E-14  0.12500000000E+03  0.12500000000E+03 0.  0.
        -11    1    3    3    0    0  0.16295609548E+02  0.19223472482E+02  0.22107057027E+02  0.33523286764E+02  0.51100000000E-03 0.  1.
         23    2    1    0    0    0 -0.16731329153E+02 -0.24376357754E+02 -0.57110568879E+01  0.94887538072E+02  0.89982690102E+02 0.  0.
         11    1    3    3    0    0 -0.33026938701E+02 -0.43599830236E+02 -0.27818113915E+02  0.61364251308E+02  0.51100000000E-03 0. -1.
         22    1    1    0    0    0  0.16731329153E+02  0.24376357754E+02  0.57110568879E+01  0.30112461928E+02  0.00000000000E+00 0. -1.
</event>
<event>
 5    1  0.8907853E-005  0.9118800E+02  0.7818608E-02  0.1130116E+00
         25   -1    0    0    0    0  0.00000000000E+00  0.00000000000E+00  0.99999998245E-14  0.12500000000E+03  0.12500000000E+03 0.  0.
        -11    1    3    3    0    0 -0.35682931756E+02  0.35251560539E+02 -0.70403709781E+01  0.50650873269E+02  0.51100000000E-03 0.  1.
         23    2    1    0    0    0  0.14444043734E+01  0.18270501566E+02 -0.23951268187E+02  0.94841074634E+02  0.89918121969E+02 0.  0.
         11    1    3    3    0    0  0.37127336130E+02 -0.16981058974E+02 -0.16910897209E+02  0.44190201364E+02  0.51100000000E-03 0. -1.
         22    1    1    0    0    0 -0.14444043734E+01 -0.18270501566E+02  0.23951268187E+02  0.30158925366E+02  0.00000000000E+00 0.  1.
</event>
<event>
 5    1  0.8907853E-005  0.9118800E+02  0.7818608E-02  0.1130116E+00
         25   -1    0    0    0    0  0.00000000000E+00  0.00000000000E+00  0.99999998245E-14  0.12500000000E+03  0.12500000000E+03 0.  0.
        -11    1    3    3    0    0  0.19372844859E+02 -0.44312224099E+02  0.28372557767E+02  0.56070334020E+02  0.51100000000E-03 0.  1.
         23    2    1    0    0    0 -0.54990848341E+01 -0.29613094643E+02  0.26299720188E+01  0.94766044566E+02  0.89813758086E+02 0.  0.
         11    1    3    3    0    0 -0.24871929693E+02  0.14699129457E+02 -0.25742585748E+02  0.38695710547E+02  0.51100000000E-03 0. -1.
         22    1    1    0    0    0  0.54990848341E+01  0.29613094643E+02 -0.26299720188E+01  0.30233955434E+02  0.00000000000E+00 0.  1.
</event>
<event>
 5    1  0.8907853E-005  0.9118800E+02  0.7818608E-02  0.1130116E+00
         25   -1    0    0    0    0  0.00000000000E+00  0.00000000000E+00  0.99999998245E-14  0.12500000000E+03  0.12500000000E+03 0.  0.
        -11    1    3    3    0    0 -0.15560209161E+02 -0.35791293036E+02  0.40605016078E+02  0.56319659954E+02  0.51100000000E-03 0. -1.
         23    2    1    0    0    0 -0.13054586540E+02 -0.26783099425E+02  0.30178867633E+01  0.95052307517E+02  0.90211290198E+02 0.  0.
         11    1    3    3    0    0  0.25056226203E+01  0.90081936114E+01 -0.37587129315E+02  0.38732647563E+02  0.51100000000E-03 0.  1.
         22    1    1    0    0    0  0.13054586540E+02  0.26783099425E+02 -0.30178867633E+01  0.29947692483E+02  0.00000000000E+00 0. -1.
</event>
<event>
 5    1  0.8907853E-005  0.9118800E+02  0.7818608E-02  0.1130116E+00
         25   -1    0    0    0    0  0.00000000000E+00  0.00000000000E+00  0.99999998245E-14  0.12500000000E+03  0.12500000000E+03 0.  0.
        -11    1    3    3    0    0  0.58934603796E+02  0.18190791663E+02 -0.94515510770E+01  0.62398110900E+02  0.51100000000E-03 0.  1.
         23    2    1    0    0    0  0.23831638702E+02  0.68397263260E+01 -0.13515325626E+01  0.10016946437E+03  0.97043114606E+02 0.  0.
         11    1    3    3    0    0 -0.35102965094E+02 -0.11351065337E+02  0.81000185143E+01  0.37771353469E+02  0.51100000000E-03 0. -1.
         22    1    1    0    0    0 -0.23831638702E+02 -0.68397263260E+01  0.13515325626E+01  0.24830535631E+02  0.00000000000E+00 0.  1.
</event>
<event>
 5    1  0.8907853E-005  0.9118800E+02  0.7818608E-02  0.1130116E+00
         25   -1    0    0    0    0  0.00000000000E+00  0.00000000000E+00  0.99999998245E-14  0.12500000000E+03  0.12500000000E+03 0.  0.
        -11    1    3    3    0    0 -0.33865394439E+02 -0.22868182554E+02 -0.10880665446E+01  0.40877898710E+02  0.51100000000E-03 0. -1.
         23    2    1    0    0    0 -0.71965545849E+01  0.26271185944E+02 -0.63369889405E+01  0.97033537270E+02  0.92916006789E+02 0.  0.
         11    1    3    3    0    0  0.26668839854E+02  0.49139368498E+02 -0.52489223959E+01  0.56155638560E+02  0.51100000000E-03 0.  1.
         22    1    1    0    0    0  0.71965545849E+01 -0.26271185944E+02  0.63369889405E+01  0.27966462730E+02  0.00000000000E+00 0.  1.
</event>
<event>
 5    1  0.8907853E-005  0.9118800E+02  0.7818608E-02  0.1130116E+00
         25   -1    0    0    0    0  0.00000000000E+00  0.00000000000E+00  0.99999998245E-14  0.12500000000E+03  0.12500000000E+03 0.  0.
        -11    1    3    3    0    0 -0.19191233733E+02 -0.28346691527E+02 -0.50655363034E+02  0.61137583998E+02  0.51100000000E-03 0.  1.
         23    2    1    0    0    0 -0.11750855646E+02 -0.51807211366E+01 -0.27138258431E+02  0.94976549988E+02  0.90106256703E+02 0.  0.
         11    1    3    3    0    0  0.74403780868E+01  0.23165970390E+02  0.23517104603E+02  0.33838965991E+02  0.51100000000E-03 0. -1.
         22    1    1    0    0    0  0.11750855646E+02  0.51807211366E+01  0.27138258431E+02  0.30023450012E+02  0.00000000000E+00 0.  1.
</event>
<event>
 5    1  0.8907853E-005  0.9118800E+02  0.7818608E-02  0.1130116E+00
         25   -1    0    0    0    0  0.00000000000E+00  0.00000000000E+00  0.99999998245E-14  0.12500000000E+03  0.12500000000E+03 0.  0.
        -11    1    3    3    0    0 -0.17035345004E+02 -0.30636828623E+02  0.40336971285E+01  0.35285818118E+02  0.51100000000E-03 0.  1.
         23    2    1    0    0    0  0.88921273347E+01  0.22027612223E+02  0.17480128390E+02  0.95506941201E+02  0.90839062634E+02 0.  0.
         11    1    3    3    0    0  0.25927472338E+02  0.52664440846E+02  0.13446431262E+02  0.60221123083E+02  0.51100000000E-03 0. -1.
         22    1    1    0    0    0 -0.88921273347E+01 -0.22027612223E+02 -0.17480128390E+02  0.29493058799E+02  0.00000000000E+00 0. -1.
</event>
<event>
 5    1  0.8907853E-005  0.9118800E+02  0.7818608E-02  0.1130116E+00
         25   -1    0    0    0    0  0.00000000000E+00  0.00000000000E+00  0.99999998245E-14  0.12500000000E+03  0.12500000000E+03 0.  0.
        -11    1    3    3    0    0  0.65804879945E+01 -0.46221953787E+02  0.11136198322E+02  0.47997778568E+02  0.51100000000E-03 0. -1.
         23    2    1    0    0    0  0.61258932249E+01 -0.12029971144E+01  0.28179672076E+02  0.96137088016E+02  0.91702082878E+02 0.  0.
         11    1    3    3    0    0 -0.45459476963E+00  0.45018956673E+02  0.17043473754E+02  0.48139309448E+02  0.51100000000E-03 0.  1.
         22    1    1    0    0    0 -0.61258932249E+01  0.12029971144E+01 -0.28179672076E+02  0.28862911984E+02  0.00000000000E+00 0.  1.
</event>
<event>
 5    1  0.8907853E-005  0.9118800E+02  0.7818608E-02  0.1130116E+00
         25   -1    0    0    0    0  0.00000000000E+00  0.00000000000E+00  0.99999998245E-14  0.12500000000E+03  0.12500000000E+03 0.  0.
        -11    1    3    3    0    0 -0.96756254033E+01  0.24240323286E+01 -0.51786908878E+02  0.52738767440E+02  0.51100000000E-03 0.  1.
         23    2    1    0    0    0  0.13274209978E+02 -0.16124948388E+02 -0.21149117377E+02  0.95276208572E+02  0.90521003877E+02 0.  0.
         11    1    3    3    0    0  0.22949835381E+02 -0.18548980717E+02  0.30637791501E+02  0.42537441131E+02  0.51100000000E-03 0. -1.
         22    1    1    0    0    0 -0.13274209978E+02  0.16124948388E+02  0.21149117377E+02  0.29723791428E+02  0.00000000000E+00 0.  1.
</event>
<event>
 5    1  0.8907853E-005  0.9118800E+02  0.7818608E-02  0.1130116E+00
         25   -1    0    0    0    0  0.00000000000E+00  0.00000000000E+00  0.99999998245E-14  0.12500000000E+03  0.12500000000E+03 0.  0.
        -11    1    3    3    0    0 -0.47713765670E+01 -0.42344169084E+02 -0.20347049923E+02  0.47220727764E+02  0.51100000000E-03 0.  1.
         23    2    1    0    0    0  0.25640042418E+02 -0.17194544838E+02  0.44218730690E+01  0.93813190147E+02  0.88477666881E+02 0.  0.
         11    1    3    3    0    0  0.30411418985E+02  0.25149624246E+02  0.24768922992E+02  0.46592462383E+02  0.51100000000E-03 0. -1.
         22    1    1    0    0    0 -0.25640042418E+02  0.17194544838E+02 -0.44218730690E+01  0.31186809853E+02  0.00000000000E+00 0.  1.
</event>
<event>
 5    1  0.8907853E-005  0.9118800E+02  0.7818608E-02  0.1130116E+00
         25   -1    0    0    0    0  0.00000000000E+00  0.00000000000E+00  0.99999998245E-14  0.12500000000E+03  0.12500000000E+03 0.  0.
        -11    1    3    3    0    0  0.19140915039E+02 -0.25256843457E+02  0.16027065460E+01  0.31730922433E+02  0.51100000000E-03 0. -1.
         23    2    1    0    0    0 -0.26022088801E+02  0.14952768292E+02 -0.10123243611E+02  0.93326439317E+02  0.87787298792E+02 0.  0.
         11    1    3    3    0    0 -0.45163003839E+02  0.40209611749E+02 -0.11725950157E+02  0.61595516884E+02  0.51100000000E-03 0.  1.
         22    1    1    0    0    0  0.26022088801E+02 -0.14952768292E+02  0.10123243611E+02  0.31673560683E+02  0.00000000000E+00 0.  1.
</event>
<event>
 5    1  0.8907853E-005  0.9118800E+02  0.7818608E-02  0.1130116E+00
         25   -1    0    0    0    0  0.00000000000E+00  0.00000000000E+00  0.99999998245E-14  0.12500000000E+03  0.12500000000E+03 0.  0.
        -11    1    3    3    0    0 -0.23207825809E+02  0.23148303849E+02  0.73891092801E+01  0.33601281018E+02  0.51100000000E-03 0. -1.
         23    2    1    0    0    0  0.24615930596E+02 -0.15857220943E+02  0.33259494679E+00  0.95716794667E+02  0.91127376056E+02 0.  0.
         11    1    3    3    0    0  0.47823756406E+02 -0.39005524792E+02 -0.70565143333E+01  0.62115513649E+02  0.51100000000E-03 0.  1.
         22    1    1    0    0    0 -0.24615930596E+02  0.15857220943E+02 -0.33259494679E+00  0.29283205333E+02  0.00000000000E+00 0.  1.
</event>
<event>
 5    1  0.8907853E-005  0.9118800E+02  0.7818608E-02  0.1130116E+00
         25   -1    0    0    0    0  0.00000000000E+00  0.00000000000E+00  0.99999998245E-14  0.12500000000E+03  0.12500000000E+03 0.  0.
        -11    1    3    3    0    0 -0.68632217500E+01 -0.12551745046E+02  0.42460544883E+02  0.44805669156E+02  0.51100000000E-03 0.  1.
         23    2    1    0    0    0  0.24810166571E+02 -0.11918728308E+02  0.38660567322E+00  0.97472742350E+02  0.93505003009E+02 0.  0.
         11    1    3    3    0    0  0.31673388321E+02  0.63301673779E+00 -0.42073939210E+02  0.52667073194E+02  0.51100000000E-03 0. -1.
         22    1    1    0    0    0 -0.24810166571E+02  0.11918728308E+02 -0.38660567322E+00  0.27527257650E+02  0.00000000000E+00 0. -1.
</event>
<event>
 5    1  0.8907853E-005  0.9118800E+02  0.7818608E-02  0.1130116E+00
         25   -1    0    0    0    0  0.00000000000E+00  0.00000000000E+00  0.99999998245E-14  0.12500000000E+03  0.12500000000E+03 0.  0.
        -11    1    3    3    0    0 -0.34802853788E+02  0.33930157009E+02 -0.12665696884E+02  0.50228617981E+02  0.51100000000E-03 0. -1.
         23    2    1    0    0    0 -0.18307885882E+02  0.10310566077E+02  0.21512443167E+02  0.94928889789E+02  0.90040115766E+02 0.  0.
         11    1    3    3    0    0  0.16494967906E+02 -0.23619590933E+02  0.34178140052E+02  0.44700271808E+02  0.51100000000E-03 0.  1.
         22    1    1    0    0    0  0.18307885882E+02 -0.10310566077E+02 -0.21512443167E+02  0.30071110211E+02  0.00000000000E+00 0.  1.
</event>
<event>
 5    1  0.8907853E-005  0.9118800E+02  0.7818608E-02  0.1130116E+00
         25   -1    0    0    0    0  0.00000000000E+00  0.00000000000E+00  0.99999998245E-14  0.12500000000E+03  0.12500000000E+03 0.  0.
        -11    1    3    3    0    0  0.16729130179E+02 -0.92183270935E+01 -0.27355727526E+02  0.33364309969E+02  0.51100000000E-03 0. -1.
         23    2    1    0    0    0 -0.15828118737E+02  0.11143935529E+02  0.21868168013E+02  0.95794976219E+02  0.91234555157E+02 0.  0.
         11    1    3    3    0    0 -0.32557248917E+02  0.20362262622E+02  0.49223895539E+02  0.62430666250E+02  0.51100000000E-03 0.  1.
         22    1    1    0    0    0  0.15828118737E+02 -0.11143935529E+02 -0.21868168013E+02  0.29205023781E+02  0.00000000000E+00 0.  1.
</event>
<event>
 5    1  0.8907853E-005  0.9118800E+02  0.7818608E-02  0.1130116E+00
         25   -1    0    0    0    0  0.00000000000E+00  0.00000000000E+00  0.99999998245E-14  0.12500000000E+03  0.12500000000E+03 0.  0.
        -11    1    3    3    0    0 -0.29624491250E+02  0.25846600717E+02  0.67140270852E+01  0.39884024501E+02  0.51100000000E-03 0.  1.
         23    2    1    0    0    0 -0.56175133418E+01 -0.20944984557E+02  0.21447995830E+02  0.94499748208E+02  0.89442367209E+02 0.  0.
         11    1    3    3    0    0  0.24006977909E+02 -0.46791585274E+02  0.14733968745E+02  0.54615723707E+02  0.51100000000E-03 0. -1.
         22    1    1    0    0    0  0.56175133418E+01  0.20944984557E+02 -0.21447995830E+02  0.30500251792E+02  0.00000000000E+00 0. -1.
</event>
<event>
 5    1  0.8907853E-005  0.9118800E+02  0.7818608E-02  0.1130116E+00
         25   -1    0    0    0    0  0.00000000000E+00  0.00000000000E+00  0.99999998245E-14  0.12500000000E+03  0.12500000000E+03 0.  0.
        -11    1    3    3    0    0  0.12516787913E+02  0.64613187011E+01 -0.36842369052E+02  0.39443361630E+02  0.51100000000E-03 0.  1.
         23    2    1    0    0    0 -0.27019698185E+02  0.83156723836E+01  0.41514931963E+01  0.96426421419E+02  0.92095631572E+02 0.  0.
         11    1    3    3    0    0 -0.39536486098E+02  0.18543536825E+01  0.40993862249E+02  0.56983059789E+02  0.51100000000E-03 0. -1.
         22    1    1    0    0    0  0.27019698185E+02 -0.83156723836E+01 -0.41514931963E+01  0.28573578581E+02  0.00000000000E+00 0.  1.
</event>
<event>
 5    1  0.8907853E-005  0.9118800E+02  0.7818608E-02  0.1130116E+00
         25   -1    0    0    0    0  0.00000000000E+00  0.00000000000E+00  0.99999998245E-14  0.12500000000E+03  0.12500000000E+03 0.  0.
        -11    1    3    3    0    0 -0.15872838290E+02  0.23708361946E+02  0.18409766604E+02  0.33955160553E+02  0.51100000000E-03 0.  1.
         23    2    1    0    0    0  0.73604434066E+01 -0.25067036275E+02 -0.12326666479E+02  0.96112647383E+02  0.91668761558E+02 0.  0.
         11    1    3    3    0    0  0.23233281696E+02 -0.48775398221E+02 -0.30736433083E+02  0.62157486829E+02  0.51100000000E-03 0. -1.
         22    1    1    0    0    0 -0.73604434066E+01  0.25067036275E+02  0.12326666479E+02  0.28887352617E+02  0.00000000000E+00 0. -1.
</event>
<event>
 5    1  0.8907853E-005  0.9118800E+02  0.7818608E-02  0.1130116E+00
         25   -1    0    0    0    0  0.00000000000E+00  0.00000000000E+00  0.99999998245E-14  0.12500000000E+03  0.12500000000E+03 0.  0.
        -11    1    3    3    0    0  0.14748060874E+02 -0.30172130243E+02 -0.29659761731E+02  0.44805850166E+02  0.51100000000E-03 0.  1.
         23    2    1    0    0    0 -0.10718643232E+02  0.13524954692E+02 -0.23628097958E+02  0.95740801014E+02  0.91160299767E+02 0.  0.
         11    1    3    3    0    0 -0.25466704105E+02  0.43697084935E+02  0.60316637723E+01  0.50934950848E+02  0.51100000000E-03 0. -1.
         22    1    1    0    0    0  0.10718643232E+02 -0.13524954692E+02  0.23628097958E+02  0.29259198986E+02  0.00000000000E+00 0.  1.
</event>
<event>
 5    1  0.8907853E-005  0.9118800E+02  0.7818608E-02  0.1130116E+00
         25   -1    0    0    0    0  0.00000000000E+00  0.00000000000E+00  0.99999998245E-14  0.12500000000E+03  0.12500000000E+03 0.  0.
        -11    1    3    3    0    0 -0.14137868417E+02 -0.61831206268E+01 -0.44895623855E+02  0.47473438317E+02  0.51100000000E-03 0. -1.
         23    2    1    0    0    0 -0.28259706016E+01 -0.29717171690E+02 -0.56392907153E+01  0.94620763623E+02  0.89611332462E+02 0.  0.
         11    1    3    3    0    0  0.11311897815E+02 -0.23534051063E+02  0.39256333140E+02  0.47147325306E+02  0.51100000000E-03 0.  1.
         22    1    1    0    0    0  0.28259706016E+01  0.29717171690E+02  0.56392907153E+01  0.30379236377E+02  0.00000000000E+00 0.  1.
</event>
<event>
 5    1  0.8907853E-005  0.9118800E+02  0.7818608E-02  0.1130116E+00
         25   -1    0    0    0    0  0.00000000000E+00  0.00000000000E+00  0.99999998245E-14  0.12500000000E+03  0.12500000000E+03 0.  0.
        -11    1    3    3    0    0  0.12847216473E+02  0.20709630928E+02  0.20907139992E+02  0.32109940629E+02  0.51100000000E-03 0.  1.
         23    2    1    0    0    0 -0.12448375007E+02 -0.13195996463E+02 -0.24725237196E+02  0.94333508232E+02  0.89209736340E+02 0.  0.
         11    1    3    3    0    0 -0.25295591480E+02 -0.33905627391E+02 -0.45632377188E+02  0.62223567603E+02  0.51100000000E-03 0. -1.
         22    1    1    0    0    0  0.12448375007E+02  0.13195996463E+02  0.24725237196E+02  0.30666491768E+02  0.00000000000E+00 0. -1.
</event>
<event>
 5    1  0.8907853E-005  0.9118800E+02  0.7818608E-02  0.1130116E+00
         25   -1    0    0    0    0  0.00000000000E+00  0.00000000000E+00  0.99999998245E-14  0.12500000000E+03  0.12500000000E+03 0.  0.
        -11    1    3    3    0    0  0.17878758090E+02  0.13027555781E+02  0.44644134369E+02  0.49824350816E+02  0.51100000000E-03 0.  1.
         23    2    1    0    0    0  0.62312689715E+01  0.29612984716E+02  0.50278577158E+01  0.94323674764E+02  0.89195956696E+02 0.  0.
         11    1    3    3    0    0 -0.11647489118E+02  0.16585428935E+02 -0.39616276653E+02  0.44499323948E+02  0.51100000000E-03 0. -1.
         22    1    1    0    0    0 -0.62312689715E+01 -0.29612984716E+02 -0.50278577158E+01  0.30676325236E+02  0.00000000000E+00 0.  1.
</event>
<event>
 5    1  0.8907853E-005  0.9118800E+02  0.7818608E-02  0.1130116E+00
         25   -1    0    0    0    0  0.00000000000E+00  0.00000000000E+00  0.99999998245E-14  0.12500000000E+03  0.12500000000E+03 0.  0.
        -11    1    3    3    0    0 -0.51487890412E+02 -0.21652686799E+02  0.76977793604E+01  0.56383486164E+02  0.51100000000E-03 0.  1.
         23    2    1    0    0    0 -0.29271585554E+02  0.74769962823E+01 -0.32378498510E+01  0.94615548945E+02  0.89604058147E+02 0.  0.
         11    1    3    3    0    0  0.22216304859E+02  0.29129683081E+02 -0.10935629211E+02  0.38232062781E+02  0.51100000000E-03 0. -1.
         22    1    1    0    0    0  0.29271585554E+02 -0.74769962823E+01  0.32378498510E+01  0.30384451055E+02  0.00000000000E+00 0.  1.
</event>
<event>
 5    1  0.8907853E-005  0.9118800E+02  0.7818608E-02  0.1130116E+00
         25   -1    0    0    0    0  0.00000000000E+00  0.00000000000E+00  0.99999998245E-14  0.12500000000E+03  0.12500000000E+03 0.  0.
        -11    1    3    3    0    0  0.12315128151E+02  0.23270511091E+02 -0.55998092987E+02  0.61878635135E+02  0.51100000000E-03 0.  1.
         23    2    1    0    0    0  0.89934289985E+01  0.13992155818E+02 -0.21152216490E+02  0.98091294122E+02  0.94328275350E+02 0.  0.
         11    1    3    3    0    0 -0.33216991522E+01 -0.92783552724E+01  0.34845876497E+02  0.36212658987E+02  0.51100000000E-03 0. -1.
         22    1    1    0    0    0 -0.89934289985E+01 -0.13992155818E+02  0.21152216490E+02  0.26908705878E+02  0.00000000000E+00 0.  1.
</event>
<event>
 5    1  0.8907853E-005  0.9118800E+02  0.7818608E-02  0.1130116E+00
         25   -1    0    0    0    0  0.00000000000E+00  0.00000000000E+00  0.99999998245E-14  0.12500000000E+03  0.12500000000E+03 0.  0.
        -11    1    3    3    0    0 -0.25572136046E+02  0.91044202942E+01  0.26966962873E+02  0.38262797829E+02  0.51100000000E-03 0.  1.
         23    2    1    0    0    0  0.13367302042E+02  0.20524507188E+02 -0.14707168302E+02  0.96430068977E+02  0.92100582215E+02 0.  0.
         11    1    3    3    0    0  0.38939438088E+02  0.11420086894E+02 -0.41674131175E+02  0.58167271148E+02  0.51100000000E-03 0. -1.
         22    1    1    0    0    0 -0.13367302042E+02 -0.20524507188E+02  0.14707168302E+02  0.28569931023E+02  0.00000000000E+00 0. -1.
</event>
<event>
 5    1  0.8907853E-005  0.9118800E+02  0.7818608E-02  0.1130116E+00
         25   -1    0    0    0    0  0.00000000000E+00  0.00000000000E+00  0.99999998245E-14  0.12500000000E+03  0.12500000000E+03 0.  0.
        -11    1    3    3    0    0 -0.14167582296E+02  0.50208889769E+02 -0.29307266423E+02  0.59837854786E+02  0.51100000000E-03 0.  1.
         23    2    1    0    0    0 -0.95118518376E+01  0.26215829009E+02 -0.11986490931E+01  0.97086172322E+02  0.92986789817E+02 0.  0.
         11    1    3    3    0    0  0.46557304583E+01 -0.23993060760E+02  0.28108617330E+02  0.37248317535E+02  0.51100000000E-03 0. -1.
         22    1    1    0    0    0  0.95118518376E+01 -0.26215829009E+02  0.11986490931E+01  0.27913827678E+02  0.00000000000E+00 0.  1.
</event>
<event>
 5    1  0.8907853E-005  0.9118800E+02  0.7818608E-02  0.1130116E+00
         25   -1    0    0    0    0  0.00000000000E+00  0.00000000000E+00  0.99999998245E-14  0.12500000000E+03  0.12500000000E+03 0.  0.
        -11    1    3    3    0    0  0.23744372153E+02 -0.90329055504E+01  0.22346448865E+02  0.33834189347E+02  0.51100000000E-03 0. -1.
         23    2    1    0    0    0 -0.15552723623E+02 -0.47571564592E+01 -0.24789656180E+02  0.95351310262E+02  0.90624652085E+02 0.  0.
         11    1    3    3    0    0 -0.39297095775E+02  0.42757490912E+01 -0.47136105045E+02  0.61517120915E+02  0.51100000000E-03 0.  1.
         22    1    1    0    0    0  0.15552723623E+02  0.47571564592E+01  0.24789656180E+02  0.29648689738E+02  0.00000000000E+00 0.  1.
</event>
<event>
 5    1  0.8907853E-005  0.9118800E+02  0.7818608E-02  0.1130116E+00
         25   -1    0    0    0    0  0.00000000000E+00  0.00000000000E+00  0.99999998245E-14  0.12500000000E+03  0.12500000000E+03 0.  0.
        -11    1    3    3    0    0 -0.12434357167E+02  0.80043493294E+01 -0.23414574065E+02  0.27693413030E+02  0.51100000000E-03 0.  1.
         23    2    1    0    0    0 -0.33360033194E+02 -0.72271834789E+01  0.25066611389E+02  0.82650749685E+02  0.70976668147E+02 0.  0.
         11    1    3    3    0    0 -0.20925676027E+02 -0.15231532808E+02  0.48481185454E+02  0.54957336655E+02  0.51100000000E-03 0. -1.
         22    1    1    0    0    0  0.33360033194E+02  0.72271834789E+01 -0.25066611389E+02  0.42349250315E+02  0.00000000000E+00 0. -1.
</event>
<event>
 5    1  0.8907853E-005  0.9118800E+02  0.7818608E-02  0.1130116E+00
         25   -1    0    0    0    0  0.00000000000E+00  0.00000000000E+00  0.99999998245E-14  0.12500000000E+03  0.12500000000E+03 0.  0.
        -11    1    3    3    0    0  0.11107038218E+02 -0.22869208836E+02  0.39573729465E+02  0.47036656714E+02  0.51100000000E-03 0.  1.
         23    2    1    0    0    0 -0.24290509366E+02  0.94638397053E+00  0.17291893070E+02  0.95168237501E+02  0.90371784176E+02 0.  0.
         11    1    3    3    0    0 -0.35397547584E+02  0.23815592807E+02 -0.22281836395E+02  0.48131580787E+02  0.51100000000E-03 0. -1.
         22    1    1    0    0    0  0.24290509366E+02 -0.94638397053E+00 -0.17291893070E+02  0.29831762499E+02  0.00000000000E+00 0. -1.
</event>
<event>
 5    1  0.8907853E-005  0.9118800E+02  0.7818608E-02  0.1130116E+00
         25   -1    0    0    0    0  0.00000000000E+00  0.00000000000E+00  0.99999998245E-14  0.12500000000E+03  0.12500000000E+03 0.  0.
        -11    1    3    3    0    0  0.18016532216E+02  0.14114405942E+02  0.36084163013E+02  0.42730301997E+02  0.51100000000E-03 0. -1.
         23    2    1    0    0    0 -0.24972636688E+02  0.15101493878E+02  0.60105176230E+01  0.95203791808E+02  0.90420948635E+02 0.  0.
         11    1    3    3    0    0 -0.42989168904E+02  0.98708793614E+00 -0.30073645390E+02  0.52473489811E+02  0.51100000000E-03 0.  1.
         22    1    1    0    0    0  0.24972636688E+02 -0.15101493878E+02 -0.60105176230E+01  0.29796208192E+02  0.00000000000E+00 0.  1.
</event>
<event>
 5    1  0.8907853E-005  0.9118800E+02  0.7818608E-02  0.1130116E+00
         25   -1    0    0    0    0  0.00000000000E+00  0.00000000000E+00  0.99999998245E-14  0.12500000000E+03  0.12500000000E+03 0.  0.
        -11    1    3    3    0    0  0.24790234163E+02  0.53302946191E+02  0.13723183034E+02  0.60366261565E+02  0.51100000000E-03 0. -1.
         23    2    1    0    0    0  0.18987777927E+02  0.20961909051E+02  0.14465912316E+02  0.93232092282E+02  0.87652855460E+02 0.  0.
         11    1    3    3    0    0 -0.58024562366E+01 -0.32341037139E+02  0.74272928143E+00  0.32865830716E+02  0.51100000000E-03 0.  1.
         22    1    1    0    0    0 -0.18987777927E+02 -0.20961909051E+02 -0.14465912316E+02  0.31767907718E+02  0.00000000000E+00 0. -1.
</event>
<event>
 5    1  0.8907853E-005  0.9118800E+02  0.7818608E-02  0.1130116E+00
         25   -1    0    0    0    0  0.00000000000E+00  0.00000000000E+00  0.99999998245E-14  0.12500000000E+03  0.12500000000E+03 0.  0.
        -11    1    3    3    0    0 -0.38640408707E+02  0.40039073027E+01 -0.32812624665E+02  0.50850573216E+02  0.51100000000E-03 0. -1.
         23    2    1    0    0    0  0.13738904335E+02 -0.53750999836E+00 -0.89947145198E+01  0.10856980528E+03  0.10731938930E+03 0.  0.
         11    1    3    3    0    0  0.52379313042E+02 -0.45414173011E+01  0.23817910145E+02  0.57719232062E+02  0.51100000000E-03 0.  1.
         22    1    1    0    0    0 -0.13738904335E+02  0.53750999836E+00  0.89947145198E+01  0.16430194722E+02  0.00000000000E+00 0. -1.
</event>
<event>
 5    1  0.8907853E-005  0.9118800E+02  0.7818608E-02  0.1130116E+00
         25   -1    0    0    0    0  0.00000000000E+00  0.00000000000E+00  0.99999998245E-14  0.12500000000E+03  0.12500000000E+03 0.  0.
        -11    1    3    3    0    0  0.52324289410E+01 -0.56204137406E+02 -0.15589909558E+02  0.58560470067E+02  0.51100000000E-03 0. -1.
         23    2    1    0    0    0 -0.10282330360E+02 -0.20975968197E+02 -0.15337198139E+02  0.97054567346E+02  0.92944294266E+02 0.  0.
         11    1    3    3    0    0 -0.15514759301E+02  0.35228169209E+02  0.25271141929E+00  0.38494097279E+02  0.51100000000E-03 0.  1.
         22    1    1    0    0    0  0.10282330360E+02  0.20975968197E+02  0.15337198139E+02  0.27945432654E+02  0.00000000000E+00 0. -1.
</event>
<event>
 5    1  0.8907853E-005  0.9118800E+02  0.7818608E-02  0.1130116E+00
         25   -1    0    0    0    0  0.00000000000E+00  0.00000000000E+00  0.99999998245E-14  0.12500000000E+03  0.12500000000E+03 0.  0.
        -11    1    3    3    0    0  0.27484119075E+02 -0.19527489386E+02  0.40496790053E+00  0.33717408595E+02  0.51100000000E-03 0.  1.
         23    2    1    0    0    0 -0.27876822674E+02  0.57170570924E+01 -0.87064610487E+01  0.95240893021E+02  0.90472223667E+02 0.  0.
         11    1    3    3    0    0 -0.55360941749E+02  0.25244546478E+02 -0.91114289492E+01  0.61523484427E+02  0.51100000000E-03 0. -1.
         22    1    1    0    0    0  0.27876822674E+02 -0.57170570924E+01  0.87064610487E+01  0.29759106979E+02  0.00000000000E+00 0. -1.
</event>
<event>
 5    1  0.8907853E-005  0.9118800E+02  0.7818608E-02  0.1130116E+00
         25   -1    0    0    0    0  0.00000000000E+00  0.00000000000E+00  0.99999998245E-14  0.12500000000E+03  0.12500000000E+03 0.  0.
        -11    1    3    3    0    0 -0.27444781422E+02 -0.52293631581E+01 -0.24351569490E+02  0.37061586626E+02  0.51100000000E-03 0. -1.
         23    2    1    0    0    0  0.78139954673E+01  0.29537987715E+02  0.41022956230E+01  0.94171765006E+02  0.88982814361E+02 0.  0.
         11    1    3    3    0    0  0.35258776890E+02  0.34767350874E+02  0.28453865113E+02  0.57110178380E+02  0.51100000000E-03 0.  1.
         22    1    1    0    0    0 -0.78139954673E+01 -0.29537987715E+02 -0.41022956230E+01  0.30828234994E+02  0.00000000000E+00 0.  1.
</event>
<event>
 5    1  0.8907853E-005  0.9118800E+02  0.7818608E-02  0.1130116E+00
         25   -1    0    0    0    0  0.00000000000E+00  0.00000000000E+00  0.99999998245E-14  0.12500000000E+03  0.12500000000E+03 0.  0.
        -11    1    3    3    0    0  0.15771883667E+02  0.50635515934E+02  0.20678415888E+02  0.56923674092E+02  0.51100000000E-03 0.  1.
         23    2    1    0    0    0 -0.26989252233E+01  0.15790575186E+02  0.23607779556E+02  0.96470125874E+02  0.92154931874E+02 0.  0.
         11    1    3    3    0    0 -0.18470808890E+02 -0.34844940748E+02  0.29293636680E+01  0.39546451782E+02  0.51100000000E-03 0. -1.
         22    1    1    0    0    0  0.26989252233E+01 -0.15790575186E+02 -0.23607779556E+02  0.28529874126E+02  0.00000000000E+00 0.  1.
</event>
<event>
 5    1  0.8907853E-005  0.9118800E+02  0.7818608E-02  0.1130116E+00
         25   -1    0    0    0    0  0.00000000000E+00  0.00000000000E+00  0.99999998245E-14  0.12500000000E+03  0.12500000000E+03 0.  0.
        -11    1    3    3    0    0 -0.31539001107E+02  0.34988586177E+02  0.40366030044E+02  0.62034878377E+02  0.51100000000E-03 0. -1.
         23    2    1    0    0    0 -0.16951927736E+02  0.11960493365E+02  0.21052494839E+02  0.95442787776E+02  0.90750740736E+02 0.  0.
         11    1    3    3    0    0  0.14587073371E+02 -0.23028092812E+02 -0.19313535205E+02  0.33407909400E+02  0.51100000000E-03 0.  1.
         22    1    1    0    0    0  0.16951927736E+02 -0.11960493365E+02 -0.21052494839E+02  0.29557212224E+02  0.00000000000E+00 0. -1.
</event>
<event>
 5    1  0.8907853E-005  0.9118800E+02  0.7818608E-02  0.1130116E+00
         25   -1    0    0    0    0  0.00000000000E+00  0.00000000000E+00  0.99999998245E-14  0.12500000000E+03  0.12500000000E+03 0.  0.
        -11    1    3    3    0    0 -0.12885292414E+02 -0.26077282563E+02 -0.49161191665E+02  0.57121608807E+02  0.51100000000E-03 0.  1.
         23    2    1    0    0    0 -0.41897450936E+01  0.52873610958E+01 -0.28589224850E+02  0.95625624622E+02  0.91002231597E+02 0.  0.
         11    1    3    3    0    0  0.86955473203E+01  0.31364643659E+02  0.20571966815E+02  0.38504015816E+02  0.51100000000E-03 0. -1.
         22    1    1    0    0    0  0.41897450936E+01 -0.52873610958E+01  0.28589224850E+02  0.29374375378E+02  0.00000000000E+00 0.  1.
</event>
<event>
 5    1  0.8907853E-005  0.9118800E+02  0.7818608E-02  0.1130116E+00
         25   -1    0    0    0    0  0.00000000000E+00  0.00000000000E+00  0.99999998245E-14  0.12500000000E+03  0.12500000000E+03 0.  0.
        -11    1    3    3    0    0  0.37090297802E+02 -0.44129728854E+02 -0.14648254766E+02  0.59478521566E+02  0.51100000000E-03 0.  1.
         23    2    1    0    0    0  0.35237612043E+02 -0.23750546040E+02 -0.14974454134E+02  0.79944345346E+02  0.66038521611E+02 0.  0.
         11    1    3    3    0    0 -0.18526857591E+01  0.20379182814E+02 -0.32619936754E+00  0.20465823780E+02  0.51100000000E-03 0. -1.
         22    1    1    0    0    0 -0.35237612043E+02  0.23750546040E+02  0.14974454134E+02  0.45055654654E+02  0.00000000000E+00 0.  1.
</event>
<event>
 5    1  0.8907853E-005  0.9118800E+02  0.7818608E-02  0.1130116E+00
         25   -1    0    0    0    0  0.00000000000E+00  0.00000000000E+00  0.99999998245E-14  0.12500000000E+03  0.12500000000E+03 0.  0.
        -11    1    3    3    0    0  0.38674312070E+02 -0.19958956083E+02  0.10118448832E+02  0.44681599670E+02  0.51100000000E-03 0.  1.
         23    2    1    0    0    0 -0.49052410372E+01 -0.26950079618E+02 -0.13192302535E+02  0.94595970215E+02  0.89576741142E+02 0.  0.
         11    1    3    3    0    0 -0.43579553108E+02 -0.69911235345E+01 -0.23310751367E+02  0.49914370545E+02  0.51100000000E-03 0. -1.
         22    1    1    0    0    0  0.49052410372E+01  0.26950079618E+02  0.13192302535E+02  0.30404029785E+02  0.00000000000E+00 0. -1.
</event>
<event>
 5    1  0.8907853E-005  0.9118800E+02  0.7818608E-02  0.1130116E+00
         25   -1    0    0    0    0  0.00000000000E+00  0.00000000000E+00  0.99999998245E-14  0.12500000000E+03  0.12500000000E+03 0.  0.
        -11    1    3    3    0    0 -0.33420814755E+02 -0.71957939339E+01  0.20546902396E+02  0.39886156841E+02  0.51100000000E-03 0.  1.
         23    2    1    0    0    0  0.20839655884E+02  0.79456534262E+01  0.18106508356E+02  0.96272481649E+02  0.91886453911E+02 0.  0.
         11    1    3    3    0    0  0.54260470639E+02  0.15141447360E+02 -0.24403940397E+01  0.56386324809E+02  0.51100000000E-03 0. -1.
         22    1    1    0    0    0 -0.20839655884E+02 -0.79456534262E+01 -0.18106508356E+02  0.28727518351E+02  0.00000000000E+00 0. -1.
</event>
<event>
 5    1  0.8907853E-005  0.9118800E+02  0.7818608E-02  0.1130116E+00
         25   -1    0    0    0    0  0.00000000000E+00  0.00000000000E+00  0.99999998245E-14  0.12500000000E+03  0.12500000000E+03 0.  0.
        -11    1    3    3    0    0 -0.71815558701E+00 -0.87595563412E+01 -0.59069631264E+02  0.59719903824E+02  0.51100000000E-03 0. -1.
         23    2    1    0    0    0 -0.26322576622E+01 -0.16543791154E+02 -0.23758232460E+02  0.95929750332E+02  0.91419021997E+02 0.  0.
         11    1    3    3    0    0 -0.19141020751E+01 -0.77842348126E+01  0.35311398804E+02  0.36209846508E+02  0.51100000000E-03 0.  1.
         22    1    1    0    0    0  0.26322576622E+01  0.16543791154E+02  0.23758232460E+02  0.29070249668E+02  0.00000000000E+00 0. -1.
</event>
<event>
 5    1  0.8907853E-005  0.9118800E+02  0.7818608E-02  0.1130116E+00
         25   -1    0    0    0    0  0.00000000000E+00  0.00000000000E+00  0.99999998245E-14  0.12500000000E+03  0.12500000000E+03 0.  0.
        -11    1    3    3    0    0  0.21224378488E+02 -0.34878140699E+02  0.26219529257E+01  0.40912511268E+02  0.51100000000E-03 0.  1.
         23    2    1    0    0    0  0.12958278019E+02  0.17445758400E+02  0.18762073850E+02  0.96289603442E+02  0.91909743011E+02 0.  0.
         11    1    3    3    0    0 -0.82661004687E+01  0.52323899100E+02  0.16140120924E+02  0.55377092174E+02  0.51100000000E-03 0. -1.
         22    1    1    0    0    0 -0.12958278019E+02 -0.17445758400E+02 -0.18762073850E+02  0.28710396558E+02  0.00000000000E+00 0. -1.
</event>
<event>
 5    1  0.8907853E-005  0.9118800E+02  0.7818608E-02  0.1130116E+00
         25   -1    0    0    0    0  0.00000000000E+00  0.00000000000E+00  0.99999998245E-14  0.12500000000E+03  0.12500000000E+03 0.  0.
        -11    1    3    3    0    0 -0.42452403781E+02  0.20077109575E+02  0.33854902242E+02  0.57891720667E+02  0.51100000000E-03 0. -1.
         23    2    1    0    0    0 -0.94871227282E+01  0.22780186420E+02  0.11794574982E+02  0.97649417008E+02  0.93740888901E+02 0.  0.
         11    1    3    3    0    0  0.32965281053E+02  0.27030768443E+01 -0.22060327260E+02  0.39757696341E+02  0.51100000000E-03 0.  1.
         22    1    1    0    0    0  0.94871227282E+01 -0.22780186420E+02 -0.11794574982E+02  0.27350582992E+02  0.00000000000E+00 0. -1.
</event>
<event>
 5    1  0.8907853E-005  0.9118800E+02  0.7818608E-02  0.1130116E+00
         25   -1    0    0    0    0  0.00000000000E+00  0.00000000000E+00  0.99999998245E-14  0.12500000000E+03  0.12500000000E+03 0.  0.
        -11    1    3    3    0    0 -0.17159307204E+02  0.32462224403E+02  0.47251564007E+02  0.59841023874E+02  0.51100000000E-03 0.  1.
         23    2    1    0    0    0 -0.19298297953E+02  0.98116001932E+01  0.18371570511E+02  0.96606225942E+02  0.92339355019E+02 0.  0.
         11    1    3    3    0    0 -0.21389907494E+01 -0.22650624209E+02 -0.28879993496E+02  0.36765202068E+02  0.51100000000E-03 0. -1.
         22    1    1    0    0    0  0.19298297953E+02 -0.98116001932E+01 -0.18371570511E+02  0.28393774058E+02  0.00000000000E+00 0.  1.
</event>
<event>
 5    1  0.8907853E-005  0.9118800E+02  0.7818608E-02  0.1130116E+00
         25   -1    0    0    0    0  0.00000000000E+00  0.00000000000E+00  0.99999998245E-14  0.12500000000E+03  0.12500000000E+03 0.  0.
        -11    1    3    3    0    0  0.33738529688E+02  0.38928674923E+02 -0.10435385365E+02  0.52560701905E+02  0.51100000000E-03 0.  1.
         23    2    1    0    0    0  0.22743142111E+02  0.39118328851E+02  0.12551092074E+02  0.78042316098E+02  0.62334412843E+02 0.  0.
         11    1    3    3    0    0 -0.10995387577E+02  0.18965392851E+00  0.22986477439E+02  0.25481614194E+02  0.51100000000E-03 0. -1.
         22    1    1    0    0    0 -0.22743142111E+02 -0.39118328851E+02 -0.12551092074E+02  0.46957683902E+02  0.00000000000E+00 0.  1.
</event>
<event>
 5    1  0.8907853E-005  0.9118800E+02  0.7818608E-02  0.1130116E+00
         25   -1    0    0    0    0  0.00000000000E+00  0.00000000000E+00  0.99999998245E-14  0.12500000000E+03  0.12500000000E+03 0.  0.
        -11    1    3    3    0    0  0.31886712770E+02  0.35230747187E+02  0.32618116194E+02  0.57636008735E+02  0.51100000000E-03 0. -1.
         23    2    1    0    0    0  0.94274793899E+01  0.32718299039E+02  0.28477607712E+02  0.80611503735E+02  0.67289493487E+02 0.  0.
         11    1    3    3    0    0 -0.22459233380E+02 -0.25124481479E+01 -0.41405084818E+01  0.22975494999E+02  0.51100000000E-03 0.  1.
         22    1    1    0    0    0 -0.94274793899E+01 -0.32718299039E+02 -0.28477607712E+02  0.44388496265E+02  0.00000000000E+00 0. -1.
</event>
<event>
 5    1  0.8907853E-005  0.9118800E+02  0.7818608E-02  0.1130116E+00
         25   -1    0    0    0    0  0.00000000000E+00  0.00000000000E+00  0.99999998245E-14  0.12500000000E+03  0.12500000000E+03 0.  0.
        -11    1    3    3    0    0  0.28336718825E+02  0.77501186959E+01  0.23967110429E+02  0.37913801658E+02  0.51100000000E-03 0. -1.
         23    2    1    0    0    0 -0.15096587639E+02  0.26737686672E+02 -0.56096524061E+01  0.93786556629E+02  0.88440031419E+02 0.  0.
         11    1    3    3    0    0 -0.43433306464E+02  0.18987567976E+02 -0.29576762835E+02  0.55872754972E+02  0.51100000000E-03 0.  1.
         22    1    1    0    0    0  0.15096587639E+02 -0.26737686672E+02  0.56096524061E+01  0.31213443371E+02  0.00000000000E+00 0.  1.
</event>
<event>
 5    1  0.8907853E-005  0.9118800E+02  0.7818608E-02  0.1130116E+00
         25   -1    0    0    0    0  0.00000000000E+00  0.00000000000E+00  0.99999998245E-14  0.12500000000E+03  0.12500000000E+03 0.  0.
        -11    1    3    3    0    0 -0.40633476721E+02 -0.21601317610E+02  0.22660542869E+02  0.51295190382E+02  0.51100000000E-03 0.  1.
         23    2    1    0    0    0  0.20179760519E+01 -0.25905756961E+02  0.15461628172E+02  0.94763558132E+02  0.89810297478E+02 0.  0.
         11    1    3    3    0    0  0.42651452773E+02 -0.43044393512E+01 -0.71989146967E+01  0.43468367750E+02  0.51100000000E-03 0. -1.
         22    1    1    0    0    0 -0.20179760519E+01  0.25905756961E+02 -0.15461628172E+02  0.30236441868E+02  0.00000000000E+00 0.  1.
</event>
<event>
 5    1  0.8907853E-005  0.9118800E+02  0.7818608E-02  0.1130116E+00
         25   -1    0    0    0    0  0.00000000000E+00  0.00000000000E+00  0.99999998245E-14  0.12500000000E+03  0.12500000000E+03 0.  0.
        -11    1    3    3    0    0 -0.14458842923E+02  0.47247932273E+02  0.35420526597E+01  0.49537575436E+02  0.51100000000E-03 0. -1.
         23    2    1    0    0    0  0.67332118853E+01  0.86774917000E+01  0.24402120777E+02  0.98239983129E+02  0.94525106624E+02 0.  0.
         11    1    3    3    0    0  0.21192054808E+02 -0.38570440573E+02  0.20860068118E+02  0.48702407693E+02  0.51100000000E-03 0.  1.
         22    1    1    0    0    0 -0.67332118853E+01 -0.86774917000E+01 -0.24402120777E+02  0.26760016871E+02  0.00000000000E+00 0.  1.
</event>
<event>
 5    1  0.8907853E-005  0.9118800E+02  0.7818608E-02  0.1130116E+00
         25   -1    0    0    0    0  0.00000000000E+00  0.00000000000E+00  0.99999998245E-14  0.12500000000E+03  0.12500000000E+03 0.  0.
        -11    1    3    3    0    0 -0.41115495266E+02  0.15274509522E+02 -0.85271229203E+01  0.44682283040E+02  0.51100000000E-03 0. -1.
         23    2    1    0    0    0 -0.10163454555E+02 -0.12772332377E+02  0.22846489604E+02  0.96921709987E+02  0.92765443440E+02 0.  0.
         11    1    3    3    0    0  0.30952040711E+02 -0.28046841899E+02  0.31373612524E+02  0.52239426947E+02  0.51100000000E-03 0.  1.
         22    1    1    0    0    0  0.10163454555E+02  0.12772332377E+02 -0.22846489604E+02  0.28078290013E+02  0.00000000000E+00 0.  1.
</event>
<event>
 5    1  0.8907853E-005  0.9118800E+02  0.7818608E-02  0.1130116E+00
         25   -1    0    0    0    0  0.00000000000E+00  0.00000000000E+00  0.99999998245E-14  0.12500000000E+03  0.12500000000E+03 0.  0.
        -11    1    3    3    0    0  0.37308480652E+02 -0.25231915365E+01  0.44998909029E+01  0.37663486861E+02  0.51100000000E-03 0.  1.
         23    2    1    0    0    0 -0.14187889387E+02 -0.21178092828E+02 -0.14544584323E+02  0.95651188197E+02  0.91037338765E+02 0.  0.
         11    1    3    3    0    0 -0.51496370040E+02 -0.18654901291E+02 -0.19044475226E+02  0.57987701337E+02  0.51100000000E-03 0. -1.
         22    1    1    0    0    0  0.14187889387E+02  0.21178092828E+02  0.14544584323E+02  0.29348811803E+02  0.00000000000E+00 0. -1.
</event>
<event>
 5    1  0.8907853E-005  0.9118800E+02  0.7818608E-02  0.1130116E+00
         25   -1    0    0    0    0  0.00000000000E+00  0.00000000000E+00  0.99999998245E-14  0.12500000000E+03  0.12500000000E+03 0.  0.
        -11    1    3    3    0    0  0.73954189882E+01 -0.27137509007E+02  0.20595943336E+02  0.34861576259E+02  0.51100000000E-03 0. -1.
         23    2    1    0    0    0 -0.21969902823E+02  0.94038459741E+01 -0.17591668741E+02  0.95325503235E+02  0.90589049056E+02 0.  0.
         11    1    3    3    0    0 -0.29365321811E+02  0.36541354981E+02 -0.38187612077E+02  0.60463926976E+02  0.51100000000E-03 0.  1.
         22    1    1    0    0    0  0.21969902823E+02 -0.94038459741E+01  0.17591668741E+02  0.29674496765E+02  0.00000000000E+00 0.  1.
</event>
<event>
 5    1  0.8907853E-005  0.9118800E+02  0.7818608E-02  0.1130116E+00
         25   -1    0    0    0    0  0.00000000000E+00  0.00000000000E+00  0.99999998245E-14  0.12500000000E+03  0.12500000000E+03 0.  0.
        -11    1    3    3    0    0  0.14848605694E+02  0.23606369068E+02  0.46166899207E+02  0.53936298857E+02  0.51100000000E-03 0.  1.
         23    2    1    0    0    0  0.24263456887E+02  0.17312741245E+02  0.74488914795E+01  0.94276518202E+02  0.89129846575E+02 0.  0.
         11    1    3    3    0    0  0.94148511927E+01 -0.62936278234E+01 -0.38718007728E+02  0.40340219345E+02  0.51100000000E-03 0. -1.
         22    1    1    0    0    0 -0.24263456887E+02 -0.17312741245E+02 -0.74488914795E+01  0.30723481798E+02  0.00000000000E+00 0.  1.
</event>
<event>
 5    1  0.8907853E-005  0.9118800E+02  0.7818608E-02  0.1130116E+00
         25   -1    0    0    0    0  0.00000000000E+00  0.00000000000E+00  0.99999998245E-14  0.12500000000E+03  0.12500000000E+03 0.  0.
        -11    1    3    3    0    0  0.26241078094E+02 -0.51106729170E+02  0.16920799723E+02  0.59889944144E+02  0.51100000000E-03 0. -1.
         23    2    1    0    0    0  0.22513308846E+02 -0.16187754432E+02  0.84075342607E+01  0.96024508613E+02  0.91548496183E+02 0.  0.
         11    1    3    3    0    0 -0.37277692475E+01  0.34918974738E+02 -0.85132654625E+01  0.36134564470E+02  0.51100000000E-03 0.  1.
         22    1    1    0    0    0 -0.22513308846E+02  0.16187754432E+02 -0.84075342607E+01  0.28975491387E+02  0.00000000000E+00 0. -1.
</event>
<event>
 5    1  0.8907853E-005  0.9118800E+02  0.7818608E-02  0.1130116E+00
         25   -1    0    0    0    0  0.00000000000E+00  0.00000000000E+00  0.99999998245E-14  0.12500000000E+03  0.12500000000E+03 0.  0.
        -11    1    3    3    0    0 -0.12759527098E+02  0.14290732357E+02  0.55074016093E+02  0.58311043654E+02  0.51100000000E-03 0. -1.
         23    2    1    0    0    0  0.35122434283E+01 -0.56514809893E+01  0.30096911104E+02  0.94176321613E+02  0.88989215096E+02 0.  0.
         11    1    3    3    0    0  0.16271770526E+02 -0.19942213347E+02 -0.24977104989E+02  0.35865277960E+02  0.51100000000E-03 0.  1.
         22    1    1    0    0    0 -0.35122434283E+01  0.56514809893E+01 -0.30096911104E+02  0.30823678387E+02  0.00000000000E+00 0.  1.
</event>
<event>
 5    1  0.8907853E-005  0.9118800E+02  0.7818608E-02  0.1130116E+00
         25   -1    0    0    0    0  0.00000000000E+00  0.00000000000E+00  0.99999998245E-14  0.12500000000E+03  0.12500000000E+03 0.  0.
        -11    1    3    3    0    0  0.13792359203E+02 -0.17055237647E+02  0.18667342197E+02  0.28802429907E+02  0.51100000000E-03 0.  1.
         23    2    1    0    0    0 -0.11956307335E+02  0.33609803160E+02 -0.19864903437E+01  0.89271603767E+02  0.81810151825E+02 0.  0.
         11    1    3    3    0    0 -0.25748666538E+02  0.50665040807E+02 -0.20653832541E+02  0.60469173860E+02  0.51100000000E-03 0. -1.
         22    1    1    0    0    0  0.11956307335E+02 -0.33609803160E+02  0.19864903437E+01  0.35728396233E+02  0.00000000000E+00 0. -1.
</event>
<event>
 5    1  0.8907853E-005  0.9118800E+02  0.7818608E-02  0.1130116E+00
         25   -1    0    0    0    0  0.00000000000E+00  0.00000000000E+00  0.99999998245E-14  0.12500000000E+03  0.12500000000E+03 0.  0.
        -11    1    3    3    0    0  0.58546716796E+02 -0.12584057354E+02  0.16845840234E+02  0.62208189819E+02  0.51100000000E-03 0. -1.
         23    2    1    0    0    0  0.29411294336E+02 -0.10085337901E+02  0.10925810064E+02  0.92043792684E+02  0.85941539263E+02 0.  0.
         11    1    3    3    0    0 -0.29135422460E+02  0.24987194531E+01 -0.59200301693E+01  0.29835602865E+02  0.51100000000E-03 0.  1.
         22    1    1    0    0    0 -0.29411294336E+02  0.10085337901E+02 -0.10925810064E+02  0.32956207316E+02  0.00000000000E+00 0. -1.
</event>
<event>
 5    1  0.8907853E-005  0.9118800E+02  0.7818608E-02  0.1130116E+00
         25   -1    0    0    0    0  0.00000000000E+00  0.00000000000E+00  0.99999998245E-14  0.12500000000E+03  0.12500000000E+03 0.  0.
        -11    1    3    3    0    0  0.21953310179E+02  0.17807562501E+02  0.26040489503E+02  0.38433893947E+02  0.51100000000E-03 0.  1.
         23    2    1    0    0    0 -0.15944792775E+02  0.19023729006E+02 -0.16325767433E+02  0.95290247994E+02  0.90540388770E+02 0.  0.
         11    1    3    3    0    0 -0.37898102954E+02  0.12161665049E+01 -0.42366256937E+02  0.56856354048E+02  0.51100000000E-03 0. -1.
         22    1    1    0    0    0  0.15944792775E+02 -0.19023729006E+02  0.16325767433E+02  0.29709752006E+02  0.00000000000E+00 0. -1.
</event>
<event>
 5    1  0.8907853E-005  0.9118800E+02  0.7818608E-02  0.1130116E+00
         25   -1    0    0    0    0  0.00000000000E+00  0.00000000000E+00  0.99999998245E-14  0.12500000000E+03  0.12500000000E+03 0.  0.
        -11    1    3    3    0    0 -0.33932117798E+02 -0.71494921801E+01 -0.87554623516E+01  0.35765374008E+02  0.51100000000E-03 0. -1.
         23    2    1    0    0    0  0.12270807475E+02 -0.18817757481E+02  0.22857114072E+02  0.92951156395E+02  0.87251298551E+02 0.  0.
         11    1    3    3    0    0  0.46202925272E+02 -0.11668265301E+02  0.31612576424E+02  0.57185782387E+02  0.51100000000E-03 0.  1.
         22    1    1    0    0    0 -0.12270807475E+02  0.18817757481E+02 -0.22857114072E+02  0.32048843605E+02  0.00000000000E+00 0.  1.
</event>
<event>
 5    1  0.8907853E-005  0.9118800E+02  0.7818608E-02  0.1130116E+00
         25   -1    0    0    0    0  0.00000000000E+00  0.00000000000E+00  0.99999998245E-14  0.12500000000E+03  0.12500000000E+03 0.  0.
        -11    1    3    3    0    0 -0.27487973687E+02 -0.90347859168E+01  0.13729850741E+02  0.32026939530E+02  0.51100000000E-03 0.  1.
         23    2    1    0    0    0  0.24078054252E+02  0.17721050939E+02 -0.79996339174E+01  0.94051938902E+02  0.88814327253E+02 0.  0.
         11    1    3    3    0    0  0.51566027939E+02  0.26755836856E+02 -0.21729484659E+02  0.62024999372E+02  0.51100000000E-03 0. -1.
         22    1    1    0    0    0 -0.24078054252E+02 -0.17721050939E+02  0.79996339174E+01  0.30948061098E+02  0.00000000000E+00 0. -1.
</event>
<event>
 5    1  0.8907853E-005  0.9118800E+02  0.7818608E-02  0.1130116E+00
         25   -1    0    0    0    0  0.00000000000E+00  0.00000000000E+00  0.99999998245E-14  0.12500000000E+03  0.12500000000E+03 0.  0.
        -11    1    3    3    0    0  0.48426156322E+02  0.16156525775E+02 -0.20942698152E+02  0.55179004589E+02  0.51100000000E-03 0. -1.
         23    2    1    0    0    0  0.72249673494E+01  0.19217376250E+02 -0.19751480392E+02  0.96510902422E+02  0.92210225059E+02 0.  0.
         11    1    3    3    0    0 -0.41201188973E+02  0.30608504746E+01  0.11912177596E+01  0.41331897832E+02  0.51100000000E-03 0.  1.
         22    1    1    0    0    0 -0.72249673494E+01 -0.19217376250E+02  0.19751480392E+02  0.28489097578E+02  0.00000000000E+00 0. -1.
</event>
<event>
 5    1  0.8907853E-005  0.9118800E+02  0.7818608E-02  0.1130116E+00
         25   -1    0    0    0    0  0.00000000000E+00  0.00000000000E+00  0.99999998245E-14  0.12500000000E+03  0.12500000000E+03 0.  0.
        -11    1    3    3    0    0 -0.13943876595E+02  0.24438559477E+02  0.19121721458E+02  0.34019334438E+02  0.51100000000E-03 0. -1.
         23    2    1    0    0    0  0.16424196271E+02 -0.20223696308E+02 -0.11959907704E+02  0.96333093857E+02  0.91968872258E+02 0.  0.
         11    1    3    3    0    0  0.30368072866E+02 -0.44662255785E+02 -0.31081629162E+02  0.62313759420E+02  0.51100000000E-03 0.  1.
         22    1    1    0    0    0 -0.16424196271E+02  0.20223696308E+02  0.11959907704E+02  0.28666906143E+02  0.00000000000E+00 0.  1.
</event>
<event>
 5    1  0.8907853E-005  0.9118800E+02  0.7818608E-02  0.1130116E+00
         25   -1    0    0    0    0  0.00000000000E+00  0.00000000000E+00  0.99999998245E-14  0.12500000000E+03  0.12500000000E+03 0.  0.
        -11    1    3    3    0    0 -0.33586839402E+02  0.16193638482E+02 -0.33162919504E+02  0.49900790962E+02  0.51100000000E-03 0. -1.
         23    2    1    0    0    0  0.65016325457E+01 -0.57230339874E+01 -0.27775014522E+02  0.95905743257E+02  0.91386190500E+02 0.  0.
         11    1    3    3    0    0  0.40088471948E+02 -0.21916672470E+02  0.53879049829E+01  0.46004952295E+02  0.51100000000E-03 0.  1.
         22    1    1    0    0    0 -0.65016325457E+01  0.57230339874E+01  0.27775014522E+02  0.29094256743E+02  0.00000000000E+00 0. -1.
</event>
<event>
 5    1  0.8907853E-005  0.9118800E+02  0.7818608E-02  0.1130116E+00
         25   -1    0    0    0    0  0.00000000000E+00  0.00000000000E+00  0.99999998245E-14  0.12500000000E+03  0.12500000000E+03 0.  0.
        -11    1    3    3    0    0 -0.33641260624E+02  0.38074639168E+02  0.27384952067E+02  0.57717832289E+02  0.51100000000E-03 0. -1.
         23    2    1    0    0    0 -0.22606501868E+01  0.17688271304E+02  0.23729419913E+02  0.95317162359E+02  0.90577539102E+02 0.  0.
         11    1    3    3    0    0  0.31380610437E+02 -0.20386367864E+02 -0.36555321540E+01  0.37599330070E+02  0.51100000000E-03 0.  1.
         22    1    1    0    0    0  0.22606501868E+01 -0.17688271304E+02 -0.23729419913E+02  0.29682837641E+02  0.00000000000E+00 0. -1.
</event>
<event>
 5    1  0.8907853E-005  0.9118800E+02  0.7818608E-02  0.1130116E+00
         25   -1    0    0    0    0  0.00000000000E+00  0.00000000000E+00  0.99999998245E-14  0.12500000000E+03  0.12500000000E+03 0.  0.
        -11    1    3    3    0    0 -0.19484835208E+02 -0.23436590161E+02  0.45028995888E+02  0.54374102589E+02  0.51100000000E-03 0.  1.
         23    2    1    0    0    0 -0.56549369864E+00 -0.28988732419E+02  0.10449068499E+02  0.94180372765E+02  0.88994905423E+02 0.  0.
         11    1    3    3    0    0  0.18919341509E+02 -0.55521422582E+01 -0.34579927389E+02  0.39806270176E+02  0.51100000000E-03 0. -1.
         22    1    1    0    0    0  0.56549369864E+00  0.28988732419E+02 -0.10449068499E+02  0.30819627235E+02  0.00000000000E+00 0.  1.
</event>
<event>
 5    1  0.8907853E-005  0.9118800E+02  0.7818608E-02  0.1130116E+00
         25   -1    0    0    0    0  0.00000000000E+00  0.00000000000E+00  0.99999998245E-14  0.12500000000E+03  0.12500000000E+03 0.  0.
        -11    1    3    3    0    0 -0.12681792874E+02  0.48420211394E+02 -0.29449948737E+02  0.58074471352E+02  0.51100000000E-03 0.  1.
         23    2    1    0    0    0  0.24991748734E+01  0.14067897524E+02 -0.25410002647E+02  0.95848330232E+02  0.91307625957E+02 0.  0.
         11    1    3    3    0    0  0.15180967747E+02 -0.34352313871E+02  0.40399460900E+01  0.37773858880E+02  0.51100000000E-03 0. -1.
         22    1    1    0    0    0 -0.24991748734E+01 -0.14067897524E+02  0.25410002647E+02  0.29151669768E+02  0.00000000000E+00 0.  1.
</event>
<event>
 5    1  0.8907853E-005  0.9118800E+02  0.7818608E-02  0.1130116E+00
         25   -1    0    0    0    0  0.00000000000E+00  0.00000000000E+00  0.99999998245E-14  0.12500000000E+03  0.12500000000E+03 0.  0.
        -11    1    3    3    0    0 -0.26111059439E+02 -0.80283710685E+01 -0.17211294937E+02  0.32287317025E+02  0.51100000000E-03 0. -1.
         23    2    1    0    0    0  0.12858530065E+02  0.15072973094E+02  0.24240984076E+02  0.93692467004E+02  0.88306946221E+02 0.  0.
         11    1    3    3    0    0  0.38969589504E+02  0.23101344162E+02  0.41452279013E+02  0.61405149978E+02  0.51100000000E-03 0.  1.
         22    1    1    0    0    0 -0.12858530065E+02 -0.15072973094E+02 -0.24240984076E+02  0.31307532996E+02  0.00000000000E+00 0.  1.
</event>
<event>
 5    1  0.8907853E-005  0.9118800E+02  0.7818608E-02  0.1130116E+00
         25   -1    0    0    0    0  0.00000000000E+00  0.00000000000E+00  0.99999998245E-14  0.12500000000E+03  0.12500000000E+03 0.  0.
        -11    1    3    3    0    0 -0.94193554956E+00 -0.37738303177E+02  0.27935312425E+02  0.46962202352E+02  0.51100000000E-03 0. -1.
         23    2    1    0    0    0 -0.14600290689E+02  0.79386618118E+01  0.25325058262E+02  0.94708921849E+02  0.89734221245E+02 0.  0.
         11    1    3    3    0    0 -0.13658355139E+02  0.45676964989E+02 -0.26102541632E+01  0.47746719497E+02  0.51100000000E-03 0.  1.
         22    1    1    0    0    0  0.14600290689E+02 -0.79386618118E+01 -0.25325058262E+02  0.30291078151E+02  0.00000000000E+00 0.  1.
</event>
<event>
 4    1  0.8907853E-005  0.9118800E+02  0.7818608E-02  0.1130116E+00
         25   -1    0    0    0    0  0.00000000000E+00  0.00000000000E+00  0.99999998245E-14  0.12500000000E+03  0.12500000000E+03 0.  0.
        -11    1    1    0    0    0 -0.24855662023E+02  0.36553105457E+02 -0.34359565071E+02  0.55986723116E+02  0.51100000000E-03 0.  1.
         11    1    1    0    0    0 -0.53090673138E+01 -0.88246295184E+01 -0.56494587864E+01  0.11746346952E+02  0.51100000000E-03 0. -1.
         22    1    1    0    0    0  0.30164729336E+02 -0.27728475938E+02  0.40009023857E+02  0.57266929932E+02  0.00000000000E+00 0.  1.
</event>
<event>
 5    1  0.8907853E-005  0.9118800E+02  0.7818608E-02  0.1130116E+00
         25   -1    0    0    0    0  0.00000000000E+00  0.00000000000E+00  0.99999998245E-14  0.12500000000E+03  0.12500000000E+03 0.  0.
        -11    1    3    3    0    0 -0.36634752775E+02 -0.17470132852E+02  0.65289153676E+01  0.41108848061E+02  0.51100000000E-03 0. -1.
         23    2    1    0    0    0  0.16853530810E+02 -0.13258588139E+02  0.19175695901E+02  0.96233022865E+02  0.91832759494E+02 0.  0.
         11    1    3    3    0    0  0.53488283585E+02  0.42115447134E+01  0.12646780534E+02  0.55124174804E+02  0.51100000000E-03 0.  1.
         22    1    1    0    0    0 -0.16853530810E+02  0.13258588139E+02 -0.19175695901E+02  0.28766977135E+02  0.00000000000E+00 0.  1.
</event>
<event>
 5    1  0.8907853E-005  0.9118800E+02  0.7818608E-02  0.1130116E+00
         25   -1    0    0    0    0  0.00000000000E+00  0.00000000000E+00  0.99999998245E-14  0.12500000000E+03  0.12500000000E+03 0.  0.
        -11    1    3    3    0    0  0.32266090084E+01 -0.37148191568E+02 -0.38999865103E+02  0.53957285150E+02  0.51100000000E-03 0.  1.
         23    2    1    0    0    0  0.10114517216E+02  0.31375444682E+01 -0.26129260726E+02  0.96806278892E+02  0.92609771207E+02 0.  0.
         11    1    3    3    0    0  0.68879082078E+01  0.40285736036E+02  0.12870604377E+02  0.42848993742E+02  0.51100000000E-03 0. -1.
         22    1    1    0    0    0 -0.10114517216E+02 -0.31375444682E+01  0.26129260726E+02  0.28193721108E+02  0.00000000000E+00 0.  1.
</event>
<event>
 5    1  0.8907853E-005  0.9118800E+02  0.7818608E-02  0.1130116E+00
         25   -1    0    0    0    0  0.00000000000E+00  0.00000000000E+00  0.99999998245E-14  0.12500000000E+03  0.12500000000E+03 0.  0.
        -11    1    3    3    0    0 -0.15060871540E+02 -0.18285723329E+02 -0.35187860156E+02  0.42419135209E+02  0.51100000000E-03 0. -1.
         23    2    1    0    0    0  0.25386007462E+02  0.74897546705E+01 -0.91346580737E+01  0.97000218251E+02  0.92871171860E+02 0.  0.
         11    1    3    3    0    0  0.40446879002E+02  0.25775477999E+02  0.26053202083E+02  0.54581083042E+02  0.51100000000E-03 0.  1.
         22    1    1    0    0    0 -0.25386007462E+02 -0.74897546705E+01  0.91346580737E+01  0.27999781749E+02  0.00000000000E+00 0.  1.
</event>
<event>
 5    1  0.8907853E-005  0.9118800E+02  0.7818608E-02  0.1130116E+00
         25   -1    0    0    0    0  0.00000000000E+00  0.00000000000E+00  0.99999998245E-14  0.12500000000E+03  0.12500000000E+03 0.  0.
        -11    1    3    3    0    0  0.37842839350E+02  0.29603926393E+01 -0.58676518320E+01  0.38409292533E+02  0.51100000000E-03 0. -1.
         23    2    1    0    0    0 -0.95962080681E+01 -0.27706506996E+02  0.27456607252E+01  0.95550443262E+02  0.90898904370E+02 0.  0.
         11    1    3    3    0    0 -0.47439047418E+02 -0.30666899636E+02  0.86133125572E+01  0.57141150729E+02  0.51100000000E-03 0.  1.
         22    1    1    0    0    0  0.95962080681E+01  0.27706506996E+02 -0.27456607252E+01  0.29449556738E+02  0.00000000000E+00 0.  1.
</event>
<event>
 5    1  0.8907853E-005  0.9118800E+02  0.7818608E-02  0.1130116E+00
         25   -1    0    0    0    0  0.00000000000E+00  0.00000000000E+00  0.99999998245E-14  0.12500000000E+03  0.12500000000E+03 0.  0.
        -11    1    3    3    0    0  0.22145266595E+02 -0.13303498012E+02 -0.31277463499E+02  0.40566927603E+02  0.51100000000E-03 0. -1.
         23    2    1    0    0    0 -0.26028523342E+02  0.53333874905E+01 -0.13530835068E+02  0.95183686560E+02  0.90393150405E+02 0.  0.
         11    1    3    3    0    0 -0.48173789937E+02  0.18636885503E+02  0.17746628430E+02  0.54616758958E+02  0.51100000000E-03 0.  1.
         22    1    1    0    0    0  0.26028523342E+02 -0.53333874905E+01  0.13530835068E+02  0.29816313440E+02  0.00000000000E+00 0.  1.
</event>
<event>
 5    1  0.8907853E-005  0.9118800E+02  0.7818608E-02  0.1130116E+00
         25   -1    0    0    0    0  0.00000000000E+00  0.00000000000E+00  0.99999998245E-14  0.12500000000E+03  0.12500000000E+03 0.  0.
        -11    1    3    3    0    0 -0.23606342366E+02 -0.18828307053E+02  0.17696266921E+02  0.34998891547E+02  0.51100000000E-03 0.  1.
         23    2    1    0    0    0  0.23480688494E+02  0.59162135888E+01 -0.14108734106E+02  0.96974998779E+02  0.92837221494E+02 0.  0.
         11    1    3    3    0    0  0.47087030860E+02  0.24744520641E+02 -0.31805001027E+02  0.61976107231E+02  0.51100000000E-03 0. -1.
         22    1    1    0    0    0 -0.23480688494E+02 -0.59162135888E+01  0.14108734106E+02  0.28025001221E+02  0.00000000000E+00 0. -1.
</event>
<event>
 5    1  0.8907853E-005  0.9118800E+02  0.7818608E-02  0.1130116E+00
         25   -1    0    0    0    0  0.00000000000E+00  0.00000000000E+00  0.99999998245E-14  0.12500000000E+03  0.12500000000E+03 0.  0.
        -11    1    3    3    0    0 -0.26689768250E+02  0.17395563096E+02 -0.36725006162E+02  0.48617645177E+02  0.51100000000E-03 0. -1.
         23    2    1    0    0    0 -0.35888728280E+02  0.94027289173E+01  0.61392606876E+00  0.87894892079E+02  0.79678874363E+02 0.  0.
         11    1    3    3    0    0 -0.91989600299E+01 -0.79928341789E+01  0.37338932231E+02  0.39277246902E+02  0.51100000000E-03 0.  1.
         22    1    1    0    0    0  0.35888728280E+02 -0.94027289173E+01 -0.61392606876E+00  0.37105107921E+02  0.00000000000E+00 0.  1.
</event>
<event>
 5    1  0.8907853E-005  0.9118800E+02  0.7818608E-02  0.1130116E+00
         25   -1    0    0    0    0  0.00000000000E+00  0.00000000000E+00  0.99999998245E-14  0.12500000000E+03  0.12500000000E+03 0.  0.
        -11    1    3    3    0    0 -0.34122321589E+02 -0.27311370647E+02  0.13139028264E+02  0.45638556739E+02  0.51100000000E-03 0.  1.
         23    2    1    0    0    0 -0.19363923750E+00  0.76770079722E+01  0.27500055297E+02  0.96447819893E+02  0.92124670817E+02 0.  0.
         11    1    3    3    0    0  0.33928682352E+02  0.34988378619E+02  0.14361027033E+02  0.50809263154E+02  0.51100000000E-03 0. -1.
         22    1    1    0    0    0  0.19363923750E+00 -0.76770079722E+01 -0.27500055297E+02  0.28552180107E+02  0.00000000000E+00 0. -1.
</event>
<event>
 5    1  0.8907853E-005  0.9118800E+02  0.7818608E-02  0.1130116E+00
         25   -1    0    0    0    0  0.00000000000E+00  0.00000000000E+00  0.99999998245E-14  0.12500000000E+03  0.12500000000E+03 0.  0.
        -11    1    3    3    0    0  0.33417540479E+02  0.22723281621E+02 -0.28839505176E+02  0.49646717901E+02  0.51100000000E-03 0. -1.
         23    2    1    0    0    0  0.15680068829E+02  0.20377528428E+02  0.13750361769E+02  0.95842142190E+02  0.91299154144E+02 0.  0.
         11    1    3    3    0    0 -0.17737471650E+02 -0.23457531927E+01  0.42589866945E+02  0.46195424289E+02  0.51100000000E-03 0.  1.
         22    1    1    0    0    0 -0.15680068829E+02 -0.20377528428E+02 -0.13750361769E+02  0.29157857810E+02  0.00000000000E+00 0. -1.
</event>
<event>
 5    1  0.8907853E-005  0.9118800E+02  0.7818608E-02  0.1130116E+00
         25   -1    0    0    0    0  0.00000000000E+00  0.00000000000E+00  0.99999998245E-14  0.12500000000E+03  0.12500000000E+03 0.  0.
        -11    1    3    3    0    0  0.21578968842E+02  0.19620372100E+02  0.26808278943E+02  0.39614324654E+02  0.51100000000E-03 0.  1.
         23    2    1    0    0    0 -0.24602718008E+02  0.15904578797E+02 -0.42574643671E+01  0.95396362336E+02  0.90686771825E+02 0.  0.
         11    1    3    3    0    0 -0.46181686851E+02 -0.37157933030E+01 -0.31065743311E+02  0.55782037682E+02  0.51100000000E-03 0. -1.
         22    1    1    0    0    0  0.24602718008E+02 -0.15904578797E+02  0.42574643671E+01  0.29603637664E+02  0.00000000000E+00 0. -1.
</event>
<event>
 5    1  0.8907853E-005  0.9118800E+02  0.7818608E-02  0.1130116E+00
         25   -1    0    0    0    0  0.00000000000E+00  0.00000000000E+00  0.99999998245E-14  0.12500000000E+03  0.12500000000E+03 0.  0.
        -11    1    3    3    0    0 -0.24843779603E+02  0.22353251506E+02 -0.18466568596E+02  0.38182396386E+02  0.51100000000E-03 0.  1.
         23    2    1    0    0    0  0.28233919047E+02  0.32533351329E+01 -0.60444905225E+01  0.95943602428E+02  0.91437960426E+02 0.  0.
         11    1    3    3    0    0  0.53077698650E+02 -0.19099916373E+02  0.12422078073E+02  0.57761206041E+02  0.51100000000E-03 0. -1.
         22    1    1    0    0    0 -0.28233919047E+02 -0.32533351329E+01  0.60444905225E+01  0.29056397572E+02  0.00000000000E+00 0. -1.
</event>
<event>
 5    1  0.8907853E-005  0.9118800E+02  0.7818608E-02  0.1130116E+00
         25   -1    0    0    0    0  0.00000000000E+00  0.00000000000E+00  0.99999998245E-14  0.12500000000E+03  0.12500000000E+03 0.  0.
        -11    1    3    3    0    0 -0.16259694280E+02 -0.12595773764E+02  0.31809182132E+02  0.37879483140E+02  0.51100000000E-03 0.  1.
         23    2    1    0    0    0  0.12732396686E+02 -0.19213433942E+02 -0.17907940061E+02  0.95811572730E+02  0.91257291120E+02 0.  0.
         11    1    3    3    0    0  0.28992090966E+02 -0.66176601778E+01 -0.49717122194E+02  0.57932089590E+02  0.51100000000E-03 0. -1.
         22    1    1    0    0    0 -0.12732396686E+02  0.19213433942E+02  0.17907940061E+02  0.29188427270E+02  0.00000000000E+00 0. -1.
</event>
<event>
 5    1  0.8907853E-005  0.9118800E+02  0.7818608E-02  0.1130116E+00
         25   -1    0    0    0    0  0.00000000000E+00  0.00000000000E+00  0.99999998245E-14  0.12500000000E+03  0.12500000000E+03 0.  0.
        -11    1    3    3    0    0  0.26463718705E+02  0.28474370744E+02 -0.12139554524E+02  0.40724525550E+02  0.51100000000E-03 0.  1.
         23    2    1    0    0    0 -0.24049153305E+02  0.75455803531E+01 -0.15337964199E+02  0.95494903773E+02  0.90822496901E+02 0.  0.
         11    1    3    3    0    0 -0.50512872010E+02 -0.20928790391E+02 -0.31984096750E+01  0.54770378223E+02  0.51100000000E-03 0. -1.
         22    1    1    0    0    0  0.24049153305E+02 -0.75455803531E+01  0.15337964199E+02  0.29505096227E+02  0.00000000000E+00 0. -1.
</event>
<event>
 5    1  0.8907853E-005  0.9118800E+02  0.7818608E-02  0.1130116E+00
         25   -1    0    0    0    0  0.00000000000E+00  0.00000000000E+00  0.99999998245E-14  0.12500000000E+03  0.12500000000E+03 0.  0.
        -11    1    3    3    0    0 -0.56976600621E+02 -0.18768083526E+02  0.91873449528E+01  0.60687571092E+02  0.51100000000E-03 0.  1.
         23    2    1    0    0    0 -0.26908573162E+02 -0.12169890768E+02  0.14780672850E+02  0.91975072432E+02  0.85841529041E+02 0.  0.
         11    1    3    3    0    0  0.30068027458E+02  0.65981927579E+01  0.55933278976E+01  0.31287501340E+02  0.51100000000E-03 0. -1.
         22    1    1    0    0    0  0.26908573162E+02  0.12169890768E+02 -0.14780672850E+02  0.33024927568E+02  0.00000000000E+00 0.  1.
</event>
<event>
 5    1  0.8907853E-005  0.9118800E+02  0.7818608E-02  0.1130116E+00
         25   -1    0    0    0    0  0.00000000000E+00  0.00000000000E+00  0.99999998245E-14  0.12500000000E+03  0.12500000000E+03 0.  0.
        -11    1    3    3    0    0 -0.75832145828E+01 -0.37963252496E+02 -0.19988685908E+02  0.43569040018E+02  0.51100000000E-03 0. -1.
         23    2    1    0    0    0  0.19291919775E+02  0.61560718349E+01 -0.21780003749E+02  0.95260397575E+02  0.90499167918E+02 0.  0.
         11    1    3    3    0    0  0.26875134358E+02  0.44119324331E+02 -0.17913178412E+01  0.51691357557E+02  0.51100000000E-03 0.  1.
         22    1    1    0    0    0 -0.19291919775E+02 -0.61560718349E+01  0.21780003749E+02  0.29739602425E+02  0.00000000000E+00 0. -1.
</event>
<event>
 5    1  0.8907853E-005  0.9118800E+02  0.7818608E-02  0.1130116E+00
         25   -1    0    0    0    0  0.00000000000E+00  0.00000000000E+00  0.99999998245E-14  0.12500000000E+03  0.12500000000E+03 0.  0.
        -11    1    3    3    0    0  0.27647963337E+02 -0.18084572751E+02 -0.49178004212E+02  0.59244727586E+02  0.51100000000E-03 0.  1.
         23    2    1    0    0    0  0.23823899056E+02 -0.59289968870E+01 -0.13824441274E+02  0.96824720998E+02  0.92634660087E+02 0.  0.
         11    1    3    3    0    0 -0.38240642812E+01  0.12155575864E+02  0.35353562937E+02  0.37579993412E+02  0.51100000000E-03 0. -1.
         22    1    1    0    0    0 -0.23823899056E+02  0.59289968870E+01  0.13824441274E+02  0.28175279002E+02  0.00000000000E+00 0.  1.
</event>
<event>
 5    1  0.8907853E-005  0.9118800E+02  0.7818608E-02  0.1130116E+00
         25   -1    0    0    0    0  0.00000000000E+00  0.00000000000E+00  0.99999998245E-14  0.12500000000E+03  0.12500000000E+03 0.  0.
        -11    1    3    3    0    0  0.31269424295E+02  0.24424777134E+01 -0.53171577525E+02  0.61732967286E+02  0.51100000000E-03 0.  1.
         23    2    1    0    0    0  0.94028204001E+01  0.56446809095E+01 -0.26166301964E+02  0.96628344910E+02  0.92369292666E+02 0.  0.
         11    1    3    3    0    0 -0.21866603895E+02  0.32022031961E+01  0.27005275561E+02  0.34895377625E+02  0.51100000000E-03 0. -1.
         22    1    1    0    0    0 -0.94028204001E+01 -0.56446809095E+01  0.26166301964E+02  0.28371655090E+02  0.00000000000E+00 0.  1.
</event>
<event>
 5    1  0.8907853E-005  0.9118800E+02  0.7818608E-02  0.1130116E+00
         25   -1    0    0    0    0  0.00000000000E+00  0.00000000000E+00  0.99999998245E-14  0.12500000000E+03  0.12500000000E+03 0.  0.
        -11    1    3    3    0    0 -0.20059495991E+02 -0.94920924396E+01 -0.29860589607E+02  0.37204005299E+02  0.51100000000E-03 0.  1.
         23    2    1    0    0    0  0.28401447068E+02  0.35859059549E+01  0.14030683733E+01  0.96338710462E+02  0.91976505780E+02 0.  0.
         11    1    3    3    0    0  0.48460943059E+02  0.13077998395E+02  0.31263657981E+02  0.59134705164E+02  0.51100000000E-03 0. -1.
         22    1    1    0    0    0 -0.28401447068E+02 -0.35859059549E+01 -0.14030683733E+01  0.28661289538E+02  0.00000000000E+00 0. -1.
</event>
<event>
 5    1  0.8907853E-005  0.9118800E+02  0.7818608E-02  0.1130116E+00
         25   -1    0    0    0    0  0.00000000000E+00  0.00000000000E+00  0.99999998245E-14  0.12500000000E+03  0.12500000000E+03 0.  0.
        -11    1    3    3    0    0 -0.15435088670E+02 -0.60214410065E+02 -0.31892834900E+01  0.62242980899E+02  0.51100000000E-03 0.  1.
         23    2    1    0    0    0 -0.96632673172E+01 -0.23193569561E+02 -0.28519368406E+01  0.99712573322E+02  0.96452803643E+02 0.  0.
         11    1    3    3    0    0  0.57718213530E+01  0.37020840504E+02  0.33734664942E+00  0.37469592423E+02  0.51100000000E-03 0. -1.
         22    1    1    0    0    0  0.96632673172E+01  0.23193569561E+02  0.28519368406E+01  0.25287426678E+02  0.00000000000E+00 0.  1.
</event>
<event>
 5    1  0.8907853E-005  0.9118800E+02  0.7818608E-02  0.1130116E+00
         25   -1    0    0    0    0  0.00000000000E+00  0.00000000000E+00  0.99999998245E-14  0.12500000000E+03  0.12500000000E+03 0.  0.
        -11    1    3    3    0    0  0.96316665558E+01  0.40392163639E+02 -0.25924129046E+00  0.41525451116E+02  0.51100000000E-03 0. -1.
         23    2    1    0    0    0 -0.30135398314E+02  0.75543403151E+01  0.56054714752E+01  0.93430527410E+02  0.87935384531E+02 0.  0.
         11    1    3    3    0    0 -0.39767064870E+02 -0.32837823324E+02  0.58647127657E+01  0.51905076294E+02  0.51100000000E-03 0.  1.
         22    1    1    0    0    0  0.30135398314E+02 -0.75543403151E+01 -0.56054714752E+01  0.31569472590E+02  0.00000000000E+00 0.  1.
</event>
<event>
 5    1  0.8907853E-005  0.9118800E+02  0.7818608E-02  0.1130116E+00
         25   -1    0    0    0    0  0.00000000000E+00  0.00000000000E+00  0.99999998245E-14  0.12500000000E+03  0.12500000000E+03 0.  0.
        -11    1    3    3    0    0 -0.23223133607E+02  0.35057544731E+02 -0.40755420651E+02  0.58560649671E+02  0.51100000000E-03 0. -1.
         23    2    1    0    0    0 -0.17172864812E+02  0.20524981894E+02 -0.47995724721E+01  0.97811435060E+02  0.93956685579E+02 0.  0.
         11    1    3    3    0    0  0.60502687956E+01 -0.14532562838E+02  0.35955848179E+02  0.39250785389E+02  0.51100000000E-03 0.  1.
         22    1    1    0    0    0  0.17172864812E+02 -0.20524981894E+02  0.47995724721E+01  0.27188564940E+02  0.00000000000E+00 0. -1.
</event>
<event>
 5    1  0.8907853E-005  0.9118800E+02  0.7818608E-02  0.1130116E+00
         25   -1    0    0    0    0  0.00000000000E+00  0.00000000000E+00  0.99999998245E-14  0.12500000000E+03  0.12500000000E+03 0.  0.
        -11    1    3    3    0    0  0.31852859746E+02  0.48623549221E+01  0.43743428440E+02  0.54329869329E+02  0.51100000000E-03 0. -1.
         23    2    1    0    0    0 -0.23173860506E+01  0.16666699260E+02  0.24482385826E+02  0.95292486505E+02  0.90543479203E+02 0.  0.
         11    1    3    3    0    0 -0.34170245797E+02  0.11804344338E+02 -0.19261042613E+02  0.40962617175E+02  0.51100000000E-03 0.  1.
         22    1    1    0    0    0  0.23173860506E+01 -0.16666699260E+02 -0.24482385826E+02  0.29707513495E+02  0.00000000000E+00 0. -1.
</event>
<event>
 5    1  0.8907853E-005  0.9118800E+02  0.7818608E-02  0.1130116E+00
         25   -1    0    0    0    0  0.00000000000E+00  0.00000000000E+00  0.99999998245E-14  0.12500000000E+03  0.12500000000E+03 0.  0.
        -11    1    3    3    0    0  0.21248201639E+02 -0.29668860504E+02  0.16503792776E+02  0.40051248829E+02  0.51100000000E-03 0. -1.
         23    2    1    0    0    0 -0.10805968440E+02 -0.11972231069E+02 -0.24906777841E+02  0.95327607897E+02  0.90591953143E+02 0.  0.
         11    1    3    3    0    0 -0.32054170079E+02  0.17696629435E+02 -0.41410570617E+02  0.55276359069E+02  0.51100000000E-03 0.  1.
         22    1    1    0    0    0  0.10805968440E+02  0.11972231069E+02  0.24906777841E+02  0.29672392103E+02  0.00000000000E+00 0.  1.
</event>
<event>
 5    1  0.8907853E-005  0.9118800E+02  0.7818608E-02  0.1130116E+00
         25   -1    0    0    0    0  0.00000000000E+00  0.00000000000E+00  0.99999998245E-14  0.12500000000E+03  0.12500000000E+03 0.  0.
        -11    1    3    3    0    0 -0.51073811269E+02 -0.64693617291E+00 -0.50629342452E+01  0.51328218626E+02  0.51100000000E-03 0. -1.
         23    2    1    0    0    0 -0.10017297570E+02 -0.18308012415E+02 -0.17548266759E+02  0.97733331054E+02  0.93852718466E+02 0.  0.
         11    1    3    3    0    0  0.41056513699E+02 -0.17661076242E+02 -0.12485332514E+02  0.46405112427E+02  0.51100000000E-03 0.  1.
         22    1    1    0    0    0  0.10017297570E+02  0.18308012415E+02  0.17548266759E+02  0.27266668946E+02  0.00000000000E+00 0. -1.
</event>
<event>
 5    1  0.8907853E-005  0.9118800E+02  0.7818608E-02  0.1130116E+00
         25   -1    0    0    0    0  0.00000000000E+00  0.00000000000E+00  0.99999998245E-14  0.12500000000E+03  0.12500000000E+03 0.  0.
        -11    1    3    3    0    0  0.30450953158E+01  0.46685653880E+02 -0.31447291215E+01  0.46890427649E+02  0.51100000000E-03 0.  1.
         23    2    1    0    0    0 -0.15177283317E+02  0.55029802045E+01 -0.23643590036E+02  0.96370433643E+02  0.92019608838E+02 0.  0.
         11    1    3    3    0    0 -0.18222378633E+02 -0.41182673675E+02 -0.20498860914E+02  0.49480005993E+02  0.51100000000E-03 0. -1.
         22    1    1    0    0    0  0.15177283317E+02 -0.55029802045E+01  0.23643590036E+02  0.28629566357E+02  0.00000000000E+00 0. -1.
</event>
<event>
 5    1  0.8907853E-005  0.9118800E+02  0.7818608E-02  0.1130116E+00
         25   -1    0    0    0    0  0.00000000000E+00  0.00000000000E+00  0.99999998245E-14  0.12500000000E+03  0.12500000000E+03 0.  0.
        -11    1    3    3    0    0  0.23882367585E+02  0.34252923806E+02 -0.32248238471E+02  0.52759635665E+02  0.51100000000E-03 0. -1.
         23    2    1    0    0    0  0.19264748287E+02 -0.49398835736E+01 -0.25281015754E+02  0.92833826248E+02  0.87083044056E+02 0.  0.
         11    1    3    3    0    0 -0.46176192983E+01 -0.39192807380E+02  0.69672227166E+01  0.40074190584E+02  0.51100000000E-03 0.  1.
         22    1    1    0    0    0 -0.19264748287E+02  0.49398835736E+01  0.25281015754E+02  0.32166173752E+02  0.00000000000E+00 0. -1.
</event>
<event>
 5    1  0.8907853E-005  0.9118800E+02  0.7818608E-02  0.1130116E+00
         25   -1    0    0    0    0  0.00000000000E+00  0.00000000000E+00  0.99999998245E-14  0.12500000000E+03  0.12500000000E+03 0.  0.
        -11    1    3    3    0    0 -0.78783015928E+01  0.29531842892E+02 -0.14744544921E+02  0.33935217486E+02  0.51100000000E-03 0. -1.
         23    2    1    0    0    0 -0.24387284968E+01 -0.26769097838E+02  0.10841474997E+02  0.96016046235E+02  0.91536940951E+02 0.  0.
         11    1    3    3    0    0  0.54395730961E+01 -0.56300940730E+02  0.25586019919E+02  0.62080828749E+02  0.51100000000E-03 0.  1.
         22    1    1    0    0    0  0.24387284968E+01  0.26769097838E+02 -0.10841474997E+02  0.28983953765E+02  0.00000000000E+00 0.  1.
</event>
<event>
 5    1  0.8907853E-005  0.9118800E+02  0.7818608E-02  0.1130116E+00
         25   -1    0    0    0    0  0.00000000000E+00  0.00000000000E+00  0.99999998245E-14  0.12500000000E+03  0.12500000000E+03 0.  0.
        -11    1    3    3    0    0  0.13130304652E+02 -0.54466254524E+02  0.24716440427E+02  0.61236265478E+02  0.51100000000E-03 0.  1.
         23    2    1    0    0    0  0.36838831505E+01 -0.34836869278E+02  0.70894588337E+01  0.89258722984E+02  0.81790468553E+02 0.  0.
         11    1    3    3    0    0 -0.94464215018E+01  0.19629385245E+02 -0.17626981594E+02  0.28022457506E+02  0.51100000000E-03 0. -1.
         22    1    1    0    0    0 -0.36838831505E+01  0.34836869278E+02 -0.70894588337E+01  0.35741277016E+02  0.00000000000E+00 0.  1.
</event>
<event>
 5    1  0.8907853E-005  0.9118800E+02  0.7818608E-02  0.1130116E+00
         25   -1    0    0    0    0  0.00000000000E+00  0.00000000000E+00  0.99999998245E-14  0.12500000000E+03  0.12500000000E+03 0.  0.
        -11    1    3    3    0    0 -0.14613396253E+02 -0.45282001026E+02  0.25391262124E+02  0.53932616843E+02  0.51100000000E-03 0.  1.
         23    2    1    0    0    0 -0.26541739328E+02 -0.13989655153E+02  0.17100874758E+01  0.94948398096E+02  0.90067194493E+02 0.  0.
         11    1    3    3    0    0 -0.11928343075E+02  0.31292345874E+02 -0.23681174648E+02  0.41015781253E+02  0.51100000000E-03 0. -1.
         22    1    1    0    0    0  0.26541739328E+02  0.13989655153E+02 -0.17100874758E+01  0.30051601904E+02  0.00000000000E+00 0. -1.
</event>
<event>
 5    1  0.8907853E-005  0.9118800E+02  0.7818608E-02  0.1130116E+00
         25   -1    0    0    0    0  0.00000000000E+00  0.00000000000E+00  0.99999998245E-14  0.12500000000E+03  0.12500000000E+03 0.  0.
        -11    1    3    3    0    0  0.38756016439E+01 -0.56323203890E+02 -0.12468745606E+02  0.57816893741E+02  0.51100000000E-03 0.  1.
         23    2    1    0    0    0 -0.77290889195E+01 -0.23504563194E+02  0.89496712722E+01  0.98688407073E+02  0.95116253964E+02 0.  0.
         11    1    3    3    0    0 -0.11604690563E+02  0.32818640696E+02  0.21418416878E+02  0.40871513332E+02  0.51100000000E-03 0. -1.
         22    1    1    0    0    0  0.77290889195E+01  0.23504563194E+02 -0.89496712722E+01  0.26311592927E+02  0.00000000000E+00 0.  1.
</event>
<event>
 5    1  0.8907853E-005  0.9118800E+02  0.7818608E-02  0.1130116E+00
         25   -1    0    0    0    0  0.00000000000E+00  0.00000000000E+00  0.99999998245E-14  0.12500000000E+03  0.12500000000E+03 0.  0.
        -11    1    3    3    0    0  0.10156135082E+01  0.82505740810E+01 -0.18315312132E+02  0.20113530328E+02  0.51100000000E-03 0.  1.
         23    2    1    0    0    0 -0.83710017513E+01 -0.46360074830E+02 -0.21229180882E+01  0.77842423835E+02  0.61932269124E+02 0.  0.
         11    1    3    3    0    0 -0.93866152595E+01 -0.54610648911E+02  0.16192394044E+02  0.57728893508E+02  0.51100000000E-03 0. -1.
         22    1    1    0    0    0  0.83710017513E+01  0.46360074830E+02  0.21229180882E+01  0.47157576165E+02  0.00000000000E+00 0. -1.
</event>
<event>
 5    1  0.8907853E-005  0.9118800E+02  0.7818608E-02  0.1130116E+00
         25   -1    0    0    0    0  0.00000000000E+00  0.00000000000E+00  0.99999998245E-14  0.12500000000E+03  0.12500000000E+03 0.  0.
        -11    1    3    3    0    0  0.12161000637E+02 -0.52709829894E+02 -0.20632508513E+02  0.57895738287E+02  0.51100000000E-03 0. -1.
         23    2    1    0    0    0 -0.72301209590E+01 -0.20104897719E+02 -0.19845991479E+02  0.95839325468E+02  0.91295297618E+02 0.  0.
         11    1    3    3    0    0 -0.19391121596E+02  0.32604932175E+02  0.78651703480E+00  0.37943587182E+02  0.51100000000E-03 0.  1.
         22    1    1    0    0    0  0.72301209590E+01  0.20104897719E+02  0.19845991479E+02  0.29160674532E+02  0.00000000000E+00 0. -1.
</event>
<event>
 5    1  0.8907853E-005  0.9118800E+02  0.7818608E-02  0.1130116E+00
         25   -1    0    0    0    0  0.00000000000E+00  0.00000000000E+00  0.99999998245E-14  0.12500000000E+03  0.12500000000E+03 0.  0.
        -11    1    3    3    0    0 -0.18355697127E+02  0.25098378411E+02  0.16325687539E+02  0.35119628269E+02  0.51100000000E-03 0.  1.
         23    2    1    0    0    0  0.26652257904E+02 -0.12544097936E+02  0.86870693031E+01  0.94289050528E+02  0.89147420781E+02 0.  0.
         11    1    3    3    0    0  0.45007955031E+02 -0.37642476347E+02 -0.76386182354E+01  0.59169422259E+02  0.51100000000E-03 0. -1.
         22    1    1    0    0    0 -0.26652257904E+02  0.12544097936E+02 -0.86870693031E+01  0.30710949472E+02  0.00000000000E+00 0. -1.
</event>
<event>
 5    1  0.8907853E-005  0.9118800E+02  0.7818608E-02  0.1130116E+00
         25   -1    0    0    0    0  0.00000000000E+00  0.00000000000E+00  0.99999998245E-14  0.12500000000E+03  0.12500000000E+03 0.  0.
        -11    1    3    3    0    0  0.30228373261E+02 -0.44622897482E+02 -0.11133687402E+02  0.55035593257E+02  0.51100000000E-03 0.  1.
         23    2    1    0    0    0  0.15598920898E+02 -0.24687062039E+02  0.15963187593E+02  0.91719364137E+02  0.85468362768E+02 0.  0.
         11    1    3    3    0    0 -0.14629452363E+02  0.19935835443E+02  0.27096874994E+02  0.36683770880E+02  0.51100000000E-03 0. -1.
         22    1    1    0    0    0 -0.15598920898E+02  0.24687062039E+02 -0.15963187593E+02  0.33280635863E+02  0.00000000000E+00 0.  1.
</event>
<event>
 5    1  0.8907853E-005  0.9118800E+02  0.7818608E-02  0.1130116E+00
         25   -1    0    0    0    0  0.00000000000E+00  0.00000000000E+00  0.99999998245E-14  0.12500000000E+03  0.12500000000E+03 0.  0.
        -11    1    3    3    0    0  0.18787509941E+02  0.27563499633E+02 -0.48331553108E+02  0.58725259197E+02  0.51100000000E-03 0.  1.
         23    2    1    0    0    0  0.16265922754E+02  0.20717821010E+02 -0.11523419241E+02  0.96249390590E+02  0.91855036049E+02 0.  0.
         11    1    3    3    0    0 -0.25215871863E+01 -0.68456786226E+01  0.36808133867E+02  0.37524131393E+02  0.51100000000E-03 0. -1.
         22    1    1    0    0    0 -0.16265922754E+02 -0.20717821010E+02  0.11523419241E+02  0.28750609410E+02  0.00000000000E+00 0.  1.
</event>
<event>
 5    1  0.8907853E-005  0.9118800E+02  0.7818608E-02  0.1130116E+00
         25   -1    0    0    0    0  0.00000000000E+00  0.00000000000E+00  0.99999998245E-14  0.12500000000E+03  0.12500000000E+03 0.  0.
        -11    1    3    3    0    0  0.26582724596E+02 -0.21337436035E+02  0.59436341334E+01  0.34601361396E+02  0.51100000000E-03 0.  1.
         23    2    1    0    0    0 -0.67758826856E+01  0.28615204190E+02 -0.34249126705E+01  0.95394721352E+02  0.90684509912E+02 0.  0.
         11    1    3    3    0    0 -0.33358607282E+02  0.49952640225E+02 -0.93685468039E+01  0.60793359956E+02  0.51100000000E-03 0. -1.
         22    1    1    0    0    0  0.67758826856E+01 -0.28615204190E+02  0.34249126705E+01  0.29605278648E+02  0.00000000000E+00 0. -1.
</event>
<event>
 5    1  0.8907853E-005  0.9118800E+02  0.7818608E-02  0.1130116E+00
         25   -1    0    0    0    0  0.00000000000E+00  0.00000000000E+00  0.99999998245E-14  0.12500000000E+03  0.12500000000E+03 0.  0.
        -11    1    3    3    0    0  0.26334612122E+02 -0.24205166792E+02  0.60052822477E+01  0.36269343944E+02  0.51100000000E-03 0.  1.
         23    2    1    0    0    0 -0.17747130599E+02  0.32951359881E+01 -0.22991350154E+02  0.95769523651E+02  0.91199676057E+02 0.  0.
         11    1    3    3    0    0 -0.44081742720E+02  0.27500302780E+02 -0.28996632402E+02  0.59500179707E+02  0.51100000000E-03 0. -1.
         22    1    1    0    0    0  0.17747130599E+02 -0.32951359881E+01  0.22991350154E+02  0.29230476349E+02  0.00000000000E+00 0. -1.
</event>
<event>
 5    1  0.8907853E-005  0.9118800E+02  0.7818608E-02  0.1130116E+00
         25   -1    0    0    0    0  0.00000000000E+00  0.00000000000E+00  0.99999998245E-14  0.12500000000E+03  0.12500000000E+03 0.  0.
        -11    1    3    3    0    0 -0.22438838922E+02  0.34667793606E+02  0.75822293404E+01  0.41986278802E+02  0.51100000000E-03 0. -1.
         23    2    1    0    0    0 -0.23515675522E+02 -0.18047572586E+02  0.61143355702E+01  0.94733071332E+02  0.89767855233E+02 0.  0.
         11    1    3    3    0    0 -0.10768366005E+01 -0.52715366192E+02 -0.14678937702E+01  0.52746792530E+02  0.51100000000E-03 0.  1.
         22    1    1    0    0    0  0.23515675522E+02  0.18047572586E+02 -0.61143355702E+01  0.30266928668E+02  0.00000000000E+00 0. -1.
</event>
<event>
 5    1  0.8907853E-005  0.9118800E+02  0.7818608E-02  0.1130116E+00
         25   -1    0    0    0    0  0.00000000000E+00  0.00000000000E+00  0.99999998245E-14  0.12500000000E+03  0.12500000000E+03 0.  0.
        -11    1    3    3    0    0  0.15116957898E+02 -0.20078358458E+02 -0.37728539205E+02  0.45333272166E+02  0.51100000000E-03 0. -1.
         23    2    1    0    0    0 -0.20659203440E+02 -0.24180251258E+02 -0.75624311951E+01  0.92309365206E+02  0.86326944238E+02 0.  0.
         11    1    3    3    0    0 -0.35776161337E+02 -0.41018928009E+01  0.30166108010E+02  0.46976093040E+02  0.51100000000E-03 0.  1.
         22    1    1    0    0    0  0.20659203440E+02  0.24180251258E+02  0.75624311951E+01  0.32690634794E+02  0.00000000000E+00 0. -1.
</event>
<event>
 5    1  0.8907853E-005  0.9118800E+02  0.7818608E-02  0.1130116E+00
         25   -1    0    0    0    0  0.00000000000E+00  0.00000000000E+00  0.99999998245E-14  0.12500000000E+03  0.12500000000E+03 0.  0.
        -11    1    3    3    0    0  0.11720035281E+02  0.26488037422E+02 -0.45870576881E+02  0.54250209005E+02  0.51100000000E-03 0.  1.
         23    2    1    0    0    0  0.19247707571E+02  0.23716645686E+02 -0.73678832554E+01  0.93579636650E+02  0.88147088225E+02 0.  0.
         11    1    3    3    0    0  0.75276722906E+01 -0.27713917354E+01  0.38502693625E+02  0.39329427646E+02  0.51100000000E-03 0. -1.
         22    1    1    0    0    0 -0.19247707571E+02 -0.23716645686E+02  0.73678832554E+01  0.31420363350E+02  0.00000000000E+00 0. -1.
</event>
<event>
 5    1  0.8907853E-005  0.9118800E+02  0.7818608E-02  0.1130116E+00
         25   -1    0    0    0    0  0.00000000000E+00  0.00000000000E+00  0.99999998245E-14  0.12500000000E+03  0.12500000000E+03 0.  0.
        -11    1    3    3    0    0  0.10612831654E+02 -0.22176893347E+02 -0.14907793408E+02  0.28752201634E+02  0.51100000000E-03 0.  1.
         23    2    1    0    0    0 -0.18510009609E+02  0.27553413647E+02 -0.19392722119E+02  0.86556681589E+02  0.77551082501E+02 0.  0.
         11    1    3    3    0    0 -0.29122841263E+02  0.49730306994E+02 -0.44849287106E+01  0.57804479954E+02  0.51100000000E-03 0. -1.
         22    1    1    0    0    0  0.18510009609E+02 -0.27553413647E+02  0.19392722119E+02  0.38443318411E+02  0.00000000000E+00 0. -1.
</event>
<event>
 5    1  0.8907853E-005  0.9118800E+02  0.7818608E-02  0.1130116E+00
         25   -1    0    0    0    0  0.00000000000E+00  0.00000000000E+00  0.99999998245E-14  0.12500000000E+03  0.12500000000E+03 0.  0.
        -11    1    3    3    0    0 -0.52056007217E+02  0.21711545896E+02 -0.98242137984E+01  0.57251500326E+02  0.51100000000E-03 0.  1.
         23    2    1    0    0    0 -0.15771871440E+02  0.23363051317E+02  0.47983792298E+01  0.96406145087E+02  0.92068106702E+02 0.  0.
         11    1    3    3    0    0  0.36284135777E+02  0.16515054213E+01  0.14622593028E+02  0.39154644761E+02  0.51100000000E-03 0. -1.
         22    1    1    0    0    0  0.15771871440E+02 -0.23363051317E+02 -0.47983792298E+01  0.28593854913E+02  0.00000000000E+00 0.  1.
</event>
<event>
 5    1  0.8907853E-005  0.9118800E+02  0.7818608E-02  0.1130116E+00
         25   -1    0    0    0    0  0.00000000000E+00  0.00000000000E+00  0.99999998245E-14  0.12500000000E+03  0.12500000000E+03 0.  0.
        -11    1    3    3    0    0 -0.43755233442E+02  0.23264095221E+02  0.17073900491E+02  0.52414279144E+02  0.51100000000E-03 0.  1.
         23    2    1    0    0    0 -0.29162984124E+02  0.18483903197E+01 -0.13767435261E+02  0.92697701886E+02  0.86887429882E+02 0.  0.
         11    1    3    3    0    0  0.14592249318E+02 -0.21415704901E+02 -0.30841335752E+02  0.40283422741E+02  0.51100000000E-03 0. -1.
         22    1    1    0    0    0  0.29162984124E+02 -0.18483903197E+01  0.13767435261E+02  0.32302298114E+02  0.00000000000E+00 0.  1.
</event>
<event>
 5    1  0.8907853E-005  0.9118800E+02  0.7818608E-02  0.1130116E+00
         25   -1    0    0    0    0  0.00000000000E+00  0.00000000000E+00  0.99999998245E-14  0.12500000000E+03  0.12500000000E+03 0.  0.
        -11    1    3    3    0    0 -0.34489383209E+02 -0.68018577870E+01  0.26034113812E+02  0.43744232828E+02  0.51100000000E-03 0.  1.
         23    2    1    0    0    0  0.17520855776E+02 -0.80691944901E+01  0.21723636808E+02  0.95948172467E+02  0.91444207672E+02 0.  0.
         11    1    3    3    0    0  0.52010238985E+02 -0.12673367031E+01 -0.43104770042E+01  0.52203939639E+02  0.51100000000E-03 0. -1.
         22    1    1    0    0    0 -0.17520855776E+02  0.80691944901E+01 -0.21723636808E+02  0.29051827533E+02  0.00000000000E+00 0.  1.
</event>
<event>
 5    1  0.8907853E-005  0.9118800E+02  0.7818608E-02  0.1130116E+00
         25   -1    0    0    0    0  0.00000000000E+00  0.00000000000E+00  0.99999998245E-14  0.12500000000E+03  0.12500000000E+03 0.  0.
        -11    1    3    3    0    0  0.49907720261E+01 -0.10106802856E+02 -0.36829964243E+02  0.38516250282E+02  0.51100000000E-03 0.  1.
         23    2    1    0    0    0 -0.52638968371E+01 -0.25204087103E+02  0.16187010964E+02  0.94586615766E+02  0.89563686512E+02 0.  0.
         11    1    3    3    0    0 -0.10254668863E+02 -0.15097284247E+02  0.53016975207E+02  0.56070365484E+02  0.51100000000E-03 0. -1.
         22    1    1    0    0    0  0.52638968371E+01  0.25204087103E+02 -0.16187010964E+02  0.30413384234E+02  0.00000000000E+00 0. -1.
</event>
<event>
 5    1  0.8907853E-005  0.9118800E+02  0.7818608E-02  0.1130116E+00
         25   -1    0    0    0    0  0.00000000000E+00  0.00000000000E+00  0.99999998245E-14  0.12500000000E+03  0.12500000000E+03 0.  0.
        -11    1    3    3    0    0 -0.38977073393E+02  0.22158415394E+02  0.22911277411E+02  0.50350116742E+02  0.51100000000E-03 0.  1.
         23    2    1    0    0    0 -0.93996484723E+01  0.25259371400E+02 -0.11382924005E+02  0.95743202604E+02  0.91163592794E+02 0.  0.
         11    1    3    3    0    0  0.29577424921E+02  0.31009560060E+01 -0.34294201416E+02  0.45393085862E+02  0.51100000000E-03 0. -1.
         22    1    1    0    0    0  0.93996484723E+01 -0.25259371400E+02  0.11382924005E+02  0.29256797396E+02  0.00000000000E+00 0. -1.
</event>
<event>
 5    1  0.8907853E-005  0.9118800E+02  0.7818608E-02  0.1130116E+00
         25   -1    0    0    0    0  0.00000000000E+00  0.00000000000E+00  0.99999998245E-14  0.12500000000E+03  0.12500000000E+03 0.  0.
        -11    1    3    3    0    0 -0.23821000647E+01  0.31139490119E+02 -0.12156000809E+02  0.33512842337E+02  0.51100000000E-03 0.  1.
         23    2    1    0    0    0  0.69218679659E+01 -0.27073462824E+02  0.81955434617E+01  0.95878674858E+02  0.91349158258E+02 0.  0.
         11    1    3    3    0    0  0.93039680306E+01 -0.58212952943E+02  0.20351544271E+02  0.62365832520E+02  0.51100000000E-03 0. -1.
         22    1    1    0    0    0 -0.69218679659E+01  0.27073462824E+02 -0.81955434617E+01  0.29121325142E+02  0.00000000000E+00 0. -1.
</event>
<event>
 5    1  0.8907853E-005  0.9118800E+02  0.7818608E-02  0.1130116E+00
         25   -1    0    0    0    0  0.00000000000E+00  0.00000000000E+00  0.99999998245E-14  0.12500000000E+03  0.12500000000E+03 0.  0.
        -11    1    3    3    0    0  0.42943253841E+02 -0.71255118895E+00 -0.36459332450E+02  0.56337498193E+02  0.51100000000E-03 0.  1.
         23    2    1    0    0    0  0.17585914342E+02  0.19128566894E+02 -0.16021082474E+02  0.94473920358E+02  0.89406264264E+02 0.  0.
         11    1    3    3    0    0 -0.25357339499E+02  0.19841118083E+02  0.20438249976E+02  0.38136422166E+02  0.51100000000E-03 0. -1.
         22    1    1    0    0    0 -0.17585914342E+02 -0.19128566894E+02  0.16021082474E+02  0.30526079642E+02  0.00000000000E+00 0.  1.
</event>
<event>
 5    1  0.8907853E-005  0.9118800E+02  0.7818608E-02  0.1130116E+00
         25   -1    0    0    0    0  0.00000000000E+00  0.00000000000E+00  0.99999998245E-14  0.12500000000E+03  0.12500000000E+03 0.  0.
        -11    1    3    3    0    0  0.36050536369E+02  0.50504130769E+02 -0.50742978072E+01  0.62257986602E+02  0.51100000000E-03 0.  1.
         23    2    1    0    0    0  0.18276751740E+02  0.22374142779E+02 -0.57669451911E+01  0.95539864629E+02  0.90884355954E+02 0.  0.
         11    1    3    3    0    0 -0.17773784629E+02 -0.28129987990E+02 -0.69264738396E+00  0.33281878027E+02  0.51100000000E-03 0. -1.
         22    1    1    0    0    0 -0.18276751740E+02 -0.22374142779E+02  0.57669451911E+01  0.29460135371E+02  0.00000000000E+00 0.  1.
</event>
<event>
 5    1  0.8907853E-005  0.9118800E+02  0.7818608E-02  0.1130116E+00
         25   -1    0    0    0    0  0.00000000000E+00  0.00000000000E+00  0.99999998245E-14  0.12500000000E+03  0.12500000000E+03 0.  0.
        -11    1    3    3    0    0 -0.14215502356E+02 -0.36831336011E+02  0.35291865285E+02  0.52954164852E+02  0.51100000000E-03 0.  1.
         23    2    1    0    0    0  0.16437302513E+02 -0.19099104946E+02  0.55537545724E+01  0.99196804200E+02  0.95782049728E+02 0.  0.
         11    1    3    3    0    0  0.30652804869E+02  0.17732231065E+02 -0.29738110713E+02  0.46242639348E+02  0.51100000000E-03 0. -1.
         22    1    1    0    0    0 -0.16437302513E+02  0.19099104946E+02 -0.55537545724E+01  0.25803195800E+02  0.00000000000E+00 0.  1.
</event>
<event>
 5    1  0.8907853E-005  0.9118800E+02  0.7818608E-02  0.1130116E+00
         25   -1    0    0    0    0  0.00000000000E+00  0.00000000000E+00  0.99999998245E-14  0.12500000000E+03  0.12500000000E+03 0.  0.
        -11    1    3    3    0    0 -0.16724534482E+02 -0.19310584838E+02  0.26068146344E+02  0.36498725929E+02  0.51100000000E-03 0.  1.
         23    2    1    0    0    0 -0.12275600319E+02  0.20527593405E+02 -0.17243868280E+02  0.95514012694E+02  0.90848792911E+02 0.  0.
         11    1    3    3    0    0  0.44489341626E+01  0.39838178243E+02 -0.43312014623E+02  0.59015286764E+02  0.51100000000E-03 0. -1.
         22    1    1    0    0    0  0.12275600319E+02 -0.20527593405E+02  0.17243868280E+02  0.29485987306E+02  0.00000000000E+00 0. -1.
</event>
<event>
 5    1  0.8907853E-005  0.9118800E+02  0.7818608E-02  0.1130116E+00
         25   -1    0    0    0    0  0.00000000000E+00  0.00000000000E+00  0.99999998245E-14  0.12500000000E+03  0.12500000000E+03 0.  0.
        -11    1    3    3    0    0  0.14348809704E+02 -0.54431103866E+02 -0.20791177427E+02  0.60007553416E+02  0.51100000000E-03 0.  1.
         23    2    1    0    0    0 -0.52686375359E+00 -0.21511370342E+02 -0.19190757000E+02  0.96167695312E+02  0.91743794493E+02 0.  0.
         11    1    3    3    0    0 -0.14875673457E+02  0.32919733524E+02  0.16004204270E+01  0.36160141895E+02  0.51100000000E-03 0. -1.
         22    1    1    0    0    0  0.52686375359E+00  0.21511370342E+02  0.19190757000E+02  0.28832304688E+02  0.00000000000E+00 0.  1.
</event>
<event>
 5    1  0.8907853E-005  0.9118800E+02  0.7818608E-02  0.1130116E+00
         25   -1    0    0    0    0  0.00000000000E+00  0.00000000000E+00  0.99999998245E-14  0.12500000000E+03  0.12500000000E+03 0.  0.
        -11    1    3    3    0    0  0.71490299314E+01 -0.29499571136E+02  0.14431931404E+02  0.33609730294E+02  0.51100000000E-03 0.  1.
         23    2    1    0    0    0  0.34597096991E+02  0.14398333871E+02 -0.60337494288E+00  0.87521536854E+02  0.79090986929E+02 0.  0.
         11    1    3    3    0    0  0.27448067060E+02  0.43897905007E+02 -0.15035306347E+02  0.53911806559E+02  0.51100000000E-03 0. -1.
         22    1    1    0    0    0 -0.34597096991E+02 -0.14398333871E+02  0.60337494288E+00  0.37478463146E+02  0.00000000000E+00 0. -1.
</event>
<event>
 5    1  0.8907853E-005  0.9118800E+02  0.7818608E-02  0.1130116E+00
         25   -1    0    0    0    0  0.00000000000E+00  0.00000000000E+00  0.99999998245E-14  0.12500000000E+03  0.12500000000E+03 0.  0.
        -11    1    3    3    0    0  0.42158404481E+02  0.13928963814E+02 -0.36194091458E+02  0.57283150735E+02  0.51100000000E-03 0.  1.
         23    2    1    0    0    0  0.54064787621E+01  0.97638574549E+01 -0.27561689358E+02  0.95264337148E+02  0.90504609203E+02 0.  0.
         11    1    3    3    0    0 -0.36751925719E+02 -0.41651063592E+01  0.86324021004E+01  0.37981186413E+02  0.51100000000E-03 0. -1.
         22    1    1    0    0    0 -0.54064787621E+01 -0.97638574549E+01  0.27561689358E+02  0.29735662852E+02  0.00000000000E+00 0.  1.
</event>
<event>
 5    1  0.8907853E-005  0.9118800E+02  0.7818608E-02  0.1130116E+00
         25   -1    0    0    0    0  0.00000000000E+00  0.00000000000E+00  0.99999998245E-14  0.12500000000E+03  0.12500000000E+03 0.  0.
        -11    1    3    3    0    0  0.18619601877E+02 -0.28690289165E+01  0.29104258534E+02  0.34669565415E+02  0.51100000000E-03 0. -1.
         23    2    1    0    0    0  0.12967334690E+01  0.15997269287E+02 -0.25435531369E+02  0.94924089401E+02  0.90033451285E+02 0.  0.
         11    1    3    3    0    0 -0.17322868408E+02  0.18866298203E+02 -0.54539789903E+02  0.60254523986E+02  0.51100000000E-03 0.  1.
         22    1    1    0    0    0 -0.12967334690E+01 -0.15997269287E+02  0.25435531369E+02  0.30075910599E+02  0.00000000000E+00 0.  1.
</event>
<event>
 5    1  0.8907853E-005  0.9118800E+02  0.7818608E-02  0.1130116E+00
         25   -1    0    0    0    0  0.00000000000E+00  0.00000000000E+00  0.99999998245E-14  0.12500000000E+03  0.12500000000E+03 0.  0.
        -11    1    3    3    0    0 -0.27000789115E+02 -0.50874060571E+02 -0.16276370423E+02  0.59850922184E+02  0.51100000000E-03 0.  1.
         23    2    1    0    0    0 -0.13676673909E+01 -0.27543537240E+02 -0.12516442196E+02  0.94715048571E+02  0.89742755378E+02 0.  0.
         11    1    3    3    0    0  0.25633121724E+02  0.23330523331E+02  0.37599282271E+01  0.34864126388E+02  0.51100000000E-03 0. -1.
         22    1    1    0    0    0  0.13676673909E+01  0.27543537240E+02  0.12516442196E+02  0.30284951429E+02  0.00000000000E+00 0.  1.
</event>
<event>
 5    1  0.8907853E-005  0.9118800E+02  0.7818608E-02  0.1130116E+00
         25   -1    0    0    0    0  0.00000000000E+00  0.00000000000E+00  0.99999998245E-14  0.12500000000E+03  0.12500000000E+03 0.  0.
        -11    1    3    3    0    0  0.16546512831E+02 -0.12437676740E+02  0.29844632613E+02  0.36320586251E+02  0.51100000000E-03 0. -1.
         23    2    1    0    0    0 -0.27927080162E+02  0.27981497381E+01 -0.70275998640E+01  0.96066652317E+02  0.91606020977E+02 0.  0.
         11    1    3    3    0    0 -0.44473592993E+02  0.15235826478E+02 -0.36872232477E+02  0.59746066065E+02  0.51100000000E-03 0.  1.
         22    1    1    0    0    0  0.27927080162E+02 -0.27981497381E+01  0.70275998640E+01  0.28933347683E+02  0.00000000000E+00 0.  1.
</event>
<event>
 5    1  0.8907853E-005  0.9118800E+02  0.7818608E-02  0.1130116E+00
         25   -1    0    0    0    0  0.00000000000E+00  0.00000000000E+00  0.99999998245E-14  0.12500000000E+03  0.12500000000E+03 0.  0.
        -11    1    3    3    0    0 -0.14474031277E+02  0.33303602796E+02  0.55222453062E+01  0.36730406124E+02  0.51100000000E-03 0. -1.
         23    2    1    0    0    0  0.11880249835E+02 -0.11016482587E+02 -0.23921241214E+02  0.96108322895E+02  0.91662864474E+02 0.  0.
         11    1    3    3    0    0  0.26354281112E+02 -0.44320085383E+02 -0.29443486520E+02  0.59377916770E+02  0.51100000000E-03 0.  1.
         22    1    1    0    0    0 -0.11880249835E+02  0.11016482587E+02  0.23921241214E+02  0.28891677105E+02  0.00000000000E+00 0.  1.
</event>
<event>
 5    1  0.8907853E-005  0.9118800E+02  0.7818608E-02  0.1130116E+00
         25   -1    0    0    0    0  0.00000000000E+00  0.00000000000E+00  0.99999998245E-14  0.12500000000E+03  0.12500000000E+03 0.  0.
        -11    1    3    3    0    0  0.25013617347E+02  0.13579264992E+02  0.48861211828E+02  0.56546401407E+02  0.51100000000E-03 0. -1.
         23    2    1    0    0    0  0.96259756938E+01 -0.13349675455E+02  0.21635117036E+02  0.97816337039E+02  0.93963206947E+02 0.  0.
         11    1    3    3    0    0 -0.15387641653E+02 -0.26928940447E+02 -0.27226094792E+02  0.41269935632E+02  0.51100000000E-03 0.  1.
         22    1    1    0    0    0 -0.96259756938E+01  0.13349675455E+02 -0.21635117036E+02  0.27183662961E+02  0.00000000000E+00 0. -1.
</event>
<event>
 5    1  0.8907853E-005  0.9118800E+02  0.7818608E-02  0.1130116E+00
         25   -1    0    0    0    0  0.00000000000E+00  0.00000000000E+00  0.99999998245E-14  0.12500000000E+03  0.12500000000E+03 0.  0.
        -11    1    3    3    0    0  0.24527230982E+02 -0.12888912459E+02 -0.23921578117E+02  0.36605341467E+02  0.51100000000E-03 0. -1.
         23    2    1    0    0    0  0.18786145760E+02 -0.73805223021E+01  0.28748823427E+02  0.89873283239E+02  0.82724366482E+02 0.  0.
         11    1    3    3    0    0 -0.57410852213E+01  0.55083901565E+01  0.52670401544E+02  0.53267941773E+02  0.51100000000E-03 0.  1.
         22    1    1    0    0    0 -0.18786145760E+02  0.73805223021E+01 -0.28748823427E+02  0.35126716761E+02  0.00000000000E+00 0.  1.
</event>
<event>
 5    1  0.8907853E-005  0.9118800E+02  0.7818608E-02  0.1130116E+00
         25   -1    0    0    0    0  0.00000000000E+00  0.00000000000E+00  0.99999998245E-14  0.12500000000E+03  0.12500000000E+03 0.  0.
        -11    1    3    3    0    0 -0.39388314130E+02 -0.17028122702E+02  0.21193686815E+02  0.47859885226E+02  0.51100000000E-03 0.  1.
         23    2    1    0    0    0 -0.21484587876E+02  0.42329205925E+01 -0.18510912932E+02  0.96326684347E+02  0.91960160324E+02 0.  0.
         11    1    3    3    0    0  0.17903726254E+02  0.21261043294E+02 -0.39704599747E+02  0.48466799121E+02  0.51100000000E-03 0. -1.
         22    1    1    0    0    0  0.21484587876E+02 -0.42329205925E+01  0.18510912932E+02  0.28673315653E+02  0.00000000000E+00 0.  1.
</event>
<event>
 5    1  0.8907853E-005  0.9118800E+02  0.7818608E-02  0.1130116E+00
         25   -1    0    0    0    0  0.00000000000E+00  0.00000000000E+00  0.99999998245E-14  0.12500000000E+03  0.12500000000E+03 0.  0.
        -11    1    3    3    0    0  0.26161823718E+01 -0.18835171978E+02 -0.59192169951E+01  0.19915954503E+02  0.51100000000E-03 0.  1.
         23    2    1    0    0    0 -0.24360868172E+02  0.29329375420E+02 -0.26211427105E+02  0.78732267491E+02  0.63702958116E+02 0.  0.
         11    1    3    3    0    0 -0.26977050543E+02  0.48164547399E+02 -0.20292210110E+02  0.58816312988E+02  0.51100000000E-03 0. -1.
         22    1    1    0    0    0  0.24360868172E+02 -0.29329375420E+02  0.26211427105E+02  0.46267732509E+02  0.00000000000E+00 0. -1.
</event>
<event>
 5    1  0.8907853E-005  0.9118800E+02  0.7818608E-02  0.1130116E+00
         25   -1    0    0    0    0  0.00000000000E+00  0.00000000000E+00  0.99999998245E-14  0.12500000000E+03  0.12500000000E+03 0.  0.
        -11    1    3    3    0    0  0.17243377910E+02 -0.27826025465E+02 -0.18692128812E+02  0.37696385167E+02  0.51100000000E-03 0.  1.
         23    2    1    0    0    0 -0.29101111487E+02  0.14847982108E+01  0.67971418647E+00  0.95853107766E+02  0.91314166160E+02 0.  0.
         11    1    3    3    0    0 -0.46344489397E+02  0.29310823676E+02  0.19371842998E+02  0.58156722599E+02  0.51100000000E-03 0. -1.
         22    1    1    0    0    0  0.29101111487E+02 -0.14847982108E+01 -0.67971418647E+00  0.29146892234E+02  0.00000000000E+00 0. -1.
</event>
<event>
 5    1  0.8907853E-005  0.9118800E+02  0.7818608E-02  0.1130116E+00
         25   -1    0    0    0    0  0.00000000000E+00  0.00000000000E+00  0.99999998245E-14  0.12500000000E+03  0.12500000000E+03 0.  0.
        -11    1    3    3    0    0  0.32470958600E+02  0.15662070279E+02  0.38489115053E+01  0.36255726691E+02  0.51100000000E-03 0.  1.
         23    2    1    0    0    0 -0.11675821789E+02 -0.96292096792E+01 -0.25760640260E+02  0.95122632645E+02  0.90308682646E+02 0.  0.
         11    1    3    3    0    0 -0.44146780389E+02 -0.25291279958E+02 -0.29609551765E+02  0.58866905954E+02  0.51100000000E-03 0. -1.
         22    1    1    0    0    0  0.11675821789E+02  0.96292096792E+01  0.25760640260E+02  0.29877367355E+02  0.00000000000E+00 0. -1.
</event>
<event>
 5    1  0.8907853E-005  0.9118800E+02  0.7818608E-02  0.1130116E+00
         25   -1    0    0    0    0  0.00000000000E+00  0.00000000000E+00  0.99999998245E-14  0.12500000000E+03  0.12500000000E+03 0.  0.
        -11    1    3    3    0    0  0.11057778891E+02 -0.21621676314E+02  0.37579037359E+02  0.44743216355E+02  0.51100000000E-03 0.  1.
         23    2    1    0    0    0  0.15091640534E+02 -0.24084894374E+02 -0.11711005083E+02  0.94259352787E+02  0.89105769716E+02 0.  0.
         11    1    3    3    0    0  0.40338616436E+01 -0.24632180594E+01 -0.49290042442E+02  0.49516136432E+02  0.51100000000E-03 0. -1.
         22    1    1    0    0    0 -0.15091640534E+02  0.24084894374E+02  0.11711005083E+02  0.30740647213E+02  0.00000000000E+00 0. -1.
</event>
<event>
 5    1  0.8907853E-005  0.9118800E+02  0.7818608E-02  0.1130116E+00
         25   -1    0    0    0    0  0.00000000000E+00  0.00000000000E+00  0.99999998245E-14  0.12500000000E+03  0.12500000000E+03 0.  0.
        -11    1    3    3    0    0  0.32382701745E+02  0.43724731181E+02 -0.60368045666E+00  0.54413747523E+02  0.51100000000E-03 0. -1.
         23    2    1    0    0    0  0.29559004191E+02  0.33329420249E+01  0.31983820920E+01  0.95082231378E+02  0.90252744249E+02 0.  0.
         11    1    3    3    0    0 -0.28236975541E+01 -0.40391789156E+02  0.38020625487E+01  0.40668483854E+02  0.51100000000E-03 0.  1.
         22    1    1    0    0    0 -0.29559004191E+02 -0.33329420249E+01 -0.31983820920E+01  0.29917768622E+02  0.00000000000E+00 0.  1.
</event>
<event>
 5    1  0.8907853E-005  0.9118800E+02  0.7818608E-02  0.1130116E+00
         25   -1    0    0    0    0  0.00000000000E+00  0.00000000000E+00  0.99999998245E-14  0.12500000000E+03  0.12500000000E+03 0.  0.
        -11    1    3    3    0    0 -0.18441132818E+02  0.15028610054E+02  0.28441581623E+02  0.37079078539E+02  0.51100000000E-03 0. -1.
         23    2    1    0    0    0  0.85020913514E+01  0.14674866791E+02 -0.23750072659E+02  0.95816045093E+02  0.91263416949E+02 0.  0.
         11    1    3    3    0    0  0.26943224169E+02 -0.35374326285E+00 -0.52191654283E+02  0.58736966554E+02  0.51100000000E-03 0.  1.
         22    1    1    0    0    0 -0.85020913514E+01 -0.14674866791E+02  0.23750072659E+02  0.29183954907E+02  0.00000000000E+00 0.  1.
</event>
<event>
 5    1  0.8907853E-005  0.9118800E+02  0.7818608E-02  0.1130116E+00
         25   -1    0    0    0    0  0.00000000000E+00  0.00000000000E+00  0.99999998245E-14  0.12500000000E+03  0.12500000000E+03 0.  0.
        -11    1    3    3    0    0 -0.61786410750E+01 -0.13374148811E+02  0.22377132136E+02  0.26791407295E+02  0.51100000000E-03 0.  1.
         23    2    1    0    0    0 -0.10717929240E+02  0.21234137193E+02 -0.28114620505E+02  0.88173454199E+02  0.80114689974E+02 0.  0.
         11    1    3    3    0    0 -0.45392881647E+01  0.34608286004E+02 -0.50491752641E+02  0.61382046904E+02  0.51100000000E-03 0. -1.
         22    1    1    0    0    0  0.10717929240E+02 -0.21234137193E+02  0.28114620505E+02  0.36826545801E+02  0.00000000000E+00 0. -1.
</event>
<event>
 5    1  0.8907853E-005  0.9118800E+02  0.7818608E-02  0.1130116E+00
         25   -1    0    0    0    0  0.00000000000E+00  0.00000000000E+00  0.99999998245E-14  0.12500000000E+03  0.12500000000E+03 0.  0.
        -11    1    3    3    0    0 -0.52562304292E+02 -0.13364900434E+02 -0.11506154020E+02  0.55441933378E+02  0.51100000000E-03 0. -1.
         23    2    1    0    0    0 -0.15478467552E+02 -0.35731671554E+01 -0.24381439927E+02  0.95900084292E+02  0.91378449719E+02 0.  0.
         11    1    3    3    0    0  0.37083836740E+02  0.97917332783E+01 -0.12875285907E+02  0.40458150914E+02  0.51100000000E-03 0.  1.
         22    1    1    0    0    0  0.15478467552E+02  0.35731671554E+01  0.24381439927E+02  0.29099915708E+02  0.00000000000E+00 0. -1.
</event>
<event>
 5    1  0.8907853E-005  0.9118800E+02  0.7818608E-02  0.1130116E+00
         25   -1    0    0    0    0  0.00000000000E+00  0.00000000000E+00  0.99999998245E-14  0.12500000000E+03  0.12500000000E+03 0.  0.
        -11    1    3    3    0    0 -0.51671425729E+02 -0.26777638665E+02 -0.15190729632E+02  0.60147622034E+02  0.51100000000E-03 0. -1.
         23    2    1    0    0    0 -0.27385966303E+02 -0.68791497214E+00 -0.71771488924E+01  0.96680821983E+02  0.92440280699E+02 0.  0.
         11    1    3    3    0    0  0.24285459427E+02  0.26089723693E+02  0.80135807399E+01  0.36533199948E+02  0.51100000000E-03 0.  1.
         22    1    1    0    0    0  0.27385966303E+02  0.68791497214E+00  0.71771488924E+01  0.28319178017E+02  0.00000000000E+00 0. -1.
</event>
<event>
 5    1  0.8907853E-005  0.9118800E+02  0.7818608E-02  0.1130116E+00
         25   -1    0    0    0    0  0.00000000000E+00  0.00000000000E+00  0.99999998245E-14  0.12500000000E+03  0.12500000000E+03 0.  0.
        -11    1    3    3    0    0  0.26698652935E+02  0.20962484486E+02  0.85769865795E+01  0.35011548429E+02  0.51100000000E-03 0.  1.
         23    2    1    0    0    0 -0.14500689236E+02 -0.16323066192E+02 -0.18090415829E+02  0.96645536100E+02  0.92392553947E+02 0.  0.
         11    1    3    3    0    0 -0.41199342171E+02 -0.37285550678E+02 -0.26667402408E+02  0.61633987670E+02  0.51100000000E-03 0. -1.
         22    1    1    0    0    0  0.14500689236E+02  0.16323066192E+02  0.18090415829E+02  0.28354463900E+02  0.00000000000E+00 0. -1.
</event>
<event>
 5    1  0.8907853E-005  0.9118800E+02  0.7818608E-02  0.1130116E+00
         25   -1    0    0    0    0  0.00000000000E+00  0.00000000000E+00  0.99999998245E-14  0.12500000000E+03  0.12500000000E+03 0.  0.
        -11    1    3    3    0    0 -0.19901289103E+02  0.35770371050E+02 -0.37395703239E+02  0.55443839820E+02  0.51100000000E-03 0. -1.
         23    2    1    0    0    0 -0.26743148379E+02  0.10189811271E+02 -0.74305323967E+01  0.95432432453E+02  0.90736476200E+02 0.  0.
         11    1    3    3    0    0 -0.68418592755E+01 -0.25580559778E+02  0.29965170842E+02  0.39988592633E+02  0.51100000000E-03 0.  1.
         22    1    1    0    0    0  0.26743148379E+02 -0.10189811271E+02  0.74305323967E+01  0.29567567547E+02  0.00000000000E+00 0. -1.
</event>
<event>
 5    1  0.8907853E-005  0.9118800E+02  0.7818608E-02  0.1130116E+00
         25   -1    0    0    0    0  0.00000000000E+00  0.00000000000E+00  0.99999998245E-14  0.12500000000E+03  0.12500000000E+03 0.  0.
        -11    1    3    3    0    0  0.44567735885E+02  0.56461610734E+01  0.40015008505E+02  0.60161142963E+02  0.51100000000E-03 0. -1.
         23    2    1    0    0    0  0.20211842610E+02 -0.94848402003E+01  0.18384177776E+02  0.96078403090E+02  0.91622053964E+02 0.  0.
         11    1    3    3    0    0 -0.24355893275E+02 -0.15131001274E+02 -0.21630830729E+02  0.35917260127E+02  0.51100000000E-03 0.  1.
         22    1    1    0    0    0 -0.20211842610E+02  0.94848402003E+01 -0.18384177776E+02  0.28921596910E+02  0.00000000000E+00 0. -1.
</event>
<event>
 5    1  0.8907853E-005  0.9118800E+02  0.7818608E-02  0.1130116E+00
         25   -1    0    0    0    0  0.00000000000E+00  0.00000000000E+00  0.99999998245E-14  0.12500000000E+03  0.12500000000E+03 0.  0.
        -11    1    3    3    0    0 -0.16490236976E+02  0.20488485345E+02 -0.34592526148E+02  0.43455135632E+02  0.51100000000E-03 0. -1.
         23    2    1    0    0    0 -0.21007249888E+01  0.26003297985E+02  0.14668969094E+02  0.95070696535E+02  0.90236767085E+02 0.  0.
         11    1    3    3    0    0  0.14389511987E+02  0.55148126402E+01  0.49261495241E+02  0.51615560903E+02  0.51100000000E-03 0.  1.
         22    1    1    0    0    0  0.21007249888E+01 -0.26003297985E+02 -0.14668969094E+02  0.29929303465E+02  0.00000000000E+00 0.  1.
</event>
<event>
 5    1  0.8907853E-005  0.9118800E+02  0.7818608E-02  0.1130116E+00
         25   -1    0    0    0    0  0.00000000000E+00  0.00000000000E+00  0.99999998245E-14  0.12500000000E+03  0.12500000000E+03 0.  0.
        -11    1    3    3    0    0  0.35969212235E+02  0.14426239254E+01 -0.73184938365E+01  0.36734530689E+02  0.51100000000E-03 0.  1.
         23    2    1    0    0    0 -0.13482259737E+02 -0.31597867117E+01  0.25303445563E+02  0.96155244202E+02  0.91726828411E+02 0.  0.
         11    1    3    3    0    0 -0.49451471973E+02 -0.46024106370E+01  0.32621939400E+02  0.59420713513E+02  0.51100000000E-03 0. -1.
         22    1    1    0    0    0  0.13482259737E+02  0.31597867117E+01 -0.25303445563E+02  0.28844755798E+02  0.00000000000E+00 0. -1.
</event>
<event>
 5    1  0.8907853E-005  0.9118800E+02  0.7818608E-02  0.1130116E+00
         25   -1    0    0    0    0  0.00000000000E+00  0.00000000000E+00  0.99999998245E-14  0.12500000000E+03  0.12500000000E+03 0.  0.
        -11    1    3    3    0    0  0.15296627021E+01 -0.30741136666E+02 -0.49082948020E+02  0.57935249530E+02  0.51100000000E-03 0. -1.
         23    2    1    0    0    0  0.10240806225E+02 -0.36713043930E+01 -0.32212778769E+02  0.90999769058E+02  0.84409373085E+02 0.  0.
         11    1    3    3    0    0  0.87111435229E+01  0.27069832273E+02  0.16870169252E+02  0.33064519528E+02  0.51100000000E-03 0.  1.
         22    1    1    0    0    0 -0.10240806225E+02  0.36713043930E+01  0.32212778769E+02  0.34000230942E+02  0.00000000000E+00 0. -1.
</event>
<event>
 5    1  0.8907853E-005  0.9118800E+02  0.7818608E-02  0.1130116E+00
         25   -1    0    0    0    0  0.00000000000E+00  0.00000000000E+00  0.99999998245E-14  0.12500000000E+03  0.12500000000E+03 0.  0.
        -11    1    3    3    0    0 -0.23738560092E+02 -0.12638987551E+02 -0.32194963322E+02  0.41949718773E+02  0.51100000000E-03 0.  1.
         23    2    1    0    0    0  0.25688998872E+02 -0.17056715359E+01 -0.13631347934E+02  0.95868442800E+02  0.91335155882E+02 0.  0.
         11    1    3    3    0    0  0.49427558964E+02  0.10933316015E+02  0.18563615388E+02  0.53918724027E+02  0.51100000000E-03 0. -1.
         22    1    1    0    0    0 -0.25688998872E+02  0.17056715359E+01  0.13631347934E+02  0.29131557200E+02  0.00000000000E+00 0.  1.
</event>
<event>
 5    1  0.8907853E-005  0.9118800E+02  0.7818608E-02  0.1130116E+00
         25   -1    0    0    0    0  0.00000000000E+00  0.00000000000E+00  0.99999998245E-14  0.12500000000E+03  0.12500000000E+03 0.  0.
        -11    1    3    3    0    0  0.21959802382E+02  0.43842575655E+02 -0.15061822524E+02  0.51295836661E+02  0.51100000000E-03 0.  1.
         23    2    1    0    0    0  0.21545475446E+02  0.13030367463E+00 -0.20392485122E+02  0.95333892390E+02  0.90600624157E+02 0.  0.
         11    1    3    3    0    0 -0.41432693629E+00 -0.43712271980E+02 -0.53306625983E+01  0.44038055730E+02  0.51100000000E-03 0. -1.
         22    1    1    0    0    0 -0.21545475446E+02 -0.13030367463E+00  0.20392485122E+02  0.29666107610E+02  0.00000000000E+00 0.  1.
</event>
<event>
 5    1  0.8907853E-005  0.9118800E+02  0.7818608E-02  0.1130116E+00
         25   -1    0    0    0    0  0.00000000000E+00  0.00000000000E+00  0.99999998245E-14  0.12500000000E+03  0.12500000000E+03 0.  0.
        -11    1    3    3    0    0 -0.31937078337E+02 -0.16953688079E+02  0.49597970788E+02  0.61378849930E+02  0.51100000000E-03 0. -1.
         23    2    1    0    0    0 -0.21436265512E+02 -0.96292818321E+01  0.18232230206E+02  0.95256920704E+02  0.90494365438E+02 0.  0.
         11    1    3    3    0    0  0.10500812825E+02  0.73244062467E+01 -0.31365740582E+02  0.33878070774E+02  0.51100000000E-03 0.  1.
         22    1    1    0    0    0  0.21436265512E+02  0.96292818321E+01 -0.18232230206E+02  0.29743079296E+02  0.00000000000E+00 0. -1.
</event>
<event>
 5    1  0.8907853E-005  0.9118800E+02  0.7818608E-02  0.1130116E+00
         25   -1    0    0    0    0  0.00000000000E+00  0.00000000000E+00  0.99999998245E-14  0.12500000000E+03  0.12500000000E+03 0.  0.
        -11    1    3    3    0    0 -0.34452117992E+02  0.22467987756E+02 -0.29836084455E+02  0.50812900368E+02  0.51100000000E-03 0. -1.
         23    2    1    0    0    0 -0.24977208143E+02  0.87195523284E+01  0.12068727346E+02  0.95921731496E+02  0.91408056943E+02 0.  0.
         11    1    3    3    0    0  0.94749098495E+01 -0.13748435428E+02  0.41904811801E+02  0.45108831128E+02  0.51100000000E-03 0.  1.
         22    1    1    0    0    0  0.24977208143E+02 -0.87195523284E+01 -0.12068727346E+02  0.29078268504E+02  0.00000000000E+00 0. -1.
</event>
<event>
 5    1  0.8907853E-005  0.9118800E+02  0.7818608E-02  0.1130116E+00
         25   -1    0    0    0    0  0.00000000000E+00  0.00000000000E+00  0.99999998245E-14  0.12500000000E+03  0.12500000000E+03 0.  0.
        -11    1    3    3    0    0 -0.21491938269E+02  0.30969746544E+02 -0.56176290763E+01  0.38112811077E+02  0.51100000000E-03 0.  1.
         23    2    1    0    0    0  0.27866181609E+02  0.19077218577E+02  0.71863502980E+01  0.90473083301E+02  0.83625778474E+02 0.  0.
         11    1    3    3    0    0  0.49358119878E+02 -0.11892527966E+02  0.12803979374E+02  0.52360272224E+02  0.51100000000E-03 0. -1.
         22    1    1    0    0    0 -0.27866181609E+02 -0.19077218577E+02 -0.71863502980E+01  0.34526916699E+02  0.00000000000E+00 0.  1.
</event>
<event>
 5    1  0.8907853E-005  0.9118800E+02  0.7818608E-02  0.1130116E+00
         25   -1    0    0    0    0  0.00000000000E+00  0.00000000000E+00  0.99999998245E-14  0.12500000000E+03  0.12500000000E+03 0.  0.
        -11    1    3    3    0    0  0.17731597780E+02 -0.53619954895E+02  0.25740071111E+01  0.56534366854E+02  0.51100000000E-03 0. -1.
         23    2    1    0    0    0  0.16745773531E+02 -0.20348314224E+02 -0.15515919787E+02  0.94418656181E+02  0.89328965321E+02 0.  0.
         11    1    3    3    0    0 -0.98582424839E+00  0.33271640670E+02 -0.18089926898E+02  0.37884289327E+02  0.51100000000E-03 0.  1.
         22    1    1    0    0    0 -0.16745773531E+02  0.20348314224E+02  0.15515919787E+02  0.30581343819E+02  0.00000000000E+00 0. -1.
</event>
<event>
 5    1  0.8907853E-005  0.9118800E+02  0.7818608E-02  0.1130116E+00
         25   -1    0    0    0    0  0.00000000000E+00  0.00000000000E+00  0.99999998245E-14  0.12500000000E+03  0.12500000000E+03 0.  0.
        -11    1    3    3    0    0 -0.51234507633E+02 -0.15352093933E+02 -0.66221680644E+01  0.53893549435E+02  0.51100000000E-03 0.  1.
         23    2    1    0    0    0 -0.22684541836E+02  0.74318767800E+01 -0.21056746046E+02  0.93169075024E+02  0.87562941682E+02 0.  0.
         11    1    3    3    0    0  0.28549965797E+02  0.22783970713E+02 -0.14434577982E+02  0.39275525589E+02  0.51100000000E-03 0. -1.
         22    1    1    0    0    0  0.22684541836E+02 -0.74318767800E+01  0.21056746046E+02  0.31830924976E+02  0.00000000000E+00 0.  1.
</event>
<event>
 5    1  0.8907853E-005  0.9118800E+02  0.7818608E-02  0.1130116E+00
         25   -1    0    0    0    0  0.00000000000E+00  0.00000000000E+00  0.99999998245E-14  0.12500000000E+03  0.12500000000E+03 0.  0.
        -11    1    3    3    0    0 -0.34687860712E+02  0.45998729526E+02  0.18789236805E+02  0.60598401124E+02  0.51100000000E-03 0.  1.
         23    2    1    0    0    0 -0.15747502090E+02  0.25171094873E+02 -0.14545990737E+01  0.95273182181E+02  0.90516824653E+02 0.  0.
         11    1    3    3    0    0  0.18940358622E+02 -0.20827634653E+02 -0.20243835879E+02  0.34674781057E+02  0.51100000000E-03 0. -1.
         22    1    1    0    0    0  0.15747502090E+02 -0.25171094873E+02  0.14545990737E+01  0.29726817819E+02  0.00000000000E+00 0.  1.
</event>
<event>
 5    1  0.8907853E-005  0.9118800E+02  0.7818608E-02  0.1130116E+00
         25   -1    0    0    0    0  0.00000000000E+00  0.00000000000E+00  0.99999998245E-14  0.12500000000E+03  0.12500000000E+03 0.  0.
        -11    1    3    3    0    0 -0.37790971325E+02  0.11236010392E+02 -0.37494859194E+02  0.54408362495E+02  0.51100000000E-03 0. -1.
         23    2    1    0    0    0 -0.13103465290E+02 -0.17216270346E+02 -0.18174954329E+02  0.96743501065E+02  0.92524998061E+02 0.  0.
         11    1    3    3    0    0  0.24687506035E+02 -0.28452280738E+02  0.19319904865E+02  0.42335138569E+02  0.51100000000E-03 0.  1.
         22    1    1    0    0    0  0.13103465290E+02  0.17216270346E+02  0.18174954329E+02  0.28256498935E+02  0.00000000000E+00 0. -1.
</event>
<event>
 5    1  0.8907853E-005  0.9118800E+02  0.7818608E-02  0.1130116E+00
         25   -1    0    0    0    0  0.00000000000E+00  0.00000000000E+00  0.99999998245E-14  0.12500000000E+03  0.12500000000E+03 0.  0.
        -11    1    3    3    0    0 -0.23188726700E+02 -0.30932857042E+02 -0.18646936461E+02  0.42921637089E+02  0.51100000000E-03 0.  1.
         23    2    1    0    0    0  0.23966875852E+02 -0.12335596549E+02 -0.15940647304E+02  0.93684152306E+02  0.88295175839E+02 0.  0.
         11    1    3    3    0    0  0.47155602552E+02  0.18597260493E+02  0.27062891572E+01  0.50762515217E+02  0.51100000000E-03 0. -1.
         22    1    1    0    0    0 -0.23966875852E+02  0.12335596549E+02  0.15940647304E+02  0.31315847694E+02  0.00000000000E+00 0. -1.
</event>
<event>
 5    1  0.8907853E-005  0.9118800E+02  0.7818608E-02  0.1130116E+00
         25   -1    0    0    0    0  0.00000000000E+00  0.00000000000E+00  0.99999998245E-14  0.12500000000E+03  0.12500000000E+03 0.  0.
        -11    1    3    3    0    0  0.30013460681E+02 -0.55727809521E+01 -0.50248923692E+02  0.58794711004E+02  0.51100000000E-03 0.  1.
         23    2    1    0    0    0 -0.52771851034E+00 -0.34182364908E+01 -0.28355940133E+02  0.96433898265E+02  0.92105779223E+02 0.  0.
         11    1    3    3    0    0 -0.30541179191E+02  0.21545444613E+01  0.21892983560E+02  0.37639187261E+02  0.51100000000E-03 0. -1.
         22    1    1    0    0    0  0.52771851034E+00  0.34182364908E+01  0.28355940133E+02  0.28566101735E+02  0.00000000000E+00 0.  1.
</event>
<event>
 5    1  0.8907853E-005  0.9118800E+02  0.7818608E-02  0.1130116E+00
         25   -1    0    0    0    0  0.00000000000E+00  0.00000000000E+00  0.99999998245E-14  0.12500000000E+03  0.12500000000E+03 0.  0.
        -11    1    3    3    0    0  0.20666734872E+02 -0.32668501054E+02 -0.10981040332E+01  0.38672350899E+02  0.51100000000E-03 0.  1.
         23    2    1    0    0    0 -0.26212011433E+02 -0.41261877560E+01  0.13163872899E+02  0.95379356549E+02  0.90663328514E+02 0.  0.
         11    1    3    3    0    0 -0.46878746305E+02  0.28542313298E+02  0.14261976932E+02  0.56707005650E+02  0.51100000000E-03 0. -1.
         22    1    1    0    0    0  0.26212011433E+02  0.41261877560E+01 -0.13163872899E+02  0.29620643451E+02  0.00000000000E+00 0. -1.
</event>
<event>
 5    1  0.8907853E-005  0.9118800E+02  0.7818608E-02  0.1130116E+00
         25   -1    0    0    0    0  0.00000000000E+00  0.00000000000E+00  0.99999998245E-14  0.12500000000E+03  0.12500000000E+03 0.  0.
        -11    1    3    3    0    0  0.55777256324E+02  0.17363807432E+01  0.20720880251E+01  0.55842733548E+02  0.51100000000E-03 0. -1.
         23    2    1    0    0    0  0.23736678659E+02  0.99882390936E+01 -0.17104636357E+02  0.94084576360E+02  0.88860250337E+02 0.  0.
         11    1    3    3    0    0 -0.32040577665E+02  0.82518583503E+01 -0.19176724382E+02  0.38241842812E+02  0.51100000000E-03 0.  1.
         22    1    1    0    0    0 -0.23736678659E+02 -0.99882390936E+01  0.17104636357E+02  0.30915423640E+02  0.00000000000E+00 0.  1.
</event>
<event>
 5    1  0.8907853E-005  0.9118800E+02  0.7818608E-02  0.1130116E+00
         25   -1    0    0    0    0  0.00000000000E+00  0.00000000000E+00  0.99999998245E-14  0.12500000000E+03  0.12500000000E+03 0.  0.
        -11    1    3    3    0    0 -0.31392464138E+02  0.21921890100E+02 -0.24384497557E+02  0.45394490762E+02  0.51100000000E-03 0. -1.
         23    2    1    0    0    0 -0.32146538894E+02 -0.15525144030E+02 -0.15368262037E+01  0.89267775121E+02  0.81804301722E+02 0.  0.
         11    1    3    3    0    0 -0.75407475629E+00 -0.37447034131E+02  0.22847671353E+02  0.43873284359E+02  0.51100000000E-03 0.  1.
         22    1    1    0    0    0  0.32146538894E+02  0.15525144030E+02  0.15368262037E+01  0.35732224879E+02  0.00000000000E+00 0. -1.
</event>
<event>
 5    1  0.8907853E-005  0.9118800E+02  0.7818608E-02  0.1130116E+00
         25   -1    0    0    0    0  0.00000000000E+00  0.00000000000E+00  0.99999998245E-14  0.12500000000E+03  0.12500000000E+03 0.  0.
        -11    1    3    3    0    0 -0.59253337647E+02  0.62176061895E+00  0.13717221191E+02  0.60823570810E+02  0.51100000000E-03 0.  1.
         23    2    1    0    0    0 -0.31782870429E+02  0.51509171018E+01 -0.19008998291E+01  0.92746376640E+02  0.86957427285E+02 0.  0.
         11    1    3    3    0    0  0.27470467218E+02  0.45291564828E+01 -0.15618121020E+02  0.31922805831E+02  0.51100000000E-03 0. -1.
         22    1    1    0    0    0  0.31782870429E+02 -0.51509171018E+01  0.19008998291E+01  0.32253623360E+02  0.00000000000E+00 0.  1.
</event>
<event>
 5    1  0.8907853E-005  0.9118800E+02  0.7818608E-02  0.1130116E+00
         25   -1    0    0    0    0  0.00000000000E+00  0.00000000000E+00  0.99999998245E-14  0.12500000000E+03  0.12500000000E+03 0.  0.
        -11    1    3    3    0    0 -0.37057202329E+02 -0.42498621215E+01 -0.20656998957E+02  0.42638118845E+02  0.51100000000E-03 0. -1.
         23    2    1    0    0    0 -0.65107196447E+01  0.28775880225E+02  0.59482958314E+01  0.94903106867E+02  0.90004314989E+02 0.  0.
         11    1    3    3    0    0  0.30546482684E+02  0.33025742346E+02  0.26605294788E+02  0.52264988022E+02  0.51100000000E-03 0.  1.
         22    1    1    0    0    0  0.65107196447E+01 -0.28775880225E+02 -0.59482958314E+01  0.30096893133E+02  0.00000000000E+00 0.  1.
</event>
<event>
 5    1  0.8907853E-005  0.9118800E+02  0.7818608E-02  0.1130116E+00
         25   -1    0    0    0    0  0.00000000000E+00  0.00000000000E+00  0.99999998245E-14  0.12500000000E+03  0.12500000000E+03 0.  0.
        -11    1    3    3    0    0  0.36648090547E+02  0.23322842158E+01 -0.22000888238E+02  0.42808424100E+02  0.51100000000E-03 0.  1.
         23    2    1    0    0    0  0.25911133797E+00 -0.30143050147E+02 -0.11748239381E+02  0.92647384349E+02  0.86815010726E+02 0.  0.
         11    1    3    3    0    0 -0.36388979209E+02 -0.32475334363E+02  0.10252648857E+02  0.49838960249E+02  0.51100000000E-03 0. -1.
         22    1    1    0    0    0 -0.25911133797E+00  0.30143050147E+02  0.11748239381E+02  0.32352615651E+02  0.00000000000E+00 0. -1.
</event>
<event>
 5    1  0.8907853E-005  0.9118800E+02  0.7818608E-02  0.1130116E+00
         25   -1    0    0    0    0  0.00000000000E+00  0.00000000000E+00  0.99999998245E-14  0.12500000000E+03  0.12500000000E+03 0.  0.
        -11    1    3    3    0    0  0.35563064727E+02  0.38729704994E+02  0.12441194589E+02  0.54032443446E+02  0.51100000000E-03 0. -1.
         23    2    1    0    0    0  0.26603859712E+02 -0.20751041387E+01  0.11822095046E+02  0.95813815939E+02  0.91260363712E+02 0.  0.
         11    1    3    3    0    0 -0.89592050150E+01 -0.40804809133E+02 -0.61909954286E+00  0.41781372493E+02  0.51100000000E-03 0.  1.
         22    1    1    0    0    0 -0.26603859712E+02  0.20751041387E+01 -0.11822095046E+02  0.29186184061E+02  0.00000000000E+00 0. -1.
</event>
<event>
 5    1  0.8907853E-005  0.9118800E+02  0.7818608E-02  0.1130116E+00
         25   -1    0    0    0    0  0.00000000000E+00  0.00000000000E+00  0.99999998245E-14  0.12500000000E+03  0.12500000000E+03 0.  0.
        -11    1    3    3    0    0 -0.43766227348E+02  0.88503745959E+01 -0.35040651343E+00  0.44653494508E+02  0.51100000000E-03 0. -1.
         23    2    1    0    0    0 -0.84738206510E+00  0.61796064455E+01  0.28100707895E+02  0.96215362146E+02  0.91808717105E+02 0.  0.
         11    1    3    3    0    0  0.42918845283E+02 -0.26707681504E+01  0.28451114408E+02  0.51561867638E+02  0.51100000000E-03 0.  1.
         22    1    1    0    0    0  0.84738206510E+00 -0.61796064455E+01 -0.28100707895E+02  0.28784637854E+02  0.00000000000E+00 0.  1.
</event>
<event>
 5    1  0.8907853E-005  0.9118800E+02  0.7818608E-02  0.1130116E+00
         25   -1    0    0    0    0  0.00000000000E+00  0.00000000000E+00  0.99999998245E-14  0.12500000000E+03  0.12500000000E+03 0.  0.
        -11    1    3    3    0    0 -0.29644298213E+02 -0.40165247745E+02 -0.30735064755E+02  0.58623167338E+02  0.51100000000E-03 0.  1.
         23    2    1    0    0    0 -0.57242979597E+01 -0.29549517215E+02 -0.66804742142E+01  0.94168680040E+02  0.88978480600E+02 0.  0.
         11    1    3    3    0    0  0.23920000254E+02  0.10615730530E+02  0.24054590541E+02  0.35545512701E+02  0.51100000000E-03 0. -1.
         22    1    1    0    0    0  0.57242979597E+01  0.29549517215E+02  0.66804742142E+01  0.30831319960E+02  0.00000000000E+00 0.  1.
</event>
<event>
 5    1  0.8907853E-005  0.9118800E+02  0.7818608E-02  0.1130116E+00
         25   -1    0    0    0    0  0.00000000000E+00  0.00000000000E+00  0.99999998245E-14  0.12500000000E+03  0.12500000000E+03 0.  0.
        -11    1    3    3    0    0 -0.50168836307E+02 -0.41034723892E+01 -0.28606527629E+02  0.57897185124E+02  0.51100000000E-03 0.  1.
         23    2    1    0    0    0 -0.26282517857E+02 -0.85885143191E+01  0.23452614746E+01  0.97250521186E+02  0.93207458373E+02 0.  0.
         11    1    3    3    0    0  0.23886318450E+02 -0.44850419299E+01  0.30951789104E+02  0.39353336062E+02  0.51100000000E-03 0. -1.
         22    1    1    0    0    0  0.26282517857E+02  0.85885143191E+01 -0.23452614746E+01  0.27749478814E+02  0.00000000000E+00 0.  1.
</event>
<event>
 5    1  0.8907853E-005  0.9118800E+02  0.7818608E-02  0.1130116E+00
         25   -1    0    0    0    0  0.00000000000E+00  0.00000000000E+00  0.99999998245E-14  0.12500000000E+03  0.12500000000E+03 0.  0.
        -11    1    3    3    0    0  0.25188165602E+02  0.40326385231E+02  0.23843155977E+02  0.53189821577E+02  0.51100000000E-03 0.  1.
         23    2    1    0    0    0  0.97173032597E+01  0.28287839347E+02 -0.10968977716E+02  0.93141777989E+02  0.87523965274E+02 0.  0.
         11    1    3    3    0    0 -0.15470862343E+02 -0.12038545885E+02 -0.34812133693E+02  0.39951956412E+02  0.51100000000E-03 0. -1.
         22    1    1    0    0    0 -0.97173032597E+01 -0.28287839347E+02  0.10968977716E+02  0.31858222011E+02  0.00000000000E+00 0.  1.
</event>
<event>
 5    1  0.8907853E-005  0.9118800E+02  0.7818608E-02  0.1130116E+00
         25   -1    0    0    0    0  0.00000000000E+00  0.00000000000E+00  0.99999998245E-14  0.12500000000E+03  0.12500000000E+03 0.  0.
        -11    1    3    3    0    0  0.39182110680E+02  0.24984873873E+02 -0.13648073595E+02  0.48432960191E+02  0.51100000000E-03 0.  1.
         23    2    1    0    0    0 -0.48258941244E+01  0.28768995329E+02  0.30844385914E+01  0.95666433770E+02  0.91058269490E+02 0.  0.
         11    1    3    3    0    0 -0.44008004804E+02  0.37841214561E+01  0.16732512186E+02  0.47233473579E+02  0.51100000000E-03 0. -1.
         22    1    1    0    0    0  0.48258941244E+01 -0.28768995329E+02 -0.30844385914E+01  0.29333566230E+02  0.00000000000E+00 0.  1.
</event>
<event>
 5    1  0.8907853E-005  0.9118800E+02  0.7818608E-02  0.1130116E+00
         25   -1    0    0    0    0  0.00000000000E+00  0.00000000000E+00  0.99999998245E-14  0.12500000000E+03  0.12500000000E+03 0.  0.
        -11    1    3    3    0    0  0.48774553798E+02 -0.25845159259E+02  0.16541280252E+02  0.57624155594E+02  0.51100000000E-03 0. -1.
         23    2    1    0    0    0  0.19113387140E+02 -0.39648301643E+01  0.22773299268E+02  0.95005590425E+02  0.90146534078E+02 0.  0.
         11    1    3    3    0    0 -0.29661166657E+02  0.21880329095E+02  0.62320190164E+01  0.37381434831E+02  0.51100000000E-03 0.  1.
         22    1    1    0    0    0 -0.19113387140E+02  0.39648301643E+01 -0.22773299268E+02  0.29994409575E+02  0.00000000000E+00 0. -1.
</event>
<event>
 5    1  0.8907853E-005  0.9118800E+02  0.7818608E-02  0.1130116E+00
         25   -1    0    0    0    0  0.00000000000E+00  0.00000000000E+00  0.99999998245E-14  0.12500000000E+03  0.12500000000E+03 0.  0.
        -11    1    3    3    0    0 -0.70889397342E+01  0.95311946419E+01 -0.50970702178E+02  0.52336499870E+02  0.51100000000E-03 0.  1.
         23    2    1    0    0    0 -0.19878287724E+02  0.19088738518E+02 -0.11092849605E+02  0.95291792828E+02  0.90542521541E+02 0.  0.
         11    1    3    3    0    0 -0.12789347989E+02  0.95575438759E+01  0.39877852574E+02  0.42955292958E+02  0.51100000000E-03 0. -1.
         22    1    1    0    0    0  0.19878287724E+02 -0.19088738518E+02  0.11092849605E+02  0.29708207172E+02  0.00000000000E+00 0.  1.
</event>
<event>
 5    1  0.8907853E-005  0.9118800E+02  0.7818608E-02  0.1130116E+00
         25   -1    0    0    0    0  0.00000000000E+00  0.00000000000E+00  0.99999998245E-14  0.12500000000E+03  0.12500000000E+03 0.  0.
        -11    1    3    3    0    0 -0.21925656859E+02 -0.24504263162E+02  0.36009618180E+02  0.48763571891E+02  0.51100000000E-03 0.  1.
         23    2    1    0    0    0  0.15130277009E+02  0.32143644375E+01  0.23786348748E+02  0.96626635591E+02  0.92366979477E+02 0.  0.
         11    1    3    3    0    0  0.37055933868E+02  0.27718627600E+02 -0.12223269432E+02  0.47863063700E+02  0.51100000000E-03 0. -1.
         22    1    1    0    0    0 -0.15130277009E+02 -0.32143644375E+01 -0.23786348748E+02  0.28373364409E+02  0.00000000000E+00 0.  1.
</event>
<event>
 5    1  0.8907853E-005  0.9118800E+02  0.7818608E-02  0.1130116E+00
         25   -1    0    0    0    0  0.00000000000E+00  0.00000000000E+00  0.99999998245E-14  0.12500000000E+03  0.12500000000E+03 0.  0.
        -11    1    3    3    0    0  0.21957757271E+02  0.35714120015E+02  0.36300251921E+02  0.55455836146E+02  0.51100000000E-03 0.  1.
         23    2    1    0    0    0 -0.59773310657E+01  0.85769275830E+01  0.27773083237E+02  0.95324482718E+02  0.90587640877E+02 0.  0.
         11    1    3    3    0    0 -0.27935088336E+02 -0.27137192432E+02 -0.85271686843E+01  0.39868646572E+02  0.51100000000E-03 0. -1.
         22    1    1    0    0    0  0.59773310657E+01 -0.85769275830E+01 -0.27773083237E+02  0.29675517282E+02  0.00000000000E+00 0.  1.
</event>
<event>
 5    1  0.8907853E-005  0.9118800E+02  0.7818608E-02  0.1130116E+00
         25   -1    0    0    0    0  0.00000000000E+00  0.00000000000E+00  0.99999998245E-14  0.12500000000E+03  0.12500000000E+03 0.  0.
        -11    1    3    3    0    0 -0.23915754948E+02  0.31455341886E+02  0.18101745135E+02  0.43463490945E+02  0.51100000000E-03 0. -1.
         23    2    1    0    0    0 -0.14854589408E+02 -0.20439271655E+02  0.13522798490E+02  0.96341864484E+02  0.91980792131E+02 0.  0.
         11    1    3    3    0    0  0.90611655400E+01 -0.51894613541E+02 -0.45789466457E+01  0.52878373539E+02  0.51100000000E-03 0.  1.
         22    1    1    0    0    0  0.14854589408E+02  0.20439271655E+02 -0.13522798490E+02  0.28658135516E+02  0.00000000000E+00 0.  1.
</event>
<event>
 5    1  0.8907853E-005  0.9118800E+02  0.7818608E-02  0.1130116E+00
         25   -1    0    0    0    0  0.00000000000E+00  0.00000000000E+00  0.99999998245E-14  0.12500000000E+03  0.12500000000E+03 0.  0.
        -11    1    3    3    0    0 -0.56659031374E+01  0.34086981491E+02  0.15242409489E+02  0.37767126086E+02  0.51100000000E-03 0.  1.
         23    2    1    0    0    0  0.26791607690E+02 -0.10399114554E+02 -0.37476167263E+01  0.96017652662E+02  0.91539134612E+02 0.  0.
         11    1    3    3    0    0  0.32457510827E+02 -0.44486096045E+02 -0.18990026216E+02  0.58250526575E+02  0.51100000000E-03 0. -1.
         22    1    1    0    0    0 -0.26791607690E+02  0.10399114554E+02  0.37476167263E+01  0.28982347338E+02  0.00000000000E+00 0. -1.
</event>
<event>
 5    1  0.8907853E-005  0.9118800E+02  0.7818608E-02  0.1130116E+00
         25   -1    0    0    0    0  0.00000000000E+00  0.00000000000E+00  0.99999998245E-14  0.12500000000E+03  0.12500000000E+03 0.  0.
        -11    1    3    3    0    0 -0.36506263859E+02  0.42184787695E+02 -0.25198484159E+02  0.61214599713E+02  0.51100000000E-03 0. -1.
         23    2    1    0    0    0 -0.16210972418E+02  0.26532923462E+02 -0.57699018227E+01  0.93375904421E+02  0.87857703733E+02 0.  0.
         11    1    3    3    0    0  0.20295291441E+02 -0.15651864234E+02  0.19428582336E+02  0.32161304708E+02  0.51100000000E-03 0.  1.
         22    1    1    0    0    0  0.16210972418E+02 -0.26532923462E+02  0.57699018227E+01  0.31624095579E+02  0.00000000000E+00 0. -1.
</event>
<event>
 5    1  0.8907853E-005  0.9118800E+02  0.7818608E-02  0.1130116E+00
         25   -1    0    0    0    0  0.00000000000E+00  0.00000000000E+00  0.99999998245E-14  0.12500000000E+03  0.12500000000E+03 0.  0.
        -11    1    3    3    0    0 -0.28542850726E+02  0.18440645276E+02  0.96767570854E+01  0.35332582041E+02  0.51100000000E-03 0.  1.
         23    2    1    0    0    0  0.20914739399E+02 -0.15811621399E+02  0.13297364507E+02  0.95601809609E+02  0.90969513587E+02 0.  0.
         11    1    3    3    0    0  0.49457590125E+02 -0.34252266675E+02  0.36206074218E+01  0.60269227568E+02  0.51100000000E-03 0. -1.
         22    1    1    0    0    0 -0.20914739399E+02  0.15811621399E+02 -0.13297364507E+02  0.29398190391E+02  0.00000000000E+00 0. -1.
</event>
<event>
 5    1  0.8907853E-005  0.9118800E+02  0.7818608E-02  0.1130116E+00
         25   -1    0    0    0    0  0.00000000000E+00  0.00000000000E+00  0.99999998245E-14  0.12500000000E+03  0.12500000000E+03 0.  0.
        -11    1    3    3    0    0 -0.13293185493E+02  0.15127697314E+02  0.29181864434E+02  0.35456130904E+02  0.51100000000E-03 0.  1.
         23    2    1    0    0    0  0.49842950281E+01  0.11089329892E+02 -0.27383866069E+02  0.95038482093E+02  0.90192131160E+02 0.  0.
         11    1    3    3    0    0  0.18277480521E+02 -0.40383674216E+01 -0.56565730503E+02  0.59582351189E+02  0.51100000000E-03 0. -1.
         22    1    1    0    0    0 -0.49842950281E+01 -0.11089329892E+02  0.27383866069E+02  0.29961517907E+02  0.00000000000E+00 0. -1.
</event>
<event>
 5    1  0.8907853E-005  0.9118800E+02  0.7818608E-02  0.1130116E+00
         25   -1    0    0    0    0  0.00000000000E+00  0.00000000000E+00  0.99999998245E-14  0.12500000000E+03  0.12500000000E+03 0.  0.
        -11    1    3    3    0    0 -0.35114151767E+02  0.14571884005E+02 -0.27945775559E+02  0.47183787784E+02  0.51100000000E-03 0. -1.
         23    2    1    0    0    0  0.10300981104E+02  0.36339068254E+01 -0.29105883651E+02  0.93911932295E+02  0.88617058594E+02 0.  0.
         11    1    3    3    0    0  0.45415132871E+02 -0.10937977179E+02 -0.11601080917E+01  0.46728144512E+02  0.51100000000E-03 0.  1.
         22    1    1    0    0    0 -0.10300981104E+02 -0.36339068254E+01  0.29105883651E+02  0.31088067705E+02  0.00000000000E+00 0. -1.
</event>
<event>
 5    1  0.8907853E-005  0.9118800E+02  0.7818608E-02  0.1130116E+00
         25   -1    0    0    0    0  0.00000000000E+00  0.00000000000E+00  0.99999998245E-14  0.12500000000E+03  0.12500000000E+03 0.  0.
        -11    1    3    3    0    0 -0.21863755306E+02 -0.20289299833E+02 -0.22070922939E+02  0.37105324731E+02  0.51100000000E-03 0.  1.
         23    2    1    0    0    0  0.55455287514E+00  0.29586578853E+02 -0.20518145586E+01  0.95337176127E+02  0.90605154554E+02 0.  0.
         11    1    3    3    0    0  0.22418308181E+02  0.49875878686E+02  0.20019108380E+02  0.58231851396E+02  0.51100000000E-03 0. -1.
         22    1    1    0    0    0 -0.55455287514E+00 -0.29586578853E+02  0.20518145586E+01  0.29662823873E+02  0.00000000000E+00 0. -1.
</event>
<event>
 5    1  0.8907853E-005  0.9118800E+02  0.7818608E-02  0.1130116E+00
         25   -1    0    0    0    0  0.00000000000E+00  0.00000000000E+00  0.99999998245E-14  0.12500000000E+03  0.12500000000E+03 0.  0.
        -11    1    3    3    0    0 -0.76393140035E+01 -0.19210631527E+02  0.42438484181E+02  0.47206275240E+02  0.51100000000E-03 0. -1.
         23    2    1    0    0    0  0.10089178503E+02  0.19736558361E+02  0.17696182908E+02  0.96636676000E+02  0.92380566138E+02 0.  0.
         11    1    3    3    0    0  0.17728492507E+02  0.38947189888E+02 -0.24742301274E+02  0.49430400761E+02  0.51100000000E-03 0.  1.
         22    1    1    0    0    0 -0.10089178503E+02 -0.19736558361E+02 -0.17696182908E+02  0.28363324000E+02  0.00000000000E+00 0. -1.
</event>
<event>
 5    1  0.8907853E-005  0.9118800E+02  0.7818608E-02  0.1130116E+00
         25   -1    0    0    0    0  0.00000000000E+00  0.00000000000E+00  0.99999998245E-14  0.12500000000E+03  0.12500000000E+03 0.  0.
        -11    1    3    3    0    0 -0.15041679340E+02  0.33126655029E+02 -0.27203422923E+02  0.45427454362E+02  0.51100000000E-03 0. -1.
         23    2    1    0    0    0 -0.28001587417E+02 -0.16519493611E+01  0.72060140934E+01  0.96038914494E+02  0.91568163810E+02 0.  0.
         11    1    3    3    0    0 -0.12959908077E+02 -0.34778604390E+02  0.34409437016E+02  0.50611460133E+02  0.51100000000E-03 0.  1.
         22    1    1    0    0    0  0.28001587417E+02  0.16519493611E+01 -0.72060140934E+01  0.28961085506E+02  0.00000000000E+00 0.  1.
</event>
<event>
 5    1  0.8907853E-005  0.9118800E+02  0.7818608E-02  0.1130116E+00
         25   -1    0    0    0    0  0.00000000000E+00  0.00000000000E+00  0.99999998245E-14  0.12500000000E+03  0.12500000000E+03 0.  0.
        -11    1    3    3    0    0  0.10040433173E+01 -0.99713156732E+01  0.58600013991E+02  0.59450793765E+02  0.51100000000E-03 0.  1.
         23    2    1    0    0    0  0.58554332277E+01 -0.16472814567E+02  0.22206087880E+02  0.96737833470E+02  0.92517340901E+02 0.  0.
         11    1    3    3    0    0  0.48513899104E+01 -0.65014988937E+01 -0.36393926111E+02  0.37287039705E+02  0.51100000000E-03 0. -1.
         22    1    1    0    0    0 -0.58554332277E+01  0.16472814567E+02 -0.22206087880E+02  0.28262166530E+02  0.00000000000E+00 0.  1.
</event>
<event>
 5    1  0.8907853E-005  0.9118800E+02  0.7818608E-02  0.1130116E+00
         25   -1    0    0    0    0  0.00000000000E+00  0.00000000000E+00  0.99999998245E-14  0.12500000000E+03  0.12500000000E+03 0.  0.
        -11    1    3    3    0    0  0.40924879809E+01 -0.41075085980E+02  0.19745852434E+02  0.45758166863E+02  0.51100000000E-03 0. -1.
         23    2    1    0    0    0  0.99463858844E+01  0.87823640270E+01  0.25467591267E+02  0.96283128391E+02  0.91900936327E+02 0.  0.
         11    1    3    3    0    0  0.58538979035E+01  0.49857450007E+02  0.57217388335E+01  0.50524961528E+02  0.51100000000E-03 0.  1.
         22    1    1    0    0    0 -0.99463858844E+01 -0.87823640270E+01 -0.25467591267E+02  0.28716871609E+02  0.00000000000E+00 0.  1.
</event>
<event>
 5    1  0.8907853E-005  0.9118800E+02  0.7818608E-02  0.1130116E+00
         25   -1    0    0    0    0  0.00000000000E+00  0.00000000000E+00  0.99999998245E-14  0.12500000000E+03  0.12500000000E+03 0.  0.
        -11    1    3    3    0    0 -0.21386979735E+02 -0.55794844949E+02 -0.16179865664E+02  0.61905215274E+02  0.51100000000E-03 0. -1.
         23    2    1    0    0    0 -0.93113679735E+01 -0.25174913341E+02 -0.13568600180E+02  0.94923684632E+02  0.90032889313E+02 0.  0.
         11    1    3    3    0    0  0.12075611761E+02  0.30619931608E+02  0.26112654840E+01  0.33018469358E+02  0.51100000000E-03 0.  1.
         22    1    1    0    0    0  0.93113679735E+01  0.25174913341E+02  0.13568600180E+02  0.30076315368E+02  0.00000000000E+00 0. -1.
</event>
<event>
 5    1  0.8907853E-005  0.9118800E+02  0.7818608E-02  0.1130116E+00
         25   -1    0    0    0    0  0.00000000000E+00  0.00000000000E+00  0.99999998245E-14  0.12500000000E+03  0.12500000000E+03 0.  0.
        -11    1    3    3    0    0 -0.37472337899E+02 -0.92375389938E+01  0.19072330082E+02  0.43049529722E+02  0.51100000000E-03 0.  1.
         23    2    1    0    0    0  0.78227773291E+01 -0.28243157207E+02  0.13848004038E+00  0.95693158633E+02  0.91094948588E+02 0.  0.
         11    1    3    3    0    0  0.45295115228E+02 -0.19005618213E+02 -0.18933850042E+02  0.52643628911E+02  0.51100000000E-03 0. -1.
         22    1    1    0    0    0 -0.78227773291E+01  0.28243157207E+02 -0.13848004038E+00  0.29306841367E+02  0.00000000000E+00 0. -1.
</event>
<event>
 5    1  0.8907853E-005  0.9118800E+02  0.7818608E-02  0.1130116E+00
         25   -1    0    0    0    0  0.00000000000E+00  0.00000000000E+00  0.99999998245E-14  0.12500000000E+03  0.12500000000E+03 0.  0.
        -11    1    3    3    0    0 -0.47135839056E+01 -0.52288961836E+02  0.86648308387E+01  0.53211208376E+02  0.51100000000E-03 0.  1.
         23    2    1    0    0    0  0.19184697374E+02 -0.17934247876E+02  0.13729091778E+02  0.95365934783E+02  0.90644821671E+02 0.  0.
         11    1    3    3    0    0  0.23898281279E+02  0.34354713959E+02  0.50642609398E+01  0.42154726407E+02  0.51100000000E-03 0. -1.
         22    1    1    0    0    0 -0.19184697374E+02  0.17934247876E+02 -0.13729091778E+02  0.29634065217E+02  0.00000000000E+00 0.  1.
</event>
<event>
 5    1  0.8907853E-005  0.9118800E+02  0.7818608E-02  0.1130116E+00
         25   -1    0    0    0    0  0.00000000000E+00  0.00000000000E+00  0.99999998245E-14  0.12500000000E+03  0.12500000000E+03 0.  0.
        -11    1    3    3    0    0  0.17391980654E+02 -0.17783521897E+00 -0.58602400302E+02  0.61128994248E+02  0.51100000000E-03 0.  1.
         23    2    1    0    0    0  0.87617040755E+01 -0.92026472771E+01 -0.25470399967E+02  0.96536032433E+02  0.92244284962E+02 0.  0.
         11    1    3    3    0    0 -0.86302765785E+01 -0.90248120581E+01  0.33132000335E+02  0.35407038184E+02  0.51100000000E-03 0. -1.
         22    1    1    0    0    0 -0.87617040755E+01  0.92026472771E+01  0.25470399967E+02  0.28463967567E+02  0.00000000000E+00 0.  1.
</event>
<event>
 5    1  0.8907853E-005  0.9118800E+02  0.7818608E-02  0.1130116E+00
         25   -1    0    0    0    0  0.00000000000E+00  0.00000000000E+00  0.99999998245E-14  0.12500000000E+03  0.12500000000E+03 0.  0.
        -11    1    3    3    0    0  0.12954822894E+02  0.43767374025E+02  0.19445178162E+02  0.49613762397E+02  0.51100000000E-03 0. -1.
         23    2    1    0    0    0 -0.22296479000E+02  0.15119974237E+02  0.11413693328E+02  0.95742197757E+02  0.91162214975E+02 0.  0.
         11    1    3    3    0    0 -0.35251301894E+02 -0.28647399788E+02 -0.80314848339E+01  0.46128435359E+02  0.51100000000E-03 0.  1.
         22    1    1    0    0    0  0.22296479000E+02 -0.15119974237E+02 -0.11413693328E+02  0.29257802243E+02  0.00000000000E+00 0.  1.
</event>
<event>
 5    1  0.8907853E-005  0.9118800E+02  0.7818608E-02  0.1130116E+00
         25   -1    0    0    0    0  0.00000000000E+00  0.00000000000E+00  0.99999998245E-14  0.12500000000E+03  0.12500000000E+03 0.  0.
        -11    1    3    3    0    0  0.14785832246E+02 -0.12885679606E+02 -0.30994251442E+02  0.36678402321E+02  0.51100000000E-03 0. -1.
         23    2    1    0    0    0  0.15312492537E+02 -0.16931824850E+01  0.26008070742E+02  0.94771552498E+02  0.89821423528E+02 0.  0.
         11    1    3    3    0    0  0.52666029062E+00  0.11192497121E+02  0.57002322184E+02  0.58093150177E+02  0.51100000000E-03 0.  1.
         22    1    1    0    0    0 -0.15312492537E+02  0.16931824850E+01 -0.26008070742E+02  0.30228447502E+02  0.00000000000E+00 0.  1.
</event>
<event>
 5    1  0.8907853E-005  0.9118800E+02  0.7818608E-02  0.1130116E+00
         25   -1    0    0    0    0  0.00000000000E+00  0.00000000000E+00  0.99999998245E-14  0.12500000000E+03  0.12500000000E+03 0.  0.
        -11    1    3    3    0    0  0.25975896854E+02  0.30614484160E+02  0.70283744881E+01  0.40760175490E+02  0.51100000000E-03 0. -1.
         23    2    1    0    0    0 -0.11929334230E+02  0.26804170130E+01 -0.24631714470E+02  0.97500636221E+02  0.93542284851E+02 0.  0.
         11    1    3    3    0    0 -0.37905231084E+02 -0.27934067147E+02 -0.31660088958E+02  0.56740460731E+02  0.51100000000E-03 0.  1.
         22    1    1    0    0    0  0.11929334230E+02 -0.26804170130E+01  0.24631714470E+02  0.27499363779E+02  0.00000000000E+00 0.  1.
</event>
<event>
 5    1  0.8907853E-005  0.9118800E+02  0.7818608E-02  0.1130116E+00
         25   -1    0    0    0    0  0.00000000000E+00  0.00000000000E+00  0.99999998245E-14  0.12500000000E+03  0.12500000000E+03 0.  0.
        -11    1    3    3    0    0  0.29195144112E+02 -0.20160840131E+02  0.93906361948E+01  0.36701498102E+02  0.51100000000E-03 0.  1.
         23    2    1    0    0    0 -0.44946166540E+01  0.10511360966E+02 -0.27431424044E+02  0.95281767998E+02  0.90528680536E+02 0.  0.
         11    1    3    3    0    0 -0.33689760766E+02  0.30672201098E+02 -0.36822060239E+02  0.58580269896E+02  0.51100000000E-03 0. -1.
         22    1    1    0    0    0  0.44946166540E+01 -0.10511360966E+02  0.27431424044E+02  0.29718232002E+02  0.00000000000E+00 0. -1.
</event>
<event>
 5    1  0.8907853E-005  0.9118800E+02  0.7818608E-02  0.1130116E+00
         25   -1    0    0    0    0  0.00000000000E+00  0.00000000000E+00  0.99999998245E-14  0.12500000000E+03  0.12500000000E+03 0.  0.
        -11    1    3    3    0    0  0.14391312855E+02  0.24507464827E+02 -0.31651892450E+02  0.42539017547E+02  0.51100000000E-03 0.  1.
         23    2    1    0    0    0  0.19992905137E+02 -0.21515772867E+02 -0.81445618836E+01  0.94520849320E+02  0.89471852166E+02 0.  0.
         11    1    3    3    0    0  0.56015922820E+01 -0.46023237694E+02  0.23507330566E+02  0.51981831773E+02  0.51100000000E-03 0. -1.
         22    1    1    0    0    0 -0.19992905137E+02  0.21515772867E+02  0.81445618836E+01  0.30479150680E+02  0.00000000000E+00 0.  1.
</event>
<event>
 5    1  0.8907853E-005  0.9118800E+02  0.7818608E-02  0.1130116E+00
         25   -1    0    0    0    0  0.00000000000E+00  0.00000000000E+00  0.99999998245E-14  0.12500000000E+03  0.12500000000E+03 0.  0.
        -11    1    3    3    0    0  0.84524209152E+01  0.34295472426E+02 -0.17231136883E+01  0.35363709779E+02  0.51100000000E-03 0. -1.
         23    2    1    0    0    0  0.13550593530E+02 -0.24427697421E+02  0.97480318584E+01  0.95413599215E+02  0.90710527524E+02 0.  0.
         11    1    3    3    0    0  0.50981726147E+01 -0.58723169847E+02  0.11471145547E+02  0.60049889436E+02  0.51100000000E-03 0.  1.
         22    1    1    0    0    0 -0.13550593530E+02  0.24427697421E+02 -0.97480318584E+01  0.29586400785E+02  0.00000000000E+00 0.  1.
</event>
<event>
 5    1  0.8907853E-005  0.9118800E+02  0.7818608E-02  0.1130116E+00
         25   -1    0    0    0    0  0.00000000000E+00  0.00000000000E+00  0.99999998245E-14  0.12500000000E+03  0.12500000000E+03 0.  0.
        -11    1    3    3    0    0  0.33596616506E+02  0.28745414595E+02 -0.43164769475E+02  0.61791818431E+02  0.51100000000E-03 0. -1.
         23    2    1    0    0    0  0.18038635494E+02  0.75269948905E+01 -0.22100862279E+02  0.95495828497E+02  0.90823769600E+02 0.  0.
         11    1    3    3    0    0 -0.15557981012E+02 -0.21218419704E+02  0.21063907196E+02  0.33704010066E+02  0.51100000000E-03 0.  1.
         22    1    1    0    0    0 -0.18038635494E+02 -0.75269948905E+01  0.22100862279E+02  0.29504171503E+02  0.00000000000E+00 0. -1.
</event>
<event>
 5    1  0.8907853E-005  0.9118800E+02  0.7818608E-02  0.1130116E+00
         25   -1    0    0    0    0  0.00000000000E+00  0.00000000000E+00  0.99999998245E-14  0.12500000000E+03  0.12500000000E+03 0.  0.
        -11    1    3    3    0    0  0.34596242642E+02 -0.19324816909E+02 -0.15223973976E+02  0.42451359665E+02  0.51100000000E-03 0.  1.
         23    2    1    0    0    0  0.53621614814E+01 -0.87439545636E+01  0.27705739614E+02  0.95456514682E+02  0.90769646196E+02 0.  0.
         11    1    3    3    0    0 -0.29234081160E+02  0.10580862345E+02  0.42929713590E+02  0.53005155018E+02  0.51100000000E-03 0. -1.
         22    1    1    0    0    0 -0.53621614814E+01  0.87439545636E+01 -0.27705739614E+02  0.29543485318E+02  0.00000000000E+00 0.  1.
</event>
<event>
 5    1  0.8907853E-005  0.9118800E+02  0.7818608E-02  0.1130116E+00
         25   -1    0    0    0    0  0.00000000000E+00  0.00000000000E+00  0.99999998245E-14  0.12500000000E+03  0.12500000000E+03 0.  0.
        -11    1    3    3    0    0 -0.34778831239E+00  0.85151103655E+01  0.33990033282E+02  0.35042123566E+02  0.51100000000E-03 0.  1.
         23    2    1    0    0    0 -0.15354950401E+02 -0.19111600940E+02 -0.17155295089E+02  0.95077902114E+02  0.90246748022E+02 0.  0.
         11    1    3    3    0    0 -0.15007162089E+02 -0.27626711305E+02 -0.51145328371E+02  0.60035778548E+02  0.51100000000E-03 0. -1.
         22    1    1    0    0    0  0.15354950401E+02  0.19111600940E+02  0.17155295089E+02  0.29922097886E+02  0.00000000000E+00 0. -1.
</event>
<event>
 5    1  0.8907853E-005  0.9118800E+02  0.7818608E-02  0.1130116E+00
         25   -1    0    0    0    0  0.00000000000E+00  0.00000000000E+00  0.99999998245E-14  0.12500000000E+03  0.12500000000E+03 0.  0.
        -11    1    3    3    0    0  0.19912211758E+02  0.37552007482E+02 -0.21975726811E+02  0.47849576928E+02  0.51100000000E-03 0. -1.
         23    2    1    0    0    0  0.27609692284E+02  0.32194044644E+01  0.10064867392E+02  0.95437164738E+02  0.90742995236E+02 0.  0.
         11    1    3    3    0    0  0.76974805263E+01 -0.34332603018E+02  0.32040594202E+02  0.47587587810E+02  0.51100000000E-03 0.  1.
         22    1    1    0    0    0 -0.27609692284E+02 -0.32194044644E+01 -0.10064867392E+02  0.29562835262E+02  0.00000000000E+00 0.  1.
</event>
<event>
 5    1  0.8907853E-005  0.9118800E+02  0.7818608E-02  0.1130116E+00
         25   -1    0    0    0    0  0.00000000000E+00  0.00000000000E+00  0.99999998245E-14  0.12500000000E+03  0.12500000000E+03 0.  0.
        -11    1    3    3    0    0  0.28836674491E+02  0.31382638076E+02 -0.22559178265E+02  0.48221782345E+02  0.51100000000E-03 0.  1.
         23    2    1    0    0    0 -0.85567707061E+01  0.25765477511E+02  0.78426117463E+01  0.96740758763E+02  0.92521293175E+02 0.  0.
         11    1    3    3    0    0 -0.37393445197E+02 -0.56171605648E+01  0.30401790011E+02  0.48518976418E+02  0.51100000000E-03 0. -1.
         22    1    1    0    0    0  0.85567707061E+01 -0.25765477511E+02 -0.78426117463E+01  0.28259241237E+02  0.00000000000E+00 0. -1.
</event>
<event>
 5    1  0.8907853E-005  0.9118800E+02  0.7818608E-02  0.1130116E+00
         25   -1    0    0    0    0  0.00000000000E+00  0.00000000000E+00  0.99999998245E-14  0.12500000000E+03  0.12500000000E+03 0.  0.
        -11    1    3    3    0    0  0.37442994991E+02  0.19535531454E+02  0.28747287071E+02  0.51088368317E+02  0.51100000000E-03 0.  1.
         23    2    1    0    0    0  0.14193692108E+02 -0.16517690102E+02  0.21124082586E+02  0.94659897049E+02  0.89665903565E+02 0.  0.
         11    1    3    3    0    0 -0.23249302883E+02 -0.36053221556E+02 -0.76232044848E+01  0.43571528731E+02  0.51100000000E-03 0. -1.
         22    1    1    0    0    0 -0.14193692108E+02  0.16517690102E+02 -0.21124082586E+02  0.30340102951E+02  0.00000000000E+00 0. -1.
</event>
<event>
 5    1  0.8907853E-005  0.9118800E+02  0.7818608E-02  0.1130116E+00
         25   -1    0    0    0    0  0.00000000000E+00  0.00000000000E+00  0.99999998245E-14  0.12500000000E+03  0.12500000000E+03 0.  0.
        -11    1    3    3    0    0  0.47873179316E+02 -0.24502295868E+02  0.25561174494E+02  0.59544751594E+02  0.51100000000E-03 0. -1.
         23    2    1    0    0    0  0.24144151389E+02  0.18640220345E+01  0.14828046995E+02  0.96604831359E+02  0.92337467151E+02 0.  0.
         11    1    3    3    0    0 -0.23729027927E+02  0.26366317902E+02 -0.10733127499E+02  0.37060079766E+02  0.51100000000E-03 0.  1.
         22    1    1    0    0    0 -0.24144151389E+02 -0.18640220345E+01 -0.14828046995E+02  0.28395168641E+02  0.00000000000E+00 0. -1.
</event>
<event>
 5    1  0.8907853E-005  0.9118800E+02  0.7818608E-02  0.1130116E+00
         25   -1    0    0    0    0  0.00000000000E+00  0.00000000000E+00  0.99999998245E-14  0.12500000000E+03  0.12500000000E+03 0.  0.
        -11    1    3    3    0    0 -0.10254675643E+02 -0.22291008756E+02  0.32153334152E+02  0.40446067068E+02  0.51100000000E-03 0.  1.
         23    2    1    0    0    0  0.27722857055E+02  0.74204264306E+01  0.47409963408E+01  0.95912260693E+02  0.91395104755E+02 0.  0.
         11    1    3    3    0    0  0.37977532698E+02  0.29711435187E+02 -0.27412337811E+02  0.55466193625E+02  0.51100000000E-03 0. -1.
         22    1    1    0    0    0 -0.27722857055E+02 -0.74204264306E+01 -0.47409963408E+01  0.29087739307E+02  0.00000000000E+00 0. -1.
</event>
<event>
 5    1  0.8907853E-005  0.9118800E+02  0.7818608E-02  0.1130116E+00
         25   -1    0    0    0    0  0.00000000000E+00  0.00000000000E+00  0.99999998245E-14  0.12500000000E+03  0.12500000000E+03 0.  0.
        -11    1    3    3    0    0  0.48575001668E+01  0.10234335615E+02  0.32943255553E+02  0.34836690716E+02  0.51100000000E-03 0.  1.
         23    2    1    0    0    0 -0.30725416807E+02  0.55665285590E+01 -0.11288872161E+02  0.91796444274E+02  0.85581020492E+02 0.  0.
         11    1    3    3    0    0 -0.35582916974E+02 -0.46678070565E+01 -0.44232127713E+02  0.56959753558E+02  0.51100000000E-03 0. -1.
         22    1    1    0    0    0  0.30725416807E+02 -0.55665285590E+01  0.11288872161E+02  0.33203555726E+02  0.00000000000E+00 0. -1.
</event>
<event>
 5    1  0.8907853E-005  0.9118800E+02  0.7818608E-02  0.1130116E+00
         25   -1    0    0    0    0  0.00000000000E+00  0.00000000000E+00  0.99999998245E-14  0.12500000000E+03  0.12500000000E+03 0.  0.
        -11    1    3    3    0    0  0.32960898848E+02 -0.80841866817E+01  0.15657251886E+02  0.37375452694E+02  0.51100000000E-03 0.  1.
         23    2    1    0    0    0 -0.71922457974E+01  0.29491761966E+02 -0.31948992964E+00  0.94642225093E+02  0.89641264344E+02 0.  0.
         11    1    3    3    0    0 -0.40153144646E+02  0.37575948648E+02 -0.15976741816E+02  0.57266772399E+02  0.51100000000E-03 0. -1.
         22    1    1    0    0    0  0.71922457974E+01 -0.29491761966E+02  0.31948992964E+00  0.30357774907E+02  0.00000000000E+00 0. -1.
</event>
<event>
 5    1  0.8907853E-005  0.9118800E+02  0.7818608E-02  0.1130116E+00
         25   -1    0    0    0    0  0.00000000000E+00  0.00000000000E+00  0.99999998245E-14  0.12500000000E+03  0.12500000000E+03 0.  0.
        -11    1    3    3    0    0 -0.23434098271E+02 -0.24748064684E+02 -0.40117555031E+02  0.52640686634E+02  0.51100000000E-03 0. -1.
         23    2    1    0    0    0  0.10268670874E+02 -0.89780832207E+00 -0.27215642114E+02  0.95897717667E+02  0.91375212266E+02 0.  0.
         11    1    3    3    0    0  0.33702769145E+02  0.23850256362E+02  0.12901912917E+02  0.43257031033E+02  0.51100000000E-03 0.  1.
         22    1    1    0    0    0 -0.10268670874E+02  0.89780832207E+00  0.27215642114E+02  0.29102282333E+02  0.00000000000E+00 0.  1.
</event>
<event>
 5    1  0.8907853E-005  0.9118800E+02  0.7818608E-02  0.1130116E+00
         25   -1    0    0    0    0  0.00000000000E+00  0.00000000000E+00  0.99999998245E-14  0.12500000000E+03  0.12500000000E+03 0.  0.
        -11    1    3    3    0    0  0.39503259927E+02 -0.15264235015E+02  0.21614465782E+01  0.42404908525E+02  0.51100000000E-03 0.  1.
         23    2    1    0    0    0 -0.59843796222E+01 -0.30174573912E+02 -0.11457078144E+02  0.92173450534E+02  0.86129917180E+02 0.  0.
         11    1    3    3    0    0 -0.45487639549E+02 -0.14910338897E+02 -0.13618524722E+02  0.49768542009E+02  0.51100000000E-03 0. -1.
         22    1    1    0    0    0  0.59843796222E+01  0.30174573912E+02  0.11457078144E+02  0.32826549466E+02  0.00000000000E+00 0. -1.
</event>
<event>
 5    1  0.8907853E-005  0.9118800E+02  0.7818608E-02  0.1130116E+00
         25   -1    0    0    0    0  0.00000000000E+00  0.00000000000E+00  0.99999998245E-14  0.12500000000E+03  0.12500000000E+03 0.  0.
        -11    1    3    3    0    0 -0.26826928217E+02  0.13613156408E+02  0.17973333530E+02  0.35043441945E+02  0.51100000000E-03 0. -1.
         23    2    1    0    0    0  0.10363919213E+02 -0.33272714707E+01 -0.27046239134E+02  0.95845573095E+02  0.91303851363E+02 0.  0.
         11    1    3    3    0    0  0.37190847430E+02 -0.16940427879E+02 -0.45019572664E+02  0.60802131150E+02  0.51100000000E-03 0.  1.
         22    1    1    0    0    0 -0.10363919213E+02  0.33272714707E+01  0.27046239134E+02  0.29154426905E+02  0.00000000000E+00 0.  1.
</event>
<event>
 5    1  0.8907853E-005  0.9118800E+02  0.7818608E-02  0.1130116E+00
         25   -1    0    0    0    0  0.00000000000E+00  0.00000000000E+00  0.99999998245E-14  0.12500000000E+03  0.12500000000E+03 0.  0.
        -11    1    3    3    0    0 -0.32408618425E+02  0.39537572513E+02  0.35587032355E+01  0.51246488244E+02  0.51100000000E-03 0.  1.
         23    2    1    0    0    0 -0.22928976310E+02 -0.17137394222E+01  0.17818938497E+02  0.95910664728E+02  0.91392921947E+02 0.  0.
         11    1    3    3    0    0  0.94796421155E+01 -0.41251311935E+02  0.14260235261E+02  0.44664176484E+02  0.51100000000E-03 0. -1.
         22    1    1    0    0    0  0.22928976310E+02  0.17137394222E+01 -0.17818938497E+02  0.29089335272E+02  0.00000000000E+00 0. -1.
</event>
<event>
 5    1  0.8907853E-005  0.9118800E+02  0.7818608E-02  0.1130116E+00
         25   -1    0    0    0    0  0.00000000000E+00  0.00000000000E+00  0.99999998245E-14  0.12500000000E+03  0.12500000000E+03 0.  0.
        -11    1    3    3    0    0 -0.10294705678E+02  0.27167523704E+01  0.43740229079E+02  0.45017433829E+02  0.51100000000E-03 0.  1.
         23    2    1    0    0    0  0.25690488284E+02 -0.10010486289E+02  0.10965148999E+02  0.95327697821E+02  0.90592077221E+02 0.  0.
         11    1    3    3    0    0  0.35985193963E+02 -0.12727238659E+02 -0.32775080080E+02  0.50310263992E+02  0.51100000000E-03 0. -1.
         22    1    1    0    0    0 -0.25690488284E+02  0.10010486289E+02 -0.10965148999E+02  0.29672302179E+02  0.00000000000E+00 0. -1.
</event>
<event>
 5    1  0.8907853E-005  0.9118800E+02  0.7818608E-02  0.1130116E+00
         25   -1    0    0    0    0  0.00000000000E+00  0.00000000000E+00  0.99999998245E-14  0.12500000000E+03  0.12500000000E+03 0.  0.
        -11    1    3    3    0    0  0.15433035815E+02  0.24760050642E+02 -0.65234847264E+01  0.29896397032E+02  0.51100000000E-03 0. -1.
         23    2    1    0    0    0 -0.57429871976E+01 -0.30101579849E+02  0.12790222484E+02  0.91793422301E+02  0.85576606471E+02 0.  0.
         11    1    3    3    0    0 -0.21176023012E+02 -0.54861630490E+02  0.19313707210E+02  0.61897025269E+02  0.51100000000E-03 0.  1.
         22    1    1    0    0    0  0.57429871976E+01  0.30101579849E+02 -0.12790222484E+02  0.33206577699E+02  0.00000000000E+00 0.  1.
</event>
<event>
 5    1  0.8907853E-005  0.9118800E+02  0.7818608E-02  0.1130116E+00
         25   -1    0    0    0    0  0.00000000000E+00  0.00000000000E+00  0.99999998245E-14  0.12500000000E+03  0.12500000000E+03 0.  0.
        -11    1    3    3    0    0  0.52945079102E+01  0.24086832922E+02 -0.20027845608E+02  0.31769827418E+02  0.51100000000E-03 0. -1.
         23    2    1    0    0    0  0.82972211551E+01 -0.28493028029E+02  0.11525196754E+02  0.93164066130E+02  0.87555790971E+02 0.  0.
         11    1    3    3    0    0  0.30027132450E+01 -0.52579860951E+02  0.31553042362E+02  0.61394238712E+02  0.51100000000E-03 0.  1.
         22    1    1    0    0    0 -0.82972211551E+01  0.28493028029E+02 -0.11525196754E+02  0.31835933870E+02  0.00000000000E+00 0.  1.
</event>
<event>
 5    1  0.8907853E-005  0.9118800E+02  0.7818608E-02  0.1130116E+00
         25   -1    0    0    0    0  0.00000000000E+00  0.00000000000E+00  0.99999998245E-14  0.12500000000E+03  0.12500000000E+03 0.  0.
        -11    1    3    3    0    0  0.40730952315E+02  0.12040400493E+02  0.10749909173E+01  0.42486907704E+02  0.51100000000E-03 0. -1.
         23    2    1    0    0    0  0.28275345773E+02 -0.75137710454E+01 -0.31201795305E+02  0.82227298844E+02  0.70226951458E+02 0.  0.
         11    1    3    3    0    0 -0.12455606542E+02 -0.19554171539E+02 -0.32276786222E+02  0.39740391140E+02  0.51100000000E-03 0.  1.
         22    1    1    0    0    0 -0.28275345773E+02  0.75137710454E+01  0.31201795305E+02  0.42772701156E+02  0.00000000000E+00 0. -1.
</event>
<event>
 5    1  0.8907853E-005  0.9118800E+02  0.7818608E-02  0.1130116E+00
         25   -1    0    0    0    0  0.00000000000E+00  0.00000000000E+00  0.99999998245E-14  0.12500000000E+03  0.12500000000E+03 0.  0.
        -11    1    3    3    0    0  0.47667115040E+02  0.65723904132E+01 -0.65940021336E+01  0.48567798348E+02  0.51100000000E-03 0. -1.
         23    2    1    0    0    0  0.55908088644E+01 -0.77283661657E+01 -0.26182881251E+02  0.97133746969E+02  0.93050721342E+02 0.  0.
         11    1    3    3    0    0 -0.42076306176E+02 -0.14300756579E+02 -0.19588879118E+02  0.48565948621E+02  0.51100000000E-03 0.  1.
         22    1    1    0    0    0 -0.55908088644E+01  0.77283661657E+01  0.26182881251E+02  0.27866253031E+02  0.00000000000E+00 0. -1.
</event>
<event>
 5    1  0.8907853E-005  0.9118800E+02  0.7818608E-02  0.1130116E+00
         25   -1    0    0    0    0  0.00000000000E+00  0.00000000000E+00  0.99999998245E-14  0.12500000000E+03  0.12500000000E+03 0.  0.
        -11    1    3    3    0    0 -0.46253724295E+02  0.16320612048E+02  0.27010814537E+02  0.55994227301E+02  0.51100000000E-03 0.  1.
         23    2    1    0    0    0 -0.23681856533E+02  0.19180640864E+02 -0.37931363507E+01  0.94289819340E+02  0.89148498782E+02 0.  0.
         11    1    3    3    0    0  0.22571867762E+02  0.28600288151E+01 -0.30803950888E+02  0.38295592039E+02  0.51100000000E-03 0. -1.
         22    1    1    0    0    0  0.23681856533E+02 -0.19180640864E+02  0.37931363507E+01  0.30710180660E+02  0.00000000000E+00 0.  1.
</event>
<event>
 5    1  0.8907853E-005  0.9118800E+02  0.7818608E-02  0.1130116E+00
         25   -1    0    0    0    0  0.00000000000E+00  0.00000000000E+00  0.99999998245E-14  0.12500000000E+03  0.12500000000E+03 0.  0.
        -11    1    3    3    0    0 -0.14731576834E+02 -0.19613804050E+02  0.27257274180E+02  0.36669874029E+02  0.51100000000E-03 0.  1.
         23    2    1    0    0    0  0.27641741928E+02  0.83110336926E+01 -0.33646356441E+01  0.95940406905E+02  0.91433591892E+02 0.  0.
         11    1    3    3    0    0  0.42373318762E+02  0.27924837743E+02 -0.30621909824E+02  0.59270532876E+02  0.51100000000E-03 0. -1.
         22    1    1    0    0    0 -0.27641741928E+02 -0.83110336926E+01  0.33646356441E+01  0.29059593095E+02  0.00000000000E+00 0. -1.
</event>
<event>
 5    1  0.8907853E-005  0.9118800E+02  0.7818608E-02  0.1130116E+00
         25   -1    0    0    0    0  0.00000000000E+00  0.00000000000E+00  0.99999998245E-14  0.12500000000E+03  0.12500000000E+03 0.  0.
        -11    1    3    3    0    0 -0.17419967125E+02  0.19392340990E+02  0.27514139885E+02  0.37901794648E+02  0.51100000000E-03 0. -1.
         23    2    1    0    0    0 -0.17730839094E+02 -0.17905469549E+02 -0.15950900378E+02  0.95176859360E+02  0.90383708930E+02 0.  0.
         11    1    3    3    0    0 -0.31087196928E+00 -0.37297810539E+02 -0.43465040263E+02  0.57275064712E+02  0.51100000000E-03 0.  1.
         22    1    1    0    0    0  0.17730839094E+02  0.17905469549E+02  0.15950900378E+02  0.29823140640E+02  0.00000000000E+00 0.  1.
</event>
<event>
 5    1  0.8907853E-005  0.9118800E+02  0.7818608E-02  0.1130116E+00
         25   -1    0    0    0    0  0.00000000000E+00  0.00000000000E+00  0.99999998245E-14  0.12500000000E+03  0.12500000000E+03 0.  0.
        -11    1    3    3    0    0  0.14368003182E+02 -0.35674379006E+02  0.15869574748E+02  0.41604617962E+02  0.51100000000E-03 0.  1.
         23    2    1    0    0    0  0.14879118811E+02  0.18090983638E+02  0.18068248197E+02  0.95417345310E+02  0.90715689533E+02 0.  0.
         11    1    3    3    0    0  0.51111562933E+00  0.53765362644E+02  0.21986734498E+01  0.53812727348E+02  0.51100000000E-03 0. -1.
         22    1    1    0    0    0 -0.14879118811E+02 -0.18090983638E+02 -0.18068248197E+02  0.29582654690E+02  0.00000000000E+00 0. -1.
</event>
<event>
 5    1  0.8907853E-005  0.9118800E+02  0.7818608E-02  0.1130116E+00
         25   -1    0    0    0    0  0.00000000000E+00  0.00000000000E+00  0.99999998245E-14  0.12500000000E+03  0.12500000000E+03 0.  0.
        -11    1    3    3    0    0 -0.44377020398E+02  0.14886342647E+02 -0.86998675786E+01  0.47608936482E+02  0.51100000000E-03 0.  1.
         23    2    1    0    0    0 -0.17593530929E+02 -0.14120576833E+02  0.18726149280E+02  0.95681205899E+02  0.91078545634E+02 0.  0.
         11    1    3    3    0    0  0.26783489469E+02 -0.29006919481E+02  0.27426016859E+02  0.48072269417E+02  0.51100000000E-03 0. -1.
         22    1    1    0    0    0  0.17593530929E+02  0.14120576833E+02 -0.18726149280E+02  0.29318794101E+02  0.00000000000E+00 0. -1.
</event>
<event>
 5    1  0.8907853E-005  0.9118800E+02  0.7818608E-02  0.1130116E+00
         25   -1    0    0    0    0  0.00000000000E+00  0.00000000000E+00  0.99999998245E-14  0.12500000000E+03  0.12500000000E+03 0.  0.
        -11    1    3    3    0    0  0.40350593228E+02  0.20408417220E+01  0.45104403257E+02  0.60553634096E+02  0.51100000000E-03 0.  1.
         23    2    1    0    0    0  0.81042460610E+01 -0.29867541042E+01  0.24185916841E+02  0.99318137183E+02  0.95940264205E+02 0.  0.
         11    1    3    3    0    0 -0.32246347167E+02 -0.50275958262E+01 -0.20918486416E+02  0.38764503087E+02  0.51100000000E-03 0. -1.
         22    1    1    0    0    0 -0.81042460610E+01  0.29867541042E+01 -0.24185916841E+02  0.25681862817E+02  0.00000000000E+00 0.  1.
</event>
<event>
 5    1  0.8907853E-005  0.9118800E+02  0.7818608E-02  0.1130116E+00
         25   -1    0    0    0    0  0.00000000000E+00  0.00000000000E+00  0.99999998245E-14  0.12500000000E+03  0.12500000000E+03 0.  0.
        -11    1    3    3    0    0 -0.26377466286E+02 -0.26894710409E+02  0.31035699724E+01  0.37798522756E+02  0.51100000000E-03 0.  1.
         23    2    1    0    0    0  0.26132225987E+02 -0.59732964713E+01  0.13041656401E+02  0.95189627519E+02  0.90401365475E+02 0.  0.
         11    1    3    3    0    0  0.52509692273E+02  0.20921413938E+02  0.99380864289E+01  0.57391104763E+02  0.51100000000E-03 0. -1.
         22    1    1    0    0    0 -0.26132225987E+02  0.59732964713E+01 -0.13041656401E+02  0.29810372481E+02  0.00000000000E+00 0. -1.
</event>
<event>
 4    1  0.8907853E-005  0.9118800E+02  0.7818608E-02  0.1130116E+00
         25   -1    0    0    0    0  0.00000000000E+00  0.00000000000E+00  0.99999998245E-14  0.12500000000E+03  0.12500000000E+03 0.  0.
        -11    1    1    0    0    0  0.13352307233E+02 -0.33303734032E+02 -0.36714320049E+02  0.51335797509E+02  0.51100000000E-03 0.  1.
         11    1    1    0    0    0 -0.38536065530E+01  0.15389185015E+02 -0.12654668865E+02  0.20293297988E+02  0.51100000000E-03 0. -1.
         22    1    1    0    0    0 -0.94987006798E+01  0.17914549017E+02  0.49368988914E+02  0.53370904504E+02  0.00000000000E+00 0.  1.
</event>
<event>
 5    1  0.8907853E-005  0.9118800E+02  0.7818608E-02  0.1130116E+00
         25   -1    0    0    0    0  0.00000000000E+00  0.00000000000E+00  0.99999998245E-14  0.12500000000E+03  0.12500000000E+03 0.  0.
        -11    1    3    3    0    0 -0.44388754986E+02  0.36533319544E+02  0.20483297479E+01  0.57525999871E+02  0.51100000000E-03 0.  1.
         23    2    1    0    0    0 -0.21656170963E+02  0.15032792027E+02 -0.16499567192E+02  0.93899995267E+02  0.88600219056E+02 0.  0.
         11    1    3    3    0    0  0.22732584023E+02 -0.21500527518E+02 -0.18547896940E+02  0.36373995396E+02  0.51100000000E-03 0. -1.
         22    1    1    0    0    0  0.21656170963E+02 -0.15032792027E+02  0.16499567192E+02  0.31100004733E+02  0.00000000000E+00 0.  1.
</event>
<event>
 5    1  0.8907853E-005  0.9118800E+02  0.7818608E-02  0.1130116E+00
         25   -1    0    0    0    0  0.00000000000E+00  0.00000000000E+00  0.99999998245E-14  0.12500000000E+03  0.12500000000E+03 0.  0.
        -11    1    3    3    0    0  0.13221537479E+02  0.30621895418E+02 -0.38683255313E+02  0.51077429205E+02  0.51100000000E-03 0.  1.
         23    2    1    0    0    0 -0.18480043774E+02  0.52316637516E+01 -0.23988806360E+02  0.94269800618E+02  0.89120425013E+02 0.  0.
         11    1    3    3    0    0 -0.31701581253E+02 -0.25390231667E+02  0.14694448953E+02  0.43192371413E+02  0.51100000000E-03 0. -1.
         22    1    1    0    0    0  0.18480043774E+02 -0.52316637516E+01  0.23988806360E+02  0.30730199382E+02  0.00000000000E+00 0.  1.
</event>
<event>
 5    1  0.8907853E-005  0.9118800E+02  0.7818608E-02  0.1130116E+00
         25   -1    0    0    0    0  0.00000000000E+00  0.00000000000E+00  0.99999998245E-14  0.12500000000E+03  0.12500000000E+03 0.  0.
        -11    1    3    3    0    0 -0.28085454272E+02  0.48062236481E+02 -0.22831189012E+02  0.60166722606E+02  0.51100000000E-03 0.  1.
         23    2    1    0    0    0 -0.42216377800E+01  0.26734064313E+02 -0.31197736740E+01  0.97755451775E+02  0.93882175857E+02 0.  0.
         11    1    3    3    0    0  0.23863816492E+02 -0.21328172168E+02  0.19711415338E+02  0.37588729168E+02  0.51100000000E-03 0. -1.
         22    1    1    0    0    0  0.42216377800E+01 -0.26734064313E+02  0.31197736740E+01  0.27244548225E+02  0.00000000000E+00 0.  1.
</event>
<event>
 5    1  0.8907853E-005  0.9118800E+02  0.7818608E-02  0.1130116E+00
         25   -1    0    0    0    0  0.00000000000E+00  0.00000000000E+00  0.99999998245E-14  0.12500000000E+03  0.12500000000E+03 0.  0.
        -11    1    3    3    0    0 -0.10017090993E+02 -0.51355890449E+02 -0.10168848493E+02  0.53302674189E+02  0.51100000000E-03 0.  1.
         23    2    1    0    0    0 -0.10859362405E+02 -0.19965082692E+02  0.18401714533E+02  0.95756994401E+02  0.91182501612E+02 0.  0.
         11    1    3    3    0    0 -0.84227141207E+00  0.31390807758E+02  0.28570563025E+02  0.42454320212E+02  0.51100000000E-03 0. -1.
         22    1    1    0    0    0  0.10859362405E+02  0.19965082692E+02 -0.18401714533E+02  0.29243005599E+02  0.00000000000E+00 0.  1.
</event>
<event>
 5    1  0.8907853E-005  0.9118800E+02  0.7818608E-02  0.1130116E+00
         25   -1    0    0    0    0  0.00000000000E+00  0.00000000000E+00  0.99999998245E-14  0.12500000000E+03  0.12500000000E+03 0.  0.
        -11    1    3    3    0    0  0.16591474817E+02  0.19692674249E+02 -0.27963341949E+02  0.38013510084E+02  0.51100000000E-03 0.  1.
         23    2    1    0    0    0 -0.24069516284E+02 -0.15342896731E+02 -0.72056922723E+01  0.95560772847E+02  0.90913108030E+02 0.  0.
         11    1    3    3    0    0 -0.40660991101E+02 -0.35035570979E+02  0.20757649677E+02  0.57547262763E+02  0.51100000000E-03 0. -1.
         22    1    1    0    0    0  0.24069516284E+02  0.15342896731E+02  0.72056922723E+01  0.29439227153E+02  0.00000000000E+00 0. -1.
</event>
<event>
 5    1  0.8907853E-005  0.9118800E+02  0.7818608E-02  0.1130116E+00
         25   -1    0    0    0    0  0.00000000000E+00  0.00000000000E+00  0.99999998245E-14  0.12500000000E+03  0.12500000000E+03 0.  0.
        -11    1    3    3    0    0 -0.33259875373E+02 -0.10103277053E+02  0.34837699015E+02  0.49213420832E+02  0.51100000000E-03 0.  1.
         23    2    1    0    0    0  0.58261542622E+01  0.77282813107E+01  0.31205496405E+02  0.92328094463E+02  0.86354059637E+02 0.  0.
         11    1    3    3    0    0  0.39086029635E+02  0.17831558363E+02 -0.36322026099E+01  0.43114673631E+02  0.51100000000E-03 0. -1.
         22    1    1    0    0    0 -0.58261542622E+01 -0.77282813107E+01 -0.31205496405E+02  0.32671905537E+02  0.00000000000E+00 0.  1.
</event>
<event>
 5    1  0.8907853E-005  0.9118800E+02  0.7818608E-02  0.1130116E+00
         25   -1    0    0    0    0  0.00000000000E+00  0.00000000000E+00  0.99999998245E-14  0.12500000000E+03  0.12500000000E+03 0.  0.
        -11    1    3    3    0    0  0.18480440726E+01  0.14959437221E+02  0.34570067555E+02  0.37713254963E+02  0.51100000000E-03 0.  1.
         23    2    1    0    0    0 -0.13379708133E+02  0.17547207398E+02 -0.20483109073E+02  0.94892213058E+02  0.89989184153E+02 0.  0.
         11    1    3    3    0    0 -0.15227752206E+02  0.25877701771E+01 -0.55053176629E+02  0.57178958095E+02  0.51100000000E-03 0. -1.
         22    1    1    0    0    0  0.13379708133E+02 -0.17547207398E+02  0.20483109073E+02  0.30107786942E+02  0.00000000000E+00 0. -1.
</event>
<event>
 5    1  0.8907853E-005  0.9118800E+02  0.7818608E-02  0.1130116E+00
         25   -1    0    0    0    0  0.00000000000E+00  0.00000000000E+00  0.99999998245E-14  0.12500000000E+03  0.12500000000E+03 0.  0.
        -11    1    3    3    0    0 -0.14766589074E+02  0.34701399758E+01  0.37165376045E+02  0.40141738890E+02  0.51100000000E-03 0.  1.
         23    2    1    0    0    0  0.22251368821E+01 -0.27587581272E+02 -0.67124362325E+01  0.96520486753E+02  0.92223216645E+02 0.  0.
         11    1    3    3    0    0  0.16991725957E+02 -0.31057721248E+02 -0.43877812277E+02  0.56378747863E+02  0.51100000000E-03 0. -1.
         22    1    1    0    0    0 -0.22251368821E+01  0.27587581272E+02  0.67124362325E+01  0.28479513247E+02  0.00000000000E+00 0. -1.
</event>
<event>
 5    1  0.8907853E-005  0.9118800E+02  0.7818608E-02  0.1130116E+00
         25   -1    0    0    0    0  0.00000000000E+00  0.00000000000E+00  0.99999998245E-14  0.12500000000E+03  0.12500000000E+03 0.  0.
        -11    1    3    3    0    0  0.23938044650E+01 -0.22016737175E+02 -0.37511143299E+02  0.43560910085E+02  0.51100000000E-03 0.  1.
         23    2    1    0    0    0 -0.12166882594E+02 -0.26794021870E+02  0.10342472933E+02  0.93808344283E+02  0.88470820447E+02 0.  0.
         11    1    3    3    0    0 -0.14560687059E+02 -0.47772846956E+01  0.47853616232E+02  0.50247434197E+02  0.51100000000E-03 0. -1.
         22    1    1    0    0    0  0.12166882594E+02  0.26794021870E+02 -0.10342472933E+02  0.31191655717E+02  0.00000000000E+00 0. -1.
</event>
<event>
 5    1  0.8907853E-005  0.9118800E+02  0.7818608E-02  0.1130116E+00
         25   -1    0    0    0    0  0.00000000000E+00  0.00000000000E+00  0.99999998245E-14  0.12500000000E+03  0.12500000000E+03 0.  0.
        -11    1    3    3    0    0 -0.16111611098E+02 -0.37384012304E+02  0.76153295875E+00  0.40715209945E+02  0.51100000000E-03 0. -1.
         23    2    1    0    0    0 -0.39440651229E+01  0.79405884569E+01 -0.27913800334E+02  0.95711967567E+02  0.91120754451E+02 0.  0.
         11    1    3    3    0    0  0.12167545975E+02  0.45324600761E+02 -0.28675333292E+02  0.54996757622E+02  0.51100000000E-03 0.  1.
         22    1    1    0    0    0  0.39440651229E+01 -0.79405884569E+01  0.27913800334E+02  0.29288032433E+02  0.00000000000E+00 0. -1.
</event>
<event>
 5    1  0.8907853E-005  0.9118800E+02  0.7818608E-02  0.1130116E+00
         25   -1    0    0    0    0  0.00000000000E+00  0.00000000000E+00  0.99999998245E-14  0.12500000000E+03  0.12500000000E+03 0.  0.
        -11    1    3    3    0    0 -0.26610155276E+02  0.42309755820E+02  0.27817507894E+02  0.57201656856E+02  0.51100000000E-03 0.  1.
         23    2    1    0    0    0 -0.17264758879E+02  0.30008697718E+02 -0.15070254671E+01  0.90346501423E+02  0.83436355120E+02 0.  0.
         11    1    3    3    0    0  0.93453963973E+01 -0.12301058102E+02 -0.29324533361E+02  0.33144844567E+02  0.51100000000E-03 0. -1.
         22    1    1    0    0    0  0.17264758879E+02 -0.30008697718E+02  0.15070254671E+01  0.34653498577E+02  0.00000000000E+00 0.  1.
</event>
<event>
 5    1  0.8907853E-005  0.9118800E+02  0.7818608E-02  0.1130116E+00
         25   -1    0    0    0    0  0.00000000000E+00  0.00000000000E+00  0.99999998245E-14  0.12500000000E+03  0.12500000000E+03 0.  0.
        -11    1    3    3    0    0 -0.20563485077E+02 -0.19469594900E+02 -0.29001469102E+02  0.40534025885E+02  0.51100000000E-03 0.  1.
         23    2    1    0    0    0  0.10088454627E+02 -0.18583973531E+02  0.18386698360E+02  0.96978371469E+02  0.92841762517E+02 0.  0.
         11    1    3    3    0    0  0.30651939704E+02  0.88562136950E+00  0.47388167462E+02  0.56444345584E+02  0.51100000000E-03 0. -1.
         22    1    1    0    0    0 -0.10088454627E+02  0.18583973531E+02 -0.18386698360E+02  0.28021628531E+02  0.00000000000E+00 0. -1.
</event>
<event>
 5    1  0.8907853E-005  0.9118800E+02  0.7818608E-02  0.1130116E+00
         25   -1    0    0    0    0  0.00000000000E+00  0.00000000000E+00  0.99999998245E-14  0.12500000000E+03  0.12500000000E+03 0.  0.
        -11    1    3    3    0    0  0.15376589082E+02  0.22892270864E+02  0.36370703094E+02  0.45643439846E+02  0.51100000000E-03 0. -1.
         23    2    1    0    0    0 -0.92397781291E+01  0.35669753078E+02  0.45208202126E+01  0.87876656941E+02  0.79650261991E+02 0.  0.
         11    1    3    3    0    0 -0.24616367211E+02  0.12777482213E+02 -0.31849882881E+02  0.42233217095E+02  0.51100000000E-03 0.  1.
         22    1    1    0    0    0  0.92397781291E+01 -0.35669753078E+02 -0.45208202126E+01  0.37123343059E+02  0.00000000000E+00 0.  1.
</event>
<event>
 5    1  0.8907853E-005  0.9118800E+02  0.7818608E-02  0.1130116E+00
         25   -1    0    0    0    0  0.00000000000E+00  0.00000000000E+00  0.99999998245E-14  0.12500000000E+03  0.12500000000E+03 0.  0.
        -11    1    3    3    0    0  0.19420343304E+02  0.27229418015E+02 -0.94338302878E+01  0.34750368252E+02  0.51100000000E-03 0.  1.
         23    2    1    0    0    0 -0.27051802506E+02 -0.10287684637E+02 -0.96964563566E+01  0.94476931021E+02  0.89410473409E+02 0.  0.
         11    1    3    3    0    0 -0.46472145810E+02 -0.37517102651E+02 -0.26262606879E+00  0.59726562770E+02  0.51100000000E-03 0. -1.
         22    1    1    0    0    0  0.27051802506E+02  0.10287684637E+02  0.96964563566E+01  0.30523068979E+02  0.00000000000E+00 0. -1.
</event>
<event>
 5    1  0.8907853E-005  0.9118800E+02  0.7818608E-02  0.1130116E+00
         25   -1    0    0    0    0  0.00000000000E+00  0.00000000000E+00  0.99999998245E-14  0.12500000000E+03  0.12500000000E+03 0.  0.
        -11    1    3    3    0    0 -0.53431209842E+01 -0.19080110465E+02 -0.36656562266E+02  0.41668970645E+02  0.51100000000E-03 0. -1.
         23    2    1    0    0    0  0.14033619058E+02  0.23750258004E+02 -0.10370354878E+02  0.95528632889E+02  0.90868906796E+02 0.  0.
         11    1    3    3    0    0  0.19376740043E+02  0.42830368469E+02  0.26286207388E+02  0.53859662243E+02  0.51100000000E-03 0.  1.
         22    1    1    0    0    0 -0.14033619058E+02 -0.23750258004E+02  0.10370354878E+02  0.29471367111E+02  0.00000000000E+00 0.  1.
</event>
<event>
 5    1  0.8907853E-005  0.9118800E+02  0.7818608E-02  0.1130116E+00
         25   -1    0    0    0    0  0.00000000000E+00  0.00000000000E+00  0.99999998245E-14  0.12500000000E+03  0.12500000000E+03 0.  0.
        -11    1    3    3    0    0 -0.19052103028E+02  0.19289494616E+02 -0.18349207053E+02  0.32737755452E+02  0.51100000000E-03 0. -1.
         23    2    1    0    0    0  0.11360212076E+02 -0.30118473436E+02 -0.95838885985E+01  0.91413875168E+02  0.85020402211E+02 0.  0.
         11    1    3    3    0    0  0.30412315104E+02 -0.49407968052E+02  0.87653184545E+01  0.58676119716E+02  0.51100000000E-03 0.  1.
         22    1    1    0    0    0 -0.11360212076E+02  0.30118473436E+02  0.95838885985E+01  0.33586124832E+02  0.00000000000E+00 0.  1.
</event>
<event>
 5    1  0.8907853E-005  0.9118800E+02  0.7818608E-02  0.1130116E+00
         25   -1    0    0    0    0  0.00000000000E+00  0.00000000000E+00  0.99999998245E-14  0.12500000000E+03  0.12500000000E+03 0.  0.
        -11    1    3    3    0    0  0.91074851320E+01 -0.22157813842E+02  0.42324978941E+02  0.48634543714E+02  0.51100000000E-03 0. -1.
         23    2    1    0    0    0 -0.11315365720E+01  0.18844242276E+02  0.23385591856E+02  0.94945520327E+02  0.90063200486E+02 0.  0.
         11    1    3    3    0    0 -0.10239021704E+02  0.41002056119E+02 -0.18939387085E+02  0.46310976613E+02  0.51100000000E-03 0.  1.
         22    1    1    0    0    0  0.11315365720E+01 -0.18844242276E+02 -0.23385591856E+02  0.30054479673E+02  0.00000000000E+00 0. -1.
</event>
<event>
 5    1  0.8907853E-005  0.9118800E+02  0.7818608E-02  0.1130116E+00
         25   -1    0    0    0    0  0.00000000000E+00  0.00000000000E+00  0.99999998245E-14  0.12500000000E+03  0.12500000000E+03 0.  0.
        -11    1    3    3    0    0  0.15049233729E+02 -0.15906981601E+02  0.35420988225E+02  0.41643221616E+02  0.51100000000E-03 0.  1.
         23    2    1    0    0    0  0.12214462232E+02 -0.19683754839E+02 -0.18242364423E+02  0.95513949876E+02  0.90848706479E+02 0.  0.
         11    1    3    3    0    0 -0.28347714971E+01 -0.37767732379E+01 -0.53663352648E+02  0.53870728260E+02  0.51100000000E-03 0. -1.
         22    1    1    0    0    0 -0.12214462232E+02  0.19683754839E+02  0.18242364423E+02  0.29486050124E+02  0.00000000000E+00 0.  1.
</event>
<event>
 5    1  0.8907853E-005  0.9118800E+02  0.7818608E-02  0.1130116E+00
         25   -1    0    0    0    0  0.00000000000E+00  0.00000000000E+00  0.99999998245E-14  0.12500000000E+03  0.12500000000E+03 0.  0.
        -11    1    3    3    0    0 -0.24991067568E+02 -0.27349056904E+02  0.26217669339E+02  0.45386017203E+02  0.51100000000E-03 0.  1.
         23    2    1    0    0    0 -0.23339210355E+02  0.32192552014E+01 -0.15254163291E+02  0.96932726499E+02  0.92780286833E+02 0.  0.
         11    1    3    3    0    0  0.16518572130E+01  0.30568312106E+02 -0.41471832631E+02  0.51546709296E+02  0.51100000000E-03 0. -1.
         22    1    1    0    0    0  0.23339210355E+02 -0.32192552014E+01  0.15254163291E+02  0.28067273501E+02  0.00000000000E+00 0.  1.
</event>
<event>
 5    1  0.8907853E-005  0.9118800E+02  0.7818608E-02  0.1130116E+00
         25   -1    0    0    0    0  0.00000000000E+00  0.00000000000E+00  0.99999998245E-14  0.12500000000E+03  0.12500000000E+03 0.  0.
        -11    1    3    3    0    0  0.23112096104E+02  0.16740380760E+01  0.33297452859E+02  0.40567126555E+02  0.51100000000E-03 0. -1.
         23    2    1    0    0    0  0.42496276894E+01 -0.27971868458E+02 -0.87700811198E+01  0.95379076933E+02  0.90662942999E+02 0.  0.
         11    1    3    3    0    0 -0.18862468415E+02 -0.29645906534E+02 -0.42067533978E+02  0.54811950378E+02  0.51100000000E-03 0.  1.
         22    1    1    0    0    0 -0.42496276894E+01  0.27971868458E+02  0.87700811198E+01  0.29620923067E+02  0.00000000000E+00 0.  1.
</event>
<event>
 5    1  0.8907853E-005  0.9118800E+02  0.7818608E-02  0.1130116E+00
         25   -1    0    0    0    0  0.00000000000E+00  0.00000000000E+00  0.99999998245E-14  0.12500000000E+03  0.12500000000E+03 0.  0.
        -11    1    3    3    0    0  0.28764246909E+02 -0.80104317026E+01  0.42064386424E+02  0.51584508545E+02  0.51100000000E-03 0. -1.
         23    2    1    0    0    0 -0.93094318767E+01 -0.17378682602E+02  0.21388652572E+02  0.95911194770E+02  0.91393646894E+02 0.  0.
         11    1    3    3    0    0 -0.38073678785E+02 -0.93682508992E+01 -0.20675733852E+02  0.44326686226E+02  0.51100000000E-03 0.  1.
         22    1    1    0    0    0  0.93094318767E+01  0.17378682602E+02 -0.21388652572E+02  0.29088805230E+02  0.00000000000E+00 0. -1.
</event>
<event>
 5    1  0.8907853E-005  0.9118800E+02  0.7818608E-02  0.1130116E+00
         25   -1    0    0    0    0  0.00000000000E+00  0.00000000000E+00  0.99999998245E-14  0.12500000000E+03  0.12500000000E+03 0.  0.
        -11    1    3    3    0    0  0.39159155598E+02 -0.22546662062E+02  0.31980462816E+02  0.55358300547E+02  0.51100000000E-03 0. -1.
         23    2    1    0    0    0  0.21130296663E+02  0.10268363724E+02  0.65795348607E+01  0.10060288932E+03  0.97599807017E+02 0.  0.
         11    1    3    3    0    0 -0.18028858936E+02  0.32815025785E+02 -0.25400927955E+02  0.45244588771E+02  0.51100000000E-03 0.  1.
         22    1    1    0    0    0 -0.21130296663E+02 -0.10268363724E+02 -0.65795348607E+01  0.24397110681E+02  0.00000000000E+00 0. -1.
</event>
<event>
 5    1  0.8907853E-005  0.9118800E+02  0.7818608E-02  0.1130116E+00
         25   -1    0    0    0    0  0.00000000000E+00  0.00000000000E+00  0.99999998245E-14  0.12500000000E+03  0.12500000000E+03 0.  0.
        -11    1    3    3    0    0  0.15630444701E+02 -0.53892325636E+02 -0.23684017988E+02  0.60906701375E+02  0.51100000000E-03 0. -1.
         23    2    1    0    0    0  0.26703921866E+01 -0.21313941647E+02 -0.19079788670E+02  0.96269294498E+02  0.91882118089E+02 0.  0.
         11    1    3    3    0    0 -0.12960052514E+02  0.32578383989E+02  0.46042293180E+01  0.35362593123E+02  0.51100000000E-03 0.  1.
         22    1    1    0    0    0 -0.26703921866E+01  0.21313941647E+02  0.19079788670E+02  0.28730705502E+02  0.00000000000E+00 0. -1.
</event>
<event>
 5    1  0.8907853E-005  0.9118800E+02  0.7818608E-02  0.1130116E+00
         25   -1    0    0    0    0  0.00000000000E+00  0.00000000000E+00  0.99999998245E-14  0.12500000000E+03  0.12500000000E+03 0.  0.
        -11    1    3    3    0    0  0.51660413720E+01 -0.60446627167E+02 -0.26631859937E+01  0.60725408843E+02  0.51100000000E-03 0. -1.
         23    2    1    0    0    0 -0.16481415489E+01 -0.19608670634E+02 -0.10242667076E+02  0.10281602913E+03  0.10039425921E+03 0.  0.
         11    1    3    3    0    0 -0.68141829209E+01  0.40837956532E+02 -0.75794810823E+01  0.42090620290E+02  0.51100000000E-03 0.  1.
         22    1    1    0    0    0  0.16481415489E+01  0.19608670634E+02  0.10242667076E+02  0.22183970867E+02  0.00000000000E+00 0. -1.
</event>
<event>
 5    1  0.8907853E-005  0.9118800E+02  0.7818608E-02  0.1130116E+00
         25   -1    0    0    0    0  0.00000000000E+00  0.00000000000E+00  0.99999998245E-14  0.12500000000E+03  0.12500000000E+03 0.  0.
        -11    1    3    3    0    0  0.41199943957E+01 -0.34042396526E+02 -0.34378059087E+02  0.48556256671E+02  0.51100000000E-03 0.  1.
         23    2    1    0    0    0 -0.51888971013E+01 -0.26091030867E+02  0.11484590948E+02  0.96024797255E+02  0.91548890293E+02 0.  0.
         11    1    3    3    0    0 -0.93088914970E+01  0.79513656582E+01  0.45862650035E+02  0.47468540585E+02  0.51100000000E-03 0. -1.
         22    1    1    0    0    0  0.51888971013E+01  0.26091030867E+02 -0.11484590948E+02  0.28975202745E+02  0.00000000000E+00 0. -1.
</event>
<event>
 5    1  0.8907853E-005  0.9118800E+02  0.7818608E-02  0.1130116E+00
         25   -1    0    0    0    0  0.00000000000E+00  0.00000000000E+00  0.99999998245E-14  0.12500000000E+03  0.12500000000E+03 0.  0.
        -11    1    3    3    0    0 -0.83164873146E+01  0.57226791114E+02  0.23245384384E+02  0.62325095089E+02  0.51100000000E-03 0.  1.
         23    2    1    0    0    0 -0.96859334678E+00  0.21551150043E+02  0.61120549807E+01  0.10257796938E+03  0.10009741427E+03 0.  0.
         11    1    3    3    0    0  0.73478939678E+01 -0.35675641071E+02 -0.17133329404E+02  0.40252874286E+02  0.51100000000E-03 0. -1.
         22    1    1    0    0    0  0.96859334678E+00 -0.21551150043E+02 -0.61120549807E+01  0.22422030625E+02  0.00000000000E+00 0.  1.
</event>
<event>
 5    1  0.8907853E-005  0.9118800E+02  0.7818608E-02  0.1130116E+00
         25   -1    0    0    0    0  0.00000000000E+00  0.00000000000E+00  0.99999998245E-14  0.12500000000E+03  0.12500000000E+03 0.  0.
        -11    1    3    3    0    0 -0.37426933987E+02  0.90712664023E+01  0.32850645992E+02  0.50618457149E+02  0.51100000000E-03 0.  1.
         23    2    1    0    0    0  0.14008712853E+02  0.19335537051E+01  0.11531230366E+02  0.10675302931E+03  0.10518201998E+03 0.  0.
         11    1    3    3    0    0  0.51435646840E+02 -0.71377126971E+01 -0.21319415626E+02  0.56134572157E+02  0.51100000000E-03 0. -1.
         22    1    1    0    0    0 -0.14008712853E+02 -0.19335537051E+01 -0.11531230366E+02  0.18246970693E+02  0.00000000000E+00 0.  1.
</event>
<event>
 5    1  0.8907853E-005  0.9118800E+02  0.7818608E-02  0.1130116E+00
         25   -1    0    0    0    0  0.00000000000E+00  0.00000000000E+00  0.99999998245E-14  0.12500000000E+03  0.12500000000E+03 0.  0.
        -11    1    3    3    0    0 -0.69480952482E+01 -0.41744902881E+02  0.24011734910E+01  0.42387245469E+02  0.51100000000E-03 0. -1.
         23    2    1    0    0    0  0.16177902241E+02 -0.31749060272E+01  0.26787760022E+02  0.93545451263E+02  0.88098597128E+02 0.  0.
         11    1    3    3    0    0  0.23125997490E+02  0.38569996853E+02  0.24386586531E+02  0.51158205794E+02  0.51100000000E-03 0.  1.
         22    1    1    0    0    0 -0.16177902241E+02  0.31749060272E+01 -0.26787760022E+02  0.31454548737E+02  0.00000000000E+00 0.  1.
</event>
<event>
 5    1  0.8907853E-005  0.9118800E+02  0.7818608E-02  0.1130116E+00
         25   -1    0    0    0    0  0.00000000000E+00  0.00000000000E+00  0.99999998245E-14  0.12500000000E+03  0.12500000000E+03 0.  0.
        -11    1    3    3    0    0 -0.20111989816E+02  0.43822208622E+02  0.37874094990E+02  0.61313336025E+02  0.51100000000E-03 0. -1.
         23    2    1    0    0    0 -0.30191937891E+01  0.27171118570E+02  0.20283713216E+02  0.90958639315E+02  0.84348442954E+02 0.  0.
         11    1    3    3    0    0  0.17092796027E+02 -0.16651090053E+02 -0.17590381774E+02  0.29645303291E+02  0.51100000000E-03 0.  1.
         22    1    1    0    0    0  0.30191937891E+01 -0.27171118570E+02 -0.20283713216E+02  0.34041360685E+02  0.00000000000E+00 0. -1.
</event>
<event>
 5    1  0.8907853E-005  0.9118800E+02  0.7818608E-02  0.1130116E+00
         25   -1    0    0    0    0  0.00000000000E+00  0.00000000000E+00  0.99999998245E-14  0.12500000000E+03  0.12500000000E+03 0.  0.
        -11    1    3    3    0    0  0.33475220222E+02 -0.85135654635E+01  0.10522534750E+02  0.36108100250E+02  0.51100000000E-03 0.  1.
         23    2    1    0    0    0 -0.13155164610E+02 -0.10601685493E+02 -0.25042876421E+02  0.94790734026E+02  0.89848113539E+02 0.  0.
         11    1    3    3    0    0 -0.46630384832E+02 -0.20881200297E+01 -0.35565411172E+02  0.58682633776E+02  0.51100000000E-03 0. -1.
         22    1    1    0    0    0  0.13155164610E+02  0.10601685493E+02  0.25042876421E+02  0.30209265974E+02  0.00000000000E+00 0. -1.
</event>
<event>
 5    1  0.8907853E-005  0.9118800E+02  0.7818608E-02  0.1130116E+00
         25   -1    0    0    0    0  0.00000000000E+00  0.00000000000E+00  0.99999998245E-14  0.12500000000E+03  0.12500000000E+03 0.  0.
        -11    1    3    3    0    0  0.32033789387E+02 -0.16638025095E+02 -0.42111167554E+01  0.36341725966E+02  0.51100000000E-03 0.  1.
         23    2    1    0    0    0 -0.28660123818E+01  0.28700177960E+02  0.84579642164E+01  0.94942531700E+02  0.90059052433E+02 0.  0.
         11    1    3    3    0    0 -0.34899801769E+02  0.45338203055E+02  0.12669080972E+02  0.58600805735E+02  0.51100000000E-03 0. -1.
         22    1    1    0    0    0  0.28660123818E+01 -0.28700177960E+02 -0.84579642164E+01  0.30057468300E+02  0.00000000000E+00 0. -1.
</event>
<event>
 5    1  0.8907853E-005  0.9118800E+02  0.7818608E-02  0.1130116E+00
         25   -1    0    0    0    0  0.00000000000E+00  0.00000000000E+00  0.99999998245E-14  0.12500000000E+03  0.12500000000E+03 0.  0.
        -11    1    3    3    0    0 -0.78257785616E+01 -0.24505829528E+02  0.34128572406E+02  0.42738015229E+02  0.51100000000E-03 0. -1.
         23    2    1    0    0    0 -0.28149414614E+02  0.12337431551E+02  0.51284515320E+01  0.93840687178E+02  0.88516505775E+02 0.  0.
         11    1    3    3    0    0 -0.20323636053E+02  0.36843261079E+02 -0.29000120874E+02  0.51102671949E+02  0.51100000000E-03 0.  1.
         22    1    1    0    0    0  0.28149414614E+02 -0.12337431551E+02 -0.51284515320E+01  0.31159312822E+02  0.00000000000E+00 0. -1.
</event>
<event>
 5    1  0.8907853E-005  0.9118800E+02  0.7818608E-02  0.1130116E+00
         25   -1    0    0    0    0  0.00000000000E+00  0.00000000000E+00  0.99999998245E-14  0.12500000000E+03  0.12500000000E+03 0.  0.
        -11    1    3    3    0    0  0.37255523898E+02 -0.47943994720E+02  0.12351713444E+02  0.61960999959E+02  0.51100000000E-03 0.  1.
         23    2    1    0    0    0  0.21217400540E+02 -0.18005105148E+02  0.64662424892E+01  0.96431237532E+02  0.92102168177E+02 0.  0.
         11    1    3    3    0    0 -0.16038123358E+02  0.29938889573E+02 -0.58854709547E+01  0.34470237573E+02  0.51100000000E-03 0. -1.
         22    1    1    0    0    0 -0.21217400540E+02  0.18005105148E+02 -0.64662424892E+01  0.28568762468E+02  0.00000000000E+00 0.  1.
</event>
<event>
 5    1  0.8907853E-005  0.9118800E+02  0.7818608E-02  0.1130116E+00
         25   -1    0    0    0    0  0.00000000000E+00  0.00000000000E+00  0.99999998245E-14  0.12500000000E+03  0.12500000000E+03 0.  0.
        -11    1    3    3    0    0 -0.32774812310E+02  0.32523609073E+02  0.35158456796E+02  0.58035252680E+02  0.51100000000E-03 0.  1.
         23    2    1    0    0    0 -0.24693125663E+02  0.13030074444E+01  0.14485464685E+02  0.96342069674E+02  0.91981070980E+02 0.  0.
         11    1    3    3    0    0  0.80816866464E+01 -0.31220601629E+02 -0.20672992111E+02  0.38306816994E+02  0.51100000000E-03 0. -1.
         22    1    1    0    0    0  0.24693125663E+02 -0.13030074444E+01 -0.14485464685E+02  0.28657930326E+02  0.00000000000E+00 0.  1.
</event>
<event>
 5    1  0.8907853E-005  0.9118800E+02  0.7818608E-02  0.1130116E+00
         25   -1    0    0    0    0  0.00000000000E+00  0.00000000000E+00  0.99999998245E-14  0.12500000000E+03  0.12500000000E+03 0.  0.
        -11    1    3    3    0    0 -0.30547443631E+02 -0.15330874917E+02  0.34605935060E+02  0.48639004716E+02  0.51100000000E-03 0. -1.
         23    2    1    0    0    0  0.11914730136E+02 -0.21807596672E+02  0.15968849125E+02  0.95461276107E+02  0.90776202976E+02 0.  0.
         11    1    3    3    0    0  0.42462173768E+02 -0.64767217549E+01 -0.18637085935E+02  0.46822271391E+02  0.51100000000E-03 0.  1.
         22    1    1    0    0    0 -0.11914730136E+02  0.21807596672E+02 -0.15968849125E+02  0.29538723893E+02  0.00000000000E+00 0.  1.
</event>
<event>
 5    1  0.8907853E-005  0.9118800E+02  0.7818608E-02  0.1130116E+00
         25   -1    0    0    0    0  0.00000000000E+00  0.00000000000E+00  0.99999998245E-14  0.12500000000E+03  0.12500000000E+03 0.  0.
        -11    1    3    3    0    0  0.38376396996E+02 -0.24075044678E+01 -0.38580584793E+02  0.54470225328E+02  0.51100000000E-03 0.  1.
         23    2    1    0    0    0 -0.50175240515E+01  0.10887981652E+02 -0.18222117904E+01  0.11287382386E+03  0.11222056836E+03 0.  0.
         11    1    3    3    0    0 -0.43393921047E+02  0.13295486119E+02  0.36758373002E+02  0.58403598528E+02  0.51100000000E-03 0. -1.
         22    1    1    0    0    0  0.50175240515E+01 -0.10887981652E+02  0.18222117904E+01  0.12126176143E+02  0.00000000000E+00 0. -1.
</event>
<event>
 5    1  0.8907853E-005  0.9118800E+02  0.7818608E-02  0.1130116E+00
         25   -1    0    0    0    0  0.00000000000E+00  0.00000000000E+00  0.99999998245E-14  0.12500000000E+03  0.12500000000E+03 0.  0.
        -11    1    3    3    0    0  0.11682612950E+02  0.33241717677E+02 -0.35840877709E+01  0.35416675802E+02  0.51100000000E-03 0. -1.
         23    2    1    0    0    0 -0.19075665175E+02 -0.17965509716E+02 -0.12764006994E+02  0.95852780308E+02  0.91313717901E+02 0.  0.
         11    1    3    3    0    0 -0.30758278125E+02 -0.51207227394E+02 -0.91799192234E+01  0.60436104505E+02  0.51100000000E-03 0.  1.
         22    1    1    0    0    0  0.19075665175E+02  0.17965509716E+02  0.12764006994E+02  0.29147219692E+02  0.00000000000E+00 0.  1.
</event>
<event>
 5    1  0.8907853E-005  0.9118800E+02  0.7818608E-02  0.1130116E+00
         25   -1    0    0    0    0  0.00000000000E+00  0.00000000000E+00  0.99999998245E-14  0.12500000000E+03  0.12500000000E+03 0.  0.
        -11    1    3    3    0    0  0.26148978835E+02 -0.22071182859E+02 -0.20999919331E+02  0.40148509550E+02  0.51100000000E-03 0. -1.
         23    2    1    0    0    0 -0.14519252661E+02  0.16220234539E+02 -0.19100678154E+02  0.96038981160E+02  0.91568254815E+02 0.  0.
         11    1    3    3    0    0 -0.40668231496E+02  0.38291417398E+02  0.18992411775E+01  0.55890471609E+02  0.51100000000E-03 0.  1.
         22    1    1    0    0    0  0.14519252661E+02 -0.16220234539E+02  0.19100678154E+02  0.28961018840E+02  0.00000000000E+00 0.  1.
</event>
<event>
 5    1  0.8907853E-005  0.9118800E+02  0.7818608E-02  0.1130116E+00
         25   -1    0    0    0    0  0.00000000000E+00  0.00000000000E+00  0.99999998245E-14  0.12500000000E+03  0.12500000000E+03 0.  0.
        -11    1    3    3    0    0  0.20170397296E+02  0.24690496795E+02  0.30902723073E+02  0.44400944277E+02  0.51100000000E-03 0.  1.
         23    2    1    0    0    0 -0.69065723727E+01  0.23179048630E+02 -0.14144615714E+02  0.96981449163E+02  0.92845906160E+02 0.  0.
         11    1    3    3    0    0 -0.27076969669E+02 -0.15114481648E+01 -0.45047338787E+02  0.52580504886E+02  0.51100000000E-03 0. -1.
         22    1    1    0    0    0  0.69065723727E+01 -0.23179048630E+02  0.14144615714E+02  0.28018550837E+02  0.00000000000E+00 0. -1.
</event>
<event>
 5    1  0.8907853E-005  0.9118800E+02  0.7818608E-02  0.1130116E+00
         25   -1    0    0    0    0  0.00000000000E+00  0.00000000000E+00  0.99999998245E-14  0.12500000000E+03  0.12500000000E+03 0.  0.
        -11    1    3    3    0    0  0.40873332695E+02 -0.42767784224E+02 -0.13896024833E+02  0.60768513224E+02  0.51100000000E-03 0.  1.
         23    2    1    0    0    0  0.18467502777E+02 -0.30229182856E+02 -0.85592627878E+00  0.89565768461E+02  0.82258386291E+02 0.  0.
         11    1    3    3    0    0 -0.22405829918E+02  0.12538601368E+02  0.13040098554E+02  0.28797255237E+02  0.51100000000E-03 0. -1.
         22    1    1    0    0    0 -0.18467502777E+02  0.30229182856E+02  0.85592627878E+00  0.35434231539E+02  0.00000000000E+00 0.  1.
</event>
<event>
 5    1  0.8907853E-005  0.9118800E+02  0.7818608E-02  0.1130116E+00
         25   -1    0    0    0    0  0.00000000000E+00  0.00000000000E+00  0.99999998245E-14  0.12500000000E+03  0.12500000000E+03 0.  0.
        -11    1    3    3    0    0 -0.36050692240E+02  0.25010280206E+02 -0.43847622213E+01  0.44095268079E+02  0.51100000000E-03 0. -1.
         23    2    1    0    0    0 -0.15596751076E+02 -0.16852122703E+02  0.18036217477E+02  0.95801407147E+02  0.91243365714E+02 0.  0.
         11    1    3    3    0    0  0.20453941165E+02 -0.41862402909E+02  0.22420979698E+02  0.51706139068E+02  0.51100000000E-03 0.  1.
         22    1    1    0    0    0  0.15596751076E+02  0.16852122703E+02 -0.18036217477E+02  0.29198592853E+02  0.00000000000E+00 0. -1.
</event>
<event>
 5    1  0.8907853E-005  0.9118800E+02  0.7818608E-02  0.1130116E+00
         25   -1    0    0    0    0  0.00000000000E+00  0.00000000000E+00  0.99999998245E-14  0.12500000000E+03  0.12500000000E+03 0.  0.
        -11    1    3    3    0    0  0.10661977722E+02 -0.44341474229E+01  0.41306515675E+02  0.42890181508E+02  0.51100000000E-03 0.  1.
         23    2    1    0    0    0 -0.25755970916E+02 -0.11755369065E+02  0.25504019903E+01  0.96573545948E+02  0.92295105433E+02 0.  0.
         11    1    3    3    0    0 -0.36417948638E+02 -0.73212216423E+01 -0.38756113685E+02  0.53683364440E+02  0.51100000000E-03 0. -1.
         22    1    1    0    0    0  0.25755970916E+02  0.11755369065E+02 -0.25504019903E+01  0.28426454052E+02  0.00000000000E+00 0. -1.
</event>
<event>
 5    1  0.8907853E-005  0.9118800E+02  0.7818608E-02  0.1130116E+00
         25   -1    0    0    0    0  0.00000000000E+00  0.00000000000E+00  0.99999998245E-14  0.12500000000E+03  0.12500000000E+03 0.  0.
        -11    1    3    3    0    0  0.53621536097E+02 -0.12005519838E+02  0.14726387774E+02  0.56888207365E+02  0.51100000000E-03 0. -1.
         23    2    1    0    0    0  0.31017995299E+02  0.93615894760E+01 -0.26057450827E+01  0.92495457282E+02  0.86595983281E+02 0.  0.
         11    1    3    3    0    0 -0.22603540798E+02  0.21367109314E+02 -0.17332132856E+02  0.35607249917E+02  0.51100000000E-03 0.  1.
         22    1    1    0    0    0 -0.31017995299E+02 -0.93615894760E+01  0.26057450827E+01  0.32504542718E+02  0.00000000000E+00 0. -1.
</event>
<event>
 5    1  0.8907853E-005  0.9118800E+02  0.7818608E-02  0.1130116E+00
         25   -1    0    0    0    0  0.00000000000E+00  0.00000000000E+00  0.99999998245E-14  0.12500000000E+03  0.12500000000E+03 0.  0.
        -11    1    3    3    0    0 -0.21094515036E+01  0.22652174899E+02 -0.28356056087E+02  0.36354322032E+02  0.51100000000E-03 0. -1.
         23    2    1    0    0    0 -0.46364224728E+01  0.79269397655E+01  0.28456424692E+02  0.95098480078E+02  0.90275245885E+02 0.  0.
         11    1    3    3    0    0 -0.25269709692E+01 -0.14725235134E+02  0.56812480779E+02  0.58744158046E+02  0.51100000000E-03 0.  1.
         22    1    1    0    0    0  0.46364224728E+01 -0.79269397655E+01 -0.28456424692E+02  0.29901519922E+02  0.00000000000E+00 0.  1.
</event>
<event>
 5    1  0.8907853E-005  0.9118800E+02  0.7818608E-02  0.1130116E+00
         25   -1    0    0    0    0  0.00000000000E+00  0.00000000000E+00  0.99999998245E-14  0.12500000000E+03  0.12500000000E+03 0.  0.
        -11    1    3    3    0    0 -0.27744794494E+01 -0.55773931816E+02 -0.15835660141E+02  0.58044787353E+02  0.51100000000E-03 0.  1.
         23    2    1    0    0    0  0.30602832724E+01 -0.23852428601E+02  0.94280078789E+01  0.99169959032E+02  0.95747009133E+02 0.  0.
         11    1    3    3    0    0  0.58347627218E+01  0.31921503215E+02  0.25263668020E+02  0.41125171679E+02  0.51100000000E-03 0. -1.
         22    1    1    0    0    0 -0.30602832724E+01  0.23852428601E+02 -0.94280078789E+01  0.25830040968E+02  0.00000000000E+00 0.  1.
</event>
<event>
 5    1  0.8907853E-005  0.9118800E+02  0.7818608E-02  0.1130116E+00
         25   -1    0    0    0    0  0.00000000000E+00  0.00000000000E+00  0.99999998245E-14  0.12500000000E+03  0.12500000000E+03 0.  0.
        -11    1    3    3    0    0 -0.14179196409E+02 -0.33717693326E+02 -0.10842386108E+02  0.38150881914E+02  0.51100000000E-03 0. -1.
         23    2    1    0    0    0  0.29211912495E+02  0.29144849323E+01 -0.26801502357E+01  0.95520969159E+02  0.90858363896E+02 0.  0.
         11    1    3    3    0    0  0.43391108903E+02  0.36632178259E+02  0.81622358720E+01  0.57370087245E+02  0.51100000000E-03 0.  1.
         22    1    1    0    0    0 -0.29211912495E+02 -0.29144849323E+01  0.26801502357E+01  0.29479030841E+02  0.00000000000E+00 0.  1.
</event>
<event>
 5    1  0.8907853E-005  0.9118800E+02  0.7818608E-02  0.1130116E+00
         25   -1    0    0    0    0  0.00000000000E+00  0.00000000000E+00  0.99999998245E-14  0.12500000000E+03  0.12500000000E+03 0.  0.
        -11    1    3    3    0    0 -0.47551766266E+02 -0.28251817575E+02  0.13525499179E+02  0.56940976455E+02  0.51100000000E-03 0. -1.
         23    2    1    0    0    0 -0.28772047821E+02 -0.11628749532E+01 -0.64603705876E+01  0.95488656383E+02  0.90813898142E+02 0.  0.
         11    1    3    3    0    0  0.18779718445E+02  0.27088942622E+02 -0.19985869766E+02  0.38547679928E+02  0.51100000000E-03 0.  1.
         22    1    1    0    0    0  0.28772047821E+02  0.11628749532E+01  0.64603705876E+01  0.29511343617E+02  0.00000000000E+00 0. -1.
</event>
<event>
 5    1  0.8907853E-005  0.9118800E+02  0.7818608E-02  0.1130116E+00
         25   -1    0    0    0    0  0.00000000000E+00  0.00000000000E+00  0.99999998245E-14  0.12500000000E+03  0.12500000000E+03 0.  0.
        -11    1    3    3    0    0  0.70091642952E+01 -0.56548610352E+00 -0.51946424415E+02  0.52420217173E+02  0.51100000000E-03 0.  1.
         23    2    1    0    0    0  0.18179886837E+02 -0.18706989015E+02 -0.15443435855E+02  0.94685656293E+02  0.89701806410E+02 0.  0.
         11    1    3    3    0    0  0.11170722541E+02 -0.18141502911E+02  0.36502988560E+02  0.42265439120E+02  0.51100000000E-03 0. -1.
         22    1    1    0    0    0 -0.18179886837E+02  0.18706989015E+02  0.15443435855E+02  0.30314343707E+02  0.00000000000E+00 0.  1.
</event>
<event>
 5    1  0.8907853E-005  0.9118800E+02  0.7818608E-02  0.1130116E+00
         25   -1    0    0    0    0  0.00000000000E+00  0.00000000000E+00  0.99999998245E-14  0.12500000000E+03  0.12500000000E+03 0.  0.
        -11    1    3    3    0    0 -0.38322454415E+02 -0.15622971250E+01  0.39773147968E+02  0.55253548160E+02  0.51100000000E-03 0. -1.
         23    2    1    0    0    0  0.93541522228E+00 -0.74849098176E+01  0.27009616167E+02  0.96956850353E+02  0.92812782462E+02 0.  0.
         11    1    3    3    0    0  0.39257869637E+02 -0.59226126926E+01 -0.12763531801E+02  0.41703302194E+02  0.51100000000E-03 0.  1.
         22    1    1    0    0    0 -0.93541522228E+00  0.74849098176E+01 -0.27009616167E+02  0.28043149647E+02  0.00000000000E+00 0. -1.
</event>
<event>
 5    1  0.8907853E-005  0.9118800E+02  0.7818608E-02  0.1130116E+00
         25   -1    0    0    0    0  0.00000000000E+00  0.00000000000E+00  0.99999998245E-14  0.12500000000E+03  0.12500000000E+03 0.  0.
        -11    1    3    3    0    0  0.10843941163E+02  0.31925959945E+02  0.19307944047E+02  0.38854274951E+02  0.51100000000E-03 0.  1.
         23    2    1    0    0    0 -0.35142381899E+01 -0.18094936421E+02  0.27860960071E+02  0.91593268788E+02  0.85283745210E+02 0.  0.
         11    1    3    3    0    0 -0.14358179353E+02 -0.50020896366E+02  0.85530160240E+01  0.52738993838E+02  0.51100000000E-03 0. -1.
         22    1    1    0    0    0  0.35142381899E+01  0.18094936421E+02 -0.27860960071E+02  0.33406731212E+02  0.00000000000E+00 0. -1.
</event>
<event>
 5    1  0.8907853E-005  0.9118800E+02  0.7818608E-02  0.1130116E+00
         25   -1    0    0    0    0  0.00000000000E+00  0.00000000000E+00  0.99999998245E-14  0.12500000000E+03  0.12500000000E+03 0.  0.
        -11    1    3    3    0    0 -0.41604178126E+02 -0.17698173784E+02 -0.15420582089E+02  0.47769523182E+02  0.51100000000E-03 0. -1.
         23    2    1    0    0    0 -0.14372914470E+02 -0.15684966230E+02  0.22198024289E+02  0.94253437293E+02  0.89097470913E+02 0.  0.
         11    1    3    3    0    0  0.27231263656E+02  0.20132075542E+01  0.37618606377E+02  0.46483914110E+02  0.51100000000E-03 0.  1.
         22    1    1    0    0    0  0.14372914470E+02  0.15684966230E+02 -0.22198024289E+02  0.30746562707E+02  0.00000000000E+00 0. -1.
</event>
<event>
 5    1  0.8907853E-005  0.9118800E+02  0.7818608E-02  0.1130116E+00
         25   -1    0    0    0    0  0.00000000000E+00  0.00000000000E+00  0.99999998245E-14  0.12500000000E+03  0.12500000000E+03 0.  0.
        -11    1    3    3    0    0  0.42081301863E+02  0.16681357678E+02 -0.39935324068E+02  0.60365004507E+02  0.51100000000E-03 0. -1.
         23    2    1    0    0    0  0.32084556422E+02  0.18075158741E+01 -0.20104226358E+02  0.87093987391E+02  0.78412351372E+02 0.  0.
         11    1    3    3    0    0 -0.99967454407E+01 -0.14873841804E+02  0.19831097709E+02  0.26728982884E+02  0.51100000000E-03 0.  1.
         22    1    1    0    0    0 -0.32084556422E+02 -0.18075158741E+01  0.20104226358E+02  0.37906012609E+02  0.00000000000E+00 0. -1.
</event>
<event>
 5    1  0.8907853E-005  0.9118800E+02  0.7818608E-02  0.1130116E+00
         25   -1    0    0    0    0  0.00000000000E+00  0.00000000000E+00  0.99999998245E-14  0.12500000000E+03  0.12500000000E+03 0.  0.
        -11    1    3    3    0    0 -0.22649612767E+02 -0.53735542002E+02 -0.10987588482E+02  0.59340041571E+02  0.51100000000E-03 0.  1.
         23    2    1    0    0    0 -0.41885426850E+01 -0.28079297427E+02  0.70707503438E+01  0.95742755696E+02  0.91162980009E+02 0.  0.
         11    1    3    3    0    0  0.18461070082E+02  0.25656244575E+02  0.18058338826E+02  0.36402714125E+02  0.51100000000E-03 0. -1.
         22    1    1    0    0    0  0.41885426850E+01  0.28079297427E+02 -0.70707503438E+01  0.29257244304E+02  0.00000000000E+00 0.  1.
</event>
<event>
 5    1  0.8907853E-005  0.9118800E+02  0.7818608E-02  0.1130116E+00
         25   -1    0    0    0    0  0.00000000000E+00  0.00000000000E+00  0.99999998245E-14  0.12500000000E+03  0.12500000000E+03 0.  0.
        -11    1    3    3    0    0 -0.72862879695E+01 -0.61843181578E+01  0.43278686856E+02  0.44321332558E+02  0.51100000000E-03 0. -1.
         23    2    1    0    0    0  0.28409362336E+02 -0.62922818248E+01  0.73060685103E+01  0.94998944752E+02  0.90137318510E+02 0.  0.
         11    1    3    3    0    0  0.35695650305E+02 -0.10796366697E+00 -0.35972618346E+02  0.50677612195E+02  0.51100000000E-03 0.  1.
         22    1    1    0    0    0 -0.28409362336E+02  0.62922818248E+01 -0.73060685103E+01  0.30001055248E+02  0.00000000000E+00 0.  1.
</event>
<event>
 5    1  0.8907853E-005  0.9118800E+02  0.7818608E-02  0.1130116E+00
         25   -1    0    0    0    0  0.00000000000E+00  0.00000000000E+00  0.99999998245E-14  0.12500000000E+03  0.12500000000E+03 0.  0.
        -11    1    3    3    0    0  0.28290884252E+02 -0.82809080817E+01 -0.46660399425E+02  0.55191851257E+02  0.51100000000E-03 0. -1.
         23    2    1    0    0    0 -0.29295214808E+01 -0.14910251820E+02 -0.30404872253E+02  0.91009501884E+02  0.84423784984E+02 0.  0.
         11    1    3    3    0    0 -0.31220405733E+02 -0.66293437388E+01  0.16255527172E+02  0.35817650627E+02  0.51100000000E-03 0.  1.
         22    1    1    0    0    0  0.29295214808E+01  0.14910251820E+02  0.30404872253E+02  0.33990498116E+02  0.00000000000E+00 0. -1.
</event>
<event>
 5    1  0.8907853E-005  0.9118800E+02  0.7818608E-02  0.1130116E+00
         25   -1    0    0    0    0  0.00000000000E+00  0.00000000000E+00  0.99999998245E-14  0.12500000000E+03  0.12500000000E+03 0.  0.
        -11    1    3    3    0    0  0.60963410293E+02 -0.34926084408E+01 -0.16237238597E+01  0.61084958768E+02  0.51100000000E-03 0.  1.
         23    2    1    0    0    0  0.28476025144E+02 -0.44679766167E+01  0.81871189691E+01  0.95035425249E+02  0.90187894488E+02 0.  0.
         11    1    3    3    0    0 -0.32487385150E+02 -0.97536817595E+00  0.98108428288E+01  0.33950466480E+02  0.51100000000E-03 0. -1.
         22    1    1    0    0    0 -0.28476025144E+02  0.44679766167E+01 -0.81871189691E+01  0.29964574751E+02  0.00000000000E+00 0.  1.
</event>
<event>
 5    1  0.8907853E-005  0.9118800E+02  0.7818608E-02  0.1130116E+00
         25   -1    0    0    0    0  0.00000000000E+00  0.00000000000E+00  0.99999998245E-14  0.12500000000E+03  0.12500000000E+03 0.  0.
        -11    1    3    3    0    0  0.39166624144E+02 -0.36619482133E+02  0.22541605492E+02  0.58164722099E+02  0.51100000000E-03 0. -1.
         23    2    1    0    0    0  0.35923878617E+01 -0.22224482348E+02  0.16668841493E+02  0.96987803675E+02  0.92854460953E+02 0.  0.
         11    1    3    3    0    0 -0.35574236282E+02  0.14394999785E+02 -0.58727639982E+01  0.38823081576E+02  0.51100000000E-03 0.  1.
         22    1    1    0    0    0 -0.35923878617E+01  0.22224482348E+02 -0.16668841493E+02  0.28012196325E+02  0.00000000000E+00 0. -1.
</event>
<event>
 5    1  0.8907853E-005  0.9118800E+02  0.7818608E-02  0.1130116E+00
         25   -1    0    0    0    0  0.00000000000E+00  0.00000000000E+00  0.99999998245E-14  0.12500000000E+03  0.12500000000E+03 0.  0.
        -11    1    3    3    0    0 -0.38514520072E+02  0.33494919514E+02 -0.12139188793E+02  0.52465586763E+02  0.51100000000E-03 0.  1.
         23    2    1    0    0    0 -0.60080378316E+01  0.10926493542E+02 -0.27413463214E+02  0.94883845778E+02  0.89977560784E+02 0.  0.
         11    1    3    3    0    0  0.32506482241E+02 -0.22568425972E+02 -0.15274274421E+02  0.42418259015E+02  0.51100000000E-03 0. -1.
         22    1    1    0    0    0  0.60080378316E+01 -0.10926493542E+02  0.27413463214E+02  0.30116154222E+02  0.00000000000E+00 0.  1.
</event>
<event>
 5    1  0.8907853E-005  0.9118800E+02  0.7818608E-02  0.1130116E+00
         25   -1    0    0    0    0  0.00000000000E+00  0.00000000000E+00  0.99999998245E-14  0.12500000000E+03  0.12500000000E+03 0.  0.
        -11    1    3    3    0    0 -0.27593997557E+01  0.69418290046E+01  0.35084298431E+02  0.35870757918E+02  0.51100000000E-03 0. -1.
         23    2    1    0    0    0  0.20762601942E+02 -0.17692590710E+02 -0.12988578711E+02  0.94787145412E+02  0.89843120789E+02 0.  0.
         11    1    3    3    0    0  0.23522001697E+02 -0.24634419714E+02 -0.48072877142E+02  0.58916387495E+02  0.51100000000E-03 0.  1.
         22    1    1    0    0    0 -0.20762601942E+02  0.17692590710E+02  0.12988578711E+02  0.30212854588E+02  0.00000000000E+00 0.  1.
</event>
<event>
 5    1  0.8907853E-005  0.9118800E+02  0.7818608E-02  0.1130116E+00
         25   -1    0    0    0    0  0.00000000000E+00  0.00000000000E+00  0.99999998245E-14  0.12500000000E+03  0.12500000000E+03 0.  0.
        -11    1    3    3    0    0  0.34135087373E+02 -0.29495913629E+02  0.42228237080E+02  0.61793503849E+02  0.51100000000E-03 0. -1.
         23    2    1    0    0    0  0.81014223756E+01 -0.68766523207E+01  0.18533017472E+02  0.10363661712E+03  0.10141081934E+03 0.  0.
         11    1    3    3    0    0 -0.26033664997E+02  0.22619261308E+02 -0.23695219608E+02  0.41843113267E+02  0.51100000000E-03 0.  1.
         22    1    1    0    0    0 -0.81014223756E+01  0.68766523207E+01 -0.18533017472E+02  0.21363382884E+02  0.00000000000E+00 0. -1.
</event>
<event>
 5    1  0.8907853E-005  0.9118800E+02  0.7818608E-02  0.1130116E+00
         25   -1    0    0    0    0  0.00000000000E+00  0.00000000000E+00  0.99999998245E-14  0.12500000000E+03  0.12500000000E+03 0.  0.
        -11    1    3    3    0    0 -0.32278852668E+02 -0.28920718860E+02  0.19937091876E+02  0.47705554621E+02  0.51100000000E-03 0.  1.
         23    2    1    0    0    0 -0.14796026273E+02  0.15468942235E+02  0.20420063455E+02  0.95416397128E+02  0.90714382995E+02 0.  0.
         11    1    3    3    0    0  0.17482826395E+02  0.44389661096E+02  0.48297157921E+00  0.47710842507E+02  0.51100000000E-03 0. -1.
         22    1    1    0    0    0  0.14796026273E+02 -0.15468942235E+02 -0.20420063455E+02  0.29583602872E+02  0.00000000000E+00 0.  1.
</event>
<event>
 5    1  0.8907853E-005  0.9118800E+02  0.7818608E-02  0.1130116E+00
         25   -1    0    0    0    0  0.00000000000E+00  0.00000000000E+00  0.99999998245E-14  0.12500000000E+03  0.12500000000E+03 0.  0.
        -11    1    3    3    0    0 -0.12869148780E+02  0.42845607544E+02  0.13157984954E+02  0.46631466248E+02  0.51100000000E-03 0.  1.
         23    2    1    0    0    0 -0.13520940447E+02 -0.63126405134E+01  0.23777625451E+02  0.96927936789E+02  0.92773833581E+02 0.  0.
         11    1    3    3    0    0 -0.65179166684E+00 -0.49158248057E+02  0.10619640497E+02  0.50296470542E+02  0.51100000000E-03 0. -1.
         22    1    1    0    0    0  0.13520940447E+02  0.63126405134E+01 -0.23777625451E+02  0.28072063211E+02  0.00000000000E+00 0. -1.
</event>
<event>
 5    1  0.8907853E-005  0.9118800E+02  0.7818608E-02  0.1130116E+00
         25   -1    0    0    0    0  0.00000000000E+00  0.00000000000E+00  0.99999998245E-14  0.12500000000E+03  0.12500000000E+03 0.  0.
        -11    1    3    3    0    0  0.19320844100E+02 -0.38143186461E+02 -0.19677358236E+02  0.47067994620E+02  0.51100000000E-03 0.  1.
         23    2    1    0    0    0  0.17691374973E+02  0.14383973777E+02 -0.73082357641E+01  0.10105644638E+03  0.98178977356E+02 0.  0.
         11    1    3    3    0    0 -0.16294691273E+01  0.52527160238E+02  0.12369122472E+02  0.53988451758E+02  0.51100000000E-03 0. -1.
         22    1    1    0    0    0 -0.17691374973E+02 -0.14383973777E+02  0.73082357641E+01  0.23943553621E+02  0.00000000000E+00 0.  1.
</event>
<event>
 5    1  0.8907853E-005  0.9118800E+02  0.7818608E-02  0.1130116E+00
         25   -1    0    0    0    0  0.00000000000E+00  0.00000000000E+00  0.99999998245E-14  0.12500000000E+03  0.12500000000E+03 0.  0.
        -11    1    3    3    0    0 -0.37602548201E+02 -0.17818819330E+02  0.18416168347E+01  0.41651572676E+02  0.51100000000E-03 0. -1.
         23    2    1    0    0    0  0.19881657455E+02 -0.12038787696E+02 -0.83215447732E+01  0.10031273973E+03  0.97227490618E+02 0.  0.
         11    1    3    3    0    0  0.57484205657E+02  0.57800316336E+01 -0.10163161608E+02  0.58661167051E+02  0.51100000000E-03 0.  1.
         22    1    1    0    0    0 -0.19881657455E+02  0.12038787696E+02  0.83215447732E+01  0.24687260273E+02  0.00000000000E+00 0.  1.
</event>
<event>
 5    1  0.8907853E-005  0.9118800E+02  0.7818608E-02  0.1130116E+00
         25   -1    0    0    0    0  0.00000000000E+00  0.00000000000E+00  0.99999998245E-14  0.12500000000E+03  0.12500000000E+03 0.  0.
        -11    1    3    3    0    0 -0.65945276751E+01 -0.22962115499E+02  0.33185015078E+02  0.40889995958E+02  0.51100000000E-03 0. -1.
         23    2    1    0    0    0 -0.15079711358E+02 -0.14690546059E+02 -0.20349390015E+02  0.95720185927E+02  0.91132027750E+02 0.  0.
         11    1    3    3    0    0 -0.84851836833E+01  0.82715694393E+01 -0.53534405093E+02  0.54830189969E+02  0.51100000000E-03 0.  1.
         22    1    1    0    0    0  0.15079711358E+02  0.14690546059E+02  0.20349390015E+02  0.29279814073E+02  0.00000000000E+00 0.  1.
</event>
<event>
 5    1  0.8907853E-005  0.9118800E+02  0.7818608E-02  0.1130116E+00
         25   -1    0    0    0    0  0.00000000000E+00  0.00000000000E+00  0.99999998245E-14  0.12500000000E+03  0.12500000000E+03 0.  0.
        -11    1    3    3    0    0  0.17823221244E+02 -0.43858346208E+02 -0.60333916478E+01  0.47724454556E+02  0.51100000000E-03 0.  1.
         23    2    1    0    0    0 -0.22320453400E+02 -0.15342744104E+02 -0.71828804129E+01  0.96978647291E+02  0.92842133876E+02 0.  0.
         11    1    3    3    0    0 -0.40143674644E+02  0.28515602104E+02 -0.11494887650E+01  0.49254192735E+02  0.51100000000E-03 0. -1.
         22    1    1    0    0    0  0.22320453400E+02  0.15342744104E+02  0.71828804129E+01  0.28021352709E+02  0.00000000000E+00 0.  1.
</event>
<event>
 5    1  0.8907853E-005  0.9118800E+02  0.7818608E-02  0.1130116E+00
         25   -1    0    0    0    0  0.00000000000E+00  0.00000000000E+00  0.99999998245E-14  0.12500000000E+03  0.12500000000E+03 0.  0.
        -11    1    3    3    0    0  0.24141154537E+02  0.27127316119E+02  0.45647844410E+02  0.58330200769E+02  0.51100000000E-03 0. -1.
         23    2    1    0    0    0  0.16573830170E+02 -0.81991918537E+00  0.28612926627E+02  0.91923366493E+02  0.85766203270E+02 0.  0.
         11    1    3    3    0    0 -0.75673243669E+01 -0.27947235305E+02 -0.17034917783E+02  0.33593165724E+02  0.51100000000E-03 0.  1.
         22    1    1    0    0    0 -0.16573830170E+02  0.81991918537E+00 -0.28612926627E+02  0.33076633507E+02  0.00000000000E+00 0. -1.
</event>
<event>
 5    1  0.8907853E-005  0.9118800E+02  0.7818608E-02  0.1130116E+00
         25   -1    0    0    0    0  0.00000000000E+00  0.00000000000E+00  0.99999998245E-14  0.12500000000E+03  0.12500000000E+03 0.  0.
        -11    1    3    3    0    0 -0.13774515185E+02  0.30059844129E+02  0.26039717609E+02  0.42087983927E+02  0.51100000000E-03 0.  1.
         23    2    1    0    0    0  0.25315463364E+02 -0.49165165601E+01  0.12913721917E+02  0.96158900261E+02  0.91731810541E+02 0.  0.
         11    1    3    3    0    0  0.39089978549E+02 -0.34976360689E+02 -0.13125995692E+02  0.54070916334E+02  0.51100000000E-03 0. -1.
         22    1    1    0    0    0 -0.25315463364E+02  0.49165165601E+01 -0.12913721917E+02  0.28841099739E+02  0.00000000000E+00 0. -1.
</event>
<event>
 5    1  0.8907853E-005  0.9118800E+02  0.7818608E-02  0.1130116E+00
         25   -1    0    0    0    0  0.00000000000E+00  0.00000000000E+00  0.99999998245E-14  0.12500000000E+03  0.12500000000E+03 0.  0.
        -11    1    3    3    0    0  0.16444509477E+02 -0.11002353479E+02  0.28695185548E+02  0.34855234154E+02  0.51100000000E-03 0. -1.
         23    2    1    0    0    0 -0.17479114113E+02  0.10401539760E+02 -0.18993942502E+02  0.97170495669E+02  0.93100074743E+02 0.  0.
         11    1    3    3    0    0 -0.33923623590E+02  0.21403893239E+02 -0.47689128050E+02  0.62315261515E+02  0.51100000000E-03 0.  1.
         22    1    1    0    0    0  0.17479114113E+02 -0.10401539760E+02  0.18993942502E+02  0.27829504331E+02  0.00000000000E+00 0.  1.
</event>
<event>
 5    1  0.8907853E-005  0.9118800E+02  0.7818608E-02  0.1130116E+00
         25   -1    0    0    0    0  0.00000000000E+00  0.00000000000E+00  0.99999998245E-14  0.12500000000E+03  0.12500000000E+03 0.  0.
        -11    1    3    3    0    0  0.28169693469E+02  0.21746629254E+02  0.18543695118E+02  0.40128744597E+02  0.51100000000E-03 0. -1.
         23    2    1    0    0    0  0.23381187673E+02  0.18377229041E+02 -0.26267891511E+02  0.85321232269E+02  0.75533489707E+02 0.  0.
         11    1    3    3    0    0 -0.47885057960E+01 -0.33694002128E+01 -0.44811586629E+02  0.45192487672E+02  0.51100000000E-03 0.  1.
         22    1    1    0    0    0 -0.23381187673E+02 -0.18377229041E+02  0.26267891511E+02  0.39678767731E+02  0.00000000000E+00 0. -1.
</event>
<event>
 5    1  0.8907853E-005  0.9118800E+02  0.7818608E-02  0.1130116E+00
         25   -1    0    0    0    0  0.00000000000E+00  0.00000000000E+00  0.99999998245E-14  0.12500000000E+03  0.12500000000E+03 0.  0.
        -11    1    3    3    0    0 -0.21519797387E+02 -0.16626849230E+02 -0.47057298642E+02  0.54350189978E+02  0.51100000000E-03 0.  1.
         23    2    1    0    0    0  0.75625299464E+01  0.37204933300E+01 -0.30204651310E+02  0.93641510072E+02  0.88234786326E+02 0.  0.
         11    1    3    3    0    0  0.29082327333E+02  0.20347342560E+02  0.16852647333E+02  0.39291320094E+02  0.51100000000E-03 0. -1.
         22    1    1    0    0    0 -0.75625299464E+01 -0.37204933300E+01  0.30204651310E+02  0.31358489928E+02  0.00000000000E+00 0.  1.
</event>
<event>
 5    1  0.8907853E-005  0.9118800E+02  0.7818608E-02  0.1130116E+00
         25   -1    0    0    0    0  0.00000000000E+00  0.00000000000E+00  0.99999998245E-14  0.12500000000E+03  0.12500000000E+03 0.  0.
        -11    1    3    3    0    0 -0.21869869486E+02 -0.15397979689E+02 -0.17793535857E+02  0.32124739507E+02  0.51100000000E-03 0. -1.
         23    2    1    0    0    0  0.50554959090E+01  0.32600107292E+02  0.48883454151E+01  0.91650023160E+02  0.85366889307E+02 0.  0.
         11    1    3    3    0    0  0.26925365395E+02  0.47998086982E+02  0.22681881272E+02  0.59525283652E+02  0.51100000000E-03 0.  1.
         22    1    1    0    0    0 -0.50554959090E+01 -0.32600107292E+02 -0.48883454151E+01  0.33349976840E+02  0.00000000000E+00 0.  1.
</event>
<event>
 5    1  0.8907853E-005  0.9118800E+02  0.7818608E-02  0.1130116E+00
         25   -1    0    0    0    0  0.00000000000E+00  0.00000000000E+00  0.99999998245E-14  0.12500000000E+03  0.12500000000E+03 0.  0.
        -11    1    3    3    0    0 -0.11595399666E+01  0.55224934173E+02  0.18446542706E+02  0.58235837982E+02  0.51100000000E-03 0.  1.
         23    2    1    0    0    0  0.10291452348E+02  0.19299755157E+02  0.19121461177E+02  0.95947894774E+02  0.91443828077E+02 0.  0.
         11    1    3    3    0    0  0.11450992314E+02 -0.35925179016E+02  0.67491847041E+00  0.37712056792E+02  0.51100000000E-03 0. -1.
         22    1    1    0    0    0 -0.10291452348E+02 -0.19299755157E+02 -0.19121461177E+02  0.29052105226E+02  0.00000000000E+00 0.  1.
</event>
<event>
 5    1  0.8907853E-005  0.9118800E+02  0.7818608E-02  0.1130116E+00
         25   -1    0    0    0    0  0.00000000000E+00  0.00000000000E+00  0.99999998245E-14  0.12500000000E+03  0.12500000000E+03 0.  0.
        -11    1    3    3    0    0  0.23589489204E+02  0.24811307573E+02  0.45109629757E+02  0.56629883290E+02  0.51100000000E-03 0. -1.
         23    2    1    0    0    0  0.19010156956E+02 -0.60449544798E+01  0.20824540411E+02  0.96162714665E+02  0.91737008161E+02 0.  0.
         11    1    3    3    0    0 -0.45793322484E+01 -0.30856262053E+02 -0.24285089345E+02  0.39532831375E+02  0.51100000000E-03 0.  1.
         22    1    1    0    0    0 -0.19010156956E+02  0.60449544798E+01 -0.20824540411E+02  0.28837285335E+02  0.00000000000E+00 0. -1.
</event>
<event>
 5    1  0.8907853E-005  0.9118800E+02  0.7818608E-02  0.1130116E+00
         25   -1    0    0    0    0  0.00000000000E+00  0.00000000000E+00  0.99999998245E-14  0.12500000000E+03  0.12500000000E+03 0.  0.
        -11    1    3    3    0    0  0.13713050886E+02 -0.35333824395E+02 -0.47714570866E+02  0.60936090981E+02  0.51100000000E-03 0.  1.
         23    2    1    0    0    0  0.16062743743E+02 -0.17960718951E+02 -0.20219080638E+02  0.93545105569E+02  0.88098106633E+02 0.  0.
         11    1    3    3    0    0  0.23496928574E+01  0.17373105443E+02  0.27495490227E+02  0.32609014588E+02  0.51100000000E-03 0. -1.
         22    1    1    0    0    0 -0.16062743743E+02  0.17960718951E+02  0.20219080638E+02  0.31454894431E+02  0.00000000000E+00 0.  1.
</event>
<event>
 5    1  0.8907853E-005  0.9118800E+02  0.7818608E-02  0.1130116E+00
         25   -1    0    0    0    0  0.00000000000E+00  0.00000000000E+00  0.99999998245E-14  0.12500000000E+03  0.12500000000E+03 0.  0.
        -11    1    3    3    0    0 -0.19274309432E+02 -0.21115165978E+02  0.34479619704E+02  0.44790550494E+02  0.51100000000E-03 0. -1.
         23    2    1    0    0    0 -0.80563269937E+01  0.23780796138E+02  0.58094592706E+01  0.99228300665E+02  0.95823145254E+02 0.  0.
         11    1    3    3    0    0  0.11217982438E+02  0.44895962116E+02 -0.28670160433E+02  0.54437750172E+02  0.51100000000E-03 0.  1.
         22    1    1    0    0    0  0.80563269937E+01 -0.23780796138E+02 -0.58094592706E+01  0.25771699335E+02  0.00000000000E+00 0.  1.
</event>
<event>
 5    1  0.8907853E-005  0.9118800E+02  0.7818608E-02  0.1130116E+00
         25   -1    0    0    0    0  0.00000000000E+00  0.00000000000E+00  0.99999998245E-14  0.12500000000E+03  0.12500000000E+03 0.  0.
        -11    1    3    3    0    0 -0.52515556064E+02 -0.81819593383E+01 -0.29799821769E+02  0.60933221358E+02  0.51100000000E-03 0. -1.
         23    2    1    0    0    0 -0.19334440573E+02 -0.90279456715E+01 -0.32958958168E+01  0.10340862847E+03  0.10112940778E+03 0.  0.
         11    1    3    3    0    0  0.33181115491E+02 -0.84598633322E+00  0.26503925953E+02  0.42475407112E+02  0.51100000000E-03 0.  1.
         22    1    1    0    0    0  0.19334440573E+02  0.90279456715E+01  0.32958958168E+01  0.21591371530E+02  0.00000000000E+00 0. -1.
</event>
<event>
 5    1  0.8907853E-005  0.9118800E+02  0.7818608E-02  0.1130116E+00
         25   -1    0    0    0    0  0.00000000000E+00  0.00000000000E+00  0.99999998245E-14  0.12500000000E+03  0.12500000000E+03 0.  0.
        -11    1    3    3    0    0 -0.19717935281E+02 -0.35179578162E+02  0.21308661725E+00  0.40329208988E+02  0.51100000000E-03 0.  1.
         23    2    1    0    0    0  0.63621135009E+01 -0.87063897270E+01 -0.33069776357E+02  0.90216558270E+02  0.83241453420E+02 0.  0.
         11    1    3    3    0    0  0.26080048782E+02  0.26473188435E+02 -0.33282862974E+02  0.49887349282E+02  0.51100000000E-03 0. -1.
         22    1    1    0    0    0 -0.63621135009E+01  0.87063897270E+01  0.33069776357E+02  0.34783441730E+02  0.00000000000E+00 0. -1.
</event>
<event>
 5    1  0.8907853E-005  0.9118800E+02  0.7818608E-02  0.1130116E+00
         25   -1    0    0    0    0  0.00000000000E+00  0.00000000000E+00  0.99999998245E-14  0.12500000000E+03  0.12500000000E+03 0.  0.
        -11    1    3    3    0    0 -0.54146563317E+01  0.52549027785E+02  0.12684386924E+02  0.54328744659E+02  0.51100000000E-03 0.  1.
         23    2    1    0    0    0 -0.11920180156E+02  0.13469680156E+02  0.23510248537E+02  0.95398399288E+02  0.90689579456E+02 0.  0.
         11    1    3    3    0    0 -0.65055238240E+01 -0.39079347630E+02  0.10825861614E+02  0.41069654629E+02  0.51100000000E-03 0. -1.
         22    1    1    0    0    0  0.11920180156E+02 -0.13469680156E+02 -0.23510248537E+02  0.29601600712E+02  0.00000000000E+00 0.  1.
</event>
<event>
 5    1  0.8907853E-005  0.9118800E+02  0.7818608E-02  0.1130116E+00
         25   -1    0    0    0    0  0.00000000000E+00  0.00000000000E+00  0.99999998245E-14  0.12500000000E+03  0.12500000000E+03 0.  0.
        -11    1    3    3    0    0  0.33840892134E+02 -0.24180406143E+02  0.30726359130E+02  0.51710803197E+02  0.51100000000E-03 0. -1.
         23    2    1    0    0    0 -0.82303644912E+01 -0.15978645361E+02  0.23871119739E+02  0.95118795794E+02  0.90303371745E+02 0.  0.
         11    1    3    3    0    0 -0.42071256625E+02  0.82017607816E+01 -0.68552393919E+01  0.43407992597E+02  0.51100000000E-03 0.  1.
         22    1    1    0    0    0  0.82303644912E+01  0.15978645361E+02 -0.23871119739E+02  0.29881204206E+02  0.00000000000E+00 0. -1.
</event>
<event>
 5    1  0.8907853E-005  0.9118800E+02  0.7818608E-02  0.1130116E+00
         25   -1    0    0    0    0  0.00000000000E+00  0.00000000000E+00  0.99999998245E-14  0.12500000000E+03  0.12500000000E+03 0.  0.
        -11    1    3    3    0    0  0.29802548201E+02  0.25625414225E+02 -0.11244990434E+02  0.40881579515E+02  0.51100000000E-03 0.  1.
         23    2    1    0    0    0 -0.12816388692E+02 -0.68521452125E+01 -0.24892534605E+02  0.96175531364E+02  0.91754470414E+02 0.  0.
         11    1    3    3    0    0 -0.42618936893E+02 -0.32477559438E+02 -0.13647544171E+02  0.55293951849E+02  0.51100000000E-03 0. -1.
         22    1    1    0    0    0  0.12816388692E+02  0.68521452125E+01  0.24892534605E+02  0.28824468636E+02  0.00000000000E+00 0. -1.
</event>
<event>
 5    1  0.8907853E-005  0.9118800E+02  0.7818608E-02  0.1130116E+00
         25   -1    0    0    0    0  0.00000000000E+00  0.00000000000E+00  0.99999998245E-14  0.12500000000E+03  0.12500000000E+03 0.  0.
        -11    1    3    3    0    0 -0.24824476746E+02 -0.30624948208E+02  0.31486760644E+02  0.50453525096E+02  0.51100000000E-03 0. -1.
         23    2    1    0    0    0 -0.12382944200E+01 -0.27530020890E+02 -0.77809422270E+01  0.96364733540E+02  0.92011865458E+02 0.  0.
         11    1    3    3    0    0  0.23586182326E+02  0.30949273180E+01 -0.39267702871E+02  0.45911208445E+02  0.51100000000E-03 0.  1.
         22    1    1    0    0    0  0.12382944200E+01  0.27530020890E+02  0.77809422270E+01  0.28635266460E+02  0.00000000000E+00 0.  1.
</event>
<event>
 5    1  0.8907853E-005  0.9118800E+02  0.7818608E-02  0.1130116E+00
         25   -1    0    0    0    0  0.00000000000E+00  0.00000000000E+00  0.99999998245E-14  0.12500000000E+03  0.12500000000E+03 0.  0.
        -11    1    3    3    0    0  0.18077639869E+02  0.13250929637E+02  0.25131717825E+02  0.33674789392E+02  0.51100000000E-03 0.  1.
         23    2    1    0    0    0 -0.91795272841E+01 -0.13675269959E+02 -0.23945619037E+02  0.95936803330E+02  0.91428665267E+02 0.  0.
         11    1    3    3    0    0 -0.27257167153E+02 -0.26926199597E+02 -0.49077336862E+02  0.62262013938E+02  0.51100000000E-03 0. -1.
         22    1    1    0    0    0  0.91795272841E+01  0.13675269959E+02  0.23945619037E+02  0.29063196670E+02  0.00000000000E+00 0. -1.
</event>
<event>
 5    1  0.8907853E-005  0.9118800E+02  0.7818608E-02  0.1130116E+00
         25   -1    0    0    0    0  0.00000000000E+00  0.00000000000E+00  0.99999998245E-14  0.12500000000E+03  0.12500000000E+03 0.  0.
        -11    1    3    3    0    0  0.12986999637E+02 -0.12120879927E+02 -0.38748716658E+02  0.42626763104E+02  0.51100000000E-03 0.  1.
         23    2    1    0    0    0 -0.20498948179E+02  0.17889222010E+02 -0.99178491535E+01  0.96041497408E+02  0.91571689686E+02 0.  0.
         11    1    3    3    0    0 -0.33485947816E+02  0.30010101937E+02  0.28830867505E+02  0.53414734304E+02  0.51100000000E-03 0. -1.
         22    1    1    0    0    0  0.20498948179E+02 -0.17889222010E+02  0.99178491535E+01  0.28958502592E+02  0.00000000000E+00 0. -1.
</event>
<event>
 5    1  0.8907853E-005  0.9118800E+02  0.7818608E-02  0.1130116E+00
         25   -1    0    0    0    0  0.00000000000E+00  0.00000000000E+00  0.99999998245E-14  0.12500000000E+03  0.12500000000E+03 0.  0.
        -11    1    3    3    0    0 -0.70380733092E+01 -0.93520795091E+01  0.32129365147E+02  0.34194911494E+02  0.51100000000E-03 0. -1.
         23    2    1    0    0    0 -0.12074739632E+02  0.77943326092E+00 -0.27535586607E+02  0.94923175314E+02  0.90032182183E+02 0.  0.
         11    1    3    3    0    0 -0.50366663231E+01  0.10131512770E+02 -0.59664951754E+02  0.60728263821E+02  0.51100000000E-03 0.  1.
         22    1    1    0    0    0  0.12074739632E+02 -0.77943326092E+00  0.27535586607E+02  0.30076824686E+02  0.00000000000E+00 0.  1.
</event>
<event>
 5    1  0.8907853E-005  0.9118800E+02  0.7818608E-02  0.1130116E+00
         25   -1    0    0    0    0  0.00000000000E+00  0.00000000000E+00  0.99999998245E-14  0.12500000000E+03  0.12500000000E+03 0.  0.
        -11    1    3    3    0    0  0.53453577941E+01 -0.23202064069E+02  0.28083733017E+02  0.36818537280E+02  0.51100000000E-03 0.  1.
         23    2    1    0    0    0 -0.18473199748E+02 -0.80664642520E+01 -0.22530364127E+02  0.94768488920E+02  0.89817159998E+02 0.  0.
         11    1    3    3    0    0 -0.23818557542E+02  0.15135599817E+02 -0.50614097144E+02  0.57949951641E+02  0.51100000000E-03 0. -1.
         22    1    1    0    0    0  0.18473199748E+02  0.80664642520E+01  0.22530364127E+02  0.30231511080E+02  0.00000000000E+00 0. -1.
</event>
<event>
 5    1  0.8907853E-005  0.9118800E+02  0.7818608E-02  0.1130116E+00
         25   -1    0    0    0    0  0.00000000000E+00  0.00000000000E+00  0.99999998245E-14  0.12500000000E+03  0.12500000000E+03 0.  0.
        -11    1    3    3    0    0 -0.29641196308E+02 -0.45090925720E+02  0.11600605584E+02  0.55193895958E+02  0.51100000000E-03 0.  1.
         23    2    1    0    0    0 -0.47972115399E+01 -0.26854536834E+02 -0.13145696158E+02  0.94718178480E+02  0.89747114828E+02 0.  0.
         11    1    3    3    0    0  0.24843984768E+02  0.18236388886E+02 -0.24746301742E+02  0.39524282522E+02  0.51100000000E-03 0. -1.
         22    1    1    0    0    0  0.47972115399E+01  0.26854536834E+02  0.13145696158E+02  0.30281821520E+02  0.00000000000E+00 0. -1.
</event>
<event>
 5    1  0.8907853E-005  0.9118800E+02  0.7818608E-02  0.1130116E+00
         25   -1    0    0    0    0  0.00000000000E+00  0.00000000000E+00  0.99999998245E-14  0.12500000000E+03  0.12500000000E+03 0.  0.
        -11    1    3    3    0    0  0.32670937667E+02  0.20544015530E+02 -0.64431203449E+01  0.39127490875E+02  0.51100000000E-03 0.  1.
         23    2    1    0    0    0 -0.62276434412E+01  0.14282094743E+02  0.28971889159E+02  0.92104223150E+02  0.86029389092E+02 0.  0.
         11    1    3    3    0    0 -0.38898581108E+02 -0.62619207865E+01  0.35415009504E+02  0.52976732276E+02  0.51100000000E-03 0. -1.
         22    1    1    0    0    0  0.62276434412E+01 -0.14282094743E+02 -0.28971889159E+02  0.32895776850E+02  0.00000000000E+00 0. -1.
</event>
<event>
 5    1  0.8907853E-005  0.9118800E+02  0.7818608E-02  0.1130116E+00
         25   -1    0    0    0    0  0.00000000000E+00  0.00000000000E+00  0.99999998245E-14  0.12500000000E+03  0.12500000000E+03 0.  0.
        -11    1    3    3    0    0 -0.34416145081E+02 -0.25960312878E+02 -0.15677042361E+02  0.45871325950E+02  0.51100000000E-03 0. -1.
         23    2    1    0    0    0 -0.17590583943E+02  0.20973212938E+02 -0.90564037110E+01  0.96167331851E+02  0.91743299280E+02 0.  0.
         11    1    3    3    0    0  0.16825561138E+02  0.46933525817E+02  0.66206386504E+01  0.50296005901E+02  0.51100000000E-03 0.  1.
         22    1    1    0    0    0  0.17590583943E+02 -0.20973212938E+02  0.90564037110E+01  0.28832668149E+02  0.00000000000E+00 0.  1.
</event>
<event>
 5    1  0.8907853E-005  0.9118800E+02  0.7818608E-02  0.1130116E+00
         25   -1    0    0    0    0  0.00000000000E+00  0.00000000000E+00  0.99999998245E-14  0.12500000000E+03  0.12500000000E+03 0.  0.
        -11    1    3    3    0    0 -0.42836733548E+02  0.18161134367E+02 -0.33485689946E+02  0.57324549488E+02  0.51100000000E-03 0. -1.
         23    2    1    0    0    0 -0.19342642068E+02  0.22723901514E+02 -0.46499550557E+01  0.94798417522E+02  0.89858802465E+02 0.  0.
         11    1    3    3    0    0  0.23494091480E+02  0.45627671469E+01  0.28835734890E+02  0.37473868034E+02  0.51100000000E-03 0.  1.
         22    1    1    0    0    0  0.19342642068E+02 -0.22723901514E+02  0.46499550557E+01  0.30201582478E+02  0.00000000000E+00 0. -1.
</event>
<event>
 5    1  0.8907853E-005  0.9118800E+02  0.7818608E-02  0.1130116E+00
         25   -1    0    0    0    0  0.00000000000E+00  0.00000000000E+00  0.99999998245E-14  0.12500000000E+03  0.12500000000E+03 0.  0.
        -11    1    3    3    0    0  0.25302342108E+02  0.36712314398E+00 -0.32921858320E+02  0.41523391613E+02  0.51100000000E-03 0.  1.
         23    2    1    0    0    0 -0.24555634321E+02  0.70697206742E+01 -0.17075940591E+02  0.94266502406E+02  0.89115798832E+02 0.  0.
         11    1    3    3    0    0 -0.49857976428E+02  0.67025975302E+01  0.15845917729E+02  0.52743110793E+02  0.51100000000E-03 0. -1.
         22    1    1    0    0    0  0.24555634321E+02 -0.70697206742E+01  0.17075940591E+02  0.30733497594E+02  0.00000000000E+00 0. -1.
</event>
<event>
 5    1  0.8907853E-005  0.9118800E+02  0.7818608E-02  0.1130116E+00
         25   -1    0    0    0    0  0.00000000000E+00  0.00000000000E+00  0.99999998245E-14  0.12500000000E+03  0.12500000000E+03 0.  0.
        -11    1    3    3    0    0 -0.31841703875E+02  0.11820460988E+02  0.28711487165E+02  0.44474339782E+02  0.51100000000E-03 0.  1.
         23    2    1    0    0    0 -0.16155520604E+02 -0.24153460710E+02 -0.41320239285E+01  0.95649290775E+02  0.91034733447E+02 0.  0.
         11    1    3    3    0    0  0.15686183270E+02 -0.35973921698E+02 -0.32843511093E+02  0.51174950993E+02  0.51100000000E-03 0. -1.
         22    1    1    0    0    0  0.16155520604E+02  0.24153460710E+02  0.41320239285E+01  0.29350709225E+02  0.00000000000E+00 0. -1.
</event>
<event>
 5    1  0.8907853E-005  0.9118800E+02  0.7818608E-02  0.1130116E+00
         25   -1    0    0    0    0  0.00000000000E+00  0.00000000000E+00  0.99999998245E-14  0.12500000000E+03  0.12500000000E+03 0.  0.
        -11    1    3    3    0    0 -0.39822307552E+02  0.17070613679E+02  0.30948115747E+02  0.53244792222E+02  0.51100000000E-03 0. -1.
         23    2    1    0    0    0 -0.10711803795E+02 -0.13595908363E+02  0.22912443815E+02  0.96284646157E+02  0.91903000709E+02 0.  0.
         11    1    3    3    0    0  0.29110503757E+02 -0.30666522042E+02 -0.80356719328E+01  0.43039853936E+02  0.51100000000E-03 0.  1.
         22    1    1    0    0    0  0.10711803795E+02  0.13595908363E+02 -0.22912443815E+02  0.28715353843E+02  0.00000000000E+00 0. -1.
</event>
<event>
 5    1  0.8907853E-005  0.9118800E+02  0.7818608E-02  0.1130116E+00
         25   -1    0    0    0    0  0.00000000000E+00  0.00000000000E+00  0.99999998245E-14  0.12500000000E+03  0.12500000000E+03 0.  0.
        -11    1    3    3    0    0 -0.42778615993E+02  0.21250943587E+02 -0.69290256683E+01  0.48266178496E+02  0.51100000000E-03 0.  1.
         23    2    1    0    0    0 -0.16416033906E+02 -0.45448597332E+01  0.23426789959E+02  0.96035255793E+02  0.91563169169E+02 0.  0.
         11    1    3    3    0    0  0.26362582086E+02 -0.25795803320E+02  0.30355815627E+02  0.47769077297E+02  0.51100000000E-03 0. -1.
         22    1    1    0    0    0  0.16416033906E+02  0.45448597332E+01 -0.23426789959E+02  0.28964744207E+02  0.00000000000E+00 0. -1.
</event>
<event>
 5    1  0.8907853E-005  0.9118800E+02  0.7818608E-02  0.1130116E+00
         25   -1    0    0    0    0  0.00000000000E+00  0.00000000000E+00  0.99999998245E-14  0.12500000000E+03  0.12500000000E+03 0.  0.
        -11    1    3    3    0    0  0.34784639286E+02 -0.37286481402E+01 -0.43053932046E+02  0.55475354997E+02  0.51100000000E-03 0.  1.
         23    2    1    0    0    0  0.11538896701E+02 -0.21918374740E+02 -0.16022495306E+02  0.95499463663E+02  0.90828772511E+02 0.  0.
         11    1    3    3    0    0 -0.23245742584E+02 -0.18189726600E+02  0.27031436740E+02  0.40024108666E+02  0.51100000000E-03 0. -1.
         22    1    1    0    0    0 -0.11538896701E+02  0.21918374740E+02  0.16022495306E+02  0.29500536337E+02  0.00000000000E+00 0.  1.
</event>
<event>
 5    1  0.8907853E-005  0.9118800E+02  0.7818608E-02  0.1130116E+00
         25   -1    0    0    0    0  0.00000000000E+00  0.00000000000E+00  0.99999998245E-14  0.12500000000E+03  0.12500000000E+03 0.  0.
        -11    1    3    3    0    0 -0.49818516675E+02  0.16146138526E+02 -0.32627688045E+02  0.61702094133E+02  0.51100000000E-03 0. -1.
         23    2    1    0    0    0 -0.26681504920E+02  0.87405664792E+01 -0.91922489276E+01  0.95456851090E+02  0.90770109467E+02 0.  0.
         11    1    3    3    0    0  0.23137011756E+02 -0.74055720469E+01  0.23435439118E+02  0.33754756957E+02  0.51100000000E-03 0.  1.
         22    1    1    0    0    0  0.26681504920E+02 -0.87405664792E+01  0.91922489276E+01  0.29543148910E+02  0.00000000000E+00 0. -1.
</event>
<event>
 5    1  0.8907853E-005  0.9118800E+02  0.7818608E-02  0.1130116E+00
         25   -1    0    0    0    0  0.00000000000E+00  0.00000000000E+00  0.99999998245E-14  0.12500000000E+03  0.12500000000E+03 0.  0.
        -11    1    3    3    0    0 -0.73675266367E+01  0.28801062309E+02  0.27270633827E+02  0.40341902638E+02  0.51100000000E-03 0. -1.
         23    2    1    0    0    0 -0.95246839456E+01  0.15174745070E+00 -0.24036083539E+02  0.99145098271E+02  0.95714547315E+02 0.  0.
         11    1    3    3    0    0 -0.21571573089E+01 -0.28649314858E+02 -0.51306717366E+02  0.58803195633E+02  0.51100000000E-03 0.  1.
         22    1    1    0    0    0  0.95246839456E+01 -0.15174745070E+00  0.24036083539E+02  0.25854901729E+02  0.00000000000E+00 0.  1.
</event>
<event>
 5    1  0.8907853E-005  0.9118800E+02  0.7818608E-02  0.1130116E+00
         25   -1    0    0    0    0  0.00000000000E+00  0.00000000000E+00  0.99999998245E-14  0.12500000000E+03  0.12500000000E+03 0.  0.
        -11    1    3    3    0    0 -0.27650769554E+02 -0.36486152004E+00  0.32839879469E+02  0.42931991156E+02  0.51100000000E-03 0.  1.
         23    2    1    0    0    0 -0.19941475709E+02  0.11835905081E+02 -0.17913421284E+02  0.95697410274E+02  0.91100782481E+02 0.  0.
         11    1    3    3    0    0  0.77092938444E+01  0.12200766601E+02 -0.50753300752E+02  0.52765419118E+02  0.51100000000E-03 0. -1.
         22    1    1    0    0    0  0.19941475709E+02 -0.11835905081E+02  0.17913421284E+02  0.29302589726E+02  0.00000000000E+00 0. -1.
</event>
<event>
 5    1  0.8907853E-005  0.9118800E+02  0.7818608E-02  0.1130116E+00
         25   -1    0    0    0    0  0.00000000000E+00  0.00000000000E+00  0.99999998245E-14  0.12500000000E+03  0.12500000000E+03 0.  0.
        -11    1    3    3    0    0 -0.26412412469E+02 -0.43581418227E+02  0.44618522114E+01  0.51155289780E+02  0.51100000000E-03 0.  1.
         23    2    1    0    0    0 -0.30373225667E+02 -0.43550930363E+00  0.23070635560E+01  0.94536168199E+02  0.89493251420E+02 0.  0.
         11    1    3    3    0    0 -0.39608131979E+01  0.43145908923E+02 -0.21547886554E+01  0.43380878419E+02  0.51100000000E-03 0. -1.
         22    1    1    0    0    0  0.30373225667E+02  0.43550930363E+00 -0.23070635560E+01  0.30463831801E+02  0.00000000000E+00 0.  1.
</event>
<event>
 5    1  0.8907853E-005  0.9118800E+02  0.7818608E-02  0.1130116E+00
         25   -1    0    0    0    0  0.00000000000E+00  0.00000000000E+00  0.99999998245E-14  0.12500000000E+03  0.12500000000E+03 0.  0.
        -11    1    3    3    0    0 -0.24844170986E+02  0.47650307172E+02  0.29699199851E+02  0.61398917561E+02  0.51100000000E-03 0.  1.
         23    2    1    0    0    0 -0.14570478750E+02  0.20182373448E+02  0.22145735645E+02  0.91682427215E+02  0.85414324348E+02 0.  0.
         11    1    3    3    0    0  0.10273692235E+02 -0.27467933724E+02 -0.75534642063E+01  0.30283509654E+02  0.51100000000E-03 0. -1.
         22    1    1    0    0    0  0.14570478750E+02 -0.20182373448E+02 -0.22145735645E+02  0.33317572785E+02  0.00000000000E+00 0.  1.
</event>
<event>
 5    1  0.8907853E-005  0.9118800E+02  0.7818608E-02  0.1130116E+00
         25   -1    0    0    0    0  0.00000000000E+00  0.00000000000E+00  0.99999998245E-14  0.12500000000E+03  0.12500000000E+03 0.  0.
        -11    1    3    3    0    0  0.40840232251E+02  0.75402495336E+01 -0.84358872435E+01  0.42378580996E+02  0.51100000000E-03 0.  1.
         23    2    1    0    0    0 -0.11630231181E+01 -0.11516297349E+02 -0.29667378028E+02  0.93154575737E+02  0.87542240857E+02 0.  0.
         11    1    3    3    0    0 -0.42003255370E+02 -0.19056546883E+02 -0.21231490785E+02  0.50775994741E+02  0.51100000000E-03 0. -1.
         22    1    1    0    0    0  0.11630231181E+01  0.11516297349E+02  0.29667378028E+02  0.31845424263E+02  0.00000000000E+00 0.  1.
</event>
<event>
 5    1  0.8907853E-005  0.9118800E+02  0.7818608E-02  0.1130116E+00
         25   -1    0    0    0    0  0.00000000000E+00  0.00000000000E+00  0.99999998245E-14  0.12500000000E+03  0.12500000000E+03 0.  0.
        -11    1    3    3    0    0  0.29179856649E+02  0.24163407326E+02 -0.73819768550E+01  0.38598288436E+02  0.51100000000E-03 0.  1.
         23    2    1    0    0    0 -0.21590169075E+02  0.57013676524E+00 -0.19525699770E+02  0.95884481661E+02  0.91357103803E+02 0.  0.
         11    1    3    3    0    0 -0.50770025724E+02 -0.23593270561E+02 -0.12143722915E+02  0.57286193225E+02  0.51100000000E-03 0. -1.
         22    1    1    0    0    0  0.21590169075E+02 -0.57013676524E+00  0.19525699770E+02  0.29115518339E+02  0.00000000000E+00 0. -1.
</event>
<event>
 5    1  0.8907853E-005  0.9118800E+02  0.7818608E-02  0.1130116E+00
         25   -1    0    0    0    0  0.00000000000E+00  0.00000000000E+00  0.99999998245E-14  0.12500000000E+03  0.12500000000E+03 0.  0.
        -11    1    3    3    0    0  0.47234896773E+02 -0.66866806812E+01 -0.19161555180E+02  0.51410236032E+02  0.51100000000E-03 0.  1.
         23    2    1    0    0    0  0.41157099145E+02 -0.25879353423E+02 -0.47866684026E+01  0.76147569784E+02  0.58411406814E+02 0.  0.
         11    1    3    3    0    0 -0.60777976289E+01 -0.19192672742E+02  0.14374886778E+02  0.24737333752E+02  0.51100000000E-03 0. -1.
         22    1    1    0    0    0 -0.41157099145E+02  0.25879353423E+02  0.47866684026E+01  0.48852430216E+02  0.00000000000E+00 0. -1.
</event>
<event>
 5    1  0.8907853E-005  0.9118800E+02  0.7818608E-02  0.1130116E+00
         25   -1    0    0    0    0  0.00000000000E+00  0.00000000000E+00  0.99999998245E-14  0.12500000000E+03  0.12500000000E+03 0.  0.
        -11    1    3    3    0    0 -0.15283751217E+02 -0.19408597853E+02 -0.26696555565E+02  0.36372968001E+02  0.51100000000E-03 0.  1.
         23    2    1    0    0    0 -0.11360666552E+02  0.20307924964E+02  0.17471634786E+02  0.95901295855E+02  0.91380107046E+02 0.  0.
         11    1    3    3    0    0  0.39230846642E+01  0.39716522817E+02  0.44168190351E+02  0.59528327854E+02  0.51100000000E-03 0. -1.
         22    1    1    0    0    0  0.11360666552E+02 -0.20307924964E+02 -0.17471634786E+02  0.29098704145E+02  0.00000000000E+00 0. -1.
</event>
<event>
 5    1  0.8907853E-005  0.9118800E+02  0.7818608E-02  0.1130116E+00
         25   -1    0    0    0    0  0.00000000000E+00  0.00000000000E+00  0.99999998245E-14  0.12500000000E+03  0.12500000000E+03 0.  0.
        -11    1    3    3    0    0  0.27148441876E+02  0.24533493140E+01  0.22967680965E+02  0.35645072427E+02  0.51100000000E-03 0. -1.
         23    2    1    0    0    0 -0.29027133515E+02 -0.39281350443E+01  0.32187108162E+01  0.95531969453E+02  0.90873496484E+02 0.  0.
         11    1    3    3    0    0 -0.56175575391E+02 -0.63814843582E+01 -0.19748970149E+02  0.59886897026E+02  0.51100000000E-03 0.  1.
         22    1    1    0    0    0  0.29027133515E+02  0.39281350443E+01 -0.32187108162E+01  0.29468030547E+02  0.00000000000E+00 0.  1.
</event>
<event>
 5    1  0.8907853E-005  0.9118800E+02  0.7818608E-02  0.1130116E+00
         25   -1    0    0    0    0  0.00000000000E+00  0.00000000000E+00  0.99999998245E-14  0.12500000000E+03  0.12500000000E+03 0.  0.
        -11    1    3    3    0    0 -0.34649697914E+01  0.11699233579E+02 -0.56343011010E+02  0.57649050052E+02  0.51100000000E-03 0. -1.
         23    2    1    0    0    0  0.15599154351E+02  0.27587124934E+01 -0.23808544926E+02  0.96402956052E+02  0.92063776878E+02 0.  0.
         11    1    3    3    0    0  0.19064124143E+02 -0.89405210858E+01  0.32534466084E+02  0.38753906000E+02  0.51100000000E-03 0.  1.
         22    1    1    0    0    0 -0.15599154351E+02 -0.27587124934E+01  0.23808544926E+02  0.28597043948E+02  0.00000000000E+00 0. -1.
</event>
<event>
 5    1  0.8907853E-005  0.9118800E+02  0.7818608E-02  0.1130116E+00
         25   -1    0    0    0    0  0.00000000000E+00  0.00000000000E+00  0.99999998245E-14  0.12500000000E+03  0.12500000000E+03 0.  0.
        -11    1    3    3    0    0  0.46092307752E-01  0.33231062683E+02  0.20164223228E+02  0.38870317084E+02  0.51100000000E-03 0.  1.
         23    2    1    0    0    0 -0.26353953875E+02 -0.10155866487E+02 -0.61869189838E+01  0.96087191844E+02  0.91634043679E+02 0.  0.
         11    1    3    3    0    0 -0.26400046183E+02 -0.43386929170E+02 -0.26351142211E+02  0.57216874760E+02  0.51100000000E-03 0. -1.
         22    1    1    0    0    0  0.26353953875E+02  0.10155866487E+02  0.61869189838E+01  0.28912808156E+02  0.00000000000E+00 0. -1.
</event>
<event>
 5    1  0.8907853E-005  0.9118800E+02  0.7818608E-02  0.1130116E+00
         25   -1    0    0    0    0  0.00000000000E+00  0.00000000000E+00  0.99999998245E-14  0.12500000000E+03  0.12500000000E+03 0.  0.
        -11    1    3    3    0    0 -0.82982729565E+01 -0.38894431167E+02 -0.11334193428E+02  0.41353380161E+02  0.51100000000E-03 0. -1.
         23    2    1    0    0    0 -0.24614382531E+02  0.80975976822E+01  0.12171740161E+02  0.96371514637E+02  0.92021077256E+02 0.  0.
         11    1    3    3    0    0 -0.16316109575E+02  0.46992028849E+02  0.23505933589E+02  0.55018134476E+02  0.51100000000E-03 0.  1.
         22    1    1    0    0    0  0.24614382531E+02 -0.80975976822E+01 -0.12171740161E+02  0.28628485363E+02  0.00000000000E+00 0. -1.
</event>
<event>
 5    1  0.8907853E-005  0.9118800E+02  0.7818608E-02  0.1130116E+00
         25   -1    0    0    0    0  0.00000000000E+00  0.00000000000E+00  0.99999998245E-14  0.12500000000E+03  0.12500000000E+03 0.  0.
        -11    1    3    3    0    0  0.11006530495E+02 -0.26557869034E+02 -0.55251751636E+02  0.62283386070E+02  0.51100000000E-03 0.  1.
         23    2    1    0    0    0  0.60813454684E+01 -0.92532504467E+01 -0.27471229054E+02  0.95381191242E+02  0.90665858020E+02 0.  0.
         11    1    3    3    0    0 -0.49251850263E+01  0.17304618587E+02  0.27780522583E+02  0.33097805172E+02  0.51100000000E-03 0. -1.
         22    1    1    0    0    0 -0.60813454684E+01  0.92532504467E+01  0.27471229054E+02  0.29618808758E+02  0.00000000000E+00 0.  1.
</event>
<event>
 5    1  0.8907853E-005  0.9118800E+02  0.7818608E-02  0.1130116E+00
         25   -1    0    0    0    0  0.00000000000E+00  0.00000000000E+00  0.99999998245E-14  0.12500000000E+03  0.12500000000E+03 0.  0.
        -11    1    3    3    0    0 -0.56491351186E+02  0.77938076420E+01  0.57774521302E+01  0.57318366600E+02  0.51100000000E-03 0. -1.
         23    2    1    0    0    0 -0.22863749832E+02  0.89713149331E+01  0.19482215300E+02  0.93650482284E+02  0.88247496118E+02 0.  0.
         11    1    3    3    0    0  0.33627601354E+02  0.11775072911E+01  0.13704763170E+02  0.36332115684E+02  0.51100000000E-03 0.  1.
         22    1    1    0    0    0  0.22863749832E+02 -0.89713149331E+01 -0.19482215300E+02  0.31349517716E+02  0.00000000000E+00 0. -1.
</event>
<event>
 5    1  0.8907853E-005  0.9118800E+02  0.7818608E-02  0.1130116E+00
         25   -1    0    0    0    0  0.00000000000E+00  0.00000000000E+00  0.99999998245E-14  0.12500000000E+03  0.12500000000E+03 0.  0.
        -11    1    3    3    0    0 -0.34757478634E+02 -0.32176558280E+02 -0.28475616562E+02  0.55265486179E+02  0.51100000000E-03 0.  1.
         23    2    1    0    0    0 -0.16300249460E+00 -0.10380950142E+02 -0.26880063811E+02  0.96184578328E+02  0.91766794550E+02 0.  0.
         11    1    3    3    0    0  0.34594476139E+02  0.21795608138E+02  0.15955527512E+01  0.40919092149E+02  0.51100000000E-03 0. -1.
         22    1    1    0    0    0  0.16300249460E+00  0.10380950142E+02  0.26880063811E+02  0.28815421672E+02  0.00000000000E+00 0.  1.
</event>
<event>
 5    1  0.8907853E-005  0.9118800E+02  0.7818608E-02  0.1130116E+00
         25   -1    0    0    0    0  0.00000000000E+00  0.00000000000E+00  0.99999998245E-14  0.12500000000E+03  0.12500000000E+03 0.  0.
        -11    1    3    3    0    0 -0.87733145362E+01  0.54127132363E+02  0.23057022182E+02  0.59483979170E+02  0.51100000000E-03 0.  1.
         23    2    1    0    0    0  0.60771659611E+01  0.32043303111E+02  0.21071792612E+02  0.86170556735E+02  0.76926193093E+02 0.  0.
         11    1    3    3    0    0  0.14850480497E+02 -0.22083829252E+02 -0.19852295702E+01  0.26686577565E+02  0.51100000000E-03 0. -1.
         22    1    1    0    0    0 -0.60771659611E+01 -0.32043303111E+02 -0.21071792612E+02  0.38829443265E+02  0.00000000000E+00 0.  1.
</event>
<event>
 5    1  0.8907853E-005  0.9118800E+02  0.7818608E-02  0.1130116E+00
         25   -1    0    0    0    0  0.00000000000E+00  0.00000000000E+00  0.99999998245E-14  0.12500000000E+03  0.12500000000E+03 0.  0.
        -11    1    3    3    0    0  0.12787462859E+02 -0.21889385905E+02 -0.37927452812E+02  0.45619689814E+02  0.51100000000E-03 0.  1.
         23    2    1    0    0    0 -0.70592259882E+01  0.20662997530E+02 -0.18299492029E+02  0.96510290507E+02  0.92209395545E+02 0.  0.
         11    1    3    3    0    0 -0.19846688847E+02  0.42552383435E+02  0.19627960783E+02  0.50890600693E+02  0.51100000000E-03 0. -1.
         22    1    1    0    0    0  0.70592259882E+01 -0.20662997530E+02  0.18299492029E+02  0.28489709493E+02  0.00000000000E+00 0. -1.
</event>
<event>
 5    1  0.8907853E-005  0.9118800E+02  0.7818608E-02  0.1130116E+00
         25   -1    0    0    0    0  0.00000000000E+00  0.00000000000E+00  0.99999998245E-14  0.12500000000E+03  0.12500000000E+03 0.  0.
        -11    1    3    3    0    0 -0.39676099206E+02  0.15405791642E+02 -0.42460984941E+02  0.60120433355E+02  0.51100000000E-03 0. -1.
         23    2    1    0    0    0 -0.11400345116E+02  0.93112791542E+00 -0.27466615204E+02  0.95246851953E+02  0.90480456388E+02 0.  0.
         11    1    3    3    0    0  0.28275754090E+02 -0.14474663727E+02  0.14994369737E+02  0.35126418597E+02  0.51100000000E-03 0.  1.
         22    1    1    0    0    0  0.11400345116E+02 -0.93112791542E+00  0.27466615204E+02  0.29753148047E+02  0.00000000000E+00 0. -1.
</event>
<event>
 5    1  0.8907853E-005  0.9118800E+02  0.7818608E-02  0.1130116E+00
         25   -1    0    0    0    0  0.00000000000E+00  0.00000000000E+00  0.99999998245E-14  0.12500000000E+03  0.12500000000E+03 0.  0.
        -11    1    3    3    0    0  0.65049007948E+01 -0.38464496617E+02 -0.18293440860E+01  0.39053523969E+02  0.51100000000E-03 0. -1.
         23    2    1    0    0    0 -0.20235145389E+02 -0.60460692838E+00  0.25173412694E+02  0.92696325826E+02  0.86885450200E+02 0.  0.
         11    1    3    3    0    0 -0.26740046184E+02  0.37859889688E+02  0.27002756780E+02  0.53642801857E+02  0.51100000000E-03 0.  1.
         22    1    1    0    0    0  0.20235145389E+02  0.60460692838E+00 -0.25173412694E+02  0.32303674174E+02  0.00000000000E+00 0.  1.
</event>
<event>
 5    1  0.8907853E-005  0.9118800E+02  0.7818608E-02  0.1130116E+00
         25   -1    0    0    0    0  0.00000000000E+00  0.00000000000E+00  0.99999998245E-14  0.12500000000E+03  0.12500000000E+03 0.  0.
        -11    1    3    3    0    0  0.14416575412E+02 -0.30063158469E+02 -0.17122250972E+02  0.37480696663E+02  0.51100000000E-03 0.  1.
         23    2    1    0    0    0  0.72419107051E+01  0.61455972940E+01  0.27799394298E+02  0.95622798634E+02  0.90998349757E+02 0.  0.
         11    1    3    3    0    0 -0.71746647073E+01  0.36208755763E+02  0.44921645270E+02  0.58142101971E+02  0.51100000000E-03 0. -1.
         22    1    1    0    0    0 -0.72419107051E+01 -0.61455972940E+01 -0.27799394298E+02  0.29377201366E+02  0.00000000000E+00 0. -1.
</event>
<event>
 5    1  0.8907853E-005  0.9118800E+02  0.7818608E-02  0.1130116E+00
         25   -1    0    0    0    0  0.00000000000E+00  0.00000000000E+00  0.99999998245E-14  0.12500000000E+03  0.12500000000E+03 0.  0.
        -11    1    3    3    0    0 -0.17032695553E+02  0.18563273097E+02  0.30527058644E+02  0.39580413535E+02  0.51100000000E-03 0.  1.
         23    2    1    0    0    0 -0.67305632878E+01  0.15849728310E+02 -0.24180039925E+02  0.95315177271E+02  0.90574799573E+02 0.  0.
         11    1    3    3    0    0  0.10302132265E+02 -0.27135447874E+01 -0.54707098569E+02  0.55734763736E+02  0.51100000000E-03 0. -1.
         22    1    1    0    0    0  0.67305632878E+01 -0.15849728310E+02  0.24180039925E+02  0.29684822729E+02  0.00000000000E+00 0. -1.
</event>
<event>
 5    1  0.8907853E-005  0.9118800E+02  0.7818608E-02  0.1130116E+00
         25   -1    0    0    0    0  0.00000000000E+00  0.00000000000E+00  0.99999998245E-14  0.12500000000E+03  0.12500000000E+03 0.  0.
        -11    1    3    3    0    0 -0.66514169308E+01 -0.12322642704E+02  0.52335924666E+02  0.54176912807E+02  0.51100000000E-03 0.  1.
         23    2    1    0    0    0 -0.12351993053E+02 -0.23274647380E+02  0.12587994700E+02  0.95798312487E+02  0.91239126046E+02 0.  0.
         11    1    3    3    0    0 -0.57005761223E+01 -0.10952004675E+02 -0.39747929965E+02  0.41621399680E+02  0.51100000000E-03 0. -1.
         22    1    1    0    0    0  0.12351993053E+02  0.23274647380E+02 -0.12587994700E+02  0.29201687513E+02  0.00000000000E+00 0.  1.
</event>
<event>
 5    1  0.8907853E-005  0.9118800E+02  0.7818608E-02  0.1130116E+00
         25   -1    0    0    0    0  0.00000000000E+00  0.00000000000E+00  0.99999998245E-14  0.12500000000E+03  0.12500000000E+03 0.  0.
        -11    1    3    3    0    0 -0.49247368197E+01  0.21038530774E+02 -0.35788834284E+02  0.41805663127E+02  0.51100000000E-03 0. -1.
         23    2    1    0    0    0  0.28940069646E+02  0.42432106111E+01  0.25420378328E+01  0.95640258452E+02  0.91022330299E+02 0.  0.
         11    1    3    3    0    0  0.33864806466E+02 -0.16795320163E+02  0.38330872117E+02  0.53834595325E+02  0.51100000000E-03 0.  1.
         22    1    1    0    0    0 -0.28940069646E+02 -0.42432106111E+01 -0.25420378328E+01  0.29359741548E+02  0.00000000000E+00 0.  1.
</event>
<event>
 5    1  0.8907853E-005  0.9118800E+02  0.7818608E-02  0.1130116E+00
         25   -1    0    0    0    0  0.00000000000E+00  0.00000000000E+00  0.99999998245E-14  0.12500000000E+03  0.12500000000E+03 0.  0.
        -11    1    3    3    0    0 -0.35526480165E+02  0.29553511252E+02  0.66961430373E+01  0.46694530216E+02  0.51100000000E-03 0.  1.
         23    2    1    0    0    0  0.14177908439E+02  0.23900836160E+02 -0.31733744216E+00  0.97208566789E+02  0.93151176575E+02 0.  0.
         11    1    3    3    0    0  0.49704388604E+02 -0.56526750923E+01 -0.70134804795E+01  0.50514036573E+02  0.51100000000E-03 0. -1.
         22    1    1    0    0    0 -0.14177908439E+02 -0.23900836160E+02  0.31733744216E+00  0.27791433211E+02  0.00000000000E+00 0.  1.
</event>
<event>
 5    1  0.8907853E-005  0.9118800E+02  0.7818608E-02  0.1130116E+00
         25   -1    0    0    0    0  0.00000000000E+00  0.00000000000E+00  0.99999998245E-14  0.12500000000E+03  0.12500000000E+03 0.  0.
        -11    1    3    3    0    0  0.39950880051E+02 -0.26808515902E+02 -0.29672956447E+01  0.48203466530E+02  0.51100000000E-03 0. -1.
         23    2    1    0    0    0  0.20125807651E+02  0.11536899992E+02  0.17465462014E+02  0.95962256314E+02  0.91463457612E+02 0.  0.
         11    1    3    3    0    0 -0.19825072401E+02  0.38345415894E+02  0.20432757659E+02  0.47758789784E+02  0.51100000000E-03 0.  1.
         22    1    1    0    0    0 -0.20125807651E+02 -0.11536899992E+02 -0.17465462014E+02  0.29037743686E+02  0.00000000000E+00 0.  1.
</event>
<event>
 5    1  0.8907853E-005  0.9118800E+02  0.7818608E-02  0.1130116E+00
         25   -1    0    0    0    0  0.00000000000E+00  0.00000000000E+00  0.99999998245E-14  0.12500000000E+03  0.12500000000E+03 0.  0.
        -11    1    3    3    0    0 -0.33658040405E+02 -0.20584340081E+02 -0.43382597574E+01  0.39691299279E+02  0.51100000000E-03 0. -1.
         23    2    1    0    0    0  0.24124137953E+02 -0.82837471113E+01 -0.60211402561E+01  0.98792202913E+02  0.95252562843E+02 0.  0.
         11    1    3    3    0    0  0.57782178358E+02  0.12300592970E+02 -0.16828804987E+01  0.59100903633E+02  0.51100000000E-03 0.  1.
         22    1    1    0    0    0 -0.24124137953E+02  0.82837471113E+01  0.60211402561E+01  0.26207797087E+02  0.00000000000E+00 0.  1.
</event>
<event>
 5    1  0.8907853E-005  0.9118800E+02  0.7818608E-02  0.1130116E+00
         25   -1    0    0    0    0  0.00000000000E+00  0.00000000000E+00  0.99999998245E-14  0.12500000000E+03  0.12500000000E+03 0.  0.
        -11    1    3    3    0    0  0.20784053686E+02  0.42234619237E+02  0.10280757957E+01  0.47082872574E+02  0.51100000000E-03 0.  1.
         23    2    1    0    0    0 -0.11539615439E+02 -0.85957696698E+01  0.92725434235E+01  0.10788187971E+03  0.10651511596E+03 0.  0.
         11    1    3    3    0    0 -0.32323669124E+02 -0.50830388907E+02  0.82444676278E+01  0.60799007137E+02  0.51100000000E-03 0. -1.
         22    1    1    0    0    0  0.11539615439E+02  0.85957696698E+01 -0.92725434235E+01  0.17118120289E+02  0.00000000000E+00 0. -1.
</event>
<event>
 5    1  0.8907853E-005  0.9118800E+02  0.7818608E-02  0.1130116E+00
         25   -1    0    0    0    0  0.00000000000E+00  0.00000000000E+00  0.99999998245E-14  0.12500000000E+03  0.12500000000E+03 0.  0.
        -11    1    3    3    0    0 -0.12906216401E+02  0.42491591242E+02  0.31085778675E+01  0.44517064197E+02  0.51100000000E-03 0. -1.
         23    2    1    0    0    0 -0.30264158884E+02 -0.42399866579E+01  0.50690399329E+00  0.94436071073E+02  0.89353331041E+02 0.  0.
         11    1    3    3    0    0 -0.17357942483E+02 -0.46731577900E+02 -0.26016738742E+01  0.49919006876E+02  0.51100000000E-03 0.  1.
         22    1    1    0    0    0  0.30264158884E+02  0.42399866579E+01 -0.50690399329E+00  0.30563928927E+02  0.00000000000E+00 0. -1.
</event>
<event>
 5    1  0.8907853E-005  0.9118800E+02  0.7818608E-02  0.1130116E+00
         25   -1    0    0    0    0  0.00000000000E+00  0.00000000000E+00  0.99999998245E-14  0.12500000000E+03  0.12500000000E+03 0.  0.
        -11    1    3    3    0    0 -0.23922768485E+02  0.11506516877E+02  0.30524416482E+02  0.40452920592E+02  0.51100000000E-03 0.  1.
         23    2    1    0    0    0  0.84093357326E+01 -0.27157612393E+02  0.11764139776E+02  0.94232357533E+02  0.89067891988E+02 0.  0.
         11    1    3    3    0    0  0.32332104218E+02 -0.38664129269E+02 -0.18760276706E+02  0.53779436940E+02  0.51100000000E-03 0. -1.
         22    1    1    0    0    0 -0.84093357326E+01  0.27157612393E+02 -0.11764139776E+02  0.30767642467E+02  0.00000000000E+00 0. -1.
</event>
<event>
 5    1  0.8907853E-005  0.9118800E+02  0.7818608E-02  0.1130116E+00
         25   -1    0    0    0    0  0.00000000000E+00  0.00000000000E+00  0.99999998245E-14  0.12500000000E+03  0.12500000000E+03 0.  0.
        -11    1    3    3    0    0  0.39136374745E+01  0.25155441871E+02 -0.39543572954E+02  0.47029851969E+02  0.51100000000E-03 0.  1.
         23    2    1    0    0    0  0.17595661472E+02 -0.15876775009E+02 -0.17225546536E+02  0.95701557366E+02  0.91106472555E+02 0.  0.
         11    1    3    3    0    0  0.13682023998E+02 -0.41032216880E+02  0.22318026419E+02  0.48671705397E+02  0.51100000000E-03 0. -1.
         22    1    1    0    0    0 -0.17595661472E+02  0.15876775009E+02  0.17225546536E+02  0.29298442634E+02  0.00000000000E+00 0.  1.
</event>
<event>
 5    1  0.8907853E-005  0.9118800E+02  0.7818608E-02  0.1130116E+00
         25   -1    0    0    0    0  0.00000000000E+00  0.00000000000E+00  0.99999998245E-14  0.12500000000E+03  0.12500000000E+03 0.  0.
        -11    1    3    3    0    0 -0.14044592914E+02 -0.37569258142E+02 -0.37038435598E+01  0.40279252784E+02  0.51100000000E-03 0.  1.
         23    2    1    0    0    0  0.24008619902E+02  0.24571193955E+01 -0.14908341661E+02  0.96632590594E+02  0.92375038016E+02 0.  0.
         11    1    3    3    0    0  0.38053212816E+02  0.40026377537E+02 -0.11204498101E+02  0.56353337810E+02  0.51100000000E-03 0. -1.
         22    1    1    0    0    0 -0.24008619902E+02 -0.24571193955E+01  0.14908341661E+02  0.28367409406E+02  0.00000000000E+00 0. -1.
</event>
<event>
 5    1  0.8907853E-005  0.9118800E+02  0.7818608E-02  0.1130116E+00
         25   -1    0    0    0    0  0.00000000000E+00  0.00000000000E+00  0.99999998245E-14  0.12500000000E+03  0.12500000000E+03 0.  0.
        -11    1    3    3    0    0 -0.26907918090E+02  0.33013665807E+02 -0.69891371030E+01  0.43160007224E+02  0.51100000000E-03 0. -1.
         23    2    1    0    0    0  0.21051360950E+02  0.18907996691E+02  0.84304300973E+01  0.95474683942E+02  0.90794663860E+02 0.  0.
         11    1    3    3    0    0  0.47959279039E+02 -0.14105669115E+02  0.15419567200E+02  0.52314676717E+02  0.51100000000E-03 0.  1.
         22    1    1    0    0    0 -0.21051360950E+02 -0.18907996691E+02 -0.84304300973E+01  0.29525316058E+02  0.00000000000E+00 0.  1.
</event>
<event>
 5    1  0.8907853E-005  0.9118800E+02  0.7818608E-02  0.1130116E+00
         25   -1    0    0    0    0  0.00000000000E+00  0.00000000000E+00  0.99999998245E-14  0.12500000000E+03  0.12500000000E+03 0.  0.
        -11    1    3    3    0    0  0.47481034314E+02 -0.28047702699E+02 -0.16346557475E+02  0.57518103131E+02  0.51100000000E-03 0.  1.
         23    2    1    0    0    0  0.20187209750E+02 -0.28848367752E+01 -0.21924502103E+02  0.95057897315E+02  0.90219035291E+02 0.  0.
         11    1    3    3    0    0 -0.27293824564E+02  0.25162865924E+02 -0.55779446279E+01  0.37539794184E+02  0.51100000000E-03 0. -1.
         22    1    1    0    0    0 -0.20187209750E+02  0.28848367752E+01  0.21924502103E+02  0.29942102685E+02  0.00000000000E+00 0.  1.
</event>
<event>
 5    1  0.8907853E-005  0.9118800E+02  0.7818608E-02  0.1130116E+00
         25   -1    0    0    0    0  0.00000000000E+00  0.00000000000E+00  0.99999998245E-14  0.12500000000E+03  0.12500000000E+03 0.  0.
        -11    1    3    3    0    0  0.42357400333E+02  0.10691123968E+02  0.44213477531E+02  0.62155298168E+02  0.51100000000E-03 0.  1.
         23    2    1    0    0    0  0.22739680605E+02  0.12447123886E+01  0.20358338792E+02  0.94453243359E+02  0.89377350820E+02 0.  0.
         11    1    3    3    0    0 -0.19617719728E+02 -0.94464115792E+01 -0.23855138739E+02  0.32297945191E+02  0.51100000000E-03 0. -1.
         22    1    1    0    0    0 -0.22739680605E+02 -0.12447123886E+01 -0.20358338792E+02  0.30546756641E+02  0.00000000000E+00 0.  1.
</event>
<event>
 5    1  0.8907853E-005  0.9118800E+02  0.7818608E-02  0.1130116E+00
         25   -1    0    0    0    0  0.00000000000E+00  0.00000000000E+00  0.99999998245E-14  0.12500000000E+03  0.12500000000E+03 0.  0.
        -11    1    3    3    0    0 -0.55463582149E+02  0.13331731400E+02  0.21944482881E+02  0.61118772371E+02  0.51100000000E-03 0.  1.
         23    2    1    0    0    0 -0.24275466974E+02  0.14015440351E+02  0.53160042179E+01  0.96469476593E+02  0.92154051177E+02 0.  0.
         11    1    3    3    0    0  0.31188115176E+02  0.68370895108E+00 -0.16628478663E+02  0.35350704223E+02  0.51100000000E-03 0. -1.
         22    1    1    0    0    0  0.24275466974E+02 -0.14015440351E+02 -0.53160042179E+01  0.28530523407E+02  0.00000000000E+00 0.  1.
</event>
<event>
 5    1  0.8907853E-005  0.9118800E+02  0.7818608E-02  0.1130116E+00
         25   -1    0    0    0    0  0.00000000000E+00  0.00000000000E+00  0.99999998245E-14  0.12500000000E+03  0.12500000000E+03 0.  0.
        -11    1    3    3    0    0 -0.57139894146E+01 -0.25822833978E+02 -0.37930358908E+02  0.46240464496E+02  0.51100000000E-03 0.  1.
         23    2    1    0    0    0 -0.26988245652E+02  0.23224108803E+01 -0.17934745468E+00  0.97911420096E+02  0.94089611669E+02 0.  0.
         11    1    3    3    0    0 -0.21274256238E+02  0.28145244859E+02  0.37751011453E+02  0.51670955600E+02  0.51100000000E-03 0. -1.
         22    1    1    0    0    0  0.26988245652E+02 -0.23224108803E+01  0.17934745468E+00  0.27088579904E+02  0.00000000000E+00 0. -1.
</event>
<event>
 5    1  0.8907853E-005  0.9118800E+02  0.7818608E-02  0.1130116E+00
         25   -1    0    0    0    0  0.00000000000E+00  0.00000000000E+00  0.99999998245E-14  0.12500000000E+03  0.12500000000E+03 0.  0.
        -11    1    3    3    0    0  0.56504359384E+01  0.77665373962E+01  0.39363384659E+02  0.40518175940E+02  0.51100000000E-03 0. -1.
         23    2    1    0    0    0 -0.27115465080E+02  0.99059428283E+01 -0.49903000068E+01  0.95703596740E+02  0.91109270577E+02 0.  0.
         11    1    3    3    0    0 -0.32765901018E+02  0.21394054321E+01 -0.44353684666E+02  0.55185420800E+02  0.51100000000E-03 0.  1.
         22    1    1    0    0    0  0.27115465080E+02 -0.99059428283E+01  0.49903000068E+01  0.29296403260E+02  0.00000000000E+00 0. -1.
</event>
<event>
 5    1  0.8907853E-005  0.9118800E+02  0.7818608E-02  0.1130116E+00
         25   -1    0    0    0    0  0.00000000000E+00  0.00000000000E+00  0.99999998245E-14  0.12500000000E+03  0.12500000000E+03 0.  0.
        -11    1    3    3    0    0 -0.41664725723E+02 -0.90319550197E+01  0.84579900289E+00  0.42640836732E+02  0.51100000000E-03 0.  1.
         23    2    1    0    0    0 -0.55705994490E+00  0.12345616577E+02  0.26612918589E+02  0.95657675615E+02  0.91046245962E+02 0.  0.
         11    1    3    3    0    0  0.41107665778E+02  0.21377571597E+02  0.25767119586E+02  0.53016838883E+02  0.51100000000E-03 0. -1.
         22    1    1    0    0    0  0.55705994490E+00 -0.12345616577E+02 -0.26612918589E+02  0.29342324385E+02  0.00000000000E+00 0. -1.
</event>
<event>
 5    1  0.8907853E-005  0.9118800E+02  0.7818608E-02  0.1130116E+00
         25   -1    0    0    0    0  0.00000000000E+00  0.00000000000E+00  0.99999998245E-14  0.12500000000E+03  0.12500000000E+03 0.  0.
        -11    1    3    3    0    0 -0.17252271322E+02  0.32237393189E+02 -0.35420568097E+02  0.50906846592E+02  0.51100000000E-03 0.  1.
         23    2    1    0    0    0  0.62621022333E+01 -0.55918009003E+01 -0.27627262756E+02  0.96125308503E+02  0.91686024702E+02 0.  0.
         11    1    3    3    0    0  0.23514373555E+02 -0.37829194090E+02  0.77933053412E+01  0.45218461911E+02  0.51100000000E-03 0. -1.
         22    1    1    0    0    0 -0.62621022333E+01  0.55918009003E+01  0.27627262756E+02  0.28874691497E+02  0.00000000000E+00 0. -1.
</event>
<event>
 5    1  0.8907853E-005  0.9118800E+02  0.7818608E-02  0.1130116E+00
         25   -1    0    0    0    0  0.00000000000E+00  0.00000000000E+00  0.99999998245E-14  0.12500000000E+03  0.12500000000E+03 0.  0.
        -11    1    3    3    0    0  0.26837675821E+02 -0.30213938885E+02 -0.16737905429E+02  0.43741289702E+02  0.51100000000E-03 0.  1.
         23    2    1    0    0    0  0.56740388815E+01 -0.16773577126E+02  0.26149660962E+02  0.93419113767E+02  0.87919158560E+02 0.  0.
         11    1    3    3    0    0 -0.21163636939E+02  0.13440361759E+02  0.42887566390E+02  0.49677824065E+02  0.51100000000E-03 0. -1.
         22    1    1    0    0    0 -0.56740388815E+01  0.16773577126E+02 -0.26149660962E+02  0.31580886233E+02  0.00000000000E+00 0. -1.
</event>
<event>
 5    1  0.8907853E-005  0.9118800E+02  0.7818608E-02  0.1130116E+00
         25   -1    0    0    0    0  0.00000000000E+00  0.00000000000E+00  0.99999998245E-14  0.12500000000E+03  0.12500000000E+03 0.  0.
        -11    1    3    3    0    0 -0.24064043923E+02  0.54454864810E+02  0.17669962982E+02  0.62101836555E+02  0.51100000000E-03 0. -1.
         23    2    1    0    0    0 -0.15688163711E+02  0.23587923296E+02  0.69805579603E+01  0.95824037368E+02  0.91274363005E+02 0.  0.
         11    1    3    3    0    0  0.83758802116E+01 -0.30866941514E+02 -0.10689405022E+02  0.33722200814E+02  0.51100000000E-03 0.  1.
         22    1    1    0    0    0  0.15688163711E+02 -0.23587923296E+02 -0.69805579603E+01  0.29175962632E+02  0.00000000000E+00 0. -1.
</event>
<event>
 5    1  0.8907853E-005  0.9118800E+02  0.7818608E-02  0.1130116E+00
         25   -1    0    0    0    0  0.00000000000E+00  0.00000000000E+00  0.99999998245E-14  0.12500000000E+03  0.12500000000E+03 0.  0.
        -11    1    3    3    0    0  0.63699298214E+01 -0.45421237163E+02 -0.11680654820E+02  0.47329720986E+02  0.51100000000E-03 0.  1.
         23    2    1    0    0    0 -0.20259357311E+02 -0.13485191630E+02  0.14694534991E+02  0.96570766621E+02  0.92291341171E+02 0.  0.
         11    1    3    3    0    0 -0.26629287132E+02  0.31936045533E+02  0.26375189810E+02  0.49241045635E+02  0.51100000000E-03 0. -1.
         22    1    1    0    0    0  0.20259357311E+02  0.13485191630E+02 -0.14694534991E+02  0.28429233379E+02  0.00000000000E+00 0. -1.
</event>
<event>
 5    1  0.8907853E-005  0.9118800E+02  0.7818608E-02  0.1130116E+00
         25   -1    0    0    0    0  0.00000000000E+00  0.00000000000E+00  0.99999998245E-14  0.12500000000E+03  0.12500000000E+03 0.  0.
        -11    1    3    3    0    0  0.37641822171E+02  0.45651658758E+01 -0.26551535092E+02  0.46289648214E+02  0.51100000000E-03 0.  1.
         23    2    1    0    0    0 -0.52860000168E+01  0.25443384581E+02 -0.13175983856E+02  0.95863868382E+02  0.91328895183E+02 0.  0.
         11    1    3    3    0    0 -0.42927822187E+02  0.20878218705E+02  0.13375551236E+02  0.49574220167E+02  0.51100000000E-03 0. -1.
         22    1    1    0    0    0  0.52860000168E+01 -0.25443384581E+02  0.13175983856E+02  0.29136131618E+02  0.00000000000E+00 0. -1.
</event>
<event>
 5    1  0.8907853E-005  0.9118800E+02  0.7818608E-02  0.1130116E+00
         25   -1    0    0    0    0  0.00000000000E+00  0.00000000000E+00  0.99999998245E-14  0.12500000000E+03  0.12500000000E+03 0.  0.
        -11    1    3    3    0    0 -0.38786490961E+02  0.12802579299E+02  0.45198597063E+02  0.60919710230E+02  0.51100000000E-03 0.  1.
         23    2    1    0    0    0 -0.27213386842E+02  0.10181506947E+01  0.19356726803E+02  0.91589104669E+02  0.85277641661E+02 0.  0.
         11    1    3    3    0    0  0.11573104119E+02 -0.11784428605E+02 -0.25841870260E+02  0.30669394439E+02  0.51100000000E-03 0. -1.
         22    1    1    0    0    0  0.27213386842E+02 -0.10181506947E+01 -0.19356726803E+02  0.33410895331E+02  0.00000000000E+00 0.  1.
</event>
<event>
 5    1  0.8907853E-005  0.9118800E+02  0.7818608E-02  0.1130116E+00
         25   -1    0    0    0    0  0.00000000000E+00  0.00000000000E+00  0.99999998245E-14  0.12500000000E+03  0.12500000000E+03 0.  0.
        -11    1    3    3    0    0  0.34849537270E+02 -0.76078154039E+01  0.49144641701E+01  0.36007236238E+02  0.51100000000E-03 0.  1.
         23    2    1    0    0    0 -0.13918524474E+02  0.75519152759E+01 -0.25157762715E+02  0.95273416397E+02  0.90517148095E+02 0.  0.
         11    1    3    3    0    0 -0.48768061744E+02  0.15159730680E+02 -0.30072226885E+02  0.59266180159E+02  0.51100000000E-03 0. -1.
         22    1    1    0    0    0  0.13918524474E+02 -0.75519152759E+01  0.25157762715E+02  0.29726583603E+02  0.00000000000E+00 0. -1.
</event>
<event>
 5    1  0.8907853E-005  0.9118800E+02  0.7818608E-02  0.1130116E+00
         25   -1    0    0    0    0  0.00000000000E+00  0.00000000000E+00  0.99999998245E-14  0.12500000000E+03  0.12500000000E+03 0.  0.
        -11    1    3    3    0    0  0.18338023486E+02 -0.10444811287E+02  0.38155227986E+02  0.43602736280E+02  0.51100000000E-03 0.  1.
         23    2    1    0    0    0 -0.17543907654E+02  0.18598092446E+02  0.16310919184E+02  0.94673051208E+02  0.89684239430E+02 0.  0.
         11    1    3    3    0    0 -0.35881931141E+02  0.29042903733E+02 -0.21844308802E+02  0.51070314928E+02  0.51100000000E-03 0. -1.
         22    1    1    0    0    0  0.17543907654E+02 -0.18598092446E+02 -0.16310919184E+02  0.30326948792E+02  0.00000000000E+00 0. -1.
</event>
<event>
 5    1  0.8907853E-005  0.9118800E+02  0.7818608E-02  0.1130116E+00
         25   -1    0    0    0    0  0.00000000000E+00  0.00000000000E+00  0.99999998245E-14  0.12500000000E+03  0.12500000000E+03 0.  0.
        -11    1    3    3    0    0  0.11236602493E+02 -0.10726591969E+02 -0.41871631443E+02  0.44660435855E+02  0.51100000000E-03 0. -1.
         23    2    1    0    0    0 -0.24363927382E+02 -0.15341646827E+02 -0.56469955805E+01  0.95659658422E+02  0.91048968173E+02 0.  0.
         11    1    3    3    0    0 -0.35600529876E+02 -0.46150548581E+01  0.36224635862E+02  0.50999222566E+02  0.51100000000E-03 0.  1.
         22    1    1    0    0    0  0.24363927382E+02  0.15341646827E+02  0.56469955805E+01  0.29340341578E+02  0.00000000000E+00 0.  1.
</event>
<event>
 5    1  0.8907853E-005  0.9118800E+02  0.7818608E-02  0.1130116E+00
         25   -1    0    0    0    0  0.00000000000E+00  0.00000000000E+00  0.99999998245E-14  0.12500000000E+03  0.12500000000E+03 0.  0.
        -11    1    3    3    0    0 -0.14175486624E+02  0.31535320958E+02  0.40563390626E+02  0.53299245288E+02  0.51100000000E-03 0.  1.
         23    2    1    0    0    0  0.13825707265E+02  0.32298312566E+00  0.21675027949E+02  0.99288886915E+02  0.95902146633E+02 0.  0.
         11    1    3    3    0    0  0.28001193889E+02 -0.31212337832E+02 -0.18888362677E+02  0.45989641627E+02  0.51100000000E-03 0. -1.
         22    1    1    0    0    0 -0.13825707265E+02 -0.32298312566E+00 -0.21675027949E+02  0.25711113085E+02  0.00000000000E+00 0.  1.
</event>
<event>
 5    1  0.8907853E-005  0.9118800E+02  0.7818608E-02  0.1130116E+00
         25   -1    0    0    0    0  0.00000000000E+00  0.00000000000E+00  0.99999998245E-14  0.12500000000E+03  0.12500000000E+03 0.  0.
        -11    1    3    3    0    0 -0.49590035570E+02 -0.10929540467E+02 -0.24159162538E+02  0.56234256618E+02  0.51100000000E-03 0.  1.
         23    2    1    0    0    0 -0.12375349084E+02  0.10715525658E+01 -0.26836928966E+02  0.95427745332E+02  0.90730018919E+02 0.  0.
         11    1    3    3    0    0  0.37214686486E+02  0.12001093033E+02 -0.26777664274E+01  0.39193488714E+02  0.51100000000E-03 0. -1.
         22    1    1    0    0    0  0.12375349084E+02 -0.10715525658E+01  0.26836928966E+02  0.29572254668E+02  0.00000000000E+00 0.  1.
</event>
<event>
 5    1  0.8907853E-005  0.9118800E+02  0.7818608E-02  0.1130116E+00
         25   -1    0    0    0    0  0.00000000000E+00  0.00000000000E+00  0.99999998245E-14  0.12500000000E+03  0.12500000000E+03 0.  0.
        -11    1    3    3    0    0  0.26480932691E+02 -0.20357265231E+02 -0.45436023381E+02  0.56392289055E+02  0.51100000000E-03 0. -1.
         23    2    1    0    0    0  0.25898236217E+02 -0.18160566044E+02 -0.10108305118E+02  0.91793033404E+02  0.85576038416E+02 0.  0.
         11    1    3    3    0    0 -0.58269647448E+00  0.21966991870E+01  0.35327718263E+02  0.35400744349E+02  0.51100000000E-03 0.  1.
         22    1    1    0    0    0 -0.25898236217E+02  0.18160566044E+02  0.10108305118E+02  0.33206966596E+02  0.00000000000E+00 0. -1.
</event>
<event>
 5    1  0.8907853E-005  0.9118800E+02  0.7818608E-02  0.1130116E+00
         25   -1    0    0    0    0  0.00000000000E+00  0.00000000000E+00  0.99999998245E-14  0.12500000000E+03  0.12500000000E+03 0.  0.
        -11    1    3    3    0    0 -0.56439237719E+02  0.11972320058E+02  0.20540749150E+02  0.61242520995E+02  0.51100000000E-03 0.  1.
         23    2    1    0    0    0 -0.26722944556E+02 -0.72848464039E+00  0.15914387724E+02  0.93888680641E+02  0.88584254585E+02 0.  0.
         11    1    3    3    0    0  0.29716293163E+02 -0.12700804699E+02 -0.46263614263E+01  0.32646159647E+02  0.51100000000E-03 0. -1.
         22    1    1    0    0    0  0.26722944556E+02  0.72848464039E+00 -0.15914387724E+02  0.31111319359E+02  0.00000000000E+00 0.  1.
</event>
<event>
 5    1  0.8907853E-005  0.9118800E+02  0.7818608E-02  0.1130116E+00
         25   -1    0    0    0    0  0.00000000000E+00  0.00000000000E+00  0.99999998245E-14  0.12500000000E+03  0.12500000000E+03 0.  0.
        -11    1    3    3    0    0 -0.40766132348E+02  0.27305642651E+02  0.20661049063E+02  0.53238657157E+02  0.51100000000E-03 0.  1.
         23    2    1    0    0    0 -0.10243647185E+02  0.27800928842E+01  0.29731491558E+02  0.93430666552E+02  0.87935582320E+02 0.  0.
         11    1    3    3    0    0  0.30522485163E+02 -0.24525549767E+02  0.90704424947E+01  0.40192009395E+02  0.51100000000E-03 0. -1.
         22    1    1    0    0    0  0.10243647185E+02 -0.27800928842E+01 -0.29731491558E+02  0.31569333448E+02  0.00000000000E+00 0.  1.
</event>
<event>
 5    1  0.8907853E-005  0.9118800E+02  0.7818608E-02  0.1130116E+00
         25   -1    0    0    0    0  0.00000000000E+00  0.00000000000E+00  0.99999998245E-14  0.12500000000E+03  0.12500000000E+03 0.  0.
        -11    1    3    3    0    0 -0.17819133549E+02 -0.25577126494E+02  0.16850616001E+02  0.35435211020E+02  0.51100000000E-03 0. -1.
         23    2    1    0    0    0  0.64872942117E+01  0.28207254094E+02  0.55071158775E+01  0.95537099684E+02  0.90880553041E+02 0.  0.
         11    1    3    3    0    0  0.24306427761E+02  0.53784380588E+02 -0.11343500124E+02  0.60101888665E+02  0.51100000000E-03 0.  1.
         22    1    1    0    0    0 -0.64872942117E+01 -0.28207254094E+02 -0.55071158775E+01  0.29462900316E+02  0.00000000000E+00 0.  1.
</event>
<event>
 5    1  0.8907853E-005  0.9118800E+02  0.7818608E-02  0.1130116E+00
         25   -1    0    0    0    0  0.00000000000E+00  0.00000000000E+00  0.99999998245E-14  0.12500000000E+03  0.12500000000E+03 0.  0.
        -11    1    3    3    0    0 -0.19318944127E+02 -0.53641090804E+02 -0.12990208602E+01  0.57028726798E+02  0.51100000000E-03 0.  1.
         23    2    1    0    0    0 -0.16255578245E+02 -0.21636245198E+02  0.16023708025E+02  0.93549560429E+02  0.88104427285E+02 0.  0.
         11    1    3    3    0    0  0.30633658822E+01  0.32004845606E+02  0.17322728885E+02  0.36520833631E+02  0.51100000000E-03 0. -1.
         22    1    1    0    0    0  0.16255578245E+02  0.21636245198E+02 -0.16023708025E+02  0.31450439571E+02  0.00000000000E+00 0. -1.
</event>
<event>
 5    1  0.8907853E-005  0.9118800E+02  0.7818608E-02  0.1130116E+00
         25   -1    0    0    0    0  0.00000000000E+00  0.00000000000E+00  0.99999998245E-14  0.12500000000E+03  0.12500000000E+03 0.  0.
        -11    1    3    3    0    0 -0.22754557059E+02 -0.22892217589E+02  0.12457315081E+02  0.34597806179E+02  0.51100000000E-03 0.  1.
         23    2    1    0    0    0  0.65619253623E+01  0.16666426342E+02 -0.23416815697E+02  0.95518210894E+02  0.90854569085E+02 0.  0.
         11    1    3    3    0    0  0.29316482422E+02  0.39558643931E+02 -0.35874130779E+02  0.60920404715E+02  0.51100000000E-03 0. -1.
         22    1    1    0    0    0 -0.65619253623E+01 -0.16666426342E+02  0.23416815697E+02  0.29481789106E+02  0.00000000000E+00 0. -1.
</event>
<event>
 5    1  0.8907853E-005  0.9118800E+02  0.7818608E-02  0.1130116E+00
         25   -1    0    0    0    0  0.00000000000E+00  0.00000000000E+00  0.99999998245E-14  0.12500000000E+03  0.12500000000E+03 0.  0.
        -11    1    3    3    0    0 -0.47080237278E+02  0.31174435835E+02 -0.18963335468E+02  0.59565109620E+02  0.51100000000E-03 0. -1.
         23    2    1    0    0    0 -0.14944339224E+02  0.24580100896E+02 -0.29135978165E+01  0.96086271649E+02  0.91632788413E+02 0.  0.
         11    1    3    3    0    0  0.32135898054E+02 -0.65943349390E+01  0.16049737651E+02  0.36521162029E+02  0.51100000000E-03 0.  1.
         22    1    1    0    0    0  0.14944339224E+02 -0.24580100896E+02  0.29135978165E+01  0.28913728351E+02  0.00000000000E+00 0. -1.
</event>
<event>
 5    1  0.8907853E-005  0.9118800E+02  0.7818608E-02  0.1130116E+00
         25   -1    0    0    0    0  0.00000000000E+00  0.00000000000E+00  0.99999998245E-14  0.12500000000E+03  0.12500000000E+03 0.  0.
        -11    1    3    3    0    0  0.28691597528E+02 -0.50932265869E+02  0.35826860786E+01  0.58567389519E+02  0.51100000000E-03 0. -1.
         23    2    1    0    0    0  0.83949135417E+01 -0.23887440060E+02  0.16515522647E+02  0.94770099995E+02  0.89819402129E+02 0.  0.
         11    1    3    3    0    0 -0.20296683986E+02  0.27044825809E+02  0.12932836569E+02  0.36202710476E+02  0.51100000000E-03 0.  1.
         22    1    1    0    0    0 -0.83949135417E+01  0.23887440060E+02 -0.16515522647E+02  0.30229900005E+02  0.00000000000E+00 0. -1.
</event>
<event>
 5    1  0.8907853E-005  0.9118800E+02  0.7818608E-02  0.1130116E+00
         25   -1    0    0    0    0  0.00000000000E+00  0.00000000000E+00  0.99999998245E-14  0.12500000000E+03  0.12500000000E+03 0.  0.
        -11    1    3    3    0    0  0.50541268098E+02  0.18412509359E+02  0.28433237010E+01  0.53865803361E+02  0.51100000000E-03 0.  1.
         23    2    1    0    0    0  0.11345029715E+02  0.24352646003E+02  0.13522973966E+02  0.94922900880E+02  0.90031801160E+02 0.  0.
         11    1    3    3    0    0 -0.39196238382E+02  0.59401366436E+01  0.10679650265E+02  0.41057097519E+02  0.51100000000E-03 0. -1.
         22    1    1    0    0    0 -0.11345029715E+02 -0.24352646003E+02 -0.13522973966E+02  0.30077099120E+02  0.00000000000E+00 0.  1.
</event>
<event>
 5    1  0.8907853E-005  0.9118800E+02  0.7818608E-02  0.1130116E+00
         25   -1    0    0    0    0  0.00000000000E+00  0.00000000000E+00  0.99999998245E-14  0.12500000000E+03  0.12500000000E+03 0.  0.
        -11    1    3    3    0    0  0.26790671154E+02  0.35505822284E+01  0.35062185685E+02  0.44268539171E+02  0.51100000000E-03 0.  1.
         23    2    1    0    0    0  0.40470767050E+02  0.10565425652E+01 -0.26161657926E+01  0.84431002092E+02  0.74045597594E+02 0.  0.
         11    1    3    3    0    0  0.13680095896E+02 -0.24940396632E+01 -0.37678351478E+02  0.40162462921E+02  0.51100000000E-03 0. -1.
         22    1    1    0    0    0 -0.40470767050E+02 -0.10565425652E+01  0.26161657926E+01  0.40568997908E+02  0.00000000000E+00 0.  1.
</event>
<event>
 5    1  0.8907853E-005  0.9118800E+02  0.7818608E-02  0.1130116E+00
         25   -1    0    0    0    0  0.00000000000E+00  0.00000000000E+00  0.99999998245E-14  0.12500000000E+03  0.12500000000E+03 0.  0.
        -11    1    3    3    0    0  0.34231423627E+01 -0.62922536321E+01 -0.58269374560E+02  0.58708009431E+02  0.51100000000E-03 0. -1.
         23    2    1    0    0    0  0.11265872884E+02  0.89972377125E+01 -0.25735203292E+02  0.95501341272E+02  0.90831356469E+02 0.  0.
         11    1    3    3    0    0  0.78427305209E+01  0.15289491345E+02  0.32534171269E+02  0.36793331841E+02  0.51100000000E-03 0.  1.
         22    1    1    0    0    0 -0.11265872884E+02 -0.89972377125E+01  0.25735203292E+02  0.29498658728E+02  0.00000000000E+00 0. -1.
</event>
<event>
 5    1  0.8907853E-005  0.9118800E+02  0.7818608E-02  0.1130116E+00
         25   -1    0    0    0    0  0.00000000000E+00  0.00000000000E+00  0.99999998245E-14  0.12500000000E+03  0.12500000000E+03 0.  0.
        -11    1    3    3    0    0 -0.46491986740E+02 -0.16582920320E+02  0.21451488174E+02  0.53820669101E+02  0.51100000000E-03 0. -1.
         23    2    1    0    0    0 -0.17688826593E+02 -0.23811398003E+02 -0.65343708046E+01  0.94626075938E+02  0.89618742373E+02 0.  0.
         11    1    3    3    0    0  0.28803160147E+02 -0.72284776834E+01 -0.27985858979E+02  0.40805406837E+02  0.51100000000E-03 0.  1.
         22    1    1    0    0    0  0.17688826593E+02  0.23811398003E+02  0.65343708046E+01  0.30373924062E+02  0.00000000000E+00 0. -1.
</event>
<event>
 5    1  0.8907853E-005  0.9118800E+02  0.7818608E-02  0.1130116E+00
         25   -1    0    0    0    0  0.00000000000E+00  0.00000000000E+00  0.99999998245E-14  0.12500000000E+03  0.12500000000E+03 0.  0.
        -11    1    3    3    0    0  0.47799343611E+02  0.26918622324E+02 -0.26353720457E+02  0.60859740877E+02  0.51100000000E-03 0.  1.
         23    2    1    0    0    0  0.18379987965E+02  0.96219841294E+01 -0.21135825035E+02  0.95383625541E+02  0.90669214099E+02 0.  0.
         11    1    3    3    0    0 -0.29419355645E+02 -0.17296638195E+02  0.52178954223E+01  0.34523884664E+02  0.51100000000E-03 0. -1.
         22    1    1    0    0    0 -0.18379987965E+02 -0.96219841294E+01  0.21135825035E+02  0.29616374459E+02  0.00000000000E+00 0.  1.
</event>
<event>
 5    1  0.8907853E-005  0.9118800E+02  0.7818608E-02  0.1130116E+00
         25   -1    0    0    0    0  0.00000000000E+00  0.00000000000E+00  0.99999998245E-14  0.12500000000E+03  0.12500000000E+03 0.  0.
        -11    1    3    3    0    0 -0.33938003759E+02 -0.16558762330E+02  0.14865330358E+02  0.40582739631E+02  0.51100000000E-03 0.  1.
         23    2    1    0    0    0 -0.64537049800E+01  0.28797605027E+02  0.10002700198E+02  0.93839024814E+02  0.88514158210E+02 0.  0.
         11    1    3    3    0    0  0.27484298779E+02  0.45356367357E+02 -0.48626301603E+01  0.53256285183E+02  0.51100000000E-03 0. -1.
         22    1    1    0    0    0  0.64537049800E+01 -0.28797605027E+02 -0.10002700198E+02  0.31160975186E+02  0.00000000000E+00 0.  1.
</event>
<event>
 5    1  0.8907853E-005  0.9118800E+02  0.7818608E-02  0.1130116E+00
         25   -1    0    0    0    0  0.00000000000E+00  0.00000000000E+00  0.99999998245E-14  0.12500000000E+03  0.12500000000E+03 0.  0.
        -11    1    3    3    0    0 -0.16890467429E+02  0.22992355361E+02  0.11687896312E+02  0.30830880874E+02  0.51100000000E-03 0.  1.
         23    2    1    0    0    0  0.20041337044E+02 -0.17143868409E+02 -0.18133877265E+02  0.92993673763E+02  0.87312189531E+02 0.  0.
         11    1    3    3    0    0  0.36931804473E+02 -0.40136223770E+02 -0.29821773576E+02  0.62162792889E+02  0.51100000000E-03 0. -1.
         22    1    1    0    0    0 -0.20041337044E+02  0.17143868409E+02  0.18133877265E+02  0.32006326237E+02  0.00000000000E+00 0. -1.
</event>
<event>
 5    1  0.8907853E-005  0.9118800E+02  0.7818608E-02  0.1130116E+00
         25   -1    0    0    0    0  0.00000000000E+00  0.00000000000E+00  0.99999998245E-14  0.12500000000E+03  0.12500000000E+03 0.  0.
        -11    1    3    3    0    0 -0.15219578784E+02 -0.53550234216E+02  0.71872311683E+00  0.55675665475E+02  0.51100000000E-03 0. -1.
         23    2    1    0    0    0 -0.12821695652E+02 -0.20011127295E+02  0.19560202435E+02  0.94219444218E+02  0.89049767290E+02 0.  0.
         11    1    3    3    0    0  0.23978831326E+01  0.33539106921E+02  0.18841479318E+02  0.38543778742E+02  0.51100000000E-03 0.  1.
         22    1    1    0    0    0  0.12821695652E+02  0.20011127295E+02 -0.19560202435E+02  0.30780555782E+02  0.00000000000E+00 0. -1.
</event>
<event>
 5    1  0.8907853E-005  0.9118800E+02  0.7818608E-02  0.1130116E+00
         25   -1    0    0    0    0  0.00000000000E+00  0.00000000000E+00  0.99999998245E-14  0.12500000000E+03  0.12500000000E+03 0.  0.
        -11    1    3    3    0    0 -0.40076123800E+01  0.55996433899E+02 -0.20235857978E+02  0.59675384496E+02  0.51100000000E-03 0.  1.
         23    2    1    0    0    0 -0.13450508067E+02  0.20327230982E+02 -0.13345658892E+02  0.97211169547E+02  0.93154669163E+02 0.  0.
         11    1    3    3    0    0 -0.94428956869E+01 -0.35669202917E+02  0.68901990859E+01  0.37535785051E+02  0.51100000000E-03 0. -1.
         22    1    1    0    0    0  0.13450508067E+02 -0.20327230982E+02  0.13345658892E+02  0.27788830453E+02  0.00000000000E+00 0.  1.
</event>
<event>
 5    1  0.8907853E-005  0.9118800E+02  0.7818608E-02  0.1130116E+00
         25   -1    0    0    0    0  0.00000000000E+00  0.00000000000E+00  0.99999998245E-14  0.12500000000E+03  0.12500000000E+03 0.  0.
        -11    1    3    3    0    0 -0.19887644475E+02  0.12718747119E+02 -0.29175053438E+02  0.37529570666E+02  0.51100000000E-03 0.  1.
         23    2    1    0    0    0 -0.13962739342E+02  0.27743566919E+02  0.19170179242E+02  0.88501241563E+02  0.80624502421E+02 0.  0.
         11    1    3    3    0    0  0.59249051331E+01  0.15024819800E+02  0.48345232680E+02  0.50971670897E+02  0.51100000000E-03 0. -1.
         22    1    1    0    0    0  0.13962739342E+02 -0.27743566919E+02 -0.19170179242E+02  0.36498758437E+02  0.00000000000E+00 0. -1.
</event>
<event>
 5    1  0.8907853E-005  0.9118800E+02  0.7818608E-02  0.1130116E+00
         25   -1    0    0    0    0  0.00000000000E+00  0.00000000000E+00  0.99999998245E-14  0.12500000000E+03  0.12500000000E+03 0.  0.
        -11    1    3    3    0    0  0.13200971770E+02 -0.14804736440E+02  0.57926229773E+02  0.61228212228E+02  0.51100000000E-03 0.  1.
         23    2    1    0    0    0 -0.16125064349E+01 -0.11205557661E+02  0.27535458508E+02  0.95228097562E+02  0.90454543228E+02 0.  0.
         11    1    3    3    0    0 -0.14813478205E+02  0.35991787793E+01 -0.30390771265E+02  0.33999885334E+02  0.51100000000E-03 0. -1.
         22    1    1    0    0    0  0.16125064349E+01  0.11205557661E+02 -0.27535458508E+02  0.29771902438E+02  0.00000000000E+00 0.  1.
</event>
<event>
 5    1  0.8907853E-005  0.9118800E+02  0.7818608E-02  0.1130116E+00
         25   -1    0    0    0    0  0.00000000000E+00  0.00000000000E+00  0.99999998245E-14  0.12500000000E+03  0.12500000000E+03 0.  0.
        -11    1    3    3    0    0 -0.19612617771E+02  0.16704491492E+02 -0.56601434747E+02  0.62188561870E+02  0.51100000000E-03 0. -1.
         23    2    1    0    0    0 -0.11529549818E+02  0.60855049992E+01 -0.20209364743E+02  0.10095041968E+03  0.98043892828E+02 0.  0.
         11    1    3    3    0    0  0.80830679525E+01 -0.10618986493E+02  0.36392070004E+02  0.38761857813E+02  0.51100000000E-03 0.  1.
         22    1    1    0    0    0  0.11529549818E+02 -0.60855049992E+01  0.20209364743E+02  0.24049580317E+02  0.00000000000E+00 0. -1.
</event>
<event>
 5    1  0.8907853E-005  0.9118800E+02  0.7818608E-02  0.1130116E+00
         25   -1    0    0    0    0  0.00000000000E+00  0.00000000000E+00  0.99999998245E-14  0.12500000000E+03  0.12500000000E+03 0.  0.
        -11    1    3    3    0    0 -0.27706609034E+02 -0.48449994078E+02 -0.25816501962E+02  0.61494307738E+02  0.51100000000E-03 0. -1.
         23    2    1    0    0    0 -0.20056466768E+02 -0.19225207941E+02 -0.11359701387E+02  0.94984782273E+02  0.90117676226E+02 0.  0.
         11    1    3    3    0    0  0.76501422657E+01  0.29224786138E+02  0.14456800575E+02  0.33490474535E+02  0.51100000000E-03 0.  1.
         22    1    1    0    0    0  0.20056466768E+02  0.19225207941E+02  0.11359701387E+02  0.30015217727E+02  0.00000000000E+00 0. -1.
</event>
<event>
 5    1  0.8907853E-005  0.9118800E+02  0.7818608E-02  0.1130116E+00
         25   -1    0    0    0    0  0.00000000000E+00  0.00000000000E+00  0.99999998245E-14  0.12500000000E+03  0.12500000000E+03 0.  0.
        -11    1    3    3    0    0  0.20474982268E+02  0.49717354183E+02  0.26143926160E+02  0.59787499372E+02  0.51100000000E-03 0. -1.
         23    2    1    0    0    0 -0.13386263599E-02  0.33089867055E+02  0.17641892184E+02  0.87500991169E+02  0.79058508664E+02 0.  0.
         11    1    3    3    0    0 -0.20476320895E+02 -0.16627487128E+02 -0.85020339766E+01  0.27713491797E+02  0.51100000000E-03 0.  1.
         22    1    1    0    0    0  0.13386263599E-02 -0.33089867055E+02 -0.17641892184E+02  0.37499008831E+02  0.00000000000E+00 0. -1.
</event>
<event>
 5    1  0.8907853E-005  0.9118800E+02  0.7818608E-02  0.1130116E+00
         25   -1    0    0    0    0  0.00000000000E+00  0.00000000000E+00  0.99999998245E-14  0.12500000000E+03  0.12500000000E+03 0.  0.
        -11    1    3    3    0    0  0.35508545156E+00 -0.28185665411E+02 -0.47783020548E+02  0.55477697079E+02  0.51100000000E-03 0. -1.
         23    2    1    0    0    0  0.19123961676E+02 -0.34615730461E+01 -0.19423847106E+02  0.97522841585E+02  0.93571953043E+02 0.  0.
         11    1    3    3    0    0  0.18768876224E+02  0.24724092365E+02  0.28359173441E+02  0.42045144506E+02  0.51100000000E-03 0.  1.
         22    1    1    0    0    0 -0.19123961676E+02  0.34615730461E+01  0.19423847106E+02  0.27477158415E+02  0.00000000000E+00 0. -1.
</event>
<event>
 5    1  0.8907853E-005  0.9118800E+02  0.7818608E-02  0.1130116E+00
         25   -1    0    0    0    0  0.00000000000E+00  0.00000000000E+00  0.99999998245E-14  0.12500000000E+03  0.12500000000E+03 0.  0.
        -11    1    3    3    0    0 -0.29726106691E+02 -0.44398719874E+02 -0.22839812399E+02  0.58108043988E+02  0.51100000000E-03 0.  1.
         23    2    1    0    0    0  0.91930243512E-01 -0.22029798904E+02 -0.19580421814E+02  0.95526055416E+02  0.90865361134E+02 0.  0.
         11    1    3    3    0    0  0.29818036934E+02  0.22368920970E+02  0.32593905849E+01  0.37418011428E+02  0.51100000000E-03 0. -1.
         22    1    1    0    0    0 -0.91930243512E-01  0.22029798904E+02  0.19580421814E+02  0.29473944584E+02  0.00000000000E+00 0.  1.
</event>
<event>
 5    1  0.8907853E-005  0.9118800E+02  0.7818608E-02  0.1130116E+00
         25   -1    0    0    0    0  0.00000000000E+00  0.00000000000E+00  0.99999998245E-14  0.12500000000E+03  0.12500000000E+03 0.  0.
        -11    1    3    3    0    0  0.25099673092E+02 -0.40961090516E+01 -0.42741871383E+02  0.49735694107E+02  0.51100000000E-03 0. -1.
         23    2    1    0    0    0 -0.12777503972E+02 -0.16492411969E+02 -0.22061858086E+02  0.94635714359E+02  0.89632185010E+02 0.  0.
         11    1    3    3    0    0 -0.37877177064E+02 -0.12396302918E+02  0.20680013297E+02  0.44900020252E+02  0.51100000000E-03 0.  1.
         22    1    1    0    0    0  0.12777503972E+02  0.16492411969E+02  0.22061858086E+02  0.30364285641E+02  0.00000000000E+00 0. -1.
</event>
<event>
 5    1  0.8907853E-005  0.9118800E+02  0.7818608E-02  0.1130116E+00
         25   -1    0    0    0    0  0.00000000000E+00  0.00000000000E+00  0.99999998245E-14  0.12500000000E+03  0.12500000000E+03 0.  0.
        -11    1    3    3    0    0 -0.40538551197E+02 -0.37700229512E+02 -0.27655645246E+02  0.61883084544E+02  0.51100000000E-03 0. -1.
         23    2    1    0    0    0 -0.15486906664E+02 -0.22163181026E+02 -0.10468051551E+02  0.96006363207E+02  0.91523717155E+02 0.  0.
         11    1    3    3    0    0  0.25051644533E+02  0.15537048486E+02  0.17187593695E+02  0.34123278664E+02  0.51100000000E-03 0.  1.
         22    1    1    0    0    0  0.15486906664E+02  0.22163181026E+02  0.10468051551E+02  0.28993636793E+02  0.00000000000E+00 0. -1.
</event>
<event>
 5    1  0.8907853E-005  0.9118800E+02  0.7818608E-02  0.1130116E+00
         25   -1    0    0    0    0  0.00000000000E+00  0.00000000000E+00  0.99999998245E-14  0.12500000000E+03  0.12500000000E+03 0.  0.
        -11    1    3    3    0    0  0.78802974906E+01  0.23817933933E+02 -0.31295268082E+01  0.25282147925E+02  0.51100000000E-03 0.  1.
         23    2    1    0    0    0 -0.16747341823E+01 -0.34331205904E+02 -0.18198911095E+02  0.86107368327E+02  0.76823447474E+02 0.  0.
         11    1    3    3    0    0 -0.95550316730E+01 -0.58149139837E+02 -0.15069384287E+02  0.60825220403E+02  0.51100000000E-03 0. -1.
         22    1    1    0    0    0  0.16747341823E+01  0.34331205904E+02  0.18198911095E+02  0.38892631673E+02  0.00000000000E+00 0. -1.
</event>
<event>
 5    1  0.8907853E-005  0.9118800E+02  0.7818608E-02  0.1130116E+00
         25   -1    0    0    0    0  0.00000000000E+00  0.00000000000E+00  0.99999998245E-14  0.12500000000E+03  0.12500000000E+03 0.  0.
        -11    1    3    3    0    0 -0.24205300938E+02  0.17236559113E+02  0.51002498579E+02  0.59027539548E+02  0.51100000000E-03 0.  1.
         23    2    1    0    0    0 -0.14666755898E+02  0.16465482821E+02  0.10625795928E+02  0.10052279852E+03  0.97497177551E+02 0.  0.
         11    1    3    3    0    0  0.95385450395E+01 -0.77107629180E+00 -0.40376702650E+02  0.41495258974E+02  0.51100000000E-03 0. -1.
         22    1    1    0    0    0  0.14666755898E+02 -0.16465482821E+02 -0.10625795928E+02  0.24477201478E+02  0.00000000000E+00 0.  1.
</event>
<event>
 5    1  0.8907853E-005  0.9118800E+02  0.7818608E-02  0.1130116E+00
         25   -1    0    0    0    0  0.00000000000E+00  0.00000000000E+00  0.99999998245E-14  0.12500000000E+03  0.12500000000E+03 0.  0.
        -11    1    3    3    0    0 -0.10094805930E+02 -0.22758808115E+02 -0.45585513718E+02  0.51941385376E+02  0.51100000000E-03 0.  1.
         23    2    1    0    0    0  0.21285509865E+01 -0.29642092707E+02 -0.50243983492E+01  0.94859844590E+02  0.89944211306E+02 0.  0.
         11    1    3    3    0    0  0.12223356916E+02 -0.68832845918E+01  0.40561115369E+02  0.42918459214E+02  0.51100000000E-03 0. -1.
         22    1    1    0    0    0 -0.21285509865E+01  0.29642092707E+02  0.50243983492E+01  0.30140155410E+02  0.00000000000E+00 0.  1.
</event>
<event>
 5    1  0.8907853E-005  0.9118800E+02  0.7818608E-02  0.1130116E+00
         25   -1    0    0    0    0  0.00000000000E+00  0.00000000000E+00  0.99999998245E-14  0.12500000000E+03  0.12500000000E+03 0.  0.
        -11    1    3    3    0    0 -0.20796532370E+02  0.54508590922E+01  0.49043107503E+02  0.53548426842E+02  0.51100000000E-03 0. -1.
         23    2    1    0    0    0  0.14086029480E+02  0.16508228282E+01  0.25555598596E+02  0.95772785591E+02  0.91204146823E+02 0.  0.
         11    1    3    3    0    0  0.34882561849E+02 -0.38000362640E+01 -0.23487508907E+02  0.42224358748E+02  0.51100000000E-03 0.  1.
         22    1    1    0    0    0 -0.14086029480E+02 -0.16508228282E+01 -0.25555598596E+02  0.29227214409E+02  0.00000000000E+00 0. -1.
</event>
<event>
 5    1  0.8907853E-005  0.9118800E+02  0.7818608E-02  0.1130116E+00
         25   -1    0    0    0    0  0.00000000000E+00  0.00000000000E+00  0.99999998245E-14  0.12500000000E+03  0.12500000000E+03 0.  0.
        -11    1    3    3    0    0  0.41970210185E+02  0.26048214155E+02 -0.12781143770E+02  0.51023187278E+02  0.51100000000E-03 0.  1.
         23    2    1    0    0    0  0.11549533978E+02 -0.26670773632E+01 -0.27246786819E+02  0.95286494170E+02  0.90535206094E+02 0.  0.
         11    1    3    3    0    0 -0.30420676208E+02 -0.28715291519E+02 -0.14465643049E+02  0.44263306892E+02  0.51100000000E-03 0. -1.
         22    1    1    0    0    0 -0.11549533978E+02  0.26670773632E+01  0.27246786819E+02  0.29713505830E+02  0.00000000000E+00 0.  1.
</event>
<event>
 5    1  0.8907853E-005  0.9118800E+02  0.7818608E-02  0.1130116E+00
         25   -1    0    0    0    0  0.00000000000E+00  0.00000000000E+00  0.99999998245E-14  0.12500000000E+03  0.12500000000E+03 0.  0.
        -11    1    3    3    0    0  0.16180089368E+01  0.30182459183E+02  0.15231306669E+02  0.33846587691E+02  0.51100000000E-03 0. -1.
         23    2    1    0    0    0  0.14810523255E+02 -0.21807858703E+02 -0.14229878431E+02  0.95042968431E+02  0.90198348697E+02 0.  0.
         11    1    3    3    0    0  0.13192514318E+02 -0.51990317886E+02 -0.29461185099E+02  0.61196380739E+02  0.51100000000E-03 0.  1.
         22    1    1    0    0    0 -0.14810523255E+02  0.21807858703E+02  0.14229878431E+02  0.29957031569E+02  0.00000000000E+00 0.  1.
</event>
<event>
 5    1  0.8907853E-005  0.9118800E+02  0.7818608E-02  0.1130116E+00
         25   -1    0    0    0    0  0.00000000000E+00  0.00000000000E+00  0.99999998245E-14  0.12500000000E+03  0.12500000000E+03 0.  0.
        -11    1    3    3    0    0 -0.15999691539E+02  0.22028651161E+02 -0.24820340551E+02  0.36841564933E+02  0.51100000000E-03 0.  1.
         23    2    1    0    0    0  0.12578192075E+02 -0.25883355696E+02 -0.73941955551E+01  0.95287491760E+02  0.90536583435E+02 0.  0.
         11    1    3    3    0    0  0.28577883615E+02 -0.47912006858E+02  0.17426144996E+02  0.58445926828E+02  0.51100000000E-03 0. -1.
         22    1    1    0    0    0 -0.12578192075E+02  0.25883355696E+02  0.73941955551E+01  0.29712508240E+02  0.00000000000E+00 0. -1.
</event>
<event>
 5    1  0.8907853E-005  0.9118800E+02  0.7818608E-02  0.1130116E+00
         25   -1    0    0    0    0  0.00000000000E+00  0.00000000000E+00  0.99999998245E-14  0.12500000000E+03  0.12500000000E+03 0.  0.
        -11    1    3    3    0    0 -0.52495030296E+02 -0.70144031703E+01 -0.90880506612E+01  0.53735674581E+02  0.51100000000E-03 0.  1.
         23    2    1    0    0    0 -0.26659544766E+02 -0.84475352943E+01  0.18429283288E+02  0.91507752207E+02  0.85158311701E+02 0.  0.
         11    1    3    3    0    0  0.25835485530E+02 -0.14331321240E+01  0.27517333949E+02  0.37772077626E+02  0.51100000000E-03 0. -1.
         22    1    1    0    0    0  0.26659544766E+02  0.84475352943E+01 -0.18429283288E+02  0.33492247793E+02  0.00000000000E+00 0.  1.
</event>
<event>
 5    1  0.8907853E-005  0.9118800E+02  0.7818608E-02  0.1130116E+00
         25   -1    0    0    0    0  0.00000000000E+00  0.00000000000E+00  0.99999998245E-14  0.12500000000E+03  0.12500000000E+03 0.  0.
        -11    1    3    3    0    0  0.38835890422E+02  0.11739005128E+02  0.31195636866E+02  0.51178104557E+02  0.51100000000E-03 0. -1.
         23    2    1    0    0    0  0.10059621670E+01  0.25953429263E+02  0.16748881003E+02  0.94095025235E+02  0.88874947588E+02 0.  0.
         11    1    3    3    0    0 -0.37829928255E+02  0.14214424134E+02 -0.14446755864E+02  0.42916920678E+02  0.51100000000E-03 0.  1.
         22    1    1    0    0    0 -0.10059621670E+01 -0.25953429263E+02 -0.16748881003E+02  0.30904974765E+02  0.00000000000E+00 0. -1.
</event>
<event>
 5    1  0.8907853E-005  0.9118800E+02  0.7818608E-02  0.1130116E+00
         25   -1    0    0    0    0  0.00000000000E+00  0.00000000000E+00  0.99999998245E-14  0.12500000000E+03  0.12500000000E+03 0.  0.
        -11    1    3    3    0    0 -0.79351638224E+01  0.45008242577E-01 -0.32953855521E+02  0.33895802757E+02  0.51100000000E-03 0.  1.
         23    2    1    0    0    0  0.10900692214E+02 -0.10550225054E+02  0.25005204337E+02  0.95752904702E+02  0.91176894966E+02 0.  0.
         11    1    3    3    0    0  0.18835856036E+02 -0.10595233297E+02  0.57959059857E+02  0.61857101945E+02  0.51100000000E-03 0. -1.
         22    1    1    0    0    0 -0.10900692214E+02  0.10550225054E+02 -0.25005204337E+02  0.29247095298E+02  0.00000000000E+00 0. -1.
</event>
<event>
 5    1  0.8907853E-005  0.9118800E+02  0.7818608E-02  0.1130116E+00
         25   -1    0    0    0    0  0.00000000000E+00  0.00000000000E+00  0.99999998245E-14  0.12500000000E+03  0.12500000000E+03 0.  0.
        -11    1    3    3    0    0  0.31413709237E+02 -0.10611595274E+02  0.50227764610E+02  0.60185176084E+02  0.51100000000E-03 0.  1.
         23    2    1    0    0    0  0.22333395443E+02 -0.12832863044E+02  0.18431998152E+02  0.93326643977E+02  0.87787590206E+02 0.  0.
         11    1    3    3    0    0 -0.90803137943E+01 -0.22212677696E+01 -0.31795766459E+02  0.33141467892E+02  0.51100000000E-03 0. -1.
         22    1    1    0    0    0 -0.22333395443E+02  0.12832863044E+02 -0.18431998152E+02  0.31673356023E+02  0.00000000000E+00 0.  1.
</event>
<event>
 5    1  0.8907853E-005  0.9118800E+02  0.7818608E-02  0.1130116E+00
         25   -1    0    0    0    0  0.00000000000E+00  0.00000000000E+00  0.99999998245E-14  0.12500000000E+03  0.12500000000E+03 0.  0.
        -11    1    3    3    0    0  0.77742727292E+01 -0.48456383584E+02  0.15691344617E+01  0.49101146725E+02  0.51100000000E-03 0.  1.
         23    2    1    0    0    0 -0.18556484737E+01 -0.12919230781E+02 -0.26540625893E+02  0.95423746383E+02  0.90724509345E+02 0.  0.
         11    1    3    3    0    0 -0.96299212029E+01  0.35537152803E+02 -0.28109760354E+02  0.46322599659E+02  0.51100000000E-03 0. -1.
         22    1    1    0    0    0  0.18556484737E+01  0.12919230781E+02  0.26540625893E+02  0.29576253617E+02  0.00000000000E+00 0. -1.
</event>
<event>
 5    1  0.8907853E-005  0.9118800E+02  0.7818608E-02  0.1130116E+00
         25   -1    0    0    0    0  0.00000000000E+00  0.00000000000E+00  0.99999998245E-14  0.12500000000E+03  0.12500000000E+03 0.  0.
        -11    1    3    3    0    0  0.43364178862E+02  0.37811700062E+02  0.14012216131E+02  0.59215866718E+02  0.51100000000E-03 0.  1.
         23    2    1    0    0    0  0.23218686032E+02  0.37194292707E+01  0.11307949113E+02  0.98907640039E+02  0.95403930788E+02 0.  0.
         11    1    3    3    0    0 -0.20145492829E+02 -0.34092270792E+02 -0.27042670183E+01  0.39691773322E+02  0.51100000000E-03 0. -1.
         22    1    1    0    0    0 -0.23218686032E+02 -0.37194292707E+01 -0.11307949113E+02  0.26092359961E+02  0.00000000000E+00 0.  1.
</event>
<event>
 5    1  0.8907853E-005  0.9118800E+02  0.7818608E-02  0.1130116E+00
         25   -1    0    0    0    0  0.00000000000E+00  0.00000000000E+00  0.99999998245E-14  0.12500000000E+03  0.12500000000E+03 0.  0.
        -11    1    3    3    0    0  0.62765573200E+01  0.88556314546E+01 -0.33040000658E+02  0.34777277409E+02  0.51100000000E-03 0. -1.
         23    2    1    0    0    0 -0.44720919691E+01  0.55781753652E+01  0.27620165130E+02  0.96469504582E+02  0.92154089142E+02 0.  0.
         11    1    3    3    0    0 -0.10748649289E+02 -0.32774560895E+01  0.60660165788E+02  0.61692227173E+02  0.51100000000E-03 0.  1.
         22    1    1    0    0    0  0.44720919691E+01 -0.55781753652E+01 -0.27620165130E+02  0.28530495418E+02  0.00000000000E+00 0.  1.
</event>
<event>
 5    1  0.8907853E-005  0.9118800E+02  0.7818608E-02  0.1130116E+00
         25   -1    0    0    0    0  0.00000000000E+00  0.00000000000E+00  0.99999998245E-14  0.12500000000E+03  0.12500000000E+03 0.  0.
        -11    1    3    3    0    0  0.38541112257E+02 -0.32065540624E+02 -0.76145593390E+01  0.50710923317E+02  0.51100000000E-03 0.  1.
         23    2    1    0    0    0  0.15903352874E+02 -0.85069127749E+01  0.23194655307E+02  0.95618437203E+02  0.90992358474E+02 0.  0.
         11    1    3    3    0    0 -0.22637759383E+02  0.23558627849E+02  0.30809214646E+02  0.44907513885E+02  0.51100000000E-03 0. -1.
         22    1    1    0    0    0 -0.15903352874E+02  0.85069127749E+01 -0.23194655307E+02  0.29381562797E+02  0.00000000000E+00 0. -1.
</event>
<event>
 5    1  0.8907853E-005  0.9118800E+02  0.7818608E-02  0.1130116E+00
         25   -1    0    0    0    0  0.00000000000E+00  0.00000000000E+00  0.99999998245E-14  0.12500000000E+03  0.12500000000E+03 0.  0.
        -11    1    3    3    0    0 -0.13284308880E+02  0.80097299064E+01 -0.12580881437E+02  0.19972661655E+02  0.51100000000E-03 0.  1.
         23    2    1    0    0    0  0.32880473207E+02 -0.24095834104E+02  0.13636250895E+02  0.82015327407E+02  0.69848635289E+02 0.  0.
         11    1    3    3    0    0  0.46164782087E+02 -0.32105564010E+02  0.26217132332E+02  0.62042665752E+02  0.51100000000E-03 0. -1.
         22    1    1    0    0    0 -0.32880473207E+02  0.24095834104E+02 -0.13636250895E+02  0.42984672593E+02  0.00000000000E+00 0. -1.
</event>
<event>
 5    1  0.8907853E-005  0.9118800E+02  0.7818608E-02  0.1130116E+00
         25   -1    0    0    0    0  0.00000000000E+00  0.00000000000E+00  0.99999998245E-14  0.12500000000E+03  0.12500000000E+03 0.  0.
        -11    1    3    3    0    0  0.30564296195E+01  0.43495990436E+02 -0.42572771801E+02  0.60940002011E+02  0.51100000000E-03 0.  1.
         23    2    1    0    0    0  0.86829583220E+01  0.12689854715E+02 -0.21022869241E+02  0.98954132592E+02  0.95464826758E+02 0.  0.
         11    1    3    3    0    0  0.56265287025E+01 -0.30806135720E+02  0.21549902559E+02  0.38014130581E+02  0.51100000000E-03 0. -1.
         22    1    1    0    0    0 -0.86829583220E+01 -0.12689854715E+02  0.21022869241E+02  0.26045867408E+02  0.00000000000E+00 0.  1.
</event>
<event>
 5    1  0.8907853E-005  0.9118800E+02  0.7818608E-02  0.1130116E+00
         25   -1    0    0    0    0  0.00000000000E+00  0.00000000000E+00  0.99999998245E-14  0.12500000000E+03  0.12500000000E+03 0.  0.
        -11    1    3    3    0    0 -0.19633537988E+02 -0.26855645527E+02 -0.10959320081E+02  0.35025822010E+02  0.51100000000E-03 0. -1.
         23    2    1    0    0    0  0.31396485740E+02  0.35310685944E+00 -0.56216843751E+01  0.93102236184E+02  0.87467474217E+02 0.  0.
         11    1    3    3    0    0  0.51030023728E+02  0.27208752386E+02  0.53376357062E+01  0.58076414174E+02  0.51100000000E-03 0.  1.
         22    1    1    0    0    0 -0.31396485740E+02 -0.35310685944E+00  0.56216843751E+01  0.31897763816E+02  0.00000000000E+00 0.  1.
</event>
<event>
 5    1  0.8907853E-005  0.9118800E+02  0.7818608E-02  0.1130116E+00
         25   -1    0    0    0    0  0.00000000000E+00  0.00000000000E+00  0.99999998245E-14  0.12500000000E+03  0.12500000000E+03 0.  0.
        -11    1    3    3    0    0  0.24011667199E+02 -0.14668995100E+02  0.53024750255E+02  0.60028024445E+02  0.51100000000E-03 0.  1.
         23    2    1    0    0    0  0.10422837831E+02 -0.18487435571E+02  0.20458340850E+02  0.95521795631E+02  0.90859500922E+02 0.  0.
         11    1    3    3    0    0 -0.13588829368E+02 -0.38184404708E+01 -0.32566409405E+02  0.35493771186E+02  0.51100000000E-03 0. -1.
         22    1    1    0    0    0 -0.10422837831E+02  0.18487435571E+02 -0.20458340850E+02  0.29478204369E+02  0.00000000000E+00 0.  1.
</event>
<event>
 5    1  0.8907853E-005  0.9118800E+02  0.7818608E-02  0.1130116E+00
         25   -1    0    0    0    0  0.00000000000E+00  0.00000000000E+00  0.99999998245E-14  0.12500000000E+03  0.12500000000E+03 0.  0.
        -11    1    3    3    0    0 -0.31046254493E+02 -0.14540198386E+02 -0.14667112834E+02  0.37288221817E+02  0.51100000000E-03 0. -1.
         23    2    1    0    0    0 -0.14960114002E+02  0.13451329113E+02  0.27831322622E+02  0.90658686910E+02  0.83902751608E+02 0.  0.
         11    1    3    3    0    0  0.16086140491E+02  0.27991527499E+02  0.42498435457E+02  0.53370465092E+02  0.51100000000E-03 0.  1.
         22    1    1    0    0    0  0.14960114002E+02 -0.13451329113E+02 -0.27831322622E+02  0.34341313090E+02  0.00000000000E+00 0.  1.
</event>
<event>
 5    1  0.8907853E-005  0.9118800E+02  0.7818608E-02  0.1130116E+00
         25   -1    0    0    0    0  0.00000000000E+00  0.00000000000E+00  0.99999998245E-14  0.12500000000E+03  0.12500000000E+03 0.  0.
        -11    1    3    3    0    0  0.33130555744E+02  0.47239649616E+01 -0.43723896275E+02  0.55061135791E+02  0.51100000000E-03 0. -1.
         23    2    1    0    0    0  0.20565223562E+02  0.23957435083E+02 -0.24005247087E+02  0.85337183615E+02  0.75559882899E+02 0.  0.
         11    1    3    3    0    0 -0.12565332182E+02  0.19233470122E+02  0.19718649188E+02  0.30276047824E+02  0.51100000000E-03 0.  1.
         22    1    1    0    0    0 -0.20565223562E+02 -0.23957435083E+02  0.24005247087E+02  0.39662816385E+02  0.00000000000E+00 0. -1.
</event>
<event>
 5    1  0.8907853E-005  0.9118800E+02  0.7818608E-02  0.1130116E+00
         25   -1    0    0    0    0  0.00000000000E+00  0.00000000000E+00  0.99999998245E-14  0.12500000000E+03  0.12500000000E+03 0.  0.
        -11    1    3    3    0    0 -0.94396333098E+01  0.45769947186E+02  0.78070165820E+01  0.47380842654E+02  0.51100000000E-03 0. -1.
         23    2    1    0    0    0 -0.24789852825E+02 -0.25864991661E+01  0.99559840101E+01  0.98160693030E+02  0.94420195178E+02 0.  0.
         11    1    3    3    0    0 -0.15350219516E+02 -0.48356446352E+02  0.21489674281E+01  0.50779850376E+02  0.51100000000E-03 0.  1.
         22    1    1    0    0    0  0.24789852825E+02  0.25864991661E+01 -0.99559840101E+01  0.26839306970E+02  0.00000000000E+00 0. -1.
</event>
<event>
 5    1  0.8907853E-005  0.9118800E+02  0.7818608E-02  0.1130116E+00
         25   -1    0    0    0    0  0.00000000000E+00  0.00000000000E+00  0.99999998245E-14  0.12500000000E+03  0.12500000000E+03 0.  0.
        -11    1    3    3    0    0 -0.44438606465E+02 -0.37157386265E+02  0.21384728660E+02  0.61747613061E+02  0.51100000000E-03 0.  1.
         23    2    1    0    0    0 -0.16178853565E+02 -0.19958208134E+02  0.14359274016E+02  0.95567464858E+02  0.90922308674E+02 0.  0.
         11    1    3    3    0    0  0.28259752900E+02  0.17199178131E+02 -0.70254546448E+01  0.33819851797E+02  0.51100000000E-03 0. -1.
         22    1    1    0    0    0  0.16178853565E+02  0.19958208134E+02 -0.14359274016E+02  0.29432535142E+02  0.00000000000E+00 0.  1.
</event>
<event>
 5    1  0.8907853E-005  0.9118800E+02  0.7818608E-02  0.1130116E+00
         25   -1    0    0    0    0  0.00000000000E+00  0.00000000000E+00  0.99999998245E-14  0.12500000000E+03  0.12500000000E+03 0.  0.
        -11    1    3    3    0    0  0.41357037829E+02 -0.29598268794E+01  0.45790007164E+02  0.61772889762E+02  0.51100000000E-03 0.  1.
         23    2    1    0    0    0  0.17651323026E+02  0.47517524130E+01  0.23613055760E+02  0.95138239203E+02  0.90330281749E+02 0.  0.
         11    1    3    3    0    0 -0.23705714803E+02  0.77115792924E+01 -0.22176951404E+02  0.33365349442E+02  0.51100000000E-03 0. -1.
         22    1    1    0    0    0 -0.17651323026E+02 -0.47517524130E+01 -0.23613055760E+02  0.29861760797E+02  0.00000000000E+00 0.  1.
</event>
<event>
 5    1  0.8907853E-005  0.9118800E+02  0.7818608E-02  0.1130116E+00
         25   -1    0    0    0    0  0.00000000000E+00  0.00000000000E+00  0.99999998245E-14  0.12500000000E+03  0.12500000000E+03 0.  0.
        -11    1    3    3    0    0  0.46534289605E+01 -0.47977480314E+02  0.23835025442E+02  0.53773613013E+02  0.51100000000E-03 0. -1.
         23    2    1    0    0    0  0.32136236338E+01 -0.58231653100E+01  0.28059007546E+02  0.96163486071E+02  0.91738059265E+02 0.  0.
         11    1    3    3    0    0 -0.14398053267E+01  0.42154315004E+02  0.42239821049E+01  0.42389873058E+02  0.51100000000E-03 0.  1.
         22    1    1    0    0    0 -0.32136236338E+01  0.58231653100E+01 -0.28059007546E+02  0.28836513929E+02  0.00000000000E+00 0. -1.
</event>
<event>
 5    1  0.8907853E-005  0.9118800E+02  0.7818608E-02  0.1130116E+00
         25   -1    0    0    0    0  0.00000000000E+00  0.00000000000E+00  0.99999998245E-14  0.12500000000E+03  0.12500000000E+03 0.  0.
        -11    1    3    3    0    0  0.86682270508E+01  0.40550843735E+02 -0.82927440591E+01  0.42288044316E+02  0.51100000000E-03 0. -1.
         23    2    1    0    0    0 -0.18232900923E+02 -0.25186361330E+01 -0.23363066656E+02  0.95257520487E+02  0.90495193915E+02 0.  0.
         11    1    3    3    0    0 -0.26901127973E+02 -0.43069479868E+02 -0.15070322597E+02  0.52969476170E+02  0.51100000000E-03 0.  1.
         22    1    1    0    0    0  0.18232900923E+02  0.25186361330E+01  0.23363066656E+02  0.29742479513E+02  0.00000000000E+00 0.  1.
</event>
<event>
 5    1  0.8907853E-005  0.9118800E+02  0.7818608E-02  0.1130116E+00
         25   -1    0    0    0    0  0.00000000000E+00  0.00000000000E+00  0.99999998245E-14  0.12500000000E+03  0.12500000000E+03 0.  0.
        -11    1    3    3    0    0 -0.10655688173E+02  0.34051885211E+02 -0.18851243325E+02  0.40353983100E+02  0.51100000000E-03 0. -1.
         23    2    1    0    0    0  0.65456907757E+01  0.44775829692E+01  0.26600051068E+02  0.97242883187E+02  0.93197214533E+02 0.  0.
         11    1    3    3    0    0  0.17201378949E+02 -0.29574302242E+02  0.45451294393E+02  0.56888900087E+02  0.51100000000E-03 0.  1.
         22    1    1    0    0    0 -0.65456907757E+01 -0.44775829692E+01 -0.26600051068E+02  0.27757116813E+02  0.00000000000E+00 0.  1.
</event>
<event>
 5    1  0.8907853E-005  0.9118800E+02  0.7818608E-02  0.1130116E+00
         25   -1    0    0    0    0  0.00000000000E+00  0.00000000000E+00  0.99999998245E-14  0.12500000000E+03  0.12500000000E+03 0.  0.
        -11    1    3    3    0    0  0.11369931456E+02  0.24112750034E+02  0.51491678802E+02  0.57983558374E+02  0.51100000000E-03 0.  1.
         23    2    1    0    0    0  0.10122406612E+02 -0.36602928675E+01  0.30012989452E+02  0.93115201187E+02  0.87486000575E+02 0.  0.
         11    1    3    3    0    0 -0.12475248435E+01 -0.27773042902E+02 -0.21478689350E+02  0.35131642813E+02  0.51100000000E-03 0. -1.
         22    1    1    0    0    0 -0.10122406612E+02  0.36602928675E+01 -0.30012989452E+02  0.31884798813E+02  0.00000000000E+00 0.  1.
</event>
<event>
 5    1  0.8907853E-005  0.9118800E+02  0.7818608E-02  0.1130116E+00
         25   -1    0    0    0    0  0.00000000000E+00  0.00000000000E+00  0.99999998245E-14  0.12500000000E+03  0.12500000000E+03 0.  0.
        -11    1    3    3    0    0 -0.41625061648E+02  0.21028962887E+02 -0.18639210565E+02  0.50222337740E+02  0.51100000000E-03 0.  1.
         23    2    1    0    0    0 -0.12535560221E+02  0.19786600983E+02  0.16863846874E+02  0.96137581877E+02  0.91702756061E+02 0.  0.
         11    1    3    3    0    0  0.29089501428E+02 -0.12423619035E+01  0.35503057439E+02  0.45915244137E+02  0.51100000000E-03 0. -1.
         22    1    1    0    0    0  0.12535560221E+02 -0.19786600983E+02 -0.16863846874E+02  0.28862418123E+02  0.00000000000E+00 0.  1.
</event>
<event>
 5    1  0.8907853E-005  0.9118800E+02  0.7818608E-02  0.1130116E+00
         25   -1    0    0    0    0  0.00000000000E+00  0.00000000000E+00  0.99999998245E-14  0.12500000000E+03  0.12500000000E+03 0.  0.
        -11    1    3    3    0    0  0.48413831494E+02 -0.21886634457E+00 -0.35829966080E+02  0.60230668700E+02  0.51100000000E-03 0.  1.
         23    2    1    0    0    0  0.17606605656E+02  0.99332633710E+01 -0.20847989402E+02  0.95960355615E+02  0.91460859955E+02 0.  0.
         11    1    3    3    0    0 -0.30807225838E+02  0.10152129716E+02  0.14981976679E+02  0.35729686915E+02  0.51100000000E-03 0. -1.
         22    1    1    0    0    0 -0.17606605656E+02 -0.99332633710E+01  0.20847989402E+02  0.29039644385E+02  0.00000000000E+00 0.  1.
</event>
<event>
 5    1  0.8907853E-005  0.9118800E+02  0.7818608E-02  0.1130116E+00
         25   -1    0    0    0    0  0.00000000000E+00  0.00000000000E+00  0.99999998245E-14  0.12500000000E+03  0.12500000000E+03 0.  0.
        -11    1    3    3    0    0 -0.23588898670E+02  0.24853412488E+02  0.12926298113E+01  0.34289927747E+02  0.51100000000E-03 0.  1.
         23    2    1    0    0    0  0.87383994345E+01 -0.12762154712E+02 -0.28804391250E+02  0.92305578873E+02  0.86321461515E+02 0.  0.
         11    1    3    3    0    0  0.32327298105E+02 -0.37615567200E+02 -0.30097021061E+02  0.58015651126E+02  0.51100000000E-03 0. -1.
         22    1    1    0    0    0 -0.87383994345E+01  0.12762154712E+02  0.28804391250E+02  0.32694421127E+02  0.00000000000E+00 0. -1.
</event>
<event>
 5    1  0.8907853E-005  0.9118800E+02  0.7818608E-02  0.1130116E+00
         25   -1    0    0    0    0  0.00000000000E+00  0.00000000000E+00  0.99999998245E-14  0.12500000000E+03  0.12500000000E+03 0.  0.
        -11    1    3    3    0    0 -0.36084256927E+01 -0.10258750139E+02  0.29694405879E+02  0.31623099645E+02  0.51100000000E-03 0.  1.
         23    2    1    0    0    0  0.21104157510E+02 -0.16611982003E+02 -0.22657099207E+02  0.89861878896E+02  0.82707132244E+02 0.  0.
         11    1    3    3    0    0  0.24712583202E+02 -0.63532318632E+01 -0.52351505086E+02  0.58238779251E+02  0.51100000000E-03 0. -1.
         22    1    1    0    0    0 -0.21104157510E+02  0.16611982003E+02  0.22657099207E+02  0.35138121104E+02  0.00000000000E+00 0. -1.
</event>
<event>
 5    1  0.8907853E-005  0.9118800E+02  0.7818608E-02  0.1130116E+00
         25   -1    0    0    0    0  0.00000000000E+00  0.00000000000E+00  0.99999998245E-14  0.12500000000E+03  0.12500000000E+03 0.  0.
        -11    1    3    3    0    0 -0.74847502786E+01 -0.28524080868E+02 -0.35763253146E+02  0.46353586182E+02  0.51100000000E-03 0. -1.
         23    2    1    0    0    0 -0.81458554670E+01  0.18895193496E+02 -0.19938801819E+02  0.96347964880E+02  0.91989082070E+02 0.  0.
         11    1    3    3    0    0 -0.66110518840E+00  0.47419274364E+02  0.15824451328E+02  0.49994378698E+02  0.51100000000E-03 0.  1.
         22    1    1    0    0    0  0.81458554670E+01 -0.18895193496E+02  0.19938801819E+02  0.28652035120E+02  0.00000000000E+00 0. -1.
</event>
<event>
 5    1  0.8907853E-005  0.9118800E+02  0.7818608E-02  0.1130116E+00
         25   -1    0    0    0    0  0.00000000000E+00  0.00000000000E+00  0.99999998245E-14  0.12500000000E+03  0.12500000000E+03 0.  0.
        -11    1    3    3    0    0  0.18185445111E+02  0.20641970744E+02  0.23888127822E+02  0.36434105193E+02  0.51100000000E-03 0. -1.
         23    2    1    0    0    0 -0.29188806554E+02 -0.47180716329E+01 -0.46171184696E+00  0.95428733442E+02  0.90731380242E+02 0.  0.
         11    1    3    3    0    0 -0.47374251665E+02 -0.25360042377E+02 -0.24349839669E+02  0.58994628250E+02  0.51100000000E-03 0.  1.
         22    1    1    0    0    0  0.29188806554E+02  0.47180716329E+01  0.46171184696E+00  0.29571266558E+02  0.00000000000E+00 0.  1.
</event>
<event>
 5    1  0.8907853E-005  0.9118800E+02  0.7818608E-02  0.1130116E+00
         25   -1    0    0    0    0  0.00000000000E+00  0.00000000000E+00  0.99999998245E-14  0.12500000000E+03  0.12500000000E+03 0.  0.
        -11    1    3    3    0    0  0.43723736872E+02  0.25487949697E+02  0.36517788509E+02  0.62409531513E+02  0.51100000000E-03 0.  1.
         23    2    1    0    0    0  0.19254883567E+02  0.13964212991E+02  0.17292088452E+02  0.95593094201E+02  0.90957537072E+02 0.  0.
         11    1    3    3    0    0 -0.24468853304E+02 -0.11523736706E+02 -0.19225700058E+02  0.33183562688E+02  0.51100000000E-03 0. -1.
         22    1    1    0    0    0 -0.19254883567E+02 -0.13964212991E+02 -0.17292088452E+02  0.29406905799E+02  0.00000000000E+00 0.  1.
</event>
<event>
 5    1  0.8907853E-005  0.9118800E+02  0.7818608E-02  0.1130116E+00
         25   -1    0    0    0    0  0.00000000000E+00  0.00000000000E+00  0.99999998245E-14  0.12500000000E+03  0.12500000000E+03 0.  0.
        -11    1    3    3    0    0  0.34678212512E+01  0.30118171809E+02  0.24148184299E+02  0.38759061683E+02  0.51100000000E-03 0.  1.
         23    2    1    0    0    0  0.21081153996E+02 -0.91927209213E+01 -0.15468989871E+02  0.97283383696E+02  0.93251519687E+02 0.  0.
         11    1    3    3    0    0  0.17613332745E+02 -0.39310892730E+02 -0.39617174170E+02  0.58524322013E+02  0.51100000000E-03 0. -1.
         22    1    1    0    0    0 -0.21081153996E+02  0.91927209213E+01  0.15468989871E+02  0.27716616304E+02  0.00000000000E+00 0. -1.
</event>
<event>
 5    1  0.8907853E-005  0.9118800E+02  0.7818608E-02  0.1130116E+00
         25   -1    0    0    0    0  0.00000000000E+00  0.00000000000E+00  0.99999998245E-14  0.12500000000E+03  0.12500000000E+03 0.  0.
        -11    1    3    3    0    0  0.10606682571E+01 -0.14727544022E+02  0.37845864210E+02  0.40624315479E+02  0.51100000000E-03 0. -1.
         23    2    1    0    0    0  0.27873045498E+02 -0.31793768712E+01 -0.87527878655E+01  0.95612478872E+02  0.90984172898E+02 0.  0.
         11    1    3    3    0    0  0.26812377241E+02  0.11548167151E+02 -0.46598652075E+02  0.54988163393E+02  0.51100000000E-03 0.  1.
         22    1    1    0    0    0 -0.27873045498E+02  0.31793768712E+01  0.87527878655E+01  0.29387521128E+02  0.00000000000E+00 0.  1.
</event>
<event>
 5    1  0.8907853E-005  0.9118800E+02  0.7818608E-02  0.1130116E+00
         25   -1    0    0    0    0  0.00000000000E+00  0.00000000000E+00  0.99999998245E-14  0.12500000000E+03  0.12500000000E+03 0.  0.
        -11    1    3    3    0    0  0.30813807085E+01  0.33121489182E+02 -0.12720895043E+02  0.35613889477E+02  0.51100000000E-03 0. -1.
         23    2    1    0    0    0  0.65696990534E+01 -0.27088048773E+02 -0.65824389645E+00  0.97118884222E+02  0.93030753278E+02 0.  0.
         11    1    3    3    0    0  0.34883183449E+01 -0.60209537955E+02  0.12062651146E+02  0.61504994745E+02  0.51100000000E-03 0.  1.
         22    1    1    0    0    0 -0.65696990534E+01  0.27088048773E+02  0.65824389645E+00  0.27881115778E+02  0.00000000000E+00 0.  1.
</event>
<event>
 5    1  0.8907853E-005  0.9118800E+02  0.7818608E-02  0.1130116E+00
         25   -1    0    0    0    0  0.00000000000E+00  0.00000000000E+00  0.99999998245E-14  0.12500000000E+03  0.12500000000E+03 0.  0.
        -11    1    3    3    0    0 -0.24185889829E+02  0.26773304012E+02 -0.15888297133E+02  0.39423407521E+02  0.51100000000E-03 0. -1.
         23    2    1    0    0    0 -0.72338573722E+01 -0.25564390235E+02 -0.15093648180E+02  0.94443741133E+02  0.89364060355E+02 0.  0.
         11    1    3    3    0    0  0.16952032457E+02 -0.52337694247E+02  0.79464895275E+00  0.55020333612E+02  0.51100000000E-03 0.  1.
         22    1    1    0    0    0  0.72338573722E+01  0.25564390235E+02  0.15093648180E+02  0.30556258867E+02  0.00000000000E+00 0.  1.
</event>
<event>
 5    1  0.8907853E-005  0.9118800E+02  0.7818608E-02  0.1130116E+00
         25   -1    0    0    0    0  0.00000000000E+00  0.00000000000E+00  0.99999998245E-14  0.12500000000E+03  0.12500000000E+03 0.  0.
        -11    1    3    3    0    0  0.28610754414E+02  0.24805844525E+02 -0.51957983205E+01  0.38221741341E+02  0.51100000000E-03 0. -1.
         23    2    1    0    0    0 -0.11218983079E+01 -0.15366472715E+02  0.24279478320E+02  0.96244475192E+02  0.91848346735E+02 0.  0.
         11    1    3    3    0    0 -0.29732652722E+02 -0.40172317239E+02  0.29475276640E+02  0.58022733851E+02  0.51100000000E-03 0.  1.
         22    1    1    0    0    0  0.11218983079E+01  0.15366472715E+02 -0.24279478320E+02  0.28755524808E+02  0.00000000000E+00 0.  1.
</event>
<event>
 5    1  0.8907853E-005  0.9118800E+02  0.7818608E-02  0.1130116E+00
         25   -1    0    0    0    0  0.00000000000E+00  0.00000000000E+00  0.99999998245E-14  0.12500000000E+03  0.12500000000E+03 0.  0.
        -11    1    3    3    0    0 -0.27339389942E+02 -0.37503437960E+02 -0.24858976240E+02  0.52649015196E+02  0.51100000000E-03 0. -1.
         23    2    1    0    0    0 -0.22653752901E+02 -0.14992260846E+02  0.11363771739E+02  0.95553511009E+02  0.90903122896E+02 0.  0.
         11    1    3    3    0    0  0.46856370408E+01  0.22511177114E+02  0.36222747979E+02  0.42904495812E+02  0.51100000000E-03 0.  1.
         22    1    1    0    0    0  0.22653752901E+02  0.14992260846E+02 -0.11363771739E+02  0.29446488991E+02  0.00000000000E+00 0. -1.
</event>
<event>
 5    1  0.8907853E-005  0.9118800E+02  0.7818608E-02  0.1130116E+00
         25   -1    0    0    0    0  0.00000000000E+00  0.00000000000E+00  0.99999998245E-14  0.12500000000E+03  0.12500000000E+03 0.  0.
        -11    1    3    3    0    0  0.28460175256E+02 -0.19957951519E+02 -0.21468116629E+02  0.40855616949E+02  0.51100000000E-03 0. -1.
         23    2    1    0    0    0 -0.19935974203E+02  0.82478305106E+01 -0.17868059209E+02  0.96986836747E+02  0.92853159272E+02 0.  0.
         11    1    3    3    0    0 -0.48396149459E+02  0.28205782030E+02  0.36000574201E+01  0.56131219798E+02  0.51100000000E-03 0.  1.
         22    1    1    0    0    0  0.19935974203E+02 -0.82478305106E+01  0.17868059209E+02  0.28013163253E+02  0.00000000000E+00 0.  1.
</event>
<event>
 5    1  0.8907853E-005  0.9118800E+02  0.7818608E-02  0.1130116E+00
         25   -1    0    0    0    0  0.00000000000E+00  0.00000000000E+00  0.99999998245E-14  0.12500000000E+03  0.12500000000E+03 0.  0.
        -11    1    3    3    0    0 -0.74123881914E-01 -0.72377000385E+01  0.55746299470E+02  0.56214230414E+02  0.51100000000E-03 0.  1.
         23    2    1    0    0    0 -0.93705265117E+01 -0.20390291886E+02  0.22163118476E+02  0.93459952586E+02  0.87977202424E+02 0.  0.
         11    1    3    3    0    0 -0.92964026298E+01 -0.13152591848E+02 -0.33583180994E+02  0.37245722171E+02  0.51100000000E-03 0. -1.
         22    1    1    0    0    0  0.93705265117E+01  0.20390291886E+02 -0.22163118476E+02  0.31540047414E+02  0.00000000000E+00 0.  1.
</event>
<event>
 5    1  0.8907853E-005  0.9118800E+02  0.7818608E-02  0.1130116E+00
         25   -1    0    0    0    0  0.00000000000E+00  0.00000000000E+00  0.99999998245E-14  0.12500000000E+03  0.12500000000E+03 0.  0.
        -11    1    3    3    0    0  0.44389948052E+02 -0.17805723425E+02 -0.28674618188E+02  0.55765087674E+02  0.51100000000E-03 0.  1.
         23    2    1    0    0    0  0.25413475696E+02 -0.92413652470E+01  0.69969808099E+01  0.97067844354E+02  0.92962148686E+02 0.  0.
         11    1    3    3    0    0 -0.18976472356E+02  0.85643581783E+01  0.35671598997E+02  0.41302756680E+02  0.51100000000E-03 0. -1.
         22    1    1    0    0    0 -0.25413475696E+02  0.92413652470E+01 -0.69969808099E+01  0.27932155646E+02  0.00000000000E+00 0.  1.
</event>
<event>
 5    1  0.8907853E-005  0.9118800E+02  0.7818608E-02  0.1130116E+00
         25   -1    0    0    0    0  0.00000000000E+00  0.00000000000E+00  0.99999998245E-14  0.12500000000E+03  0.12500000000E+03 0.  0.
        -11    1    3    3    0    0 -0.14803582509E+02  0.24514820732E+02  0.29156642287E+02  0.40868475385E+02  0.51100000000E-03 0.  1.
         23    2    1    0    0    0 -0.22724408219E+02 -0.23139028586E+00 -0.18862243785E+02  0.95466349515E+02  0.90783188855E+02 0.  0.
         11    1    3    3    0    0 -0.79208257099E+01 -0.24746211017E+02 -0.48018886072E+02  0.54597874130E+02  0.51100000000E-03 0. -1.
         22    1    1    0    0    0  0.22724408219E+02  0.23139028586E+00  0.18862243785E+02  0.29533650485E+02  0.00000000000E+00 0. -1.
</event>
<event>
 5    1  0.8907853E-005  0.9118800E+02  0.7818608E-02  0.1130116E+00
         25   -1    0    0    0    0  0.00000000000E+00  0.00000000000E+00  0.99999998245E-14  0.12500000000E+03  0.12500000000E+03 0.  0.
        -11    1    3    3    0    0  0.12858103130E+02  0.24296740168E+02  0.49380546454E+02  0.56516376098E+02  0.51100000000E-03 0.  1.
         23    2    1    0    0    0 -0.12693970809E+02  0.80031517204E+01  0.26712007922E+02  0.94361483398E+02  0.89248926322E+02 0.  0.
         11    1    3    3    0    0 -0.25552073940E+02 -0.16293588448E+02 -0.22668538532E+02  0.37845107300E+02  0.51100000000E-03 0. -1.
         22    1    1    0    0    0  0.12693970809E+02 -0.80031517204E+01 -0.26712007922E+02  0.30638516602E+02  0.00000000000E+00 0.  1.
</event>
<event>
 5    1  0.8907853E-005  0.9118800E+02  0.7818608E-02  0.1130116E+00
         25   -1    0    0    0    0  0.00000000000E+00  0.00000000000E+00  0.99999998245E-14  0.12500000000E+03  0.12500000000E+03 0.  0.
        -11    1    3    3    0    0  0.13835301469E+02 -0.69258085159E+01 -0.30014689091E+02  0.33767794595E+02  0.51100000000E-03 0. -1.
         23    2    1    0    0    0 -0.46430534771E+01  0.11950618002E+02  0.26173264607E+02  0.95855274981E+02  0.91317132813E+02 0.  0.
         11    1    3    3    0    0 -0.18478354946E+02  0.18876426518E+02  0.56187953698E+02  0.62087480386E+02  0.51100000000E-03 0.  1.
         22    1    1    0    0    0  0.46430534771E+01 -0.11950618002E+02 -0.26173264607E+02  0.29144725019E+02  0.00000000000E+00 0.  1.
</event>
<event>
 5    1  0.8907853E-005  0.9118800E+02  0.7818608E-02  0.1130116E+00
         25   -1    0    0    0    0  0.00000000000E+00  0.00000000000E+00  0.99999998245E-14  0.12500000000E+03  0.12500000000E+03 0.  0.
        -11    1    3    3    0    0 -0.12227539187E+02  0.39281039691E+02 -0.25531449709E+02  0.48418671174E+02  0.51100000000E-03 0.  1.
         23    2    1    0    0    0 -0.27917335808E+02  0.88508217271E+00 -0.10744832952E+00  0.97068430867E+02  0.92962937329E+02 0.  0.
         11    1    3    3    0    0 -0.15689796621E+02 -0.38395957518E+02  0.25424001380E+02  0.48649759693E+02  0.51100000000E-03 0. -1.
         22    1    1    0    0    0  0.27917335808E+02 -0.88508217271E+00  0.10744832952E+00  0.27931569133E+02  0.00000000000E+00 0.  1.
</event>
<event>
 5    1  0.8907853E-005  0.9118800E+02  0.7818608E-02  0.1130116E+00
         25   -1    0    0    0    0  0.00000000000E+00  0.00000000000E+00  0.99999998245E-14  0.12500000000E+03  0.12500000000E+03 0.  0.
        -11    1    3    3    0    0  0.22018237610E+02  0.33747806363E+01 -0.45928870395E+02  0.51045597928E+02  0.51100000000E-03 0.  1.
         23    2    1    0    0    0  0.12032167099E+02 -0.24108926227E+02 -0.13002667497E+02  0.95082066733E+02  0.90252516216E+02 0.  0.
         11    1    3    3    0    0 -0.99860705114E+01 -0.27483706863E+02  0.32926202899E+02  0.44036468805E+02  0.51100000000E-03 0. -1.
         22    1    1    0    0    0 -0.12032167099E+02  0.24108926227E+02  0.13002667497E+02  0.29917933267E+02  0.00000000000E+00 0.  1.
</event>
<event>
 5    1  0.8907853E-005  0.9118800E+02  0.7818608E-02  0.1130116E+00
         25   -1    0    0    0    0  0.00000000000E+00  0.00000000000E+00  0.99999998245E-14  0.12500000000E+03  0.12500000000E+03 0.  0.
        -11    1    3    3    0    0 -0.15013696910E+02 -0.44710251763E+01  0.58132899920E+02  0.60206604408E+02  0.51100000000E-03 0.  1.
         23    2    1    0    0    0  0.43586141025E+01 -0.54141631431E+01  0.28809319201E+02  0.95364083407E+02  0.90642268572E+02 0.  0.
         11    1    3    3    0    0  0.19372311012E+02 -0.94313796686E+00 -0.29323580718E+02  0.35157478999E+02  0.51100000000E-03 0. -1.
         22    1    1    0    0    0 -0.43586141025E+01  0.54141631431E+01 -0.28809319201E+02  0.29635916593E+02  0.00000000000E+00 0.  1.
</event>
<event>
 5    1  0.8907853E-005  0.9118800E+02  0.7818608E-02  0.1130116E+00
         25   -1    0    0    0    0  0.00000000000E+00  0.00000000000E+00  0.99999998245E-14  0.12500000000E+03  0.12500000000E+03 0.  0.
        -11    1    3    3    0    0 -0.53963837060E+02 -0.23196828532E+02 -0.13408983725E+02  0.60249393433E+02  0.51100000000E-03 0.  1.
         23    2    1    0    0    0 -0.22586421913E+02 -0.88717659999E+01 -0.17638488161E+02  0.95000484148E+02  0.90139453276E+02 0.  0.
         11    1    3    3    0    0  0.31377415147E+02  0.14325062533E+02 -0.42295044352E+01  0.34751090715E+02  0.51100000000E-03 0. -1.
         22    1    1    0    0    0  0.22586421913E+02  0.88717659999E+01  0.17638488161E+02  0.29999515852E+02  0.00000000000E+00 0.  1.
</event>
<event>
 5    1  0.8907853E-005  0.9118800E+02  0.7818608E-02  0.1130116E+00
         25   -1    0    0    0    0  0.00000000000E+00  0.00000000000E+00  0.99999998245E-14  0.12500000000E+03  0.12500000000E+03 0.  0.
        -11    1    3    3    0    0  0.14542230526E+02 -0.44561058308E+01  0.31701021191E+02  0.35160888678E+02  0.51100000000E-03 0.  1.
         23    2    1    0    0    0 -0.23041286663E+02  0.15263616282E+02 -0.10894317079E+02  0.95292004145E+02  0.90542813277E+02 0.  0.
         11    1    3    3    0    0 -0.37583517190E+02  0.19719722113E+02 -0.42595338270E+02  0.60131115466E+02  0.51100000000E-03 0. -1.
         22    1    1    0    0    0  0.23041286663E+02 -0.15263616282E+02  0.10894317079E+02  0.29707995855E+02  0.00000000000E+00 0. -1.
</event>
<event>
 5    1  0.8907853E-005  0.9118800E+02  0.7818608E-02  0.1130116E+00
         25   -1    0    0    0    0  0.00000000000E+00  0.00000000000E+00  0.99999998245E-14  0.12500000000E+03  0.12500000000E+03 0.  0.
        -11    1    3    3    0    0  0.49439937135E+02 -0.19590631452E+02 -0.23858233489E+02  0.58286495264E+02  0.51100000000E-03 0. -1.
         23    2    1    0    0    0  0.12741199296E+02 -0.15681709827E+02 -0.21838609013E+02  0.95248041641E+02  0.90482099943E+02 0.  0.
         11    1    3    3    0    0 -0.36698737840E+02  0.39089216240E+01  0.20196244763E+01  0.36961546377E+02  0.51100000000E-03 0.  1.
         22    1    1    0    0    0 -0.12741199296E+02  0.15681709827E+02  0.21838609013E+02  0.29751958359E+02  0.00000000000E+00 0. -1.
</event>
<event>
 5    1  0.8907853E-005  0.9118800E+02  0.7818608E-02  0.1130116E+00
         25   -1    0    0    0    0  0.00000000000E+00  0.00000000000E+00  0.99999998245E-14  0.12500000000E+03  0.12500000000E+03 0.  0.
        -11    1    3    3    0    0  0.67640431962E+01 -0.46977710294E+02 -0.95081764780E+01  0.48405195641E+02  0.51100000000E-03 0.  1.
         23    2    1    0    0    0 -0.50711967311E+01 -0.36627411582E+01 -0.27514168777E+02  0.96783653805E+02  0.92579227969E+02 0.  0.
         11    1    3    3    0    0 -0.11835239927E+02  0.43314969136E+02 -0.18005992299E+02  0.48378458164E+02  0.51100000000E-03 0. -1.
         22    1    1    0    0    0  0.50711967311E+01  0.36627411582E+01  0.27514168777E+02  0.28216346195E+02  0.00000000000E+00 0. -1.
</event>
<event>
 5    1  0.8907853E-005  0.9118800E+02  0.7818608E-02  0.1130116E+00
         25   -1    0    0    0    0  0.00000000000E+00  0.00000000000E+00  0.99999998245E-14  0.12500000000E+03  0.12500000000E+03 0.  0.
        -11    1    3    3    0    0 -0.49262444581E+02  0.30247509925E+02  0.64337231795E+01  0.58164362775E+02  0.51100000000E-03 0.  1.
         23    2    1    0    0    0 -0.13396389411E+02  0.21670841199E+02  0.14174293272E+02  0.95845254292E+02  0.91303414903E+02 0.  0.
         11    1    3    3    0    0  0.35866055171E+02 -0.85766687255E+01  0.77405700927E+01  0.37680891517E+02  0.51100000000E-03 0. -1.
         22    1    1    0    0    0  0.13396389411E+02 -0.21670841199E+02 -0.14174293272E+02  0.29154745708E+02  0.00000000000E+00 0.  1.
</event>
<event>
 5    1  0.8907853E-005  0.9118800E+02  0.7818608E-02  0.1130116E+00
         25   -1    0    0    0    0  0.00000000000E+00  0.00000000000E+00  0.99999998245E-14  0.12500000000E+03  0.12500000000E+03 0.  0.
        -11    1    3    3    0    0 -0.39993633956E+02 -0.20610398468E+02  0.26480317978E+02  0.52206192377E+02  0.51100000000E-03 0.  1.
         23    2    1    0    0    0 -0.19188605776E+02 -0.16571278705E+02 -0.12618638395E+02  0.96679690954E+02  0.92438751281E+02 0.  0.
         11    1    3    3    0    0  0.20805028180E+02  0.40391197628E+01 -0.39098956372E+02  0.44473498577E+02  0.51100000000E-03 0. -1.
         22    1    1    0    0    0  0.19188605776E+02  0.16571278705E+02  0.12618638395E+02  0.28320309046E+02  0.00000000000E+00 0.  1.
</event>
<event>
 5    1  0.8907853E-005  0.9118800E+02  0.7818608E-02  0.1130116E+00
         25   -1    0    0    0    0  0.00000000000E+00  0.00000000000E+00  0.99999998245E-14  0.12500000000E+03  0.12500000000E+03 0.  0.
        -11    1    3    3    0    0  0.18197851412E+02 -0.51040703176E+02 -0.16351033712E+02  0.56600984801E+02  0.51100000000E-03 0.  1.
         23    2    1    0    0    0  0.21428239813E+01 -0.27944860752E+02  0.10096492237E+02  0.95209966556E+02  0.90429484346E+02 0.  0.
         11    1    3    3    0    0 -0.16055027431E+02  0.23095842424E+02  0.26447525950E+02  0.38608981755E+02  0.51100000000E-03 0. -1.
         22    1    1    0    0    0 -0.21428239813E+01  0.27944860752E+02 -0.10096492237E+02  0.29790033444E+02  0.00000000000E+00 0.  1.
</event>
<event>
 5    1  0.8907853E-005  0.9118800E+02  0.7818608E-02  0.1130116E+00
         25   -1    0    0    0    0  0.00000000000E+00  0.00000000000E+00  0.99999998245E-14  0.12500000000E+03  0.12500000000E+03 0.  0.
        -11    1    3    3    0    0 -0.18221275642E+02  0.30403745977E+02  0.97222373134E+01  0.36754925576E+02  0.51100000000E-03 0. -1.
         23    2    1    0    0    0 -0.10277548066E+02 -0.18290324416E+02 -0.21354093685E+02  0.95064047056E+02  0.90227555459E+02 0.  0.
         11    1    3    3    0    0  0.79437275755E+01 -0.48694070393E+02 -0.31076330999E+02  0.58309121481E+02  0.51100000000E-03 0.  1.
         22    1    1    0    0    0  0.10277548066E+02  0.18290324416E+02  0.21354093685E+02  0.29935952944E+02  0.00000000000E+00 0.  1.
</event>
<event>
 5    1  0.8907853E-005  0.9118800E+02  0.7818608E-02  0.1130116E+00
         25   -1    0    0    0    0  0.00000000000E+00  0.00000000000E+00  0.99999998245E-14  0.12500000000E+03  0.12500000000E+03 0.  0.
        -11    1    3    3    0    0 -0.39745791775E+02 -0.85925635091E+01  0.23043769316E+02  0.46739441760E+02  0.51100000000E-03 0.  1.
         23    2    1    0    0    0 -0.10704049783E+02 -0.26937791609E+02 -0.99346696526E+01  0.94358215463E+02  0.89244349209E+02 0.  0.
         11    1    3    3    0    0  0.29041741992E+02 -0.18345228100E+02 -0.32978438968E+02  0.47618773703E+02  0.51100000000E-03 0. -1.
         22    1    1    0    0    0  0.10704049783E+02  0.26937791609E+02  0.99346696526E+01  0.30641784537E+02  0.00000000000E+00 0.  1.
</event>
<event>
 5    1  0.8907853E-005  0.9118800E+02  0.7818608E-02  0.1130116E+00
         25   -1    0    0    0    0  0.00000000000E+00  0.00000000000E+00  0.99999998245E-14  0.12500000000E+03  0.12500000000E+03 0.  0.
        -11    1    3    3    0    0  0.35450829647E+02 -0.27921233257E+02 -0.84776488817E+01  0.45915434443E+02  0.51100000000E-03 0.  1.
         23    2    1    0    0    0 -0.21694021325E+01 -0.26710407734E+02  0.18683342263E+02  0.92331674897E+02  0.86359242263E+02 0.  0.
         11    1    3    3    0    0 -0.37620231780E+02  0.12108255228E+01  0.27160991144E+02  0.46416240453E+02  0.51100000000E-03 0. -1.
         22    1    1    0    0    0  0.21694021325E+01  0.26710407734E+02 -0.18683342263E+02  0.32668325103E+02  0.00000000000E+00 0.  1.
</event>
<event>
 5    1  0.8907853E-005  0.9118800E+02  0.7818608E-02  0.1130116E+00
         25   -1    0    0    0    0  0.00000000000E+00  0.00000000000E+00  0.99999998245E-14  0.12500000000E+03  0.12500000000E+03 0.  0.
        -11    1    3    3    0    0  0.15549089967E+02 -0.34515716515E+02 -0.68906009870E+01  0.38478426001E+02  0.51100000000E-03 0.  1.
         23    2    1    0    0    0 -0.17352800017E+02  0.54256996844E+01 -0.25682974626E+02  0.93532984394E+02  0.88080906549E+02 0.  0.
         11    1    3    3    0    0 -0.32901889984E+02  0.39941416199E+02 -0.18792373639E+02  0.55054558392E+02  0.51100000000E-03 0. -1.
         22    1    1    0    0    0  0.17352800017E+02 -0.54256996844E+01  0.25682974626E+02  0.31467015606E+02  0.00000000000E+00 0. -1.
</event>
<event>
 5    1  0.8907853E-005  0.9118800E+02  0.7818608E-02  0.1130116E+00
         25   -1    0    0    0    0  0.00000000000E+00  0.00000000000E+00  0.99999998245E-14  0.12500000000E+03  0.12500000000E+03 0.  0.
        -11    1    3    3    0    0 -0.38260323002E+02  0.46153778543E+02  0.10711724015E+02  0.60899627434E+02  0.51100000000E-03 0.  1.
         23    2    1    0    0    0 -0.21796824693E+02  0.15595754251E+02  0.12000523143E+02  0.95634345350E+02  0.91014209536E+02 0.  0.
         11    1    3    3    0    0  0.16463498309E+02 -0.30558024292E+02  0.12887991282E+01  0.34734717915E+02  0.51100000000E-03 0. -1.
         22    1    1    0    0    0  0.21796824693E+02 -0.15595754251E+02 -0.12000523143E+02  0.29365654650E+02  0.00000000000E+00 0.  1.
</event>
<event>
 5    1  0.8907853E-005  0.9118800E+02  0.7818608E-02  0.1130116E+00
         25   -1    0    0    0    0  0.00000000000E+00  0.00000000000E+00  0.99999998245E-14  0.12500000000E+03  0.12500000000E+03 0.  0.
        -11    1    3    3    0    0  0.72353766200E+01  0.15935185248E+02 -0.27851791282E+02  0.32893815249E+02  0.51100000000E-03 0.  1.
         23    2    1    0    0    0  0.63433595140E+01 -0.55391352347E+01  0.29595295561E+02  0.94229856217E+02  0.89064381513E+02 0.  0.
         11    1    3    3    0    0 -0.89201710597E+00 -0.21474320482E+02  0.57447086843E+02  0.61336040969E+02  0.51100000000E-03 0. -1.
         22    1    1    0    0    0 -0.63433595140E+01  0.55391352347E+01 -0.29595295561E+02  0.30770143783E+02  0.00000000000E+00 0. -1.
</event>
<event>
 5    1  0.8907853E-005  0.9118800E+02  0.7818608E-02  0.1130116E+00
         25   -1    0    0    0    0  0.00000000000E+00  0.00000000000E+00  0.99999998245E-14  0.12500000000E+03  0.12500000000E+03 0.  0.
        -11    1    3    3    0    0 -0.49533586605E+02  0.32075442104E+02 -0.34120855978E+01  0.59110511049E+02  0.51100000000E-03 0.  1.
         23    2    1    0    0    0 -0.17258990746E+02  0.19324013376E+02 -0.14204701637E+02  0.95452346910E+02  0.90763906524E+02 0.  0.
         11    1    3    3    0    0  0.32274595859E+02 -0.12751428728E+02 -0.10792616039E+02  0.36341835860E+02  0.51100000000E-03 0. -1.
         22    1    1    0    0    0  0.17258990746E+02 -0.19324013376E+02  0.14204701637E+02  0.29547653090E+02  0.00000000000E+00 0.  1.
</event>
<event>
 5    1  0.8907853E-005  0.9118800E+02  0.7818608E-02  0.1130116E+00
         25   -1    0    0    0    0  0.00000000000E+00  0.00000000000E+00  0.99999998245E-14  0.12500000000E+03  0.12500000000E+03 0.  0.
        -11    1    3    3    0    0 -0.60262601495E+01  0.48747452452E+01 -0.51556146175E+02  0.52135546044E+02  0.51100000000E-03 0.  1.
         23    2    1    0    0    0 -0.18772595322E+02 -0.16189354179E+02 -0.15608609543E+02  0.95706072033E+02  0.91112666564E+02 0.  0.
         11    1    3    3    0    0 -0.12746335172E+02 -0.21064099424E+02  0.35947536632E+02  0.43570525990E+02  0.51100000000E-03 0. -1.
         22    1    1    0    0    0  0.18772595322E+02  0.16189354179E+02  0.15608609543E+02  0.29293927967E+02  0.00000000000E+00 0.  1.
</event>
<event>
 5    1  0.8907853E-005  0.9118800E+02  0.7818608E-02  0.1130116E+00
         25   -1    0    0    0    0  0.00000000000E+00  0.00000000000E+00  0.99999998245E-14  0.12500000000E+03  0.12500000000E+03 0.  0.
        -11    1    3    3    0    0 -0.91237511536E+01 -0.37951347904E+02 -0.14309570315E+02  0.41572965322E+02  0.51100000000E-03 0.  1.
         23    2    1    0    0    0 -0.10642006044E+02  0.15299446943E+02 -0.22837093355E+02  0.95523599231E+02  0.90861982191E+02 0.  0.
         11    1    3    3    0    0 -0.15182548908E+01  0.53250794846E+02 -0.85275230406E+01  0.53950633909E+02  0.51100000000E-03 0. -1.
         22    1    1    0    0    0  0.10642006044E+02 -0.15299446943E+02  0.22837093355E+02  0.29476400769E+02  0.00000000000E+00 0. -1.
</event>
<event>
 5    1  0.8907853E-005  0.9118800E+02  0.7818608E-02  0.1130116E+00
         25   -1    0    0    0    0  0.00000000000E+00  0.00000000000E+00  0.99999998245E-14  0.12500000000E+03  0.12500000000E+03 0.  0.
        -11    1    3    3    0    0  0.27515332787E+01 -0.33169941652E+02  0.25917212250E+02  0.42184331874E+02  0.51100000000E-03 0.  1.
         23    2    1    0    0    0 -0.15491760001E+02  0.16608857977E+02  0.18478755412E+02  0.95720088921E+02  0.91131894692E+02 0.  0.
         11    1    3    3    0    0 -0.18243293280E+02  0.49778799629E+02 -0.74384568376E+01  0.53535757047E+02  0.51100000000E-03 0. -1.
         22    1    1    0    0    0  0.15491760001E+02 -0.16608857977E+02 -0.18478755412E+02  0.29279911079E+02  0.00000000000E+00 0.  1.
</event>
<event>
 5    1  0.8907853E-005  0.9118800E+02  0.7818608E-02  0.1130116E+00
         25   -1    0    0    0    0  0.00000000000E+00  0.00000000000E+00  0.99999998245E-14  0.12500000000E+03  0.12500000000E+03 0.  0.
        -11    1    3    3    0    0 -0.30215151451E+02 -0.86842588628E+01 -0.44576928898E+02  0.54547908480E+02  0.51100000000E-03 0.  1.
         23    2    1    0    0    0 -0.14610391532E+02  0.18280537400E+02 -0.19136742816E+02  0.94769940226E+02  0.89819179781E+02 0.  0.
         11    1    3    3    0    0  0.15604759919E+02  0.26964796262E+02  0.25440186083E+02  0.40222031746E+02  0.51100000000E-03 0. -1.
         22    1    1    0    0    0  0.14610391532E+02 -0.18280537400E+02  0.19136742816E+02  0.30230059774E+02  0.00000000000E+00 0.  1.
</event>
<event>
 5    1  0.8907853E-005  0.9118800E+02  0.7818608E-02  0.1130116E+00
         25   -1    0    0    0    0  0.00000000000E+00  0.00000000000E+00  0.99999998245E-14  0.12500000000E+03  0.12500000000E+03 0.  0.
        -11    1    3    3    0    0 -0.49548664032E+01 -0.54895437579E+02  0.40166601080E+01  0.55264756642E+02  0.51100000000E-03 0.  1.
         23    2    1    0    0    0  0.91016324333E+01 -0.18564615472E+02  0.18920534167E+02  0.96973739569E+02  0.92835526025E+02 0.  0.
         11    1    3    3    0    0  0.14056498836E+02  0.36330822107E+02  0.14903874059E+02  0.41708982927E+02  0.51100000000E-03 0. -1.
         22    1    1    0    0    0 -0.91016324333E+01  0.18564615472E+02 -0.18920534167E+02  0.28026260431E+02  0.00000000000E+00 0.  1.
</event>
<event>
 5    1  0.8907853E-005  0.9118800E+02  0.7818608E-02  0.1130116E+00
         25   -1    0    0    0    0  0.00000000000E+00  0.00000000000E+00  0.99999998245E-14  0.12500000000E+03  0.12500000000E+03 0.  0.
        -11    1    3    3    0    0  0.83801063516E+01 -0.48938689097E+02  0.27612310800E+02  0.56812509018E+02  0.51100000000E-03 0. -1.
         23    2    1    0    0    0  0.42560258972E+01 -0.97863854113E+01  0.26759893105E+02  0.96190644317E+02  0.91775056956E+02 0.  0.
         11    1    3    3    0    0 -0.41240804543E+01  0.39152303685E+02 -0.85241769441E+00  0.39378135299E+02  0.51100000000E-03 0.  1.
         22    1    1    0    0    0 -0.42560258972E+01  0.97863854113E+01 -0.26759893105E+02  0.28809355683E+02  0.00000000000E+00 0. -1.
</event>
<event>
 5    1  0.8907853E-005  0.9118800E+02  0.7818608E-02  0.1130116E+00
         25   -1    0    0    0    0  0.00000000000E+00  0.00000000000E+00  0.99999998245E-14  0.12500000000E+03  0.12500000000E+03 0.  0.
        -11    1    3    3    0    0 -0.98185675419E+01 -0.33991306096E+00 -0.44248080155E+02  0.45325626384E+02  0.51100000000E-03 0. -1.
         23    2    1    0    0    0 -0.21728779728E+02  0.19409610514E+02  0.71200843291E+00  0.95855878727E+02  0.91317959251E+02 0.  0.
         11    1    3    3    0    0 -0.11910212186E+02  0.19749523575E+02  0.44960088588E+02  0.50530252343E+02  0.51100000000E-03 0.  1.
         22    1    1    0    0    0  0.21728779728E+02 -0.19409610514E+02 -0.71200843291E+00  0.29144121273E+02  0.00000000000E+00 0. -1.
</event>
<event>
 5    1  0.8907853E-005  0.9118800E+02  0.7818608E-02  0.1130116E+00
         25   -1    0    0    0    0  0.00000000000E+00  0.00000000000E+00  0.99999998245E-14  0.12500000000E+03  0.12500000000E+03 0.  0.
        -11    1    3    3    0    0  0.24647327393E+02  0.36348521688E+02  0.11890189842E+02  0.45498158108E+02  0.51100000000E-03 0. -1.
         23    2    1    0    0    0 -0.15678028087E+02  0.39775385143E+01  0.21500769055E+02  0.98094527558E+02  0.94332560071E+02 0.  0.
         11    1    3    3    0    0 -0.40325355481E+02 -0.32370983174E+02  0.96105792129E+01  0.52596369450E+02  0.51100000000E-03 0.  1.
         22    1    1    0    0    0  0.15678028087E+02 -0.39775385143E+01 -0.21500769055E+02  0.26905472442E+02  0.00000000000E+00 0. -1.
</event>
<event>
 5    1  0.8907853E-005  0.9118800E+02  0.7818608E-02  0.1130116E+00
         25   -1    0    0    0    0  0.00000000000E+00  0.00000000000E+00  0.99999998245E-14  0.12500000000E+03  0.12500000000E+03 0.  0.
        -11    1    3    3    0    0 -0.16271257456E+01  0.11842002991E+02  0.30567023748E+02  0.32821083378E+02  0.51100000000E-03 0.  1.
         23    2    1    0    0    0  0.16743468488E+02 -0.25207523872E+02 -0.12254661011E+02  0.92351267815E+02  0.86387597222E+02 0.  0.
         11    1    3    3    0    0  0.18370594234E+02 -0.37049526863E+02 -0.42821684759E+02  0.59530184437E+02  0.51100000000E-03 0. -1.
         22    1    1    0    0    0 -0.16743468488E+02  0.25207523872E+02  0.12254661011E+02  0.32648732185E+02  0.00000000000E+00 0. -1.
</event>
<event>
 5    1  0.8907853E-005  0.9118800E+02  0.7818608E-02  0.1130116E+00
         25   -1    0    0    0    0  0.00000000000E+00  0.00000000000E+00  0.99999998245E-14  0.12500000000E+03  0.12500000000E+03 0.  0.
        -11    1    3    3    0    0 -0.34381925621E+02 -0.72081982127E+01 -0.17719969771E+01  0.35174065793E+02  0.51100000000E-03 0.  1.
         23    2    1    0    0    0  0.20719599272E+02  0.15556453090E+02  0.12128878924E+02  0.96392051267E+02  0.92048969668E+02 0.  0.
         11    1    3    3    0    0  0.55101524893E+02  0.22764651303E+02  0.13900875901E+02  0.61217985474E+02  0.51100000000E-03 0. -1.
         22    1    1    0    0    0 -0.20719599272E+02 -0.15556453090E+02 -0.12128878924E+02  0.28607948733E+02  0.00000000000E+00 0. -1.
</event>
<event>
 5    1  0.8907853E-005  0.9118800E+02  0.7818608E-02  0.1130116E+00
         25   -1    0    0    0    0  0.00000000000E+00  0.00000000000E+00  0.99999998245E-14  0.12500000000E+03  0.12500000000E+03 0.  0.
        -11    1    3    3    0    0 -0.27382981193E+01  0.31790436449E+02 -0.14509957500E+02  0.35052375000E+02  0.51100000000E-03 0.  1.
         23    2    1    0    0    0  0.16666519021E+02 -0.10506452000E+02  0.22922095006E+02  0.94774500346E+02  0.89825525806E+02 0.  0.
         11    1    3    3    0    0  0.19404817140E+02 -0.42296888449E+02  0.37432052506E+02  0.59722125346E+02  0.51100000000E-03 0. -1.
         22    1    1    0    0    0 -0.16666519021E+02  0.10506452000E+02 -0.22922095006E+02  0.30225499654E+02  0.00000000000E+00 0. -1.
</event>
<event>
 5    1  0.8907853E-005  0.9118800E+02  0.7818608E-02  0.1130116E+00
         25   -1    0    0    0    0  0.00000000000E+00  0.00000000000E+00  0.99999998245E-14  0.12500000000E+03  0.12500000000E+03 0.  0.
        -11    1    3    3    0    0  0.13438191710E+02 -0.46919962203E+01 -0.54353859174E+02  0.56186669525E+02  0.51100000000E-03 0. -1.
         23    2    1    0    0    0  0.65468471225E-01  0.16798824904E+02 -0.23910931874E+02  0.95777791538E+02  0.91211007475E+02 0.  0.
         11    1    3    3    0    0 -0.13372723239E+02  0.21490821124E+02  0.30442927299E+02  0.39591122013E+02  0.51100000000E-03 0.  1.
         22    1    1    0    0    0 -0.65468471225E-01 -0.16798824904E+02  0.23910931874E+02  0.29222208462E+02  0.00000000000E+00 0. -1.
</event>
<event>
 5    1  0.8907853E-005  0.9118800E+02  0.7818608E-02  0.1130116E+00
         25   -1    0    0    0    0  0.00000000000E+00  0.00000000000E+00  0.99999998245E-14  0.12500000000E+03  0.12500000000E+03 0.  0.
        -11    1    3    3    0    0 -0.19021491366E+02  0.44637570563E+02 -0.14045237772E+02  0.50513350155E+02  0.51100000000E-03 0. -1.
         23    2    1    0    0    0  0.17627140800E+02  0.15393829249E+02 -0.14625286816E+02  0.97403168910E+02  0.93411949062E+02 0.  0.
         11    1    3    3    0    0  0.36648632166E+02 -0.29243741314E+02 -0.58004904447E+00  0.46889818755E+02  0.51100000000E-03 0.  1.
         22    1    1    0    0    0 -0.17627140800E+02 -0.15393829249E+02  0.14625286816E+02  0.27596831090E+02  0.00000000000E+00 0.  1.
</event>
<event>
 5    1  0.8907853E-005  0.9118800E+02  0.7818608E-02  0.1130116E+00
         25   -1    0    0    0    0  0.00000000000E+00  0.00000000000E+00  0.99999998245E-14  0.12500000000E+03  0.12500000000E+03 0.  0.
        -11    1    3    3    0    0 -0.79949973718E+01 -0.32876740353E+02  0.22891477972E+02  0.40851190964E+02  0.51100000000E-03 0.  1.
         23    2    1    0    0    0  0.12553341244E+02 -0.14980484038E+02 -0.23365670529E+02  0.94537632435E+02  0.89495296573E+02 0.  0.
         11    1    3    3    0    0  0.20548338616E+02  0.17896256315E+02 -0.46257148502E+02  0.53686441470E+02  0.51100000000E-03 0. -1.
         22    1    1    0    0    0 -0.12553341244E+02  0.14980484038E+02  0.23365670529E+02  0.30462367565E+02  0.00000000000E+00 0. -1.
</event>
<event>
 5    1  0.8907853E-005  0.9118800E+02  0.7818608E-02  0.1130116E+00
         25   -1    0    0    0    0  0.00000000000E+00  0.00000000000E+00  0.99999998245E-14  0.12500000000E+03  0.12500000000E+03 0.  0.
        -11    1    3    3    0    0 -0.40568299412E+02  0.17485098274E+02 -0.28902572272E+02  0.52790853972E+02  0.51100000000E-03 0.  1.
         23    2    1    0    0    0 -0.67833566679E+01  0.28387559647E+02 -0.55315687358E+01  0.95293675370E+02  0.90545120478E+02 0.  0.
         11    1    3    3    0    0  0.33784942744E+02  0.10902461372E+02  0.23371003536E+02  0.42502821398E+02  0.51100000000E-03 0. -1.
         22    1    1    0    0    0  0.67833566679E+01 -0.28387559647E+02  0.55315687358E+01  0.29706324630E+02  0.00000000000E+00 0. -1.
</event>
<event>
 5    1  0.8907853E-005  0.9118800E+02  0.7818608E-02  0.1130116E+00
         25   -1    0    0    0    0  0.00000000000E+00  0.00000000000E+00  0.99999998245E-14  0.12500000000E+03  0.12500000000E+03 0.  0.
        -11    1    3    3    0    0 -0.39725556576E+02 -0.26927285778E+02  0.16139468545E+02  0.50632805669E+02  0.51100000000E-03 0.  1.
         23    2    1    0    0    0 -0.22327321145E+02  0.14700429974E+02  0.11188181119E+02  0.96020916031E+02  0.91543590752E+02 0.  0.
         11    1    3    3    0    0  0.17398235432E+02  0.41627715752E+02 -0.49512874265E+01  0.45388110363E+02  0.51100000000E-03 0. -1.
         22    1    1    0    0    0  0.22327321145E+02 -0.14700429974E+02 -0.11188181119E+02  0.28979083969E+02  0.00000000000E+00 0.  1.
</event>
<event>
 5    1  0.8907853E-005  0.9118800E+02  0.7818608E-02  0.1130116E+00
         25   -1    0    0    0    0  0.00000000000E+00  0.00000000000E+00  0.99999998245E-14  0.12500000000E+03  0.12500000000E+03 0.  0.
        -11    1    3    3    0    0  0.32154847136E+02 -0.54920979289E+01  0.79594070373E+01  0.33577514719E+02  0.51100000000E-03 0.  1.
         23    2    1    0    0    0 -0.26176596104E+02  0.32078959715E+01  0.17540100809E+02  0.93327300139E+02  0.87788524504E+02 0.  0.
         11    1    3    3    0    0 -0.58331443240E+02  0.86999939004E+01  0.95806937714E+01  0.59749785420E+02  0.51100000000E-03 0. -1.
         22    1    1    0    0    0  0.26176596104E+02 -0.32078959715E+01 -0.17540100809E+02  0.31672699861E+02  0.00000000000E+00 0. -1.
</event>
<event>
 5    1  0.8907853E-005  0.9118800E+02  0.7818608E-02  0.1130116E+00
         25   -1    0    0    0    0  0.00000000000E+00  0.00000000000E+00  0.99999998245E-14  0.12500000000E+03  0.12500000000E+03 0.  0.
        -11    1    3    3    0    0  0.20217504238E+02 -0.40230523710E+02 -0.37498678169E+02  0.58595165161E+02  0.51100000000E-03 0.  1.
         23    2    1    0    0    0  0.10393551960E+02 -0.31224983718E+02 -0.77532172607E+01  0.91189677488E+02  0.84690137395E+02 0.  0.
         11    1    3    3    0    0 -0.98239522788E+01  0.90055399923E+01  0.29745460908E+02  0.32594512327E+02  0.51100000000E-03 0. -1.
         22    1    1    0    0    0 -0.10393551960E+02  0.31224983718E+02  0.77532172607E+01  0.33810322512E+02  0.00000000000E+00 0.  1.
</event>
<event>
 5    1  0.8907853E-005  0.9118800E+02  0.7818608E-02  0.1130116E+00
         25   -1    0    0    0    0  0.00000000000E+00  0.00000000000E+00  0.99999998245E-14  0.12500000000E+03  0.12500000000E+03 0.  0.
        -11    1    3    3    0    0 -0.50113740307E+02  0.41198224730E+01 -0.27317107617E+02  0.57223983377E+02  0.51100000000E-03 0.  1.
         23    2    1    0    0    0 -0.86732768792E+01 -0.19112248329E+01 -0.24205645073E+02  0.99216443892E+02  0.95807677005E+02 0.  0.
         11    1    3    3    0    0  0.41440463428E+02 -0.60310473059E+01  0.31114625440E+01  0.41992460515E+02  0.51100000000E-03 0. -1.
         22    1    1    0    0    0  0.86732768792E+01  0.19112248329E+01  0.24205645073E+02  0.25783556108E+02  0.00000000000E+00 0.  1.
</event>
<event>
 5    1  0.8907853E-005  0.9118800E+02  0.7818608E-02  0.1130116E+00
         25   -1    0    0    0    0  0.00000000000E+00  0.00000000000E+00  0.99999998245E-14  0.12500000000E+03  0.12500000000E+03 0.  0.
        -11    1    3    3    0    0  0.51347448651E+02 -0.13611262281E+02  0.18937088854E+02  0.56395392351E+02  0.51100000000E-03 0.  1.
         23    2    1    0    0    0  0.20968959850E+02  0.11096302427E+02  0.17392822879E+02  0.95583414670E+02  0.90944233834E+02 0.  0.
         11    1    3    3    0    0 -0.30378488801E+02  0.24707564708E+02 -0.15442659746E+01  0.39188022319E+02  0.51100000000E-03 0. -1.
         22    1    1    0    0    0 -0.20968959850E+02 -0.11096302427E+02 -0.17392822879E+02  0.29416585330E+02  0.00000000000E+00 0.  1.
</event>
<event>
 5    1  0.8907853E-005  0.9118800E+02  0.7818608E-02  0.1130116E+00
         25   -1    0    0    0    0  0.00000000000E+00  0.00000000000E+00  0.99999998245E-14  0.12500000000E+03  0.12500000000E+03 0.  0.
        -11    1    3    3    0    0  0.16349919959E+02  0.22032822785E+02  0.54156939060E+02  0.60710289170E+02  0.51100000000E-03 0. -1.
         23    2    1    0    0    0 -0.31468036431E+01  0.94859724948E+01  0.25754855824E+02  0.97373949869E+02  0.93372841165E+02 0.  0.
         11    1    3    3    0    0 -0.19496723602E+02 -0.12546850290E+02 -0.28402083236E+02  0.36663660699E+02  0.51100000000E-03 0.  1.
         22    1    1    0    0    0  0.31468036431E+01 -0.94859724948E+01 -0.25754855824E+02  0.27626050131E+02  0.00000000000E+00 0. -1.
</event>
<event>
 5    1  0.8907853E-005  0.9118800E+02  0.7818608E-02  0.1130116E+00
         25   -1    0    0    0    0  0.00000000000E+00  0.00000000000E+00  0.99999998245E-14  0.12500000000E+03  0.12500000000E+03 0.  0.
        -11    1    3    3    0    0  0.35471673261E+02  0.17417080454E+02  0.19837678423E+02  0.44216826898E+02  0.51100000000E-03 0.  1.
         23    2    1    0    0    0 -0.11342480574E+02  0.27557129837E+02  0.27499022488E+01  0.95073268925E+02  0.90240330403E+02 0.  0.
         11    1    3    3    0    0 -0.46814153835E+02  0.10140049383E+02 -0.17087776174E+02  0.50856442027E+02  0.51100000000E-03 0. -1.
         22    1    1    0    0    0  0.11342480574E+02 -0.27557129837E+02 -0.27499022488E+01  0.29926731075E+02  0.00000000000E+00 0. -1.
</event>
<event>
 5    1  0.8907853E-005  0.9118800E+02  0.7818608E-02  0.1130116E+00
         25   -1    0    0    0    0  0.00000000000E+00  0.00000000000E+00  0.99999998245E-14  0.12500000000E+03  0.12500000000E+03 0.  0.
        -11    1    3    3    0    0  0.29950526289E+02  0.12802605909E+02  0.11593455737E+02  0.34573818986E+02  0.51100000000E-03 0. -1.
         23    2    1    0    0    0 -0.22421019008E+02 -0.18118310673E+02  0.49067920566E+01  0.95758729793E+02  0.91184880591E+02 0.  0.
         11    1    3    3    0    0 -0.52371545297E+02 -0.30920916582E+02 -0.66866636808E+01  0.61184910808E+02  0.51100000000E-03 0.  1.
         22    1    1    0    0    0  0.22421019008E+02  0.18118310673E+02 -0.49067920566E+01  0.29241270207E+02  0.00000000000E+00 0.  1.
</event>
<event>
 5    1  0.8907853E-005  0.9118800E+02  0.7818608E-02  0.1130116E+00
         25   -1    0    0    0    0  0.00000000000E+00  0.00000000000E+00  0.99999998245E-14  0.12500000000E+03  0.12500000000E+03 0.  0.
        -11    1    3    3    0    0 -0.37608145042E+02  0.34905103433E+02  0.12898860284E+02  0.52906704831E+02  0.51100000000E-03 0. -1.
         23    2    1    0    0    0 -0.16169728931E+02 -0.94385201935E-01  0.24578236300E+02  0.95579620297E+02  0.90939018437E+02 0.  0.
         11    1    3    3    0    0  0.21438416110E+02 -0.34999488635E+02  0.11679376016E+02  0.42672915466E+02  0.51100000000E-03 0.  1.
         22    1    1    0    0    0  0.16169728931E+02  0.94385201935E-01 -0.24578236300E+02  0.29420379703E+02  0.00000000000E+00 0.  1.
</event>
<event>
 5    1  0.8907853E-005  0.9118800E+02  0.7818608E-02  0.1130116E+00
         25   -1    0    0    0    0  0.00000000000E+00  0.00000000000E+00  0.99999998245E-14  0.12500000000E+03  0.12500000000E+03 0.  0.
        -11    1    3    3    0    0  0.31830019359E+02  0.43085324322E+02  0.13756109200E+01  0.53585330175E+02  0.51100000000E-03 0.  1.
         23    2    1    0    0    0  0.14652701775E+02  0.12121400571E+02 -0.21927790323E+02  0.95974872790E+02  0.91480698497E+02 0.  0.
         11    1    3    3    0    0 -0.17177317584E+02 -0.30963923750E+02 -0.23303401243E+02  0.42389542615E+02  0.51100000000E-03 0. -1.
         22    1    1    0    0    0 -0.14652701775E+02 -0.12121400571E+02  0.21927790323E+02  0.29025127210E+02  0.00000000000E+00 0. -1.
</event>
<event>
 5    1  0.8907853E-005  0.9118800E+02  0.7818608E-02  0.1130116E+00
         25   -1    0    0    0    0  0.00000000000E+00  0.00000000000E+00  0.99999998245E-14  0.12500000000E+03  0.12500000000E+03 0.  0.
        -11    1    3    3    0    0 -0.14023044341E+02  0.39746429443E+02 -0.18198412741E+02  0.45908677313E+02  0.51100000000E-03 0.  1.
         23    2    1    0    0    0 -0.27104142341E+02  0.26442371960E+01  0.11738940980E+02  0.95344827471E+02  0.90615709829E+02 0.  0.
         11    1    3    3    0    0 -0.13081098000E+02 -0.37102192247E+02  0.29937353720E+02  0.49436150158E+02  0.51100000000E-03 0. -1.
         22    1    1    0    0    0  0.27104142341E+02 -0.26442371960E+01 -0.11738940980E+02  0.29655172529E+02  0.00000000000E+00 0. -1.
</event>
<event>
 5    1  0.8907853E-005  0.9118800E+02  0.7818608E-02  0.1130116E+00
         25   -1    0    0    0    0  0.00000000000E+00  0.00000000000E+00  0.99999998245E-14  0.12500000000E+03  0.12500000000E+03 0.  0.
        -11    1    3    3    0    0  0.78642471603E+01 -0.13170023975E+02 -0.57550861344E+02  0.59560033215E+02  0.51100000000E-03 0.  1.
         23    2    1    0    0    0 -0.33159798738E+01 -0.17173974649E+02 -0.22934596355E+02  0.96156684696E+02  0.91728791412E+02 0.  0.
         11    1    3    3    0    0 -0.11180227034E+02 -0.40039506737E+01  0.34616264989E+02  0.36596651480E+02  0.51100000000E-03 0. -1.
         22    1    1    0    0    0  0.33159798738E+01  0.17173974649E+02  0.22934596355E+02  0.28843315304E+02  0.00000000000E+00 0.  1.
</event>
<event>
 5    1  0.8907853E-005  0.9118800E+02  0.7818608E-02  0.1130116E+00
         25   -1    0    0    0    0  0.00000000000E+00  0.00000000000E+00  0.99999998245E-14  0.12500000000E+03  0.12500000000E+03 0.  0.
        -11    1    3    3    0    0  0.16457126318E+02 -0.45379085844E+02  0.20573404166E+02  0.52472501350E+02  0.51100000000E-03 0.  1.
         23    2    1    0    0    0  0.39353758701E+01 -0.31708594175E+01  0.27499092605E+02  0.97040357177E+02  0.92925181163E+02 0.  0.
         11    1    3    3    0    0 -0.12521750448E+02  0.42208226427E+02  0.69256884396E+01  0.44567855827E+02  0.51100000000E-03 0. -1.
         22    1    1    0    0    0 -0.39353758701E+01  0.31708594175E+01 -0.27499092605E+02  0.27959642823E+02  0.00000000000E+00 0.  1.
</event>
<event>
 5    1  0.8907853E-005  0.9118800E+02  0.7818608E-02  0.1130116E+00
         25   -1    0    0    0    0  0.00000000000E+00  0.00000000000E+00  0.99999998245E-14  0.12500000000E+03  0.12500000000E+03 0.  0.
        -11    1    3    3    0    0 -0.56811946532E+02  0.22614052738E+02 -0.10704067491E+02  0.62077127117E+02  0.51100000000E-03 0.  1.
         23    2    1    0    0    0 -0.32606716033E+02  0.14732375862E+02 -0.11103255269E+02  0.87536376222E+02  0.79114436455E+02 0.  0.
         11    1    3    3    0    0  0.24205230499E+02 -0.78816768759E+01 -0.39918777807E+00  0.25459249106E+02  0.51100000000E-03 0. -1.
         22    1    1    0    0    0  0.32606716033E+02 -0.14732375862E+02  0.11103255269E+02  0.37463623778E+02  0.00000000000E+00 0.  1.
</event>
<event>
 5    1  0.8907853E-005  0.9118800E+02  0.7818608E-02  0.1130116E+00
         25   -1    0    0    0    0  0.00000000000E+00  0.00000000000E+00  0.99999998245E-14  0.12500000000E+03  0.12500000000E+03 0.  0.
        -11    1    3    3    0    0  0.40942604583E+02  0.82661701121E+01 -0.26272300459E+02  0.49344302711E+02  0.51100000000E-03 0. -1.
         23    2    1    0    0    0  0.57241037101E+01 -0.22443056770E+02 -0.14980281128E+02  0.97416218839E+02  0.93429410305E+02 0.  0.
         11    1    3    3    0    0 -0.35218500873E+02 -0.30709226882E+02  0.11292019331E+02  0.48071916128E+02  0.51100000000E-03 0.  1.
         22    1    1    0    0    0 -0.57241037101E+01  0.22443056770E+02  0.14980281128E+02  0.27583781161E+02  0.00000000000E+00 0. -1.
</event>
<event>
 5    1  0.8907853E-005  0.9118800E+02  0.7818608E-02  0.1130116E+00
         25   -1    0    0    0    0  0.00000000000E+00  0.00000000000E+00  0.99999998245E-14  0.12500000000E+03  0.12500000000E+03 0.  0.
        -11    1    3    3    0    0  0.16403334126E+02 -0.24212831329E+02 -0.16754951149E+02  0.33705473735E+02  0.51100000000E-03 0.  1.
         23    2    1    0    0    0 -0.13681154637E+02  0.26945048588E+02 -0.83690006127E+01  0.93643185639E+02  0.88237160028E+02 0.  0.
         11    1    3    3    0    0 -0.30084488764E+02  0.51157879917E+02  0.83859505358E+01  0.59937711905E+02  0.51100000000E-03 0. -1.
         22    1    1    0    0    0  0.13681154637E+02 -0.26945048588E+02  0.83690006127E+01  0.31356814361E+02  0.00000000000E+00 0. -1.
</event>
<event>
 5    1  0.8907853E-005  0.9118800E+02  0.7818608E-02  0.1130116E+00
         25   -1    0    0    0    0  0.00000000000E+00  0.00000000000E+00  0.99999998245E-14  0.12500000000E+03  0.12500000000E+03 0.  0.
        -11    1    3    3    0    0  0.31928252135E+02 -0.25115348243E+02 -0.31889707143E+02  0.51644432649E+02  0.51100000000E-03 0. -1.
         23    2    1    0    0    0  0.97641206172E+01  0.12853016154E+02 -0.23638696008E+02  0.96376128413E+02  0.92027344324E+02 0.  0.
         11    1    3    3    0    0 -0.22164131518E+02  0.37968364396E+02  0.82510111351E+01  0.44731695764E+02  0.51100000000E-03 0.  1.
         22    1    1    0    0    0 -0.97641206172E+01 -0.12853016154E+02  0.23638696008E+02  0.28623871587E+02  0.00000000000E+00 0. -1.
</event>
<event>
 5    1  0.8907853E-005  0.9118800E+02  0.7818608E-02  0.1130116E+00
         25   -1    0    0    0    0  0.00000000000E+00  0.00000000000E+00  0.99999998245E-14  0.12500000000E+03  0.12500000000E+03 0.  0.
        -11    1    3    3    0    0  0.29599877529E+02  0.24784266191E+02  0.26064410220E+02  0.46580747963E+02  0.51100000000E-03 0.  1.
         23    2    1    0    0    0  0.27175118918E+02 -0.10843450284E+02 -0.66328398326E+01  0.94998965576E+02  0.90137347387E+02 0.  0.
         11    1    3    3    0    0 -0.24247586111E+01 -0.35627716476E+02 -0.32697250052E+02  0.48418217613E+02  0.51100000000E-03 0. -1.
         22    1    1    0    0    0 -0.27175118918E+02  0.10843450284E+02  0.66328398326E+01  0.30001034424E+02  0.00000000000E+00 0.  1.
</event>
<event>
 5    1  0.8907853E-005  0.9118800E+02  0.7818608E-02  0.1130116E+00
         25   -1    0    0    0    0  0.00000000000E+00  0.00000000000E+00  0.99999998245E-14  0.12500000000E+03  0.12500000000E+03 0.  0.
        -11    1    3    3    0    0 -0.28907475338E+02  0.38113310037E+02  0.10891507068E+02  0.49060080094E+02  0.51100000000E-03 0.  1.
         23    2    1    0    0    0 -0.24985075880E+02 -0.64774831757E+00 -0.15012005557E+02  0.95844659058E+02  0.91302599988E+02 0.  0.
         11    1    3    3    0    0  0.39223994583E+01 -0.38761058354E+02 -0.25903512625E+02  0.46784578964E+02  0.51100000000E-03 0. -1.
         22    1    1    0    0    0  0.24985075880E+02  0.64774831757E+00  0.15012005557E+02  0.29155340942E+02  0.00000000000E+00 0. -1.
</event>
<event>
 5    1  0.8907853E-005  0.9118800E+02  0.7818608E-02  0.1130116E+00
         25   -1    0    0    0    0  0.00000000000E+00  0.00000000000E+00  0.99999998245E-14  0.12500000000E+03  0.12500000000E+03 0.  0.
        -11    1    3    3    0    0 -0.28730219178E+02 -0.41875500052E+02  0.29888890492E+02  0.58926469211E+02  0.51100000000E-03 0.  1.
         23    2    1    0    0    0 -0.11127604068E+02 -0.27953840393E+02  0.18290359750E+01  0.94857237393E+02  0.89940587880E+02 0.  0.
         11    1    3    3    0    0  0.17602615110E+02  0.13921659659E+02 -0.28059854517E+02  0.35930768182E+02  0.51100000000E-03 0. -1.
         22    1    1    0    0    0  0.11127604068E+02  0.27953840393E+02 -0.18290359750E+01  0.30142762607E+02  0.00000000000E+00 0.  1.
</event>
<event>
 5    1  0.8907853E-005  0.9118800E+02  0.7818608E-02  0.1130116E+00
         25   -1    0    0    0    0  0.00000000000E+00  0.00000000000E+00  0.99999998245E-14  0.12500000000E+03  0.12500000000E+03 0.  0.
        -11    1    3    3    0    0  0.38578849789E+02 -0.17163137662E+02 -0.27589681995E+02  0.50438987879E+02  0.51100000000E-03 0. -1.
         23    2    1    0    0    0  0.26925402723E+01 -0.29110620039E+02 -0.28673860549E+01  0.95624842554E+02  0.91001157348E+02 0.  0.
         11    1    3    3    0    0 -0.35886309517E+02 -0.11947482377E+02  0.24722295940E+02  0.45185854675E+02  0.51100000000E-03 0.  1.
         22    1    1    0    0    0 -0.26925402723E+01  0.29110620039E+02  0.28673860549E+01  0.29375157446E+02  0.00000000000E+00 0.  1.
</event>
<event>
 5    1  0.8907853E-005  0.9118800E+02  0.7818608E-02  0.1130116E+00
         25   -1    0    0    0    0  0.00000000000E+00  0.00000000000E+00  0.99999998245E-14  0.12500000000E+03  0.12500000000E+03 0.  0.
        -11    1    3    3    0    0  0.26398750099E+02  0.34114438411E+02 -0.14688180527E+02  0.45567878625E+02  0.51100000000E-03 0. -1.
         23    2    1    0    0    0  0.19163990302E+02  0.50540430591E+01  0.23603175334E+02  0.94179361438E+02  0.88993484927E+02 0.  0.
         11    1    3    3    0    0 -0.72347597978E+01 -0.29060395352E+02  0.38291355861E+02  0.48611482813E+02  0.51100000000E-03 0.  1.
         22    1    1    0    0    0 -0.19163990302E+02 -0.50540430591E+01 -0.23603175334E+02  0.30820638562E+02  0.00000000000E+00 0.  1.
</event>
<event>
 5    1  0.8907853E-005  0.9118800E+02  0.7818608E-02  0.1130116E+00
         25   -1    0    0    0    0  0.00000000000E+00  0.00000000000E+00  0.99999998245E-14  0.12500000000E+03  0.12500000000E+03 0.  0.
        -11    1    3    3    0    0  0.24940333245E+02  0.23042228482E+02 -0.37768450714E+02  0.50787994501E+02  0.51100000000E-03 0.  1.
         23    2    1    0    0    0 -0.88810409400E+01  0.26928914559E+02 -0.93247633373E+01  0.95150535369E+02  0.90347295710E+02 0.  0.
         11    1    3    3    0    0 -0.33821374185E+02  0.38866860767E+01  0.28443687377E+02  0.44362540868E+02  0.51100000000E-03 0. -1.
         22    1    1    0    0    0  0.88810409400E+01 -0.26928914559E+02  0.93247633373E+01  0.29849464631E+02  0.00000000000E+00 0.  1.
</event>
<event>
 5    1  0.8907853E-005  0.9118800E+02  0.7818608E-02  0.1130116E+00
         25   -1    0    0    0    0  0.00000000000E+00  0.00000000000E+00  0.99999998245E-14  0.12500000000E+03  0.12500000000E+03 0.  0.
        -11    1    3    3    0    0 -0.26385382611E+02 -0.16186555482E+02  0.27361794794E+02  0.41314172006E+02  0.51100000000E-03 0.  1.
         23    2    1    0    0    0  0.22692832386E+02 -0.18049932932E+02  0.39032969081E+01  0.95742514679E+02  0.91162649532E+02 0.  0.
         11    1    3    3    0    0  0.49078214997E+02 -0.18633774501E+01 -0.23458497886E+02  0.54428342673E+02  0.51100000000E-03 0. -1.
         22    1    1    0    0    0 -0.22692832386E+02  0.18049932932E+02 -0.39032969081E+01  0.29257485321E+02  0.00000000000E+00 0. -1.
</event>
<event>
 5    1  0.8907853E-005  0.9118800E+02  0.7818608E-02  0.1130116E+00
         25   -1    0    0    0    0  0.00000000000E+00  0.00000000000E+00  0.99999998245E-14  0.12500000000E+03  0.12500000000E+03 0.  0.
        -11    1    3    3    0    0 -0.20475669603E+02  0.53195768137E+02 -0.11099088258E+02  0.58070926924E+02  0.51100000000E-03 0. -1.
         23    2    1    0    0    0 -0.17106150058E+02  0.81408692661E+01 -0.10677601560E+02  0.10325361416E+03  0.10093762202E+03 0.  0.
         11    1    3    3    0    0  0.33695195453E+01 -0.45054898871E+02  0.42148669726E+00  0.45182687232E+02  0.51100000000E-03 0.  1.
         22    1    1    0    0    0  0.17106150058E+02 -0.81408692661E+01  0.10677601560E+02  0.21746385844E+02  0.00000000000E+00 0. -1.
</event>
<event>
 5    1  0.8907853E-005  0.9118800E+02  0.7818608E-02  0.1130116E+00
         25   -1    0    0    0    0  0.00000000000E+00  0.00000000000E+00  0.99999998245E-14  0.12500000000E+03  0.12500000000E+03 0.  0.
        -11    1    3    3    0    0 -0.25945052400E+02 -0.44099487556E+02  0.19494725773E+02  0.54753583261E+02  0.51100000000E-03 0.  1.
         23    2    1    0    0    0 -0.49157556738E+01 -0.27727536937E+02 -0.10562251641E+02  0.94924393303E+02  0.90033873213E+02 0.  0.
         11    1    3    3    0    0  0.21029296726E+02  0.16371950618E+02 -0.30056977415E+02  0.40170810042E+02  0.51100000000E-03 0. -1.
         22    1    1    0    0    0  0.49157556738E+01  0.27727536937E+02  0.10562251641E+02  0.30075606697E+02  0.00000000000E+00 0.  1.
</event>
<event>
 5    1  0.8907853E-005  0.9118800E+02  0.7818608E-02  0.1130116E+00
         25   -1    0    0    0    0  0.00000000000E+00  0.00000000000E+00  0.99999998245E-14  0.12500000000E+03  0.12500000000E+03 0.  0.
        -11    1    3    3    0    0  0.30072803577E+02  0.62732774565E+01 -0.16506588834E+02  0.34873987444E+02  0.51100000000E-03 0.  1.
         23    2    1    0    0    0 -0.22519482312E+02 -0.19460347579E+02 -0.21467627619E+01  0.95159745278E+02  0.90360037182E+02 0.  0.
         11    1    3    3    0    0 -0.52592285890E+02 -0.25733625035E+02  0.14359826072E+02  0.60285757834E+02  0.51100000000E-03 0. -1.
         22    1    1    0    0    0  0.22519482312E+02  0.19460347579E+02  0.21467627619E+01  0.29840254722E+02  0.00000000000E+00 0. -1.
</event>
<event>
 5    1  0.8907853E-005  0.9118800E+02  0.7818608E-02  0.1130116E+00
         25   -1    0    0    0    0  0.00000000000E+00  0.00000000000E+00  0.99999998245E-14  0.12500000000E+03  0.12500000000E+03 0.  0.
        -11    1    3    3    0    0  0.27862888482E+02  0.23075609181E+02 -0.22752189834E+02  0.42737412605E+02  0.51100000000E-03 0.  1.
         23    2    1    0    0    0 -0.21361072330E+02  0.12426762424E+01 -0.18431132052E+02  0.96759138043E+02  0.92546120993E+02 0.  0.
         11    1    3    3    0    0 -0.49223960812E+02 -0.21832932939E+02  0.43210577828E+01  0.54021725439E+02  0.51100000000E-03 0. -1.
         22    1    1    0    0    0  0.21361072330E+02 -0.12426762424E+01  0.18431132052E+02  0.28240861957E+02  0.00000000000E+00 0.  1.
</event>
<event>
 5    1  0.8907853E-005  0.9118800E+02  0.7818608E-02  0.1130116E+00
         25   -1    0    0    0    0  0.00000000000E+00  0.00000000000E+00  0.99999998245E-14  0.12500000000E+03  0.12500000000E+03 0.  0.
        -11    1    3    3    0    0  0.19658899393E+02 -0.34264400746E+02  0.47428878334E+02  0.61725359327E+02  0.51100000000E-03 0.  1.
         23    2    1    0    0    0  0.15345928721E+02 -0.14170275392E+02  0.19310791667E+02  0.96553543141E+02  0.92268010628E+02 0.  0.
         11    1    3    3    0    0 -0.43129706716E+01  0.20094125354E+02 -0.28118086666E+02  0.34828183814E+02  0.51100000000E-03 0. -1.
         22    1    1    0    0    0 -0.15345928721E+02  0.14170275392E+02 -0.19310791667E+02  0.28446456859E+02  0.00000000000E+00 0.  1.
</event>
<event>
 5    1  0.8907853E-005  0.9118800E+02  0.7818608E-02  0.1130116E+00
         25   -1    0    0    0    0  0.00000000000E+00  0.00000000000E+00  0.99999998245E-14  0.12500000000E+03  0.12500000000E+03 0.  0.
        -11    1    3    3    0    0  0.24337471648E+02 -0.12010041924E+02 -0.24180749286E+02  0.36349171511E+02  0.51100000000E-03 0. -1.
         23    2    1    0    0    0 -0.23047395018E+02 -0.19170712532E+02  0.78747604165E+01  0.94004669905E+02  0.88747774486E+02 0.  0.
         11    1    3    3    0    0 -0.47384866666E+02 -0.71606706087E+01  0.32055509703E+02  0.57655498394E+02  0.51100000000E-03 0.  1.
         22    1    1    0    0    0  0.23047395018E+02  0.19170712532E+02 -0.78747604165E+01  0.30995330095E+02  0.00000000000E+00 0.  1.
</event>
<event>
 5    1  0.8907853E-005  0.9118800E+02  0.7818608E-02  0.1130116E+00
         25   -1    0    0    0    0  0.00000000000E+00  0.00000000000E+00  0.99999998245E-14  0.12500000000E+03  0.12500000000E+03 0.  0.
        -11    1    3    3    0    0 -0.12067628972E+02  0.34371899535E+02 -0.28045747512E+02  0.45974113373E+02  0.51100000000E-03 0. -1.
         23    2    1    0    0    0  0.23459526207E+02  0.19796873245E+02  0.12569601072E+01  0.94277931241E+02  0.89131828267E+02 0.  0.
         11    1    3    3    0    0  0.35527155179E+02 -0.14575026290E+02  0.29302707619E+02  0.48303817868E+02  0.51100000000E-03 0.  1.
         22    1    1    0    0    0 -0.23459526207E+02 -0.19796873245E+02 -0.12569601072E+01  0.30722068759E+02  0.00000000000E+00 0. -1.
</event>
<event>
 5    1  0.8907853E-005  0.9118800E+02  0.7818608E-02  0.1130116E+00
         25   -1    0    0    0    0  0.00000000000E+00  0.00000000000E+00  0.99999998245E-14  0.12500000000E+03  0.12500000000E+03 0.  0.
        -11    1    3    3    0    0  0.41457142046E+02  0.19610542873E+00 -0.15591881271E+02  0.44292661309E+02  0.51100000000E-03 0. -1.
         23    2    1    0    0    0  0.39957891045E+01  0.26445756971E+02  0.96848505660E+01  0.96554601026E+02  0.92269443785E+02 0.  0.
         11    1    3    3    0    0 -0.37461352942E+02  0.26249651542E+02  0.25276731837E+02  0.52261939717E+02  0.51100000000E-03 0.  1.
         22    1    1    0    0    0 -0.39957891045E+01 -0.26445756971E+02 -0.96848505660E+01  0.28445398974E+02  0.00000000000E+00 0.  1.
</event>
<event>
 5    1  0.8907853E-005  0.9118800E+02  0.7818608E-02  0.1130116E+00
         25   -1    0    0    0    0  0.00000000000E+00  0.00000000000E+00  0.99999998245E-14  0.12500000000E+03  0.12500000000E+03 0.  0.
        -11    1    3    3    0    0 -0.16422104347E+02  0.15744022605E+02 -0.54698356566E+02  0.59240779622E+02  0.51100000000E-03 0. -1.
         23    2    1    0    0    0 -0.13208469956E+02  0.18828522669E+02 -0.19136855073E+02  0.95080171014E+02  0.90249890601E+02 0.  0.
         11    1    3    3    0    0  0.32136343909E+01  0.30845000636E+01  0.35561501493E+02  0.35839391391E+02  0.51100000000E-03 0.  1.
         22    1    1    0    0    0  0.13208469956E+02 -0.18828522669E+02  0.19136855073E+02  0.29919828986E+02  0.00000000000E+00 0. -1.
</event>
<event>
 5    1  0.8907853E-005  0.9118800E+02  0.7818608E-02  0.1130116E+00
         25   -1    0    0    0    0  0.00000000000E+00  0.00000000000E+00  0.99999998245E-14  0.12500000000E+03  0.12500000000E+03 0.  0.
        -11    1    3    3    0    0 -0.35046559476E+02 -0.74022411434E+01 -0.11075534418E+02  0.37492958912E+02  0.51100000000E-03 0.  1.
         23    2    1    0    0    0  0.13524604803E+02  0.22623158619E+02 -0.14898457321E+02  0.94723172698E+02  0.89754070517E+02 0.  0.
         11    1    3    3    0    0  0.48571164278E+02  0.30025399762E+02 -0.38229229025E+01  0.57230213786E+02  0.51100000000E-03 0. -1.
         22    1    1    0    0    0 -0.13524604803E+02 -0.22623158619E+02  0.14898457321E+02  0.30276827302E+02  0.00000000000E+00 0. -1.
</event>
<event>
 5    1  0.8907853E-005  0.9118800E+02  0.7818608E-02  0.1130116E+00
         25   -1    0    0    0    0  0.00000000000E+00  0.00000000000E+00  0.99999998245E-14  0.12500000000E+03  0.12500000000E+03 0.  0.
        -11    1    3    3    0    0  0.35471784005E+02  0.28681681058E+02 -0.16481469076E+02  0.48502836123E+02  0.51100000000E-03 0.  1.
         23    2    1    0    0    0 -0.84410282892E+01  0.17386407168E+02 -0.23702601993E+02  0.94416483949E+02  0.89325925617E+02 0.  0.
         11    1    3    3    0    0 -0.43912812294E+02 -0.11295273889E+02 -0.72211329167E+01  0.45913647826E+02  0.51100000000E-03 0. -1.
         22    1    1    0    0    0  0.84410282892E+01 -0.17386407168E+02  0.23702601993E+02  0.30583516051E+02  0.00000000000E+00 0.  1.
</event>
<event>
 5    1  0.8907853E-005  0.9118800E+02  0.7818608E-02  0.1130116E+00
         25   -1    0    0    0    0  0.00000000000E+00  0.00000000000E+00  0.99999998245E-14  0.12500000000E+03  0.12500000000E+03 0.  0.
        -11    1    3    3    0    0  0.84608784386E+01 -0.34162479976E+02 -0.11174599331E+02  0.36926050053E+02  0.51100000000E-03 0.  1.
         23    2    1    0    0    0 -0.27352005066E+02  0.87343010879E+01  0.65478776226E+01  0.95550129067E+02  0.90898472301E+02 0.  0.
         11    1    3    3    0    0 -0.35812883504E+02  0.42896781064E+02  0.17722476954E+02  0.58624079014E+02  0.51100000000E-03 0. -1.
         22    1    1    0    0    0  0.27352005066E+02 -0.87343010879E+01 -0.65478776226E+01  0.29449870933E+02  0.00000000000E+00 0. -1.
</event>
<event>
 5    1  0.8907853E-005  0.9118800E+02  0.7818608E-02  0.1130116E+00
         25   -1    0    0    0    0  0.00000000000E+00  0.00000000000E+00  0.99999998245E-14  0.12500000000E+03  0.12500000000E+03 0.  0.
        -11    1    3    3    0    0 -0.10438085799E+02 -0.58734054021E+02 -0.83174758917E+01  0.60231413252E+02  0.51100000000E-03 0. -1.
         23    2    1    0    0    0 -0.80252045061E+01 -0.25543185389E+02 -0.15197006710E+02  0.94213521798E+02  0.89041453545E+02 0.  0.
         11    1    3    3    0    0  0.24128812927E+01  0.33190868632E+02 -0.68795308183E+01  0.33982108546E+02  0.51100000000E-03 0.  1.
         22    1    1    0    0    0  0.80252045061E+01  0.25543185389E+02  0.15197006710E+02  0.30786478202E+02  0.00000000000E+00 0. -1.
</event>
<event>
 5    1  0.8907853E-005  0.9118800E+02  0.7818608E-02  0.1130116E+00
         25   -1    0    0    0    0  0.00000000000E+00  0.00000000000E+00  0.99999998245E-14  0.12500000000E+03  0.12500000000E+03 0.  0.
        -11    1    3    3    0    0 -0.29023751152E+01 -0.58764954234E+02 -0.12262628878E+02  0.60100879317E+02  0.51100000000E-03 0. -1.
         23    2    1    0    0    0  0.32745184723E+01 -0.25256350838E+02 -0.16822553237E+02  0.94477810919E+02  0.89411703539E+02 0.  0.
         11    1    3    3    0    0  0.61768935875E+01  0.33508603396E+02 -0.45599243589E+01  0.34376931602E+02  0.51100000000E-03 0.  1.
         22    1    1    0    0    0 -0.32745184723E+01  0.25256350838E+02  0.16822553237E+02  0.30522189081E+02  0.00000000000E+00 0.  1.
</event>
<event>
 5    1  0.8907853E-005  0.9118800E+02  0.7818608E-02  0.1130116E+00
         25   -1    0    0    0    0  0.00000000000E+00  0.00000000000E+00  0.99999998245E-14  0.12500000000E+03  0.12500000000E+03 0.  0.
        -11    1    3    3    0    0 -0.30849571196E+02 -0.81256786532E+01 -0.10198092615E-01  0.31901767989E+02  0.51100000000E-03 0.  1.
         23    2    1    0    0    0  0.30471845936E+02  0.20039838800E+01 -0.40984801772E+01  0.94188526717E+02  0.89006357521E+02 0.  0.
         11    1    3    3    0    0  0.61321417132E+02  0.10129662533E+02 -0.40882820845E+01  0.62286758728E+02  0.51100000000E-03 0. -1.
         22    1    1    0    0    0 -0.30471845936E+02 -0.20039838800E+01  0.40984801772E+01  0.30811473283E+02  0.00000000000E+00 0. -1.
</event>
<event>
 5    1  0.8907853E-005  0.9118800E+02  0.7818608E-02  0.1130116E+00
         25   -1    0    0    0    0  0.00000000000E+00  0.00000000000E+00  0.99999998245E-14  0.12500000000E+03  0.12500000000E+03 0.  0.
        -11    1    3    3    0    0  0.43047506632E+01  0.54652576607E+01  0.52778674317E+02  0.53235217502E+02  0.51100000000E-03 0.  1.
         23    2    1    0    0    0 -0.18053391680E+02  0.14171182810E+02  0.16487378936E+02  0.96740823834E+02  0.92521381089E+02 0.  0.
         11    1    3    3    0    0 -0.22358142343E+02  0.87059251490E+01 -0.36291295380E+02  0.43505606333E+02  0.51100000000E-03 0. -1.
         22    1    1    0    0    0  0.18053391680E+02 -0.14171182810E+02 -0.16487378936E+02  0.28259176166E+02  0.00000000000E+00 0.  1.
</event>
<event>
 5    1  0.8907853E-005  0.9118800E+02  0.7818608E-02  0.1130116E+00
         25   -1    0    0    0    0  0.00000000000E+00  0.00000000000E+00  0.99999998245E-14  0.12500000000E+03  0.12500000000E+03 0.  0.
        -11    1    3    3    0    0  0.31406279644E+02 -0.19786487579E+02  0.39385082450E+01  0.37327889563E+02  0.51100000000E-03 0. -1.
         23    2    1    0    0    0 -0.15041480613E+02 -0.21796283048E+01 -0.25678965139E+02  0.95160325585E+02  0.90360839949E+02 0.  0.
         11    1    3    3    0    0 -0.46447760257E+02  0.17606859274E+02 -0.29617473384E+02  0.57832436022E+02  0.51100000000E-03 0.  1.
         22    1    1    0    0    0  0.15041480613E+02  0.21796283048E+01  0.25678965139E+02  0.29839674415E+02  0.00000000000E+00 0.  1.
</event>
<event>
 5    1  0.8907853E-005  0.9118800E+02  0.7818608E-02  0.1130116E+00
         25   -1    0    0    0    0  0.00000000000E+00  0.00000000000E+00  0.99999998245E-14  0.12500000000E+03  0.12500000000E+03 0.  0.
        -11    1    3    3    0    0  0.23161665476E+02 -0.93536852114E+01 -0.14244641898E+02  0.28755242961E+02  0.51100000000E-03 0.  1.
         23    2    1    0    0    0 -0.31565339208E+02  0.31873533200E+01 -0.23314618668E+02  0.85628674087E+02  0.76040571550E+02 0.  0.
         11    1    3    3    0    0 -0.54727004684E+02  0.12541038531E+02 -0.90699767702E+01  0.56873431126E+02  0.51100000000E-03 0. -1.
         22    1    1    0    0    0  0.31565339208E+02 -0.31873533200E+01  0.23314618668E+02  0.39371325913E+02  0.00000000000E+00 0. -1.
</event>
<event>
 5    1  0.8907853E-005  0.9118800E+02  0.7818608E-02  0.1130116E+00
         25   -1    0    0    0    0  0.00000000000E+00  0.00000000000E+00  0.99999998245E-14  0.12500000000E+03  0.12500000000E+03 0.  0.
        -11    1    3    3    0    0 -0.42779278895E+02  0.43235352352E+02 -0.81579322858E+01  0.61367045352E+02  0.51100000000E-03 0.  1.
         23    2    1    0    0    0 -0.16367211329E+02  0.19875874820E+02 -0.11531707308E+02  0.96788011768E+02  0.92585111881E+02 0.  0.
         11    1    3    3    0    0  0.26412067566E+02 -0.23359477532E+02 -0.33737750226E+01  0.35420966416E+02  0.51100000000E-03 0. -1.
         22    1    1    0    0    0  0.16367211329E+02 -0.19875874820E+02  0.11531707308E+02  0.28211988232E+02  0.00000000000E+00 0.  1.
</event>
<event>
 5    1  0.8907853E-005  0.9118800E+02  0.7818608E-02  0.1130116E+00
         25   -1    0    0    0    0  0.00000000000E+00  0.00000000000E+00  0.99999998245E-14  0.12500000000E+03  0.12500000000E+03 0.  0.
        -11    1    3    3    0    0  0.67300814316E+01  0.37229523031E+02  0.46507091818E+02  0.59951988881E+02  0.51100000000E-03 0. -1.
         23    2    1    0    0    0  0.15617880868E+02  0.16605535481E+02  0.20192578983E+02  0.94546720088E+02  0.89507988593E+02 0.  0.
         11    1    3    3    0    0  0.88877994361E+01 -0.20623987550E+02 -0.26314512834E+02  0.34594731206E+02  0.51100000000E-03 0.  1.
         22    1    1    0    0    0 -0.15617880868E+02 -0.16605535481E+02 -0.20192578983E+02  0.30453279912E+02  0.00000000000E+00 0. -1.
</event>
<event>
 5    1  0.8907853E-005  0.9118800E+02  0.7818608E-02  0.1130116E+00
         25   -1    0    0    0    0  0.00000000000E+00  0.00000000000E+00  0.99999998245E-14  0.12500000000E+03  0.12500000000E+03 0.  0.
        -11    1    3    3    0    0 -0.23614004756E+02 -0.39834067148E+02  0.25967879339E+02  0.53091476564E+02  0.51100000000E-03 0.  1.
         23    2    1    0    0    0 -0.74094241604E+01 -0.25380028015E+02 -0.11318398281E+02  0.96239757857E+02  0.91841926506E+02 0.  0.
         11    1    3    3    0    0  0.16204580596E+02  0.14454039133E+02 -0.37286277620E+02  0.43148281293E+02  0.51100000000E-03 0. -1.
         22    1    1    0    0    0  0.74094241604E+01  0.25380028015E+02  0.11318398281E+02  0.28760242143E+02  0.00000000000E+00 0.  1.
</event>
<event>
 5    1  0.8907853E-005  0.9118800E+02  0.7818608E-02  0.1130116E+00
         25   -1    0    0    0    0  0.00000000000E+00  0.00000000000E+00  0.99999998245E-14  0.12500000000E+03  0.12500000000E+03 0.  0.
        -11    1    3    3    0    0  0.19499814136E+02 -0.98789899255E+01  0.58356963973E+02  0.62316710742E+02  0.51100000000E-03 0.  1.
         23    2    1    0    0    0  0.49793026397E+01 -0.61013074101E+01  0.19500281055E+02  0.10396953714E+03  0.10182035300E+03 0.  0.
         11    1    3    3    0    0 -0.14520511496E+02  0.37776825155E+01 -0.38856682918E+02  0.41652826398E+02  0.51100000000E-03 0. -1.
         22    1    1    0    0    0 -0.49793026397E+01  0.61013074101E+01 -0.19500281055E+02  0.21030462860E+02  0.00000000000E+00 0.  1.
</event>
<event>
 5    1  0.8907853E-005  0.9118800E+02  0.7818608E-02  0.1130116E+00
         25   -1    0    0    0    0  0.00000000000E+00  0.00000000000E+00  0.99999998245E-14  0.12500000000E+03  0.12500000000E+03 0.  0.
        -11    1    3    3    0    0  0.30267463835E+02 -0.16624687182E+02 -0.98437964110E+00  0.34546614805E+02  0.51100000000E-03 0.  1.
         23    2    1    0    0    0 -0.25990474335E+02  0.19260741280E+01 -0.14315058812E+02  0.95265585150E+02  0.90506332858E+02 0.  0.
         11    1    3    3    0    0 -0.56257938170E+02  0.18550761310E+02 -0.13330679171E+02  0.60718970345E+02  0.51100000000E-03 0. -1.
         22    1    1    0    0    0  0.25990474335E+02 -0.19260741280E+01  0.14315058812E+02  0.29734414850E+02  0.00000000000E+00 0. -1.
</event>
<event>
 5    1  0.8907853E-005  0.9118800E+02  0.7818608E-02  0.1130116E+00
         25   -1    0    0    0    0  0.00000000000E+00  0.00000000000E+00  0.99999998245E-14  0.12500000000E+03  0.12500000000E+03 0.  0.
        -11    1    3    3    0    0 -0.51031770151E+01  0.21331245810E+02  0.36915013231E+02  0.42939290464E+02  0.51100000000E-03 0.  1.
         23    2    1    0    0    0  0.25165991022E+02  0.11313052811E+02 -0.63531765938E+01  0.96686132005E+02  0.92447460761E+02 0.  0.
         11    1    3    3    0    0  0.30269168037E+02 -0.10018192999E+02 -0.43268189825E+02  0.53746841541E+02  0.51100000000E-03 0. -1.
         22    1    1    0    0    0 -0.25165991022E+02 -0.11313052811E+02  0.63531765938E+01  0.28313867995E+02  0.00000000000E+00 0. -1.
</event>
<event>
 5    1  0.8907853E-005  0.9118800E+02  0.7818608E-02  0.1130116E+00
         25   -1    0    0    0    0  0.00000000000E+00  0.00000000000E+00  0.99999998245E-14  0.12500000000E+03  0.12500000000E+03 0.  0.
        -11    1    3    3    0    0 -0.34013972421E+01  0.27394304609E+02  0.54555722950E+02  0.61142001399E+02  0.51100000000E-03 0.  1.
         23    2    1    0    0    0 -0.27098554442E+01  0.19762722497E+02  0.19218383460E+02  0.97300635750E+02  0.93274642522E+02 0.  0.
         11    1    3    3    0    0  0.69154179791E+00 -0.76315821122E+01 -0.35337339490E+02  0.36158634351E+02  0.51100000000E-03 0. -1.
         22    1    1    0    0    0  0.27098554442E+01 -0.19762722497E+02 -0.19218383460E+02  0.27699364250E+02  0.00000000000E+00 0.  1.
</event>
<event>
 5    1  0.8907853E-005  0.9118800E+02  0.7818608E-02  0.1130116E+00
         25   -1    0    0    0    0  0.00000000000E+00  0.00000000000E+00  0.99999998245E-14  0.12500000000E+03  0.12500000000E+03 0.  0.
        -11    1    3    3    0    0  0.85102854250E+01  0.55826889734E+02 -0.23959159465E+02  0.61344175745E+02  0.51100000000E-03 0.  1.
         23    2    1    0    0    0 -0.24152169034E+01  0.28335063357E+02 -0.60509021633E+01  0.95925569565E+02  0.91413305329E+02 0.  0.
         11    1    3    3    0    0 -0.10925502328E+02 -0.27491826376E+02  0.17908257302E+02  0.34581393819E+02  0.51100000000E-03 0. -1.
         22    1    1    0    0    0  0.24152169034E+01 -0.28335063357E+02  0.60509021633E+01  0.29074430435E+02  0.00000000000E+00 0.  1.
</event>
<event>
 5    1  0.8907853E-005  0.9118800E+02  0.7818608E-02  0.1130116E+00
         25   -1    0    0    0    0  0.00000000000E+00  0.00000000000E+00  0.99999998245E-14  0.12500000000E+03  0.12500000000E+03 0.  0.
        -11    1    3    3    0    0  0.27593504712E+02  0.42123837044E+02  0.11440638424E+02  0.51640171934E+02  0.51100000000E-03 0.  1.
         23    2    1    0    0    0  0.26596556425E+02  0.32784239697E+01 -0.10445934714E+02  0.96238177571E+02  0.91839775657E+02 0.  0.
         11    1    3    3    0    0 -0.99694828702E+00 -0.38845413074E+02 -0.21886573137E+02  0.44598005636E+02  0.51100000000E-03 0. -1.
         22    1    1    0    0    0 -0.26596556425E+02 -0.32784239697E+01  0.10445934714E+02  0.28761822429E+02  0.00000000000E+00 0.  1.
</event>
<event>
 5    1  0.8907853E-005  0.9118800E+02  0.7818608E-02  0.1130116E+00
         25   -1    0    0    0    0  0.00000000000E+00  0.00000000000E+00  0.99999998245E-14  0.12500000000E+03  0.12500000000E+03 0.  0.
        -11    1    3    3    0    0  0.55677939870E+02 -0.38571580375E+01 -0.20004372767E+02  0.59288157219E+02  0.51100000000E-03 0. -1.
         23    2    1    0    0    0  0.22695664025E+02  0.10314781544E+02 -0.15926670244E+02  0.95417121355E+02  0.90715380938E+02 0.  0.
         11    1    3    3    0    0 -0.32982275845E+02  0.14171939581E+02  0.40777025227E+01  0.36128964136E+02  0.51100000000E-03 0.  1.
         22    1    1    0    0    0 -0.22695664025E+02 -0.10314781544E+02  0.15926670244E+02  0.29582878645E+02  0.00000000000E+00 0. -1.
</event>
<event>
 5    1  0.8907853E-005  0.9118800E+02  0.7818608E-02  0.1130116E+00
         25   -1    0    0    0    0  0.00000000000E+00  0.00000000000E+00  0.99999998245E-14  0.12500000000E+03  0.12500000000E+03 0.  0.
        -11    1    3    3    0    0 -0.10790228684E+02 -0.22101664665E+02  0.12551087055E+02  0.27612359598E+02  0.51100000000E-03 0.  1.
         23    2    1    0    0    0  0.22110163373E+02  0.26367736566E+02 -0.79601553106E+01  0.89680303957E+02  0.82432250904E+02 0.  0.
         11    1    3    3    0    0  0.32900392057E+02  0.48469401232E+02 -0.20511242365E+02  0.62067944359E+02  0.51100000000E-03 0. -1.
         22    1    1    0    0    0 -0.22110163373E+02 -0.26367736566E+02  0.79601553106E+01  0.35319696043E+02  0.00000000000E+00 0. -1.
</event>
<event>
 5    1  0.8907853E-005  0.9118800E+02  0.7818608E-02  0.1130116E+00
         25   -1    0    0    0    0  0.00000000000E+00  0.00000000000E+00  0.99999998245E-14  0.12500000000E+03  0.12500000000E+03 0.  0.
        -11    1    3    3    0    0  0.13356012472E+02  0.39858640907E+02  0.32884624035E+00  0.42038107286E+02  0.51100000000E-03 0. -1.
         23    2    1    0    0    0 -0.46145575457E+01 -0.27986788124E+01 -0.28118042785E+02  0.96368704631E+02  0.92017260108E+02 0.  0.
         11    1    3    3    0    0 -0.17970570018E+02 -0.42657319719E+02 -0.28446889026E+02  0.54330597345E+02  0.51100000000E-03 0.  1.
         22    1    1    0    0    0  0.46145575457E+01  0.27986788124E+01  0.28118042785E+02  0.28631295369E+02  0.00000000000E+00 0.  1.
</event>
<event>
 5    1  0.8907853E-005  0.9118800E+02  0.7818608E-02  0.1130116E+00
         25   -1    0    0    0    0  0.00000000000E+00  0.00000000000E+00  0.99999998245E-14  0.12500000000E+03  0.12500000000E+03 0.  0.
        -11    1    3    3    0    0 -0.21536001042E+02  0.36055686899E+02  0.34884614169E+01  0.42142392694E+02  0.51100000000E-03 0.  1.
         23    2    1    0    0    0  0.86961374780E+01  0.36132019986E+01 -0.27295826826E+02  0.96125440301E+02  0.91686204388E+02 0.  0.
         11    1    3    3    0    0  0.30232138520E+02 -0.32442484900E+02 -0.30784288243E+02  0.53983047607E+02  0.51100000000E-03 0. -1.
         22    1    1    0    0    0 -0.86961374780E+01 -0.36132019986E+01  0.27295826826E+02  0.28874559699E+02  0.00000000000E+00 0. -1.
</event>
<event>
 5    1  0.8907853E-005  0.9118800E+02  0.7818608E-02  0.1130116E+00
         25   -1    0    0    0    0  0.00000000000E+00  0.00000000000E+00  0.99999998245E-14  0.12500000000E+03  0.12500000000E+03 0.  0.
        -11    1    3    3    0    0  0.27863066470E+02  0.17955744750E+02 -0.93493874567E+01  0.34440822997E+02  0.51100000000E-03 0.  1.
         23    2    1    0    0    0 -0.23807622473E+02 -0.14147105069E+02  0.47931579722E+01  0.96894523078E+02  0.92728802265E+02 0.  0.
         11    1    3    3    0    0 -0.51670688943E+02 -0.32102849819E+02  0.14142545429E+02  0.62453700081E+02  0.51100000000E-03 0. -1.
         22    1    1    0    0    0  0.23807622473E+02  0.14147105069E+02 -0.47931579722E+01  0.28105476922E+02  0.00000000000E+00 0. -1.
</event>
<event>
 5    1  0.8907853E-005  0.9118800E+02  0.7818608E-02  0.1130116E+00
         25   -1    0    0    0    0  0.00000000000E+00  0.00000000000E+00  0.99999998245E-14  0.12500000000E+03  0.12500000000E+03 0.  0.
        -11    1    3    3    0    0 -0.36260172037E+02 -0.11669919916E+02 -0.49413064810E+02  0.62391009618E+02  0.51100000000E-03 0. -1.
         23    2    1    0    0    0 -0.14326188173E+02 -0.65916519484E+01 -0.23232401560E+02  0.96920932615E+02  0.92764395937E+02 0.  0.
         11    1    3    3    0    0  0.21933983864E+02  0.50782679681E+01  0.26180663250E+02  0.34529922996E+02  0.51100000000E-03 0.  1.
         22    1    1    0    0    0  0.14326188173E+02  0.65916519484E+01  0.23232401560E+02  0.28079067385E+02  0.00000000000E+00 0. -1.
</event>
<event>
 5    1  0.8907853E-005  0.9118800E+02  0.7818608E-02  0.1130116E+00
         25   -1    0    0    0    0  0.00000000000E+00  0.00000000000E+00  0.99999998245E-14  0.12500000000E+03  0.12500000000E+03 0.  0.
        -11    1    3    3    0    0  0.16738597910E+02  0.29019077203E+02  0.14223580847E+02  0.36395023754E+02  0.51100000000E-03 0. -1.
         23    2    1    0    0    0 -0.16190581342E+02  0.74685178421E+01 -0.26521379127E+02  0.93042258625E+02  0.87381718090E+02 0.  0.
         11    1    3    3    0    0 -0.32929179252E+02 -0.21550559361E+02 -0.40744959975E+02  0.56647234871E+02  0.51100000000E-03 0.  1.
         22    1    1    0    0    0  0.16190581342E+02 -0.74685178421E+01  0.26521379127E+02  0.31957741375E+02  0.00000000000E+00 0.  1.
</event>
<event>
 5    1  0.8907853E-005  0.9118800E+02  0.7818608E-02  0.1130116E+00
         25   -1    0    0    0    0  0.00000000000E+00  0.00000000000E+00  0.99999998245E-14  0.12500000000E+03  0.12500000000E+03 0.  0.
        -11    1    3    3    0    0  0.45048218580E+02  0.16618888870E+02 -0.39622688062E+02  0.62253408534E+02  0.51100000000E-03 0.  1.
         23    2    1    0    0    0  0.24382382972E+02  0.65658242241E+01 -0.16611873533E+02  0.94774762376E+02  0.89825890444E+02 0.  0.
         11    1    3    3    0    0 -0.20665835609E+02 -0.10053064646E+02  0.23010814529E+02  0.32521353842E+02  0.51100000000E-03 0. -1.
         22    1    1    0    0    0 -0.24382382972E+02 -0.65658242241E+01  0.16611873533E+02  0.30225237624E+02  0.00000000000E+00 0.  1.
</event>
<event>
 5    1  0.8907853E-005  0.9118800E+02  0.7818608E-02  0.1130116E+00
         25   -1    0    0    0    0  0.00000000000E+00  0.00000000000E+00  0.99999998245E-14  0.12500000000E+03  0.12500000000E+03 0.  0.
        -11    1    3    3    0    0 -0.27317092077E+02  0.18518542220E+02 -0.77334116293E+01  0.33896394812E+02  0.51100000000E-03 0.  1.
         23    2    1    0    0    0  0.21650059521E+02 -0.15509661579E+02  0.10682678661E+02  0.96305151980E+02  0.91930887056E+02 0.  0.
         11    1    3    3    0    0  0.48967151598E+02 -0.34028203799E+02  0.18416090290E+02  0.62408757168E+02  0.51100000000E-03 0. -1.
         22    1    1    0    0    0 -0.21650059521E+02  0.15509661579E+02 -0.10682678661E+02  0.28694848020E+02  0.00000000000E+00 0. -1.
</event>
<event>
 5    1  0.8907853E-005  0.9118800E+02  0.7818608E-02  0.1130116E+00
         25   -1    0    0    0    0  0.00000000000E+00  0.00000000000E+00  0.99999998245E-14  0.12500000000E+03  0.12500000000E+03 0.  0.
        -11    1    3    3    0    0  0.20867799114E+02 -0.36566917249E+02 -0.72163926481E+01  0.42716282610E+02  0.51100000000E-03 0. -1.
         23    2    1    0    0    0  0.64239302462E+01  0.84541751743E+01 -0.28514222532E+02  0.94573024398E+02  0.89544715643E+02 0.  0.
         11    1    3    3    0    0 -0.14443868868E+02  0.45021092423E+02 -0.21297829884E+02  0.51856741788E+02  0.51100000000E-03 0.  1.
         22    1    1    0    0    0 -0.64239302462E+01 -0.84541751743E+01  0.28514222532E+02  0.30426975602E+02  0.00000000000E+00 0.  1.
</event>
<event>
 5    1  0.8907853E-005  0.9118800E+02  0.7818608E-02  0.1130116E+00
         25   -1    0    0    0    0  0.00000000000E+00  0.00000000000E+00  0.99999998245E-14  0.12500000000E+03  0.12500000000E+03 0.  0.
        -11    1    3    3    0    0 -0.15026536959E+02 -0.26321413921E+02  0.20289003041E+02  0.36472692366E+02  0.51100000000E-03 0.  1.
         23    2    1    0    0    0  0.32593174661E+02 -0.70370470737E+01  0.14909625628E+00  0.91655475777E+02  0.85374873026E+02 0.  0.
         11    1    3    3    0    0  0.47619711620E+02  0.19284366847E+02 -0.20139906784E+02  0.55182783411E+02  0.51100000000E-03 0. -1.
         22    1    1    0    0    0 -0.32593174661E+02  0.70370470737E+01 -0.14909625628E+00  0.33344524223E+02  0.00000000000E+00 0. -1.
</event>
<event>
 5    1  0.8907853E-005  0.9118800E+02  0.7818608E-02  0.1130116E+00
         25   -1    0    0    0    0  0.00000000000E+00  0.00000000000E+00  0.99999998245E-14  0.12500000000E+03  0.12500000000E+03 0.  0.
        -11    1    3    3    0    0  0.16042124824E+02 -0.27535353592E+02  0.15061137192E+02  0.35247458349E+02  0.51100000000E-03 0.  1.
         23    2    1    0    0    0  0.78036199856E+01  0.22281402135E+02 -0.17748465028E+02  0.95464167917E+02  0.90780184948E+02 0.  0.
         11    1    3    3    0    0 -0.82385048384E+01  0.49816755727E+02 -0.32809602220E+02  0.60216709568E+02  0.51100000000E-03 0. -1.
         22    1    1    0    0    0 -0.78036199856E+01 -0.22281402135E+02  0.17748465028E+02  0.29535832083E+02  0.00000000000E+00 0. -1.
</event>
<event>
 5    1  0.8907853E-005  0.9118800E+02  0.7818608E-02  0.1130116E+00
         25   -1    0    0    0    0  0.00000000000E+00  0.00000000000E+00  0.99999998245E-14  0.12500000000E+03  0.12500000000E+03 0.  0.
        -11    1    3    3    0    0 -0.15184040714E+02 -0.41755615426E+02 -0.14239819934E+02  0.46656821409E+02  0.51100000000E-03 0. -1.
         23    2    1    0    0    0 -0.16301862063E+02  0.71030974941E+01 -0.22605004442E+02  0.96239072919E+02  0.91840994277E+02 0.  0.
         11    1    3    3    0    0 -0.11178213490E+01  0.48858712920E+02 -0.83651845080E+01  0.49582251511E+02  0.51100000000E-03 0.  1.
         22    1    1    0    0    0  0.16301862063E+02 -0.71030974941E+01  0.22605004442E+02  0.28760927081E+02  0.00000000000E+00 0.  1.
</event>
<event>
 5    1  0.8907853E-005  0.9118800E+02  0.7818608E-02  0.1130116E+00
         25   -1    0    0    0    0  0.00000000000E+00  0.00000000000E+00  0.99999998245E-14  0.12500000000E+03  0.12500000000E+03 0.  0.
        -11    1    3    3    0    0  0.28328309793E+02  0.41448884115E+02 -0.18469676481E+02  0.53494224732E+02  0.51100000000E-03 0.  1.
         23    2    1    0    0    0 -0.92767761917E+01  0.27388351086E+02 -0.70046303400E+01  0.95246929605E+02  0.90480563666E+02 0.  0.
         11    1    3    3    0    0 -0.37605085984E+02 -0.14060533029E+02  0.11465046141E+02  0.41752704873E+02  0.51100000000E-03 0. -1.
         22    1    1    0    0    0  0.92767761917E+01 -0.27388351086E+02  0.70046303400E+01  0.29753070395E+02  0.00000000000E+00 0.  1.
</event>
<event>
 5    1  0.8907853E-005  0.9118800E+02  0.7818608E-02  0.1130116E+00
         25   -1    0    0    0    0  0.00000000000E+00  0.00000000000E+00  0.99999998245E-14  0.12500000000E+03  0.12500000000E+03 0.  0.
        -11    1    3    3    0    0  0.42679626874E+02  0.27916476043E+02  0.18612304415E+02  0.54289023391E+02  0.51100000000E-03 0.  1.
         23    2    1    0    0    0  0.19791542264E+01  0.26993655794E+02  0.35267369802E+01  0.97705085120E+02  0.93815090897E+02 0.  0.
         11    1    3    3    0    0 -0.40700472648E+02 -0.92282024926E+00 -0.15085567435E+02  0.43416061729E+02  0.51100000000E-03 0. -1.
         22    1    1    0    0    0 -0.19791542264E+01 -0.26993655794E+02 -0.35267369802E+01  0.27294914880E+02  0.00000000000E+00 0.  1.
</event>
<event>
 5    1  0.8907853E-005  0.9118800E+02  0.7818608E-02  0.1130116E+00
         25   -1    0    0    0    0  0.00000000000E+00  0.00000000000E+00  0.99999998245E-14  0.12500000000E+03  0.12500000000E+03 0.  0.
        -11    1    3    3    0    0 -0.11191260437E+02 -0.36005048080E+02 -0.46092473744E+02  0.59549340328E+02  0.51100000000E-03 0.  1.
         23    2    1    0    0    0 -0.90497461741E+01 -0.53184758902E+01 -0.27671682655E+02  0.95404288950E+02  0.90697696980E+02 0.  0.
         11    1    3    3    0    0  0.21415142627E+01  0.30686572190E+02  0.18420791088E+02  0.35854948622E+02  0.51100000000E-03 0. -1.
         22    1    1    0    0    0  0.90497461741E+01  0.53184758902E+01  0.27671682655E+02  0.29595711050E+02  0.00000000000E+00 0.  1.
</event>
<event>
 5    1  0.8907853E-005  0.9118800E+02  0.7818608E-02  0.1130116E+00
         25   -1    0    0    0    0  0.00000000000E+00  0.00000000000E+00  0.99999998245E-14  0.12500000000E+03  0.12500000000E+03 0.  0.
        -11    1    3    3    0    0 -0.85772115966E+01  0.51114688173E+02  0.24054234159E+02  0.57139181714E+02  0.51100000000E-03 0. -1.
         23    2    1    0    0    0 -0.20527897541E+02  0.15319339352E+02  0.78360865597E+01  0.98214164411E+02  0.94490957783E+02 0.  0.
         11    1    3    3    0    0 -0.11950685944E+02 -0.35795348820E+02 -0.16218147599E+02  0.41074982696E+02  0.51100000000E-03 0.  1.
         22    1    1    0    0    0  0.20527897541E+02 -0.15319339352E+02 -0.78360865597E+01  0.26785835589E+02  0.00000000000E+00 0. -1.
</event>
<event>
 5    1  0.8907853E-005  0.9118800E+02  0.7818608E-02  0.1130116E+00
         25   -1    0    0    0    0  0.00000000000E+00  0.00000000000E+00  0.99999998245E-14  0.12500000000E+03  0.12500000000E+03 0.  0.
        -11    1    3    3    0    0 -0.25247250831E+02 -0.51326278729E+01  0.38074136856E+02  0.45971811374E+02  0.51100000000E-03 0.  1.
         23    2    1    0    0    0 -0.29925402017E+02  0.22461095028E+02  0.86189402839E+01  0.86603169306E+02  0.77625977137E+02 0.  0.
         11    1    3    3    0    0 -0.46781511858E+01  0.27593722901E+02 -0.29455196572E+02  0.40631357932E+02  0.51100000000E-03 0. -1.
         22    1    1    0    0    0  0.29925402017E+02 -0.22461095028E+02 -0.86189402839E+01  0.38396830694E+02  0.00000000000E+00 0. -1.
</event>
<event>
 5    1  0.8907853E-005  0.9118800E+02  0.7818608E-02  0.1130116E+00
         25   -1    0    0    0    0  0.00000000000E+00  0.00000000000E+00  0.99999998245E-14  0.12500000000E+03  0.12500000000E+03 0.  0.
        -11    1    3    3    0    0  0.13207952495E+02  0.30927134190E+02 -0.94988826492E+01  0.34945191517E+02  0.51100000000E-03 0. -1.
         23    2    1    0    0    0 -0.15325821585E+02 -0.23014477835E+02 -0.88350019628E+01  0.95972353575E+02  0.91477256156E+02 0.  0.
         11    1    3    3    0    0 -0.28533774079E+02 -0.53941612025E+02  0.66388068646E+00  0.61027162058E+02  0.51100000000E-03 0.  1.
         22    1    1    0    0    0  0.15325821585E+02  0.23014477835E+02  0.88350019628E+01  0.29027646425E+02  0.00000000000E+00 0.  1.
</event>
<event>
 5    1  0.8907853E-005  0.9118800E+02  0.7818608E-02  0.1130116E+00
         25   -1    0    0    0    0  0.00000000000E+00  0.00000000000E+00  0.99999998245E-14  0.12500000000E+03  0.12500000000E+03 0.  0.
        -11    1    3    3    0    0 -0.37098862109E+01  0.29086139390E+02 -0.37475572370E+02  0.47583456001E+02  0.51100000000E-03 0. -1.
         23    2    1    0    0    0  0.50151868105E+01  0.25914910453E+02  0.10606090982E+02  0.96553139920E+02  0.92267464363E+02 0.  0.
         11    1    3    3    0    0  0.87250730214E+01 -0.31712289377E+01  0.48081663351E+02  0.48969683919E+02  0.51100000000E-03 0.  1.
         22    1    1    0    0    0 -0.50151868105E+01 -0.25914910453E+02 -0.10606090982E+02  0.28446860080E+02  0.00000000000E+00 0. -1.
</event>
<event>
 5    1  0.8907853E-005  0.9118800E+02  0.7818608E-02  0.1130116E+00
         25   -1    0    0    0    0  0.00000000000E+00  0.00000000000E+00  0.99999998245E-14  0.12500000000E+03  0.12500000000E+03 0.  0.
        -11    1    3    3    0    0  0.89681891311E+00  0.11094693508E+02  0.35081526047E+02  0.36805026535E+02  0.51100000000E-03 0.  1.
         23    2    1    0    0    0  0.22255744901E+02 -0.78292103840E+01 -0.16814013459E+02  0.96028880502E+02  0.91554465350E+02 0.  0.
         11    1    3    3    0    0  0.21358925988E+02 -0.18923903892E+02 -0.51895539506E+02  0.59223853967E+02  0.51100000000E-03 0. -1.
         22    1    1    0    0    0 -0.22255744901E+02  0.78292103840E+01  0.16814013459E+02  0.28971119498E+02  0.00000000000E+00 0. -1.
</event>
<event>
 5    1  0.8907853E-005  0.9118800E+02  0.7818608E-02  0.1130116E+00
         25   -1    0    0    0    0  0.00000000000E+00  0.00000000000E+00  0.99999998245E-14  0.12500000000E+03  0.12500000000E+03 0.  0.
        -11    1    3    3    0    0 -0.21992177723E+02 -0.76236279228E+01  0.29227089852E+02  0.37363061507E+02  0.51100000000E-03 0.  1.
         23    2    1    0    0    0  0.10810902151E+02  0.25947954742E+02 -0.62550581067E+01  0.96202470375E+02  0.91791162939E+02 0.  0.
         11    1    3    3    0    0  0.32803079874E+02  0.33571582665E+02 -0.35482147959E+02  0.58839408867E+02  0.51100000000E-03 0. -1.
         22    1    1    0    0    0 -0.10810902151E+02 -0.25947954742E+02  0.62550581067E+01  0.28797529625E+02  0.00000000000E+00 0. -1.
</event>
<event>
 5    1  0.8907853E-005  0.9118800E+02  0.7818608E-02  0.1130116E+00
         25   -1    0    0    0    0  0.00000000000E+00  0.00000000000E+00  0.99999998245E-14  0.12500000000E+03  0.12500000000E+03 0.  0.
        -11    1    3    3    0    0 -0.11483582877E+02  0.98728850711E+01  0.32591643748E+02  0.35938305160E+02  0.51100000000E-03 0.  1.
         23    2    1    0    0    0  0.27453028190E+02  0.28199455118E+01 -0.11428883908E+02  0.95129609362E+02  0.90318338893E+02 0.  0.
         11    1    3    3    0    0  0.38936611067E+02 -0.70529395593E+01 -0.44020527655E+02  0.59191304202E+02  0.51100000000E-03 0. -1.
         22    1    1    0    0    0 -0.27453028190E+02 -0.28199455118E+01  0.11428883908E+02  0.29870390638E+02  0.00000000000E+00 0. -1.
</event>
<event>
 5    1  0.8907853E-005  0.9118800E+02  0.7818608E-02  0.1130116E+00
         25   -1    0    0    0    0  0.00000000000E+00  0.00000000000E+00  0.99999998245E-14  0.12500000000E+03  0.12500000000E+03 0.  0.
        -11    1    3    3    0    0  0.32966490072E+02  0.34106143401E+02 -0.38231986458E+02  0.60923749673E+02  0.51100000000E-03 0.  1.
         23    2    1    0    0    0  0.58977341985E+01  0.19084131160E+02 -0.19374755879E+02  0.97172522641E+02  0.93102796200E+02 0.  0.
         11    1    3    3    0    0 -0.27068755873E+02 -0.15022012241E+02  0.18857230579E+02  0.36248772968E+02  0.51100000000E-03 0. -1.
         22    1    1    0    0    0 -0.58977341985E+01 -0.19084131160E+02  0.19374755879E+02  0.27827477359E+02  0.00000000000E+00 0.  1.
</event>
<event>
 5    1  0.8907853E-005  0.9118800E+02  0.7818608E-02  0.1130116E+00
         25   -1    0    0    0    0  0.00000000000E+00  0.00000000000E+00  0.99999998245E-14  0.12500000000E+03  0.12500000000E+03 0.  0.
        -11    1    3    3    0    0 -0.43655211389E+02 -0.61516042822E+01 -0.36528907370E+02  0.57253653076E+02  0.51100000000E-03 0. -1.
         23    2    1    0    0    0 -0.15775806405E+02  0.14618216809E+02 -0.19512349430E+02  0.95960369997E+02  0.91460879611E+02 0.  0.
         11    1    3    3    0    0  0.27879404983E+02  0.20769821092E+02  0.17016557940E+02  0.38706716921E+02  0.51100000000E-03 0.  1.
         22    1    1    0    0    0  0.15775806405E+02 -0.14618216809E+02  0.19512349430E+02  0.29039630003E+02  0.00000000000E+00 0. -1.
</event>
<event>
 5    1  0.8907853E-005  0.9118800E+02  0.7818608E-02  0.1130116E+00
         25   -1    0    0    0    0  0.00000000000E+00  0.00000000000E+00  0.99999998245E-14  0.12500000000E+03  0.12500000000E+03 0.  0.
        -11    1    3    3    0    0 -0.70748493272E+01  0.37768661587E+02 -0.16659996348E+02  0.41881747452E+02  0.51100000000E-03 0.  1.
         23    2    1    0    0    0  0.26243382264E+02  0.23461478109E+01  0.93644996315E+01  0.97037285976E+02  0.92921049790E+02 0.  0.
         11    1    3    3    0    0  0.33318231591E+02 -0.35422513776E+02  0.26024495980E+02  0.55155538524E+02  0.51100000000E-03 0. -1.
         22    1    1    0    0    0 -0.26243382264E+02 -0.23461478109E+01 -0.93644996315E+01  0.27962714024E+02  0.00000000000E+00 0. -1.
</event>
<event>
 5    1  0.8907853E-005  0.9118800E+02  0.7818608E-02  0.1130116E+00
         25   -1    0    0    0    0  0.00000000000E+00  0.00000000000E+00  0.99999998245E-14  0.12500000000E+03  0.12500000000E+03 0.  0.
        -11    1    3    3    0    0  0.29925858395E+02 -0.32766054823E+02 -0.19437830033E+02  0.48445852103E+02  0.51100000000E-03 0.  1.
         23    2    1    0    0    0  0.24279225150E+02 -0.13011614813E+01  0.15784245961E+02  0.96011791783E+02  0.91531131020E+02 0.  0.
         11    1    3    3    0    0 -0.56466332451E+01  0.31464893342E+02  0.35222075994E+02  0.47565939680E+02  0.51100000000E-03 0. -1.
         22    1    1    0    0    0 -0.24279225150E+02  0.13011614813E+01 -0.15784245961E+02  0.28988208217E+02  0.00000000000E+00 0.  1.
</event>
<event>
 5    1  0.8907853E-005  0.9118800E+02  0.7818608E-02  0.1130116E+00
         25   -1    0    0    0    0  0.00000000000E+00  0.00000000000E+00  0.99999998245E-14  0.12500000000E+03  0.12500000000E+03 0.  0.
        -11    1    3    3    0    0 -0.11416024473E+02 -0.17401830773E+02  0.34769724924E+02  0.40522624552E+02  0.51100000000E-03 0.  1.
         23    2    1    0    0    0  0.27264040923E+02 -0.19398217919E+01 -0.39358538510E+01  0.97385116665E+02  0.93387789172E+02 0.  0.
         11    1    3    3    0    0  0.38680065396E+02  0.15462008982E+02 -0.38705578775E+02  0.56862492114E+02  0.51100000000E-03 0. -1.
         22    1    1    0    0    0 -0.27264040923E+02  0.19398217919E+01  0.39358538510E+01  0.27614883335E+02  0.00000000000E+00 0.  1.
</event>
<event>
 5    1  0.8907853E-005  0.9118800E+02  0.7818608E-02  0.1130116E+00
         25   -1    0    0    0    0  0.00000000000E+00  0.00000000000E+00  0.99999998245E-14  0.12500000000E+03  0.12500000000E+03 0.  0.
        -11    1    3    3    0    0  0.24864602748E+02 -0.52104893748E+02 -0.13312524414E+02  0.59248558876E+02  0.51100000000E-03 0. -1.
         23    2    1    0    0    0 -0.21209542356E+01 -0.26311990583E+02 -0.10174379853E+02  0.96709766691E+02  0.92479412156E+02 0.  0.
         11    1    3    3    0    0 -0.26985556983E+02  0.25792903166E+02  0.31381445618E+01  0.37461207815E+02  0.51100000000E-03 0.  1.
         22    1    1    0    0    0  0.21209542356E+01  0.26311990583E+02  0.10174379853E+02  0.28290233309E+02  0.00000000000E+00 0. -1.
</event>
<event>
 5    1  0.8907853E-005  0.9118800E+02  0.7818608E-02  0.1130116E+00
         25   -1    0    0    0    0  0.00000000000E+00  0.00000000000E+00  0.99999998245E-14  0.12500000000E+03  0.12500000000E+03 0.  0.
        -11    1    3    3    0    0 -0.81662026855E+01  0.21243596037E+02  0.21989991210E+02  0.31647068625E+02  0.51100000000E-03 0.  1.
         23    2    1    0    0    0 -0.81017334634E+00 -0.34116268216E+02  0.25552171628E+01  0.90778584591E+02  0.84081187835E+02 0.  0.
         11    1    3    3    0    0  0.73560293392E+01 -0.55359864254E+02 -0.19434774047E+02  0.59131515965E+02  0.51100000000E-03 0. -1.
         22    1    1    0    0    0  0.81017334634E+00  0.34116268216E+02 -0.25552171628E+01  0.34221415409E+02  0.00000000000E+00 0. -1.
</event>
<event>
 5    1  0.8907853E-005  0.9118800E+02  0.7818608E-02  0.1130116E+00
         25   -1    0    0    0    0  0.00000000000E+00  0.00000000000E+00  0.99999998245E-14  0.12500000000E+03  0.12500000000E+03 0.  0.
        -11    1    3    3    0    0 -0.60763306764E+01 -0.54778072388E+02 -0.12105782052E+02  0.56427909481E+02  0.51100000000E-03 0. -1.
         23    2    1    0    0    0 -0.81331375000E+01 -0.16352800034E+02 -0.22241547279E+02  0.96220694590E+02  0.91815977082E+02 0.  0.
         11    1    3    3    0    0 -0.20568068235E+01  0.38425272354E+02 -0.10135765227E+02  0.39792785109E+02  0.51100000000E-03 0.  1.
         22    1    1    0    0    0  0.81331375000E+01  0.16352800034E+02  0.22241547279E+02  0.28779305410E+02  0.00000000000E+00 0. -1.
</event>
<event>
 5    1  0.8907853E-005  0.9118800E+02  0.7818608E-02  0.1130116E+00
         25   -1    0    0    0    0  0.00000000000E+00  0.00000000000E+00  0.99999998245E-14  0.12500000000E+03  0.12500000000E+03 0.  0.
        -11    1    3    3    0    0 -0.28623844384E+02 -0.27445303665E+02 -0.49087289898E+01  0.39958288016E+02  0.51100000000E-03 0.  1.
         23    2    1    0    0    0  0.10206301212E+02 -0.91620837649E+01  0.27853409213E+02  0.93952862159E+02  0.88674773976E+02 0.  0.
         11    1    3    3    0    0  0.38830145596E+02  0.18283219901E+02  0.32762138203E+02  0.53994574143E+02  0.51100000000E-03 0. -1.
         22    1    1    0    0    0 -0.10206301212E+02  0.91620837649E+01 -0.27853409213E+02  0.31047137841E+02  0.00000000000E+00 0. -1.
</event>
<event>
 5    1  0.8907853E-005  0.9118800E+02  0.7818608E-02  0.1130116E+00
         25   -1    0    0    0    0  0.00000000000E+00  0.00000000000E+00  0.99999998245E-14  0.12500000000E+03  0.12500000000E+03 0.  0.
        -11    1    3    3    0    0 -0.29102740300E+02  0.18816265999E+02  0.14616735219E+01  0.34686565827E+02  0.51100000000E-03 0. -1.
         23    2    1    0    0    0  0.21373612256E+02 -0.16422939988E+02 -0.78000344597E+01  0.96939622306E+02  0.92789576875E+02 0.  0.
         11    1    3    3    0    0  0.50476352556E+02 -0.35239205988E+02 -0.92617079816E+01  0.62253056479E+02  0.51100000000E-03 0.  1.
         22    1    1    0    0    0 -0.21373612256E+02  0.16422939988E+02  0.78000344597E+01  0.28060377694E+02  0.00000000000E+00 0.  1.
</event>
<event>
 5    1  0.8907853E-005  0.9118800E+02  0.7818608E-02  0.1130116E+00
         25   -1    0    0    0    0  0.00000000000E+00  0.00000000000E+00  0.99999998245E-14  0.12500000000E+03  0.12500000000E+03 0.  0.
        -11    1    3    3    0    0 -0.19740497587E+01  0.27399960023E+02  0.20234210892E+02  0.34118586905E+02  0.51100000000E-03 0. -1.
         23    2    1    0    0    0 -0.30592853773E+01 -0.12444626576E+02 -0.26513148788E+02  0.95552164489E+02  0.90901271291E+02 0.  0.
         11    1    3    3    0    0 -0.10852356186E+01 -0.39844586599E+02 -0.46747359679E+02  0.61433577584E+02  0.51100000000E-03 0.  1.
         22    1    1    0    0    0  0.30592853773E+01  0.12444626576E+02  0.26513148788E+02  0.29447835511E+02  0.00000000000E+00 0.  1.
</event>
<event>
 5    1  0.8907853E-005  0.9118800E+02  0.7818608E-02  0.1130116E+00
         25   -1    0    0    0    0  0.00000000000E+00  0.00000000000E+00  0.99999998245E-14  0.12500000000E+03  0.12500000000E+03 0.  0.
        -11    1    3    3    0    0  0.28119777838E+02  0.25878555665E+02  0.20289988802E+02  0.43267830946E+02  0.51100000000E-03 0.  1.
         23    2    1    0    0    0 -0.22580568026E+02  0.11153222542E+02  0.13285115292E+02  0.96525964217E+02  0.92230640539E+02 0.  0.
         11    1    3    3    0    0 -0.50700345864E+02 -0.14725333123E+02 -0.70048735097E+01  0.53258133271E+02  0.51100000000E-03 0. -1.
         22    1    1    0    0    0  0.22580568026E+02 -0.11153222542E+02 -0.13285115292E+02  0.28474035783E+02  0.00000000000E+00 0. -1.
</event>
<event>
 5    1  0.8907853E-005  0.9118800E+02  0.7818608E-02  0.1130116E+00
         25   -1    0    0    0    0  0.00000000000E+00  0.00000000000E+00  0.99999998245E-14  0.12500000000E+03  0.12500000000E+03 0.  0.
        -11    1    3    3    0    0  0.50794499711E+02  0.32898948997E+02 -0.12932942414E+02  0.61884432984E+02  0.51100000000E-03 0.  1.
         23    2    1    0    0    0  0.20908591226E+02  0.20895665566E+02 -0.56240383864E+01  0.94909672081E+02  0.90013432443E+02 0.  0.
         11    1    3    3    0    0 -0.29885908485E+02 -0.12003283431E+02  0.73089040276E+01  0.33025239097E+02  0.51100000000E-03 0. -1.
         22    1    1    0    0    0 -0.20908591226E+02 -0.20895665566E+02  0.56240383864E+01  0.30090327919E+02  0.00000000000E+00 0.  1.
</event>
<event>
 5    1  0.8907853E-005  0.9118800E+02  0.7818608E-02  0.1130116E+00
         25   -1    0    0    0    0  0.00000000000E+00  0.00000000000E+00  0.99999998245E-14  0.12500000000E+03  0.12500000000E+03 0.  0.
        -11    1    3    3    0    0  0.35390642081E+01  0.43426016157E+02  0.21753432795E+01  0.43624259001E+02  0.51100000000E-03 0. -1.
         23    2    1    0    0    0 -0.27917547467E+02  0.13125201651E+01 -0.47750342222E+01  0.96646638337E+02  0.92394045177E+02 0.  0.
         11    1    3    3    0    0 -0.31456611675E+02 -0.42113495992E+02 -0.69503775017E+01  0.53022379336E+02  0.51100000000E-03 0.  1.
         22    1    1    0    0    0  0.27917547467E+02 -0.13125201651E+01  0.47750342222E+01  0.28353361663E+02  0.00000000000E+00 0.  1.
</event>
<event>
 5    1  0.8907853E-005  0.9118800E+02  0.7818608E-02  0.1130116E+00
         25   -1    0    0    0    0  0.00000000000E+00  0.00000000000E+00  0.99999998245E-14  0.12500000000E+03  0.12500000000E+03 0.  0.
        -11    1    3    3    0    0 -0.36922252343E+01 -0.45676978795E+02 -0.34782373696E+02  0.57531143212E+02  0.51100000000E-03 0. -1.
         23    2    1    0    0    0  0.15454567124E+02 -0.22300216173E+02 -0.12215756917E+02  0.95244865932E+02  0.90477712632E+02 0.  0.
         11    1    3    3    0    0  0.19146792359E+02  0.23376762623E+02  0.22566616779E+02  0.37713722721E+02  0.51100000000E-03 0.  1.
         22    1    1    0    0    0 -0.15454567124E+02  0.22300216173E+02  0.12215756917E+02  0.29755134068E+02  0.00000000000E+00 0. -1.
</event>
<event>
 5    1  0.8907853E-005  0.9118800E+02  0.7818608E-02  0.1130116E+00
         25   -1    0    0    0    0  0.00000000000E+00  0.00000000000E+00  0.99999998245E-14  0.12500000000E+03  0.12500000000E+03 0.  0.
        -11    1    3    3    0    0  0.36539631291E+02  0.40125545947E+02  0.20970734144E+02  0.58180544713E+02  0.51100000000E-03 0.  1.
         23    2    1    0    0    0  0.24432182502E+01  0.25839835919E+02  0.12884726769E+02  0.96022722356E+02  0.91546057201E+02 0.  0.
         11    1    3    3    0    0 -0.34096413041E+02 -0.14285710028E+02 -0.80860073746E+01  0.37842177643E+02  0.51100000000E-03 0. -1.
         22    1    1    0    0    0 -0.24432182502E+01 -0.25839835919E+02 -0.12884726769E+02  0.28977277644E+02  0.00000000000E+00 0.  1.
</event>
<event>
 5    1  0.8907853E-005  0.9118800E+02  0.7818608E-02  0.1130116E+00
         25   -1    0    0    0    0  0.00000000000E+00  0.00000000000E+00  0.99999998245E-14  0.12500000000E+03  0.12500000000E+03 0.  0.
        -11    1    3    3    0    0 -0.44121025184E+02 -0.39243804372E+01  0.28226743065E+02  0.52524419553E+02  0.51100000000E-03 0.  1.
         23    2    1    0    0    0 -0.78185895293E+00 -0.19680387126E+01  0.29008052437E+02  0.95914753121E+02  0.91398513557E+02 0.  0.
         11    1    3    3    0    0  0.43339166231E+02  0.19563417247E+01  0.78130937177E+00  0.43390333568E+02  0.51100000000E-03 0. -1.
         22    1    1    0    0    0  0.78185895293E+00  0.19680387126E+01 -0.29008052437E+02  0.29085246879E+02  0.00000000000E+00 0.  1.
</event>
<event>
 5    1  0.8907853E-005  0.9118800E+02  0.7818608E-02  0.1130116E+00
         25   -1    0    0    0    0  0.00000000000E+00  0.00000000000E+00  0.99999998245E-14  0.12500000000E+03  0.12500000000E+03 0.  0.
        -11    1    3    3    0    0  0.57632865221E+01 -0.45699189413E+02 -0.54659758361E+01  0.46384353792E+02  0.51100000000E-03 0.  1.
         23    2    1    0    0    0  0.20525485596E+02  0.13658019066E+00 -0.19650355619E+02  0.96584323182E+02  0.92309700441E+02 0.  0.
         11    1    3    3    0    0  0.14762199074E+02  0.45835769604E+02 -0.14184379783E+02  0.50199969390E+02  0.51100000000E-03 0. -1.
         22    1    1    0    0    0 -0.20525485596E+02 -0.13658019066E+00  0.19650355619E+02  0.28415676818E+02  0.00000000000E+00 0. -1.
</event>
<event>
 5    1  0.8907853E-005  0.9118800E+02  0.7818608E-02  0.1130116E+00
         25   -1    0    0    0    0  0.00000000000E+00  0.00000000000E+00  0.99999998245E-14  0.12500000000E+03  0.12500000000E+03 0.  0.
        -11    1    3    3    0    0 -0.25491667091E+02 -0.63762788970E+00  0.29487584869E+02  0.38983962370E+02  0.51100000000E-03 0. -1.
         23    2    1    0    0    0 -0.21368742480E+02 -0.17401461349E+02 -0.19707745373E+02  0.91120371313E+02  0.84587781791E+02 0.  0.
         11    1    3    3    0    0  0.41229246111E+01 -0.16763833459E+02 -0.49195330242E+02  0.52136408943E+02  0.51100000000E-03 0.  1.
         22    1    1    0    0    0  0.21368742480E+02  0.17401461349E+02  0.19707745373E+02  0.33879628687E+02  0.00000000000E+00 0.  1.
</event>
<event>
 5    1  0.8907853E-005  0.9118800E+02  0.7818608E-02  0.1130116E+00
         25   -1    0    0    0    0  0.00000000000E+00  0.00000000000E+00  0.99999998245E-14  0.12500000000E+03  0.12500000000E+03 0.  0.
        -11    1    3    3    0    0  0.54936798181E+02 -0.10448516816E+02  0.24042738416E+02  0.60870982979E+02  0.51100000000E-03 0. -1.
         23    2    1    0    0    0  0.31438629901E+02 -0.31286814361E+01  0.29787700817E+01  0.93265961984E+02  0.87701143071E+02 0.  0.
         11    1    3    3    0    0 -0.23498168280E+02  0.73198353798E+01 -0.21063968334E+02  0.32394979005E+02  0.51100000000E-03 0.  1.
         22    1    1    0    0    0 -0.31438629901E+02  0.31286814361E+01 -0.29787700817E+01  0.31734038016E+02  0.00000000000E+00 0. -1.
</event>
<event>
 5    1  0.8907853E-005  0.9118800E+02  0.7818608E-02  0.1130116E+00
         25   -1    0    0    0    0  0.00000000000E+00  0.00000000000E+00  0.99999998245E-14  0.12500000000E+03  0.12500000000E+03 0.  0.
        -11    1    3    3    0    0  0.53341570460E+02 -0.10040145337E+02 -0.10860331556E+01  0.54289106880E+02  0.51100000000E-03 0.  1.
         23    2    1    0    0    0  0.20623538451E+02  0.27892734034E+01  0.20707633730E+02  0.95641585890E+02  0.91024153237E+02 0.  0.
         11    1    3    3    0    0 -0.32718032009E+02  0.12829418740E+02  0.21793666885E+02  0.41352479010E+02  0.51100000000E-03 0. -1.
         22    1    1    0    0    0 -0.20623538451E+02 -0.27892734034E+01 -0.20707633730E+02  0.29358414110E+02  0.00000000000E+00 0. -1.
</event>
<event>
 5    1  0.8907853E-005  0.9118800E+02  0.7818608E-02  0.1130116E+00
         25   -1    0    0    0    0  0.00000000000E+00  0.00000000000E+00  0.99999998245E-14  0.12500000000E+03  0.12500000000E+03 0.  0.
        -11    1    3    3    0    0  0.18931839629E+02 -0.18405850325E+02 -0.21468127187E+02  0.34030432896E+02  0.51100000000E-03 0. -1.
         23    2    1    0    0    0 -0.20360571696E+02  0.22563276285E+02 -0.32317244275E+00  0.94606600109E+02  0.89591573417E+02 0.  0.
         11    1    3    3    0    0 -0.39292411325E+02  0.40969126609E+02  0.21144954744E+02  0.60576167213E+02  0.51100000000E-03 0.  1.
         22    1    1    0    0    0  0.20360571696E+02 -0.22563276285E+02  0.32317244275E+00  0.30393399891E+02  0.00000000000E+00 0.  1.
</event>
<event>
 5    1  0.8907853E-005  0.9118800E+02  0.7818608E-02  0.1130116E+00
         25   -1    0    0    0    0  0.00000000000E+00  0.00000000000E+00  0.99999998245E-14  0.12500000000E+03  0.12500000000E+03 0.  0.
        -11    1    3    3    0    0 -0.12595964596E+02  0.37924095816E+01 -0.56621509689E+02  0.58129476638E+02  0.51100000000E-03 0.  1.
         23    2    1    0    0    0 -0.76280631853E+01 -0.14598421588E+02 -0.24407440317E+02  0.95554721879E+02  0.90904787936E+02 0.  0.
         11    1    3    3    0    0  0.49679014104E+01 -0.18390831170E+02  0.32214069372E+02  0.37425245241E+02  0.51100000000E-03 0. -1.
         22    1    1    0    0    0  0.76280631853E+01  0.14598421588E+02  0.24407440317E+02  0.29445278121E+02  0.00000000000E+00 0.  1.
</event>
<event>
 5    1  0.8907853E-005  0.9118800E+02  0.7818608E-02  0.1130116E+00
         25   -1    0    0    0    0  0.00000000000E+00  0.00000000000E+00  0.99999998245E-14  0.12500000000E+03  0.12500000000E+03 0.  0.
        -11    1    3    3    0    0  0.39777537212E+02 -0.93682391751E+01  0.43468303017E+01  0.41096366091E+02  0.51100000000E-03 0. -1.
         23    2    1    0    0    0 -0.10892938177E+02 -0.22424910258E+02  0.16867817462E+02  0.94899236419E+02  0.89998939465E+02 0.  0.
         11    1    3    3    0    0 -0.50670475389E+02 -0.13056671083E+02  0.12520987160E+02  0.53802870329E+02  0.51100000000E-03 0.  1.
         22    1    1    0    0    0  0.10892938177E+02  0.22424910258E+02 -0.16867817462E+02  0.30100763581E+02  0.00000000000E+00 0.  1.
</event>
<event>
 5    1  0.8907853E-005  0.9118800E+02  0.7818608E-02  0.1130116E+00
         25   -1    0    0    0    0  0.00000000000E+00  0.00000000000E+00  0.99999998245E-14  0.12500000000E+03  0.12500000000E+03 0.  0.
        -11    1    3    3    0    0  0.50405549312E+02  0.14193698853E+01  0.15949364811E+02  0.52887770330E+02  0.51100000000E-03 0. -1.
         23    2    1    0    0    0  0.14639053371E+02  0.23928623479E+02  0.56367181143E+01  0.96387878507E+02  0.92043302998E+02 0.  0.
         11    1    3    3    0    0 -0.35766495941E+02  0.22509253594E+02 -0.10312646697E+02  0.43500108177E+02  0.51100000000E-03 0.  1.
         22    1    1    0    0    0 -0.14639053371E+02 -0.23928623479E+02 -0.56367181143E+01  0.28612121493E+02  0.00000000000E+00 0. -1.
</event>
<event>
 5    1  0.8907853E-005  0.9118800E+02  0.7818608E-02  0.1130116E+00
         25   -1    0    0    0    0  0.00000000000E+00  0.00000000000E+00  0.99999998245E-14  0.12500000000E+03  0.12500000000E+03 0.  0.
        -11    1    3    3    0    0 -0.11367610549E+02  0.22185464352E+02  0.32203624199E+02  0.40724572557E+02  0.51100000000E-03 0.  1.
         23    2    1    0    0    0  0.64870653540E+01  0.21703147591E+02 -0.19302270645E+02  0.95239518076E+02  0.90470323969E+02 0.  0.
         11    1    3    3    0    0  0.17854675903E+02 -0.48231676077E+00 -0.51505894844E+02  0.54514945520E+02  0.51100000000E-03 0. -1.
         22    1    1    0    0    0 -0.64870653540E+01 -0.21703147591E+02  0.19302270645E+02  0.29760481924E+02  0.00000000000E+00 0. -1.
</event>
<event>
 5    1  0.8907853E-005  0.9118800E+02  0.7818608E-02  0.1130116E+00
         25   -1    0    0    0    0  0.00000000000E+00  0.00000000000E+00  0.99999998245E-14  0.12500000000E+03  0.12500000000E+03 0.  0.
        -11    1    3    3    0    0  0.18969707012E+02  0.63653009180E+01  0.29038548549E+02  0.35264771969E+02  0.51100000000E-03 0.  1.
         23    2    1    0    0    0 -0.11544199590E+01 -0.28758109159E+02 -0.12817801228E+02  0.93493531519E+02  0.88024899203E+02 0.  0.
         11    1    3    3    0    0 -0.20124126971E+02 -0.35123410077E+02 -0.41856349778E+02  0.58228759550E+02  0.51100000000E-03 0. -1.
         22    1    1    0    0    0  0.11544199590E+01  0.28758109159E+02  0.12817801228E+02  0.31506468481E+02  0.00000000000E+00 0. -1.
</event>
<event>
 5    1  0.8907853E-005  0.9118800E+02  0.7818608E-02  0.1130116E+00
         25   -1    0    0    0    0  0.00000000000E+00  0.00000000000E+00  0.99999998245E-14  0.12500000000E+03  0.12500000000E+03 0.  0.
        -11    1    3    3    0    0 -0.19194430286E+02 -0.26082967471E+02  0.53098128156E+02  0.62194521945E+02  0.51100000000E-03 0.  1.
         23    2    1    0    0    0 -0.11735616166E+02 -0.92503961011E+01  0.27127072987E+02  0.94029488159E+02  0.88782723769E+02 0.  0.
         11    1    3    3    0    0  0.74588141200E+01  0.16832571370E+02 -0.25971055169E+02  0.31834966214E+02  0.51100000000E-03 0. -1.
         22    1    1    0    0    0  0.11735616166E+02  0.92503961011E+01 -0.27127072987E+02  0.30970511841E+02  0.00000000000E+00 0.  1.
</event>
<event>
 5    1  0.8907853E-005  0.9118800E+02  0.7818608E-02  0.1130116E+00
         25   -1    0    0    0    0  0.00000000000E+00  0.00000000000E+00  0.99999998245E-14  0.12500000000E+03  0.12500000000E+03 0.  0.
        -11    1    3    3    0    0  0.41448471604E+01 -0.48622376166E+02  0.36749848099E+02  0.61089005210E+02  0.51100000000E-03 0.  1.
         23    2    1    0    0    0 -0.51892403083E+01 -0.24725289694E+02  0.25505116133E+02  0.89100430164E+02  0.81548191525E+02 0.  0.
         11    1    3    3    0    0 -0.93340874687E+01  0.23897086472E+02 -0.11244731966E+02  0.28011424954E+02  0.51100000000E-03 0. -1.
         22    1    1    0    0    0  0.51892403083E+01  0.24725289694E+02 -0.25505116133E+02  0.35899569836E+02  0.00000000000E+00 0.  1.
</event>
<event>
 5    1  0.8907853E-005  0.9118800E+02  0.7818608E-02  0.1130116E+00
         25   -1    0    0    0    0  0.00000000000E+00  0.00000000000E+00  0.99999998245E-14  0.12500000000E+03  0.12500000000E+03 0.  0.
        -11    1    3    3    0    0  0.76184019244E+01  0.59664571291E+02  0.16404728215E+02  0.62345939910E+02  0.51100000000E-03 0. -1.
         23    2    1    0    0    0  0.57782275490E+00  0.28282420838E+02  0.69195403558E+01  0.95877684736E+02  0.91347803389E+02 0.  0.
         11    1    3    3    0    0 -0.70405791695E+01 -0.31382150453E+02 -0.94851878587E+01  0.33531744825E+02  0.51100000000E-03 0.  1.
         22    1    1    0    0    0 -0.57782275490E+00 -0.28282420838E+02 -0.69195403558E+01  0.29122315264E+02  0.00000000000E+00 0. -1.
</event>
<event>
 5    1  0.8907853E-005  0.9118800E+02  0.7818608E-02  0.1130116E+00
         25   -1    0    0    0    0  0.00000000000E+00  0.00000000000E+00  0.99999998245E-14  0.12500000000E+03  0.12500000000E+03 0.  0.
        -11    1    3    3    0    0  0.30288832373E+02  0.16042649445E+02  0.35881237962E+02  0.49620995613E+02  0.51100000000E-03 0. -1.
         23    2    1    0    0    0  0.27780597256E+02 -0.16923726468E+02  0.12335573126E+02  0.90210052230E+02  0.83231683015E+02 0.  0.
         11    1    3    3    0    0 -0.25082351166E+01 -0.32966375913E+02 -0.23545664836E+02  0.40589056617E+02  0.51100000000E-03 0.  1.
         22    1    1    0    0    0 -0.27780597256E+02  0.16923726468E+02 -0.12335573126E+02  0.34789947770E+02  0.00000000000E+00 0. -1.
</event>
<event>
 5    1  0.8907853E-005  0.9118800E+02  0.7818608E-02  0.1130116E+00
         25   -1    0    0    0    0  0.00000000000E+00  0.00000000000E+00  0.99999998245E-14  0.12500000000E+03  0.12500000000E+03 0.  0.
        -11    1    3    3    0    0 -0.37796436147E+02  0.15730995618E+01  0.67797963239E+01  0.38431899070E+02  0.51100000000E-03 0. -1.
         23    2    1    0    0    0  0.16993867635E+02  0.21320351367E+02  0.76639301595E+01  0.96678899296E+02  0.92437680758E+02 0.  0.
         11    1    3    3    0    0  0.54790303782E+02  0.19747251805E+02  0.88413383558E+00  0.58247000226E+02  0.51100000000E-03 0.  1.
         22    1    1    0    0    0 -0.16993867635E+02 -0.21320351367E+02 -0.76639301595E+01  0.28321100704E+02  0.00000000000E+00 0. -1.
</event>
<event>
 5    1  0.8907853E-005  0.9118800E+02  0.7818608E-02  0.1130116E+00
         25   -1    0    0    0    0  0.00000000000E+00  0.00000000000E+00  0.99999998245E-14  0.12500000000E+03  0.12500000000E+03 0.  0.
        -11    1    3    3    0    0  0.25290436131E+02 -0.54718237189E+02  0.80981153418E+01  0.60821633595E+02  0.51100000000E-03 0.  1.
         23    2    1    0    0    0  0.23418648435E+01 -0.28778350299E+02  0.14341609789E+01  0.96090925394E+02  0.91639136555E+02 0.  0.
         11    1    3    3    0    0 -0.22948571287E+02  0.25939886890E+02 -0.66639543629E+01  0.35269291799E+02  0.51100000000E-03 0. -1.
         22    1    1    0    0    0 -0.23418648435E+01  0.28778350299E+02 -0.14341609789E+01  0.28909074606E+02  0.00000000000E+00 0.  1.
</event>
<event>
 5    1  0.8907853E-005  0.9118800E+02  0.7818608E-02  0.1130116E+00
         25   -1    0    0    0    0  0.00000000000E+00  0.00000000000E+00  0.99999998245E-14  0.12500000000E+03  0.12500000000E+03 0.  0.
        -11    1    3    3    0    0 -0.20140794403E+02  0.35886849294E+02  0.27584370556E+02  0.49542053355E+02  0.51100000000E-03 0. -1.
         23    2    1    0    0    0 -0.23187901373E+02  0.15155818101E+02 -0.12373401365E+02  0.94660608876E+02  0.89666895893E+02 0.  0.
         11    1    3    3    0    0 -0.30471069701E+01 -0.20731031192E+02 -0.39957771921E+02  0.45118555521E+02  0.51100000000E-03 0.  1.
         22    1    1    0    0    0  0.23187901373E+02 -0.15155818101E+02  0.12373401365E+02  0.30339391124E+02  0.00000000000E+00 0. -1.
</event>
<event>
 5    1  0.8907853E-005  0.9118800E+02  0.7818608E-02  0.1130116E+00
         25   -1    0    0    0    0  0.00000000000E+00  0.00000000000E+00  0.99999998245E-14  0.12500000000E+03  0.12500000000E+03 0.  0.
        -11    1    3    3    0    0 -0.41964797686E+02 -0.34004228501E+02 -0.47492565873E+01  0.54220727026E+02  0.51100000000E-03 0.  1.
         23    2    1    0    0    0 -0.14343103784E+02 -0.24513826741E+02  0.18115537857E+02  0.91312835686E+02  0.84871720387E+02 0.  0.
         11    1    3    3    0    0  0.27621693903E+02  0.94904017596E+01  0.22864794445E+02  0.37092108660E+02  0.51100000000E-03 0. -1.
         22    1    1    0    0    0  0.14343103784E+02  0.24513826741E+02 -0.18115537857E+02  0.33687164314E+02  0.00000000000E+00 0.  1.
</event>
<event>
 5    1  0.8907853E-005  0.9118800E+02  0.7818608E-02  0.1130116E+00
         25   -1    0    0    0    0  0.00000000000E+00  0.00000000000E+00  0.99999998245E-14  0.12500000000E+03  0.12500000000E+03 0.  0.
        -11    1    3    3    0    0  0.48343799061E+01  0.22886186562E+02  0.23286157785E+02  0.33005967780E+02  0.51100000000E-03 0. -1.
         23    2    1    0    0    0 -0.10842859062E+02  0.37255517925E+02 -0.20083645752E+02  0.81309108098E+02  0.68573150902E+02 0.  0.
         11    1    3    3    0    0 -0.15677238968E+02  0.14369331362E+02 -0.43369803538E+02  0.48303140318E+02  0.51100000000E-03 0.  1.
         22    1    1    0    0    0  0.10842859062E+02 -0.37255517925E+02  0.20083645752E+02  0.43690891902E+02  0.00000000000E+00 0.  1.
</event>
<event>
 5    1  0.8907853E-005  0.9118800E+02  0.7818608E-02  0.1130116E+00
         25   -1    0    0    0    0  0.00000000000E+00  0.00000000000E+00  0.99999998245E-14  0.12500000000E+03  0.12500000000E+03 0.  0.
        -11    1    3    3    0    0 -0.12900307677E+02  0.35367086462E+02 -0.17578106655E+02  0.41548027352E+02  0.51100000000E-03 0. -1.
         23    2    1    0    0    0  0.17763677285E+02 -0.66438578573E+01 -0.24498897773E+02  0.94017987961E+02  0.88766530799E+02 0.  0.
         11    1    3    3    0    0  0.30663984961E+02 -0.42010944320E+02 -0.69207911184E+01  0.52469960609E+02  0.51100000000E-03 0.  1.
         22    1    1    0    0    0 -0.17763677285E+02  0.66438578573E+01  0.24498897773E+02  0.30982012039E+02  0.00000000000E+00 0. -1.
</event>
<event>
 5    1  0.8907853E-005  0.9118800E+02  0.7818608E-02  0.1130116E+00
         25   -1    0    0    0    0  0.00000000000E+00  0.00000000000E+00  0.99999998245E-14  0.12500000000E+03  0.12500000000E+03 0.  0.
        -11    1    3    3    0    0  0.38452920226E+02 -0.13036988646E+02  0.94573217014E+01  0.41689699937E+02  0.51100000000E-03 0.  1.
         23    2    1    0    0    0 -0.56983971079E+01 -0.22089946584E+02 -0.19270876581E+02  0.95136909841E+02  0.90328442144E+02 0.  0.
         11    1    3    3    0    0 -0.44151317333E+02 -0.90529579375E+01 -0.28728198282E+02  0.53447209904E+02  0.51100000000E-03 0. -1.
         22    1    1    0    0    0  0.56983971079E+01  0.22089946584E+02  0.19270876581E+02  0.29863090159E+02  0.00000000000E+00 0. -1.
</event>
<event>
 5    1  0.8907853E-005  0.9118800E+02  0.7818608E-02  0.1130116E+00
         25   -1    0    0    0    0  0.00000000000E+00  0.00000000000E+00  0.99999998245E-14  0.12500000000E+03  0.12500000000E+03 0.  0.
        -11    1    3    3    0    0 -0.23294038348E+01  0.51172961777E+02 -0.33641913396E+02  0.61285206017E+02  0.51100000000E-03 0. -1.
         23    2    1    0    0    0 -0.90390445568E+01  0.19779776734E+02 -0.16676887616E+02  0.97594480945E+02  0.93667605052E+02 0.  0.
         11    1    3    3    0    0 -0.67096407220E+01 -0.31393185044E+02  0.16965025780E+02  0.36309274928E+02  0.51100000000E-03 0.  1.
         22    1    1    0    0    0  0.90390445568E+01 -0.19779776734E+02  0.16676887616E+02  0.27405519055E+02  0.00000000000E+00 0. -1.
</event>
<event>
 5    1  0.8907853E-005  0.9118800E+02  0.7818608E-02  0.1130116E+00
         25   -1    0    0    0    0  0.00000000000E+00  0.00000000000E+00  0.99999998245E-14  0.12500000000E+03  0.12500000000E+03 0.  0.
        -11    1    3    3    0    0  0.93617703751E+01  0.49368647065E+02 -0.56136043935E+01  0.50561038480E+02  0.51100000000E-03 0.  1.
         23    2    1    0    0    0  0.55294170008E+00  0.11656311487E+02 -0.27557621446E+02  0.95073459242E+02  0.90240594028E+02 0.  0.
         11    1    3    3    0    0 -0.88088286750E+01 -0.37712335579E+02 -0.21944017052E+02  0.44512420762E+02  0.51100000000E-03 0. -1.
         22    1    1    0    0    0 -0.55294170008E+00 -0.11656311487E+02  0.27557621446E+02  0.29926540758E+02  0.00000000000E+00 0. -1.
</event>
<event>
 5    1  0.8907853E-005  0.9118800E+02  0.7818608E-02  0.1130116E+00
         25   -1    0    0    0    0  0.00000000000E+00  0.00000000000E+00  0.99999998245E-14  0.12500000000E+03  0.12500000000E+03 0.  0.
        -11    1    3    3    0    0  0.37759638338E+01  0.38001466069E+02  0.27304657781E+02  0.46945858849E+02  0.51100000000E-03 0. -1.
         23    2    1    0    0    0 -0.19828719044E+02 -0.32650123577E+01  0.22660084922E+02  0.94712744375E+02  0.89739545875E+02 0.  0.
         11    1    3    3    0    0 -0.23604682878E+02 -0.41266478427E+02 -0.46445728593E+01  0.47766885526E+02  0.51100000000E-03 0.  1.
         22    1    1    0    0    0  0.19828719044E+02  0.32650123577E+01 -0.22660084922E+02  0.30287255625E+02  0.00000000000E+00 0.  1.
</event>
<event>
 5    1  0.8907853E-005  0.9118800E+02  0.7818608E-02  0.1130116E+00
         25   -1    0    0    0    0  0.00000000000E+00  0.00000000000E+00  0.99999998245E-14  0.12500000000E+03  0.12500000000E+03 0.  0.
        -11    1    3    3    0    0  0.48682089586E+02  0.91687694513E+01  0.10271534087E+02  0.50591665247E+02  0.51100000000E-03 0.  1.
         23    2    1    0    0    0  0.20009214993E+02 -0.21095091861E+02  0.14526221866E+02  0.92497958419E+02  0.86599593559E+02 0.  0.
         11    1    3    3    0    0 -0.28672874593E+02 -0.30263861312E+02  0.42546877796E+01  0.41906293171E+02  0.51100000000E-03 0. -1.
         22    1    1    0    0    0 -0.20009214993E+02  0.21095091861E+02 -0.14526221866E+02  0.32502041581E+02  0.00000000000E+00 0. -1.
</event>
<event>
 5    1  0.8907853E-005  0.9118800E+02  0.7818608E-02  0.1130116E+00
         25   -1    0    0    0    0  0.00000000000E+00  0.00000000000E+00  0.99999998245E-14  0.12500000000E+03  0.12500000000E+03 0.  0.
        -11    1    3    3    0    0 -0.54206163389E+02 -0.15970433096E+02  0.22561088172E+02  0.60847067163E+02  0.51100000000E-03 0. -1.
         23    2    1    0    0    0 -0.20576249836E+02 -0.16566576705E+02  0.95956205490E+01  0.96894672128E+02  0.92729003187E+02 0.  0.
         11    1    3    3    0    0  0.33629913553E+02 -0.59614360936E+00 -0.12965467623E+02  0.36047604965E+02  0.51100000000E-03 0.  1.
         22    1    1    0    0    0  0.20576249836E+02  0.16566576705E+02 -0.95956205490E+01  0.28105327872E+02  0.00000000000E+00 0. -1.
</event>
<event>
 5    1  0.8907853E-005  0.9118800E+02  0.7818608E-02  0.1130116E+00
         25   -1    0    0    0    0  0.00000000000E+00  0.00000000000E+00  0.99999998245E-14  0.12500000000E+03  0.12500000000E+03 0.  0.
        -11    1    3    3    0    0  0.17682600220E+02  0.23043321285E+02 -0.33354166839E+02  0.44228604457E+02  0.51100000000E-03 0.  1.
         23    2    1    0    0    0  0.83464322760E+01 -0.52551079685E+01  0.18499958354E+02  0.10403508763E+03  0.10190079444E+03 0.  0.
         11    1    3    3    0    0 -0.93361679442E+01 -0.28298429254E+02  0.51854125192E+02  0.59806483176E+02  0.51100000000E-03 0. -1.
         22    1    1    0    0    0 -0.83464322760E+01  0.52551079685E+01 -0.18499958354E+02  0.20964912368E+02  0.00000000000E+00 0. -1.
</event>
<event>
 5    1  0.8907853E-005  0.9118800E+02  0.7818608E-02  0.1130116E+00
         25   -1    0    0    0    0  0.00000000000E+00  0.00000000000E+00  0.99999998245E-14  0.12500000000E+03  0.12500000000E+03 0.  0.
        -11    1    3    3    0    0  0.52889108511E+01  0.13889415940E+02 -0.36477321425E+02  0.39388874467E+02  0.51100000000E-03 0.  1.
         23    2    1    0    0    0 -0.24875089106E+02  0.96213547963E+01  0.11285054264E+02  0.96039803594E+02  0.91569377515E+02 0.  0.
         11    1    3    3    0    0 -0.30163999957E+02 -0.42680611436E+01  0.47762375689E+02  0.56650929128E+02  0.51100000000E-03 0. -1.
         22    1    1    0    0    0  0.24875089106E+02 -0.96213547963E+01 -0.11285054264E+02  0.28960196406E+02  0.00000000000E+00 0. -1.
</event>
<event>
 5    1  0.8907853E-005  0.9118800E+02  0.7818608E-02  0.1130116E+00
         25   -1    0    0    0    0  0.00000000000E+00  0.00000000000E+00  0.99999998245E-14  0.12500000000E+03  0.12500000000E+03 0.  0.
        -11    1    3    3    0    0 -0.59079323882E+01 -0.35137146910E+02  0.49637693366E+02  0.61101745974E+02  0.51100000000E-03 0. -1.
         23    2    1    0    0    0 -0.11944220903E+02 -0.16064626505E+02  0.21532454150E+02  0.95599605114E+02  0.90966484369E+02 0.  0.
         11    1    3    3    0    0 -0.60362885148E+01  0.19072520405E+02 -0.28105239216E+02  0.34497859140E+02  0.51100000000E-03 0.  1.
         22    1    1    0    0    0  0.11944220903E+02  0.16064626505E+02 -0.21532454150E+02  0.29400394886E+02  0.00000000000E+00 0. -1.
</event>
<event>
 5    1  0.8907853E-005  0.9118800E+02  0.7818608E-02  0.1130116E+00
         25   -1    0    0    0    0  0.00000000000E+00  0.00000000000E+00  0.99999998245E-14  0.12500000000E+03  0.12500000000E+03 0.  0.
        -11    1    3    3    0    0 -0.11076287489E+02  0.40337426344E+02  0.13146892750E+01  0.41851171032E+02  0.51100000000E-03 0. -1.
         23    2    1    0    0    0  0.47843795377E+01 -0.26768794710E+00 -0.29421918790E+02  0.95190416815E+02  0.90402456846E+02 0.  0.
         11    1    3    3    0    0  0.15860667026E+02 -0.40605114291E+02 -0.30736608065E+02  0.53339245783E+02  0.51100000000E-03 0.  1.
         22    1    1    0    0    0 -0.47843795377E+01  0.26768794710E+00  0.29421918790E+02  0.29809583185E+02  0.00000000000E+00 0.  1.
</event>
<event>
 5    1  0.8907853E-005  0.9118800E+02  0.7818608E-02  0.1130116E+00
         25   -1    0    0    0    0  0.00000000000E+00  0.00000000000E+00  0.99999998245E-14  0.12500000000E+03  0.12500000000E+03 0.  0.
        -11    1    3    3    0    0 -0.28127099464E+02 -0.52464152592E+02  0.14391402991E+02  0.61243232376E+02  0.51100000000E-03 0.  1.
         23    2    1    0    0    0 -0.10008442976E+02 -0.27803991866E+02 -0.86614541915E+00  0.95436828614E+02  0.90742532219E+02 0.  0.
         11    1    3    3    0    0  0.18118656488E+02  0.24660160726E+02 -0.15257548410E+02  0.34193596238E+02  0.51100000000E-03 0. -1.
         22    1    1    0    0    0  0.10008442976E+02  0.27803991866E+02  0.86614541915E+00  0.29563171386E+02  0.00000000000E+00 0.  1.
</event>
<event>
 5    1  0.8907853E-005  0.9118800E+02  0.7818608E-02  0.1130116E+00
         25   -1    0    0    0    0  0.00000000000E+00  0.00000000000E+00  0.99999998245E-14  0.12500000000E+03  0.12500000000E+03 0.  0.
        -11    1    3    3    0    0  0.43298758607E+02 -0.17640924918E+02  0.24441682044E+01  0.46818358443E+02  0.51100000000E-03 0. -1.
         23    2    1    0    0    0 -0.52023708090E+01 -0.27167421384E+02 -0.52607209562E+01  0.96843142369E+02  0.92659514310E+02 0.  0.
         11    1    3    3    0    0 -0.48501129416E+02 -0.95264964658E+01 -0.77048891606E+01  0.50024783925E+02  0.51100000000E-03 0.  1.
         22    1    1    0    0    0  0.52023708090E+01  0.27167421384E+02  0.52607209562E+01  0.28156857631E+02  0.00000000000E+00 0. -1.
</event>
<event>
 5    1  0.8907853E-005  0.9118800E+02  0.7818608E-02  0.1130116E+00
         25   -1    0    0    0    0  0.00000000000E+00  0.00000000000E+00  0.99999998245E-14  0.12500000000E+03  0.12500000000E+03 0.  0.
        -11    1    3    3    0    0 -0.36260759588E+02  0.15899296286E+02  0.27606745588E+02  0.48267615546E+02  0.51100000000E-03 0.  1.
         23    2    1    0    0    0 -0.19328656957E+02 -0.22346978655E+02  0.14411657424E+02  0.92126297677E+02  0.86061457222E+02 0.  0.
         11    1    3    3    0    0  0.16932102631E+02 -0.38246274940E+02 -0.13195088164E+02  0.43858682131E+02  0.51100000000E-03 0. -1.
         22    1    1    0    0    0  0.19328656957E+02  0.22346978655E+02 -0.14411657424E+02  0.32873702323E+02  0.00000000000E+00 0.  1.
</event>
<event>
 5    1  0.8907853E-005  0.9118800E+02  0.7818608E-02  0.1130116E+00
         25   -1    0    0    0    0  0.00000000000E+00  0.00000000000E+00  0.99999998245E-14  0.12500000000E+03  0.12500000000E+03 0.  0.
        -11    1    3    3    0    0  0.17383037783E+02 -0.32101575293E+02 -0.60915501292E+01  0.37010648766E+02  0.51100000000E-03 0.  1.
         23    2    1    0    0    0 -0.28983932764E+02  0.36535792064E+01 -0.13138226802E+01  0.95757169605E+02  0.91182741795E+02 0.  0.
         11    1    3    3    0    0 -0.46366970547E+02  0.35755154499E+02  0.47777274490E+01  0.58746520839E+02  0.51100000000E-03 0. -1.
         22    1    1    0    0    0  0.28983932764E+02 -0.36535792064E+01  0.13138226802E+01  0.29242830395E+02  0.00000000000E+00 0. -1.
</event>
<event>
 5    1  0.8907853E-005  0.9118800E+02  0.7818608E-02  0.1130116E+00
         25   -1    0    0    0    0  0.00000000000E+00  0.00000000000E+00  0.99999998245E-14  0.12500000000E+03  0.12500000000E+03 0.  0.
        -11    1    3    3    0    0 -0.18956593559E+02 -0.33264115946E+02  0.26382458705E+02  0.46496107113E+02  0.51100000000E-03 0. -1.
         23    2    1    0    0    0 -0.92453511501E+01  0.15192915173E+02  0.22852365001E+02  0.96042586865E+02  0.91573176838E+02 0.  0.
         11    1    3    3    0    0  0.97112424090E+01  0.48457031119E+02 -0.35300937040E+01  0.49546479752E+02  0.51100000000E-03 0.  1.
         22    1    1    0    0    0  0.92453511501E+01 -0.15192915173E+02 -0.22852365001E+02  0.28957413135E+02  0.00000000000E+00 0.  1.
</event>
<event>
 5    1  0.8907853E-005  0.9118800E+02  0.7818608E-02  0.1130116E+00
         25   -1    0    0    0    0  0.00000000000E+00  0.00000000000E+00  0.99999998245E-14  0.12500000000E+03  0.12500000000E+03 0.  0.
        -11    1    3    3    0    0  0.37923677105E+02  0.21130201686E+02  0.34494055313E+01  0.43549846237E+02  0.51100000000E-03 0.  1.
         23    2    1    0    0    0  0.12520837414E+01 -0.86121449996E+01  0.27227276506E+02  0.96415715137E+02  0.92081098952E+02 0.  0.
         11    1    3    3    0    0 -0.36671593363E+02 -0.29742346686E+02  0.23777870975E+02  0.52865868900E+02  0.51100000000E-03 0. -1.
         22    1    1    0    0    0 -0.12520837414E+01  0.86121449996E+01 -0.27227276506E+02  0.28584284863E+02  0.00000000000E+00 0.  1.
</event>
<event>
 5    1  0.8907853E-005  0.9118800E+02  0.7818608E-02  0.1130116E+00
         25   -1    0    0    0    0  0.00000000000E+00  0.00000000000E+00  0.99999998245E-14  0.12500000000E+03  0.12500000000E+03 0.  0.
        -11    1    3    3    0    0  0.17407223585E+02 -0.25511286267E+01 -0.41420489043E+02  0.45001962213E+02  0.51100000000E-03 0. -1.
         23    2    1    0    0    0  0.25614238760E+02 -0.98835128073E+01  0.86084758305E+01  0.96227115043E+02  0.91824717591E+02 0.  0.
         11    1    3    3    0    0  0.82070151743E+01 -0.73323841805E+01  0.50028964873E+02  0.51225152830E+02  0.51100000000E-03 0.  1.
         22    1    1    0    0    0 -0.25614238760E+02  0.98835128073E+01 -0.86084758305E+01  0.28772884957E+02  0.00000000000E+00 0.  1.
</event>
<event>
 5    1  0.8907853E-005  0.9118800E+02  0.7818608E-02  0.1130116E+00
         25   -1    0    0    0    0  0.00000000000E+00  0.00000000000E+00  0.99999998245E-14  0.12500000000E+03  0.12500000000E+03 0.  0.
        -11    1    3    3    0    0 -0.30792987749E+01  0.31283516422E+02 -0.22424754425E+02  0.38613599832E+02  0.51100000000E-03 0. -1.
         23    2    1    0    0    0 -0.62321888173E+01  0.25388621210E+01  0.27706987001E+02  0.96487491745E+02  0.92178484129E+02 0.  0.
         11    1    3    3    0    0 -0.31528900425E+01 -0.28744654301E+02  0.50131741426E+02  0.57873891913E+02  0.51100000000E-03 0.  1.
         22    1    1    0    0    0  0.62321888173E+01 -0.25388621210E+01 -0.27706987001E+02  0.28512508255E+02  0.00000000000E+00 0.  1.
</event>
<event>
 5    1  0.8907853E-005  0.9118800E+02  0.7818608E-02  0.1130116E+00
         25   -1    0    0    0    0  0.00000000000E+00  0.00000000000E+00  0.99999998245E-14  0.12500000000E+03  0.12500000000E+03 0.  0.
        -11    1    3    3    0    0  0.49091189519E+02 -0.31983852783E+02 -0.62867433125E+01  0.58927369439E+02  0.51100000000E-03 0.  1.
         23    2    1    0    0    0  0.29531970559E+02 -0.20290060102E+01  0.75453795397E+00  0.95388794722E+02  0.90676340247E+02 0.  0.
         11    1    3    3    0    0 -0.19559218961E+02  0.29954846773E+02  0.70412812664E+01  0.36461425283E+02  0.51100000000E-03 0. -1.
         22    1    1    0    0    0 -0.29531970559E+02  0.20290060102E+01 -0.75453795397E+00  0.29611205278E+02  0.00000000000E+00 0.  1.
</event>
<event>
 5    1  0.8907853E-005  0.9118800E+02  0.7818608E-02  0.1130116E+00
         25   -1    0    0    0    0  0.00000000000E+00  0.00000000000E+00  0.99999998245E-14  0.12500000000E+03  0.12500000000E+03 0.  0.
        -11    1    3    3    0    0  0.38921458878E+02 -0.18105124368E+02  0.27155072389E+02  0.50794423378E+02  0.51100000000E-03 0.  1.
         23    2    1    0    0    0  0.49774085289E+00  0.49497438255E+01  0.28935987471E+02  0.95639497947E+02  0.91021285899E+02 0.  0.
         11    1    3    3    0    0 -0.38423718025E+02  0.23054868194E+02  0.17809150821E+01  0.44845074569E+02  0.51100000000E-03 0. -1.
         22    1    1    0    0    0 -0.49774085289E+00 -0.49497438255E+01 -0.28935987471E+02  0.29360502053E+02  0.00000000000E+00 0.  1.
</event>
<event>
 5    1  0.8907853E-005  0.9118800E+02  0.7818608E-02  0.1130116E+00
         25   -1    0    0    0    0  0.00000000000E+00  0.00000000000E+00  0.99999998245E-14  0.12500000000E+03  0.12500000000E+03 0.  0.
        -11    1    3    3    0    0 -0.34109701295E+02  0.20617351344E+01 -0.48321867228E+02  0.59183826565E+02  0.51100000000E-03 0.  1.
         23    2    1    0    0    0 -0.10340438939E+02 -0.12641748038E+02 -0.22197664735E+02  0.97441429816E+02  0.93463134197E+02 0.  0.
         11    1    3    3    0    0  0.23769262356E+02 -0.14703483172E+02  0.26124202493E+02  0.38257603251E+02  0.51100000000E-03 0. -1.
         22    1    1    0    0    0  0.10340438939E+02  0.12641748038E+02  0.22197664735E+02  0.27558570184E+02  0.00000000000E+00 0.  1.
</event>
<event>
 5    1  0.8907853E-005  0.9118800E+02  0.7818608E-02  0.1130116E+00
         25   -1    0    0    0    0  0.00000000000E+00  0.00000000000E+00  0.99999998245E-14  0.12500000000E+03  0.12500000000E+03 0.  0.
        -11    1    3    3    0    0 -0.18819073654E+01 -0.41638791738E+02 -0.11039210582E+02  0.43118380341E+02  0.51100000000E-03 0. -1.
         23    2    1    0    0    0 -0.20761316562E+02  0.83938925744E+00 -0.25784214406E+02  0.91885614119E+02  0.85711163391E+02 0.  0.
         11    1    3    3    0    0 -0.18879409197E+02  0.42478180995E+02 -0.14745003825E+02  0.48767233778E+02  0.51100000000E-03 0.  1.
         22    1    1    0    0    0  0.20761316562E+02 -0.83938925744E+00  0.25784214406E+02  0.33114385881E+02  0.00000000000E+00 0.  1.
</event>
<event>
 5    1  0.8907853E-005  0.9118800E+02  0.7818608E-02  0.1130116E+00
         25   -1    0    0    0    0  0.00000000000E+00  0.00000000000E+00  0.99999998245E-14  0.12500000000E+03  0.12500000000E+03 0.  0.
        -11    1    3    3    0    0 -0.16371554708E+02 -0.20063029664E+02 -0.34603893131E+02  0.43220161764E+02  0.51100000000E-03 0.  1.
         23    2    1    0    0    0  0.22917463678E+02 -0.18089775655E+02  0.28612250504E+00  0.95801849531E+02  0.91243971761E+02 0.  0.
         11    1    3    3    0    0  0.39289018386E+02  0.19732540082E+01  0.34890015636E+02  0.52581687767E+02  0.51100000000E-03 0. -1.
         22    1    1    0    0    0 -0.22917463678E+02  0.18089775655E+02 -0.28612250504E+00  0.29198150469E+02  0.00000000000E+00 0.  1.
</event>
<event>
 5    1  0.8907853E-005  0.9118800E+02  0.7818608E-02  0.1130116E+00
         25   -1    0    0    0    0  0.00000000000E+00  0.00000000000E+00  0.99999998245E-14  0.12500000000E+03  0.12500000000E+03 0.  0.
        -11    1    3    3    0    0  0.13516053734E+02  0.46809822712E+02 -0.38244342124E+02  0.61939267961E+02  0.51100000000E-03 0.  1.
         23    2    1    0    0    0  0.48900350535E+01  0.25360647775E+02 -0.13302062720E+02  0.95947981636E+02  0.91443946815E+02 0.  0.
         11    1    3    3    0    0 -0.86260186800E+01 -0.21449174937E+02  0.24942279404E+02  0.34008713675E+02  0.51100000000E-03 0. -1.
         22    1    1    0    0    0 -0.48900350535E+01 -0.25360647775E+02  0.13302062720E+02  0.29052018364E+02  0.00000000000E+00 0.  1.
</event>
<event>
 5    1  0.8907853E-005  0.9118800E+02  0.7818608E-02  0.1130116E+00
         25   -1    0    0    0    0  0.00000000000E+00  0.00000000000E+00  0.99999998245E-14  0.12500000000E+03  0.12500000000E+03 0.  0.
        -11    1    3    3    0    0  0.36578008805E+02  0.38138116899E+02  0.11487238139E+02  0.54077937544E+02  0.51100000000E-03 0. -1.
         23    2    1    0    0    0  0.19644522285E+01  0.18915368409E+02  0.22852325116E+02  0.95269897447E+02  0.90512288457E+02 0.  0.
         11    1    3    3    0    0 -0.34613556576E+02 -0.19222748489E+02  0.11365086978E+02  0.41191959903E+02  0.51100000000E-03 0.  1.
         22    1    1    0    0    0 -0.19644522285E+01 -0.18915368409E+02 -0.22852325116E+02  0.29730102553E+02  0.00000000000E+00 0. -1.
</event>
<event>
 5    1  0.8907853E-005  0.9118800E+02  0.7818608E-02  0.1130116E+00
         25   -1    0    0    0    0  0.00000000000E+00  0.00000000000E+00  0.99999998245E-14  0.12500000000E+03  0.12500000000E+03 0.  0.
        -11    1    3    3    0    0  0.39355299640E+02  0.67203880423E+01 -0.43158415995E+02  0.58793299759E+02  0.51100000000E-03 0. -1.
         23    2    1    0    0    0  0.14629087724E+02 -0.31499703286E+01 -0.35466677598E+02  0.86505614169E+02  0.77468726221E+02 0.  0.
         11    1    3    3    0    0 -0.24726211916E+02 -0.98703583710E+01  0.76917383969E+01  0.27712314410E+02  0.51100000000E-03 0.  1.
         22    1    1    0    0    0 -0.14629087724E+02  0.31499703286E+01  0.35466677598E+02  0.38494385831E+02  0.00000000000E+00 0. -1.
</event>
<event>
 5    1  0.8907853E-005  0.9118800E+02  0.7818608E-02  0.1130116E+00
         25   -1    0    0    0    0  0.00000000000E+00  0.00000000000E+00  0.99999998245E-14  0.12500000000E+03  0.12500000000E+03 0.  0.
        -11    1    3    3    0    0 -0.88551101426E+01 -0.58762519766E+02 -0.22710500361E+01  0.59469356592E+02  0.51100000000E-03 0.  1.
         23    2    1    0    0    0 -0.23289641758E+01 -0.26891967989E+02  0.12566976859E+02  0.95225330836E+02  0.90450719781E+02 0.  0.
         11    1    3    3    0    0  0.65261459669E+01  0.31870551777E+02  0.14838026895E+02  0.35755974244E+02  0.51100000000E-03 0. -1.
         22    1    1    0    0    0  0.23289641758E+01  0.26891967989E+02 -0.12566976859E+02  0.29774669164E+02  0.00000000000E+00 0.  1.
</event>
<event>
 5    1  0.8907853E-005  0.9118800E+02  0.7818608E-02  0.1130116E+00
         25   -1    0    0    0    0  0.00000000000E+00  0.00000000000E+00  0.99999998245E-14  0.12500000000E+03  0.12500000000E+03 0.  0.
        -11    1    3    3    0    0  0.23229684361E+02  0.47868200559E+02 -0.10721719912E+02  0.54276497109E+02  0.51100000000E-03 0. -1.
         23    2    1    0    0    0  0.18715871698E+02  0.80589038676E+01 -0.21103603759E+02  0.95664153726E+02  0.91055139512E+02 0.  0.
         11    1    3    3    0    0 -0.45138126630E+01 -0.39809296691E+02 -0.10381883847E+02  0.41387656617E+02  0.51100000000E-03 0.  1.
         22    1    1    0    0    0 -0.18715871698E+02 -0.80589038676E+01  0.21103603759E+02  0.29335846274E+02  0.00000000000E+00 0. -1.
</event>
<event>
 5    1  0.8907853E-005  0.9118800E+02  0.7818608E-02  0.1130116E+00
         25   -1    0    0    0    0  0.00000000000E+00  0.00000000000E+00  0.99999998245E-14  0.12500000000E+03  0.12500000000E+03 0.  0.
        -11    1    3    3    0    0  0.43789630258E+02  0.19804106973E+02  0.58219899010E+01  0.48411051815E+02  0.51100000000E-03 0. -1.
         23    2    1    0    0    0 -0.16604459697E+01  0.29746189877E+02  0.92073598891E+00  0.95193278480E+02  0.90406413600E+02 0.  0.
         11    1    3    3    0    0 -0.45450076228E+02  0.99420829035E+01 -0.49012539121E+01  0.46782226665E+02  0.51100000000E-03 0.  1.
         22    1    1    0    0    0  0.16604459697E+01 -0.29746189877E+02 -0.92073598891E+00  0.29806721520E+02  0.00000000000E+00 0.  1.
</event>
<event>
 5    1  0.8907853E-005  0.9118800E+02  0.7818608E-02  0.1130116E+00
         25   -1    0    0    0    0  0.00000000000E+00  0.00000000000E+00  0.99999998245E-14  0.12500000000E+03  0.12500000000E+03 0.  0.
        -11    1    3    3    0    0 -0.18092537641E+02  0.65655065064E+01  0.49209719301E+02  0.52839779219E+02  0.51100000000E-03 0. -1.
         23    2    1    0    0    0 -0.87449703976E+01  0.24753945459E+02  0.10295404502E+02  0.96800218496E+02  0.92601590828E+02 0.  0.
         11    1    3    3    0    0  0.93475672434E+01  0.18188438952E+02 -0.38914314799E+02  0.43960439277E+02  0.51100000000E-03 0.  1.
         22    1    1    0    0    0  0.87449703976E+01 -0.24753945459E+02 -0.10295404502E+02  0.28199781504E+02  0.00000000000E+00 0. -1.
</event>
<event>
 5    1  0.8907853E-005  0.9118800E+02  0.7818608E-02  0.1130116E+00
         25   -1    0    0    0    0  0.00000000000E+00  0.00000000000E+00  0.99999998245E-14  0.12500000000E+03  0.12500000000E+03 0.  0.
        -11    1    3    3    0    0  0.28924250212E+02 -0.45484725286E+02 -0.28678541782E+02  0.61056787040E+02  0.51100000000E-03 0.  1.
         23    2    1    0    0    0  0.16507774359E+02 -0.20239611549E+02 -0.38104112405E+01  0.98605536115E+02  0.95007284083E+02 0.  0.
         11    1    3    3    0    0 -0.12416475853E+02  0.25245113737E+02  0.24868130541E+02  0.37548749075E+02  0.51100000000E-03 0. -1.
         22    1    1    0    0    0 -0.16507774359E+02  0.20239611549E+02  0.38104112405E+01  0.26394463885E+02  0.00000000000E+00 0.  1.
</event>
<event>
 5    1  0.8907853E-005  0.9118800E+02  0.7818608E-02  0.1130116E+00
         25   -1    0    0    0    0  0.00000000000E+00  0.00000000000E+00  0.99999998245E-14  0.12500000000E+03  0.12500000000E+03 0.  0.
        -11    1    3    3    0    0 -0.34671340230E+02 -0.26063518339E+02 -0.18627859944E+02  0.47205995254E+02  0.51100000000E-03 0.  1.
         23    2    1    0    0    0  0.21407675209E+01  0.70532594671E+01 -0.26633649969E+02  0.97365191056E+02  0.93361114839E+02 0.  0.
         11    1    3    3    0    0  0.36812107751E+02  0.33116777807E+02 -0.80057900248E+01  0.50159195802E+02  0.51100000000E-03 0. -1.
         22    1    1    0    0    0 -0.21407675209E+01 -0.70532594671E+01  0.26633649969E+02  0.27634808944E+02  0.00000000000E+00 0.  1.
</event>
<event>
 5    1  0.8907853E-005  0.9118800E+02  0.7818608E-02  0.1130116E+00
         25   -1    0    0    0    0  0.00000000000E+00  0.00000000000E+00  0.99999998245E-14  0.12500000000E+03  0.12500000000E+03 0.  0.
        -11    1    3    3    0    0 -0.27073406079E+01 -0.35774826826E+01  0.58519848275E+02  0.58691572802E+02  0.51100000000E-03 0.  1.
         23    2    1    0    0    0  0.65749462139E+01  0.11602134729E+02  0.26984052280E+02  0.94900522838E+02  0.90000726161E+02 0.  0.
         11    1    3    3    0    0  0.92822868218E+01  0.15179617412E+02 -0.31535795996E+02  0.36208950037E+02  0.51100000000E-03 0. -1.
         22    1    1    0    0    0 -0.65749462139E+01 -0.11602134729E+02 -0.26984052280E+02  0.30099477162E+02  0.00000000000E+00 0.  1.
</event>
<event>
 5    1  0.8907853E-005  0.9118800E+02  0.7818608E-02  0.1130116E+00
         25   -1    0    0    0    0  0.00000000000E+00  0.00000000000E+00  0.99999998245E-14  0.12500000000E+03  0.12500000000E+03 0.  0.
        -11    1    3    3    0    0  0.53298431186E+02 -0.14543231451E+02 -0.28465817530E+02  0.62149264805E+02  0.51100000000E-03 0. -1.
         23    2    1    0    0    0  0.24521507408E+02 -0.10796472800E+02 -0.10876931898E+02  0.96083295520E+02  0.91628728465E+02 0.  0.
         11    1    3    3    0    0 -0.28776923778E+02  0.37467586510E+01  0.17588885632E+02  0.33934030715E+02  0.51100000000E-03 0.  1.
         22    1    1    0    0    0 -0.24521507408E+02  0.10796472800E+02  0.10876931898E+02  0.28916704480E+02  0.00000000000E+00 0. -1.
</event>
<event>
 5    1  0.8907853E-005  0.9118800E+02  0.7818608E-02  0.1130116E+00
         25   -1    0    0    0    0  0.00000000000E+00  0.00000000000E+00  0.99999998245E-14  0.12500000000E+03  0.12500000000E+03 0.  0.
        -11    1    3    3    0    0  0.23984100100E+02  0.19177262987E+02 -0.19535326706E+02  0.36395514326E+02  0.51100000000E-03 0. -1.
         23    2    1    0    0    0 -0.26339041063E+02 -0.10087351581E+02 -0.58954268445E+01  0.96185840222E+02  0.91768513421E+02 0.  0.
         11    1    3    3    0    0 -0.50323141163E+02 -0.29264614567E+02  0.13639899862E+02  0.59790325896E+02  0.51100000000E-03 0.  1.
         22    1    1    0    0    0  0.26339041063E+02  0.10087351581E+02  0.58954268445E+01  0.28814159778E+02  0.00000000000E+00 0.  1.
</event>
<event>
 5    1  0.8907853E-005  0.9118800E+02  0.7818608E-02  0.1130116E+00
         25   -1    0    0    0    0  0.00000000000E+00  0.00000000000E+00  0.99999998245E-14  0.12500000000E+03  0.12500000000E+03 0.  0.
        -11    1    3    3    0    0  0.43448309727E+02 -0.13103670872E+01  0.25110954090E+02  0.50199927247E+02  0.51100000000E-03 0.  1.
         23    2    1    0    0    0 -0.19636505889E+01  0.77915173711E+01  0.27275473454E+02  0.96565599730E+02  0.92284342834E+02 0.  0.
         11    1    3    3    0    0 -0.45411960316E+02  0.91018844583E+01  0.21645193649E+01  0.46365672483E+02  0.51100000000E-03 0. -1.
         22    1    1    0    0    0  0.19636505889E+01 -0.77915173711E+01 -0.27275473454E+02  0.28434400270E+02  0.00000000000E+00 0. -1.
</event>
<event>
 5    1  0.8907853E-005  0.9118800E+02  0.7818608E-02  0.1130116E+00
         25   -1    0    0    0    0  0.00000000000E+00  0.00000000000E+00  0.99999998245E-14  0.12500000000E+03  0.12500000000E+03 0.  0.
        -11    1    3    3    0    0  0.20219566989E+02  0.29618603476E+02  0.88044873705E+01  0.36927111439E+02  0.51100000000E-03 0. -1.
         23    2    1    0    0    0 -0.26770602617E+02  0.28788518216E+01 -0.12847277712E+02  0.95167040092E+02  0.90370127935E+02 0.  0.
         11    1    3    3    0    0 -0.46990169606E+02 -0.26739751654E+02 -0.21651765082E+02  0.58239928653E+02  0.51100000000E-03 0.  1.
         22    1    1    0    0    0  0.26770602617E+02 -0.28788518216E+01  0.12847277712E+02  0.29832959908E+02  0.00000000000E+00 0.  1.
</event>
<event>
 5    1  0.8907853E-005  0.9118800E+02  0.7818608E-02  0.1130116E+00
         25   -1    0    0    0    0  0.00000000000E+00  0.00000000000E+00  0.99999998245E-14  0.12500000000E+03  0.12500000000E+03 0.  0.
        -11    1    3    3    0    0  0.31560370430E+02  0.45245328733E+02  0.11937422567E+02  0.56441995107E+02  0.51100000000E-03 0.  1.
         23    2    1    0    0    0  0.28584261960E+00  0.23403985860E+02  0.18521688068E+02  0.95152367112E+02  0.90349829983E+02 0.  0.
         11    1    3    3    0    0 -0.31274527810E+02 -0.21841342873E+02  0.65842655010E+01  0.38710372004E+02  0.51100000000E-03 0. -1.
         22    1    1    0    0    0 -0.28584261960E+00 -0.23403985860E+02 -0.18521688068E+02  0.29847632888E+02  0.00000000000E+00 0.  1.
</event>
<event>
 5    1  0.8907853E-005  0.9118800E+02  0.7818608E-02  0.1130116E+00
         25   -1    0    0    0    0  0.00000000000E+00  0.00000000000E+00  0.99999998245E-14  0.12500000000E+03  0.12500000000E+03 0.  0.
        -11    1    3    3    0    0  0.37724543009E+02  0.29895199577E+02 -0.43333488476E+01  0.48328480376E+02  0.51100000000E-03 0.  1.
         23    2    1    0    0    0 -0.57052424916E+01  0.22627937242E+02 -0.19175439164E+02  0.94796179002E+02  0.89855688471E+02 0.  0.
         11    1    3    3    0    0 -0.43429785500E+02 -0.72672623344E+01 -0.14842090316E+02  0.46467698627E+02  0.51100000000E-03 0. -1.
         22    1    1    0    0    0  0.57052424916E+01 -0.22627937242E+02  0.19175439164E+02  0.30203820998E+02  0.00000000000E+00 0. -1.
</event>
<event>
 5    1  0.8907853E-005  0.9118800E+02  0.7818608E-02  0.1130116E+00
         25   -1    0    0    0    0  0.00000000000E+00  0.00000000000E+00  0.99999998245E-14  0.12500000000E+03  0.12500000000E+03 0.  0.
        -11    1    3    3    0    0  0.69962888427E+01 -0.23220032853E+02 -0.40352311481E+02  0.47078944608E+02  0.51100000000E-03 0. -1.
         23    2    1    0    0    0  0.18008328257E+02  0.17056550460E+02 -0.17117232395E+02  0.94863221057E+02  0.89948903630E+02 0.  0.
         11    1    3    3    0    0  0.11012039414E+02  0.40276583312E+02  0.23235079086E+02  0.47784276449E+02  0.51100000000E-03 0.  1.
         22    1    1    0    0    0 -0.18008328257E+02 -0.17056550460E+02  0.17117232395E+02  0.30136778943E+02  0.00000000000E+00 0. -1.
</event>
<event>
 5    1  0.8907853E-005  0.9118800E+02  0.7818608E-02  0.1130116E+00
         25   -1    0    0    0    0  0.00000000000E+00  0.00000000000E+00  0.99999998245E-14  0.12500000000E+03  0.12500000000E+03 0.  0.
        -11    1    3    3    0    0 -0.14683462711E+02 -0.90787921854E+01  0.42306369946E+01  0.17774330771E+02  0.51100000000E-03 0. -1.
         23    2    1    0    0    0  0.34709810186E+02  0.22037423831E+02  0.21433898312E+02  0.78633730266E+02  0.63509310864E+02 0.  0.
         11    1    3    3    0    0  0.49393272897E+02  0.31116216016E+02  0.17203261317E+02  0.60859399494E+02  0.51100000000E-03 0.  1.
         22    1    1    0    0    0 -0.34709810186E+02 -0.22037423831E+02 -0.21433898312E+02  0.46366269734E+02  0.00000000000E+00 0.  1.
</event>
<event>
 5    1  0.8907853E-005  0.9118800E+02  0.7818608E-02  0.1130116E+00
         25   -1    0    0    0    0  0.00000000000E+00  0.00000000000E+00  0.99999998245E-14  0.12500000000E+03  0.12500000000E+03 0.  0.
        -11    1    3    3    0    0 -0.11839420669E+01 -0.48658540726E+02  0.23412307374E+02  0.54011030736E+02  0.51100000000E-03 0. -1.
         23    2    1    0    0    0  0.48838282256E+01 -0.16955347831E+02  0.32910271518E+02  0.87658045451E+02  0.79306439604E+02 0.  0.
         11    1    3    3    0    0  0.60677702925E+01  0.31703192895E+02  0.94979641437E+01  0.33647014714E+02  0.51100000000E-03 0.  1.
         22    1    1    0    0    0 -0.48838282256E+01  0.16955347831E+02 -0.32910271518E+02  0.37341954549E+02  0.00000000000E+00 0. -1.
</event>
<event>
 5    1  0.8907853E-005  0.9118800E+02  0.7818608E-02  0.1130116E+00
         25   -1    0    0    0    0  0.00000000000E+00  0.00000000000E+00  0.99999998245E-14  0.12500000000E+03  0.12500000000E+03 0.  0.
        -11    1    3    3    0    0  0.30478375107E+02 -0.27600235802E+02 -0.44873331169E+02  0.60863126899E+02  0.51100000000E-03 0. -1.
         23    2    1    0    0    0  0.51622188526E+01 -0.16944053390E+02 -0.22964361944E+02  0.95998079922E+02  0.91512403424E+02 0.  0.
         11    1    3    3    0    0 -0.25316156254E+02  0.10656182412E+02  0.21908969226E+02  0.35134953022E+02  0.51100000000E-03 0.  1.
         22    1    1    0    0    0 -0.51622188526E+01  0.16944053390E+02  0.22964361944E+02  0.29001920078E+02  0.00000000000E+00 0. -1.
</event>
<event>
 5    1  0.8907853E-005  0.9118800E+02  0.7818608E-02  0.1130116E+00
         25   -1    0    0    0    0  0.00000000000E+00  0.00000000000E+00  0.99999998245E-14  0.12500000000E+03  0.12500000000E+03 0.  0.
        -11    1    3    3    0    0 -0.24040686327E+02  0.23326369939E+02 -0.81758484665E+01  0.34480699413E+02  0.51100000000E-03 0.  1.
         23    2    1    0    0    0  0.15994322163E+02 -0.16412613122E+02  0.17211476966E+02  0.96339449582E+02  0.91977510270E+02 0.  0.
         11    1    3    3    0    0  0.40035008490E+02 -0.39738983061E+02  0.25387325433E+02  0.61858750168E+02  0.51100000000E-03 0. -1.
         22    1    1    0    0    0 -0.15994322163E+02  0.16412613122E+02 -0.17211476966E+02  0.28660550418E+02  0.00000000000E+00 0. -1.
</event>
<event>
 5    1  0.8907853E-005  0.9118800E+02  0.7818608E-02  0.1130116E+00
         25   -1    0    0    0    0  0.00000000000E+00  0.00000000000E+00  0.99999998245E-14  0.12500000000E+03  0.12500000000E+03 0.  0.
        -11    1    3    3    0    0  0.37544888066E+02  0.35851341999E+02  0.25483688275E+02  0.57830404731E+02  0.51100000000E-03 0. -1.
         23    2    1    0    0    0  0.27353562781E+02  0.10956332404E+02 -0.91423295381E+00  0.95519592294E+02  0.90856469630E+02 0.  0.
         11    1    3    3    0    0 -0.10191325284E+02 -0.24895009594E+02 -0.26397921229E+02  0.37689187564E+02  0.51100000000E-03 0.  1.
         22    1    1    0    0    0 -0.27353562781E+02 -0.10956332404E+02  0.91423295381E+00  0.29480407706E+02  0.00000000000E+00 0. -1.
</event>
<event>
 5    1  0.8907853E-005  0.9118800E+02  0.7818608E-02  0.1130116E+00
         25   -1    0    0    0    0  0.00000000000E+00  0.00000000000E+00  0.99999998245E-14  0.12500000000E+03  0.12500000000E+03 0.  0.
        -11    1    3    3    0    0  0.16172427353E+02 -0.50307899737E+01 -0.32454594757E+02  0.36608154492E+02  0.51100000000E-03 0.  1.
         23    2    1    0    0    0 -0.28703589676E+02 -0.24588546736E+01  0.57770751968E+01  0.95617749841E+02  0.90991414212E+02 0.  0.
         11    1    3    3    0    0 -0.44876017029E+02  0.25719353001E+01  0.38231669954E+02  0.59009595349E+02  0.51100000000E-03 0. -1.
         22    1    1    0    0    0  0.28703589676E+02  0.24588546736E+01 -0.57770751968E+01  0.29382250159E+02  0.00000000000E+00 0. -1.
</event>
<event>
 5    1  0.8907853E-005  0.9118800E+02  0.7818608E-02  0.1130116E+00
         25   -1    0    0    0    0  0.00000000000E+00  0.00000000000E+00  0.99999998245E-14  0.12500000000E+03  0.12500000000E+03 0.  0.
        -11    1    3    3    0    0 -0.23645075096E+01 -0.41587575570E+02  0.18679670119E+02  0.45651368146E+02  0.51100000000E-03 0. -1.
         23    2    1    0    0    0 -0.29150642396E+02 -0.21422340388E+01  0.42783973051E+01  0.95459285685E+02  0.90773462098E+02 0.  0.
         11    1    3    3    0    0 -0.26786134886E+02  0.39445341531E+02 -0.14401272814E+02  0.49807917539E+02  0.51100000000E-03 0.  1.
         22    1    1    0    0    0  0.29150642396E+02  0.21422340388E+01 -0.42783973051E+01  0.29540714315E+02  0.00000000000E+00 0.  1.
</event>
<event>
 5    1  0.8907853E-005  0.9118800E+02  0.7818608E-02  0.1130116E+00
         25   -1    0    0    0    0  0.00000000000E+00  0.00000000000E+00  0.99999998245E-14  0.12500000000E+03  0.12500000000E+03 0.  0.
        -11    1    3    3    0    0 -0.44712676068E+02 -0.17342148914E+02 -0.11794926457E+02  0.49387182755E+02  0.51100000000E-03 0.  1.
         23    2    1    0    0    0 -0.28268180972E+01 -0.58418433144E+01 -0.28384240309E+02  0.95883284324E+02  0.91355465523E+02 0.  0.
         11    1    3    3    0    0  0.41885857970E+02  0.11500305599E+02 -0.16589313851E+02  0.46496101569E+02  0.51100000000E-03 0. -1.
         22    1    1    0    0    0  0.28268180972E+01  0.58418433144E+01  0.28384240309E+02  0.29116715676E+02  0.00000000000E+00 0. -1.
</event>
<event>
 5    1  0.8907853E-005  0.9118800E+02  0.7818608E-02  0.1130116E+00
         25   -1    0    0    0    0  0.00000000000E+00  0.00000000000E+00  0.99999998245E-14  0.12500000000E+03  0.12500000000E+03 0.  0.
        -11    1    3    3    0    0  0.89175752235E+01  0.87200418434E+01  0.36381353025E+02  0.38459915832E+02  0.51100000000E-03 0.  1.
         23    2    1    0    0    0 -0.16112258865E+02  0.17433620071E+02 -0.15451350680E+02  0.96675448241E+02  0.92433013909E+02 0.  0.
         11    1    3    3    0    0 -0.25029834088E+02  0.87135782279E+01 -0.51832703705E+02  0.58215532409E+02  0.51100000000E-03 0. -1.
         22    1    1    0    0    0  0.16112258865E+02 -0.17433620071E+02  0.15451350680E+02  0.28324551759E+02  0.00000000000E+00 0. -1.
</event>
<event>
 5    1  0.8907853E-005  0.9118800E+02  0.7818608E-02  0.1130116E+00
         25   -1    0    0    0    0  0.00000000000E+00  0.00000000000E+00  0.99999998245E-14  0.12500000000E+03  0.12500000000E+03 0.  0.
        -11    1    3    3    0    0 -0.35285686605E+02  0.86774035282E+00  0.36518101535E+01  0.35484762507E+02  0.51100000000E-03 0. -1.
         23    2    1    0    0    0  0.20457520121E+02 -0.19166495043E+02 -0.79862956804E+01  0.95851319405E+02  0.91311718039E+02 0.  0.
         11    1    3    3    0    0  0.55743206726E+02 -0.20034235396E+02 -0.11638105834E+02  0.60366556898E+02  0.51100000000E-03 0.  1.
         22    1    1    0    0    0 -0.20457520121E+02  0.19166495043E+02  0.79862956804E+01  0.29148680595E+02  0.00000000000E+00 0.  1.
</event>
<event>
 5    1  0.8907853E-005  0.9118800E+02  0.7818608E-02  0.1130116E+00
         25   -1    0    0    0    0  0.00000000000E+00  0.00000000000E+00  0.99999998245E-14  0.12500000000E+03  0.12500000000E+03 0.  0.
        -11    1    3    3    0    0  0.40071202999E+01 -0.57369452899E+02 -0.13982391706E+02  0.59184613010E+02  0.51100000000E-03 0.  1.
         23    2    1    0    0    0  0.23850784206E+01 -0.21362813849E+02 -0.19896287359E+02  0.95709717221E+02  0.91117667360E+02 0.  0.
         11    1    3    3    0    0 -0.16220418793E+01  0.36006639050E+02 -0.59138956534E+01  0.36525104211E+02  0.51100000000E-03 0. -1.
         22    1    1    0    0    0 -0.23850784206E+01  0.21362813849E+02  0.19896287359E+02  0.29290282779E+02  0.00000000000E+00 0.  1.
</event>
<event>
 5    1  0.8907853E-005  0.9118800E+02  0.7818608E-02  0.1130116E+00
         25   -1    0    0    0    0  0.00000000000E+00  0.00000000000E+00  0.99999998245E-14  0.12500000000E+03  0.12500000000E+03 0.  0.
        -11    1    3    3    0    0  0.37515852934E+02  0.29833411233E+02 -0.37739568291E+02  0.61006119875E+02  0.51100000000E-03 0.  1.
         23    2    1    0    0    0  0.14524535984E+02  0.70954033200E+01 -0.23824688951E+02  0.96208982348E+02  0.91800030430E+02 0.  0.
         11    1    3    3    0    0 -0.22991316950E+02 -0.22738007913E+02  0.13914879341E+02  0.35202862473E+02  0.51100000000E-03 0. -1.
         22    1    1    0    0    0 -0.14524535984E+02 -0.70954033200E+01  0.23824688951E+02  0.28791017652E+02  0.00000000000E+00 0.  1.
</event>
<event>
 5    1  0.8907853E-005  0.9118800E+02  0.7818608E-02  0.1130116E+00
         25   -1    0    0    0    0  0.00000000000E+00  0.00000000000E+00  0.99999998245E-14  0.12500000000E+03  0.12500000000E+03 0.  0.
        -11    1    3    3    0    0  0.49279200857E+02  0.18159754917E+02  0.25419921055E+02  0.58347139797E+02  0.51100000000E-03 0.  1.
         23    2    1    0    0    0  0.28197274194E+02  0.15145706545E+02 -0.18401406658E+01  0.92939669116E+02  0.87234839824E+02 0.  0.
         11    1    3    3    0    0 -0.21081926663E+02 -0.30140483718E+01 -0.27260061721E+02  0.34592529319E+02  0.51100000000E-03 0. -1.
         22    1    1    0    0    0 -0.28197274194E+02 -0.15145706545E+02  0.18401406658E+01  0.32060330884E+02  0.00000000000E+00 0.  1.
</event>
<event>
 5    1  0.8907853E-005  0.9118800E+02  0.7818608E-02  0.1130116E+00
         25   -1    0    0    0    0  0.00000000000E+00  0.00000000000E+00  0.99999998245E-14  0.12500000000E+03  0.12500000000E+03 0.  0.
        -11    1    3    3    0    0 -0.31595544338E+02 -0.11249367337E+02  0.10241590916E+02  0.35067319148E+02  0.51100000000E-03 0.  1.
         23    2    1    0    0    0 -0.97152651129E+01 -0.20569558516E+02 -0.33294662285E+02  0.84675966838E+02  0.74457986204E+02 0.  0.
         11    1    3    3    0    0  0.21880279225E+02 -0.93201911793E+01 -0.43536253201E+02  0.49608647690E+02  0.51100000000E-03 0. -1.
         22    1    1    0    0    0  0.97152651129E+01  0.20569558516E+02  0.33294662285E+02  0.40324033162E+02  0.00000000000E+00 0. -1.
</event>
<event>
 5    1  0.8907853E-005  0.9118800E+02  0.7818608E-02  0.1130116E+00
         25   -1    0    0    0    0  0.00000000000E+00  0.00000000000E+00  0.99999998245E-14  0.12500000000E+03  0.12500000000E+03 0.  0.
        -11    1    3    3    0    0  0.30093153078E+02 -0.36177461405E+02 -0.34913941903E+02  0.58595135595E+02  0.51100000000E-03 0. -1.
         23    2    1    0    0    0  0.26023706624E+02 -0.75726514774E+01 -0.12548482530E+02  0.95132914928E+02  0.90322913660E+02 0.  0.
         11    1    3    3    0    0 -0.40694464536E+01  0.28604809927E+02  0.22365459373E+02  0.36537779334E+02  0.51100000000E-03 0.  1.
         22    1    1    0    0    0 -0.26023706624E+02  0.75726514774E+01  0.12548482530E+02  0.29867085072E+02  0.00000000000E+00 0. -1.
</event>
<event>
 5    1  0.8907853E-005  0.9118800E+02  0.7818608E-02  0.1130116E+00
         25   -1    0    0    0    0  0.00000000000E+00  0.00000000000E+00  0.99999998245E-14  0.12500000000E+03  0.12500000000E+03 0.  0.
        -11    1    3    3    0    0  0.23741909566E+01  0.45095008902E+02 -0.32060718658E+02  0.55381281059E+02  0.51100000000E-03 0. -1.
         23    2    1    0    0    0  0.17125881005E+02  0.88605785915E+01 -0.21939139910E+02  0.95791584891E+02  0.91229908597E+02 0.  0.
         11    1    3    3    0    0  0.14751690049E+02 -0.36234430310E+02  0.10121578748E+02  0.40410303832E+02  0.51100000000E-03 0.  1.
         22    1    1    0    0    0 -0.17125881005E+02 -0.88605785915E+01  0.21939139910E+02  0.29208415109E+02  0.00000000000E+00 0. -1.
</event>
<event>
 5    1  0.8907853E-005  0.9118800E+02  0.7818608E-02  0.1130116E+00
         25   -1    0    0    0    0  0.00000000000E+00  0.00000000000E+00  0.99999998245E-14  0.12500000000E+03  0.12500000000E+03 0.  0.
        -11    1    3    3    0    0  0.28719188503E+02  0.45172415049E+02  0.32156557394E+02  0.62445040262E+02  0.51100000000E-03 0.  1.
         23    2    1    0    0    0  0.11542339675E+02  0.21324173950E+02  0.15372163049E+02  0.96290256068E+02  0.91910630598E+02 0.  0.
         11    1    3    3    0    0 -0.17176848828E+02 -0.23848241099E+02 -0.16784394345E+02  0.33845215806E+02  0.51100000000E-03 0. -1.
         22    1    1    0    0    0 -0.11542339675E+02 -0.21324173950E+02 -0.15372163049E+02  0.28709743932E+02  0.00000000000E+00 0.  1.
</event>
<event>
 5    1  0.8907853E-005  0.9118800E+02  0.7818608E-02  0.1130116E+00
         25   -1    0    0    0    0  0.00000000000E+00  0.00000000000E+00  0.99999998245E-14  0.12500000000E+03  0.12500000000E+03 0.  0.
        -11    1    3    3    0    0 -0.98357406879E+01  0.25949809600E+02  0.32861385680E+02  0.43011685415E+02  0.51100000000E-03 0.  1.
         23    2    1    0    0    0 -0.30507185541E+02 -0.39812290982E+01 -0.29950628529E+01  0.94088692097E+02  0.88866039769E+02 0.  0.
         11    1    3    3    0    0 -0.20671444853E+02 -0.29931038699E+02 -0.35856448533E+02  0.51077006682E+02  0.51100000000E-03 0. -1.
         22    1    1    0    0    0  0.30507185541E+02  0.39812290982E+01  0.29950628529E+01  0.30911307903E+02  0.00000000000E+00 0. -1.
</event>
<event>
 5    1  0.8907853E-005  0.9118800E+02  0.7818608E-02  0.1130116E+00
         25   -1    0    0    0    0  0.00000000000E+00  0.00000000000E+00  0.99999998245E-14  0.12500000000E+03  0.12500000000E+03 0.  0.
        -11    1    3    3    0    0  0.19880360897E+02  0.15409530215E+02  0.46233751925E+02  0.52633090240E+02  0.51100000000E-03 0. -1.
         23    2    1    0    0    0 -0.14910278935E+02  0.63429920790E+01  0.27266860548E+02  0.93281998005E+02  0.87723996154E+02 0.  0.
         11    1    3    3    0    0 -0.34790639832E+02 -0.90665381363E+01 -0.18966891378E+02  0.40648907765E+02  0.51100000000E-03 0.  1.
         22    1    1    0    0    0  0.14910278935E+02 -0.63429920790E+01 -0.27266860548E+02  0.31718001995E+02  0.00000000000E+00 0. -1.
</event>
<event>
 5    1  0.8907853E-005  0.9118800E+02  0.7818608E-02  0.1130116E+00
         25   -1    0    0    0    0  0.00000000000E+00  0.00000000000E+00  0.99999998245E-14  0.12500000000E+03  0.12500000000E+03 0.  0.
        -11    1    3    3    0    0  0.23629063848E+02 -0.12473496121E+02 -0.38201467336E+02  0.46618374819E+02  0.51100000000E-03 0.  1.
         23    2    1    0    0    0 -0.13941304430E+02 -0.22969138475E+02 -0.53810421544E+01  0.97597501826E+02  0.93671636350E+02 0.  0.
         11    1    3    3    0    0 -0.37570368278E+02 -0.10495642355E+02  0.32820425182E+02  0.50979127007E+02  0.51100000000E-03 0. -1.
         22    1    1    0    0    0  0.13941304430E+02  0.22969138475E+02  0.53810421544E+01  0.27402498174E+02  0.00000000000E+00 0. -1.
</event>
<event>
 5    1  0.8907853E-005  0.9118800E+02  0.7818608E-02  0.1130116E+00
         25   -1    0    0    0    0  0.00000000000E+00  0.00000000000E+00  0.99999998245E-14  0.12500000000E+03  0.12500000000E+03 0.  0.
        -11    1    3    3    0    0  0.44720009102E+02 -0.35531826992E+02  0.11522561667E+01  0.57128956213E+02  0.51100000000E-03 0.  1.
         23    2    1    0    0    0  0.28429993741E+02 -0.14173087703E+01 -0.67384996866E+01  0.95747979792E+02  0.91170142853E+02 0.  0.
         11    1    3    3    0    0 -0.16290015362E+02  0.34114518221E+02 -0.78907558533E+01  0.38619023579E+02  0.51100000000E-03 0. -1.
         22    1    1    0    0    0 -0.28429993741E+02  0.14173087703E+01  0.67384996866E+01  0.29252020208E+02  0.00000000000E+00 0. -1.
</event>
<event>
 5    1  0.8907853E-005  0.9118800E+02  0.7818608E-02  0.1130116E+00
         25   -1    0    0    0    0  0.00000000000E+00  0.00000000000E+00  0.99999998245E-14  0.12500000000E+03  0.12500000000E+03 0.  0.
        -11    1    3    3    0    0  0.41954387294E+00 -0.19181046435E+01 -0.40346224699E+02  0.40393972201E+02  0.51100000000E-03 0. -1.
         23    2    1    0    0    0  0.27840771050E+02  0.13715670977E+02  0.27826012226E+01  0.93839591906E+02  0.88514959055E+02 0.  0.
         11    1    3    3    0    0  0.27421227177E+02  0.15633775621E+02  0.43128825921E+02  0.53445619705E+02  0.51100000000E-03 0.  1.
         22    1    1    0    0    0 -0.27840771050E+02 -0.13715670977E+02 -0.27826012226E+01  0.31160408094E+02  0.00000000000E+00 0.  1.
</event>
<event>
 5    1  0.8907853E-005  0.9118800E+02  0.7818608E-02  0.1130116E+00
         25   -1    0    0    0    0  0.00000000000E+00  0.00000000000E+00  0.99999998245E-14  0.12500000000E+03  0.12500000000E+03 0.  0.
        -11    1    3    3    0    0  0.32658326173E+02  0.10601103777E+02  0.76355094885E+01  0.35174574271E+02  0.51100000000E-03 0.  1.
         23    2    1    0    0    0 -0.24333145515E+02  0.83142644882E+01 -0.13444968081E+02  0.95982830404E+02  0.91491571202E+02 0.  0.
         11    1    3    3    0    0 -0.56991471689E+02 -0.22868392883E+01 -0.21080477570E+02  0.60808256133E+02  0.51100000000E-03 0. -1.
         22    1    1    0    0    0  0.24333145515E+02 -0.83142644882E+01  0.13444968081E+02  0.29017169596E+02  0.00000000000E+00 0. -1.
</event>
<event>
 5    1  0.8907853E-005  0.9118800E+02  0.7818608E-02  0.1130116E+00
         25   -1    0    0    0    0  0.00000000000E+00  0.00000000000E+00  0.99999998245E-14  0.12500000000E+03  0.12500000000E+03 0.  0.
        -11    1    3    3    0    0  0.34847261904E+01 -0.52546457131E+02  0.16193835106E+02  0.55095496815E+02  0.51100000000E-03 0. -1.
         23    2    1    0    0    0 -0.14771429208E+02 -0.15227910320E+02  0.18705556217E+02  0.96716043294E+02  0.92487895551E+02 0.  0.
         11    1    3    3    0    0 -0.18256155399E+02  0.37318546811E+02  0.25117211104E+01  0.41620546479E+02  0.51100000000E-03 0.  1.
         22    1    1    0    0    0  0.14771429208E+02  0.15227910320E+02 -0.18705556217E+02  0.28283956706E+02  0.00000000000E+00 0.  1.
</event>
<event>
 5    1  0.8907853E-005  0.9118800E+02  0.7818608E-02  0.1130116E+00
         25   -1    0    0    0    0  0.00000000000E+00  0.00000000000E+00  0.99999998245E-14  0.12500000000E+03  0.12500000000E+03 0.  0.
        -11    1    3    3    0    0 -0.28615568975E+02  0.29574642582E+02  0.17327201076E+02  0.44651340059E+02  0.51100000000E-03 0. -1.
         23    2    1    0    0    0 -0.17585585134E+02 -0.26629449121E+01 -0.22015760447E+02  0.96697389022E+02  0.92462680339E+02 0.  0.
         11    1    3    3    0    0  0.11029983841E+02 -0.32237587495E+02 -0.39342961524E+02  0.52046048963E+02  0.51100000000E-03 0.  1.
         22    1    1    0    0    0  0.17585585134E+02  0.26629449121E+01  0.22015760447E+02  0.28302610978E+02  0.00000000000E+00 0.  1.
</event>
<event>
 5    1  0.8907853E-005  0.9118800E+02  0.7818608E-02  0.1130116E+00
         25   -1    0    0    0    0  0.00000000000E+00  0.00000000000E+00  0.99999998245E-14  0.12500000000E+03  0.12500000000E+03 0.  0.
        -11    1    3    3    0    0 -0.30928400467E+01 -0.23714311190E+01 -0.36146714681E+02  0.36356214429E+02  0.51100000000E-03 0.  1.
         23    2    1    0    0    0 -0.13149653024E+02 -0.66344155369E+01  0.23647991106E+02  0.97140417671E+02  0.93059682021E+02 0.  0.
         11    1    3    3    0    0 -0.10056812978E+02 -0.42629844179E+01  0.59794705787E+02  0.60784203242E+02  0.51100000000E-03 0. -1.
         22    1    1    0    0    0  0.13149653024E+02  0.66344155369E+01 -0.23647991106E+02  0.27859582329E+02  0.00000000000E+00 0. -1.
</event>
<event>
 5    1  0.8907853E-005  0.9118800E+02  0.7818608E-02  0.1130116E+00
         25   -1    0    0    0    0  0.00000000000E+00  0.00000000000E+00  0.99999998245E-14  0.12500000000E+03  0.12500000000E+03 0.  0.
        -11    1    3    3    0    0 -0.27668484830E+02 -0.26422606431E+01 -0.35591899150E+02  0.45158718754E+02  0.51100000000E-03 0. -1.
         23    2    1    0    0    0 -0.27943175526E+02 -0.61861068381E+01  0.12776743377E+02  0.93657789682E+02  0.88257846227E+02 0.  0.
         11    1    3    3    0    0 -0.27469069540E+00 -0.35438461950E+01  0.48368642527E+02  0.48499070929E+02  0.51100000000E-03 0.  1.
         22    1    1    0    0    0  0.27943175526E+02  0.61861068381E+01 -0.12776743377E+02  0.31342210318E+02  0.00000000000E+00 0.  1.
</event>
<event>
 5    1  0.8907853E-005  0.9118800E+02  0.7818608E-02  0.1130116E+00
         25   -1    0    0    0    0  0.00000000000E+00  0.00000000000E+00  0.99999998245E-14  0.12500000000E+03  0.12500000000E+03 0.  0.
        -11    1    3    3    0    0 -0.42851693220E+02 -0.37505639068E+02  0.20541930222E+02  0.60538512298E+02  0.51100000000E-03 0. -1.
         23    2    1    0    0    0 -0.25775211846E+02 -0.13603535982E+02  0.96582585895E+00  0.95839229151E+02  0.91295165741E+02 0.  0.
         11    1    3    3    0    0  0.17076481374E+02  0.23902103086E+02 -0.19576104363E+02  0.35300716853E+02  0.51100000000E-03 0.  1.
         22    1    1    0    0    0  0.25775211846E+02  0.13603535982E+02 -0.96582585895E+00  0.29160770849E+02  0.00000000000E+00 0. -1.
</event>
<event>
 5    1  0.8907853E-005  0.9118800E+02  0.7818608E-02  0.1130116E+00
         25   -1    0    0    0    0  0.00000000000E+00  0.00000000000E+00  0.99999998245E-14  0.12500000000E+03  0.12500000000E+03 0.  0.
        -11    1    3    3    0    0  0.20615194400E+02 -0.53077523960E+01 -0.27124951252E+02  0.34480740368E+02  0.51100000000E-03 0. -1.
         23    2    1    0    0    0 -0.20690690181E+02 -0.13887436259E+02  0.16457058699E+02  0.95136973914E+02  0.90328530811E+02 0.  0.
         11    1    3    3    0    0 -0.41305884582E+02 -0.85796838628E+01  0.43582009951E+02  0.60656233545E+02  0.51100000000E-03 0.  1.
         22    1    1    0    0    0  0.20690690181E+02  0.13887436259E+02 -0.16457058699E+02  0.29863026086E+02  0.00000000000E+00 0.  1.
</event>
<event>
 5    1  0.8907853E-005  0.9118800E+02  0.7818608E-02  0.1130116E+00
         25   -1    0    0    0    0  0.00000000000E+00  0.00000000000E+00  0.99999998245E-14  0.12500000000E+03  0.12500000000E+03 0.  0.
        -11    1    3    3    0    0 -0.22379472525E+01 -0.37970655041E+02 -0.11026492183E+02  0.39602557774E+02  0.51100000000E-03 0. -1.
         23    2    1    0    0    0 -0.10869866125E+02  0.39261749973E+01  0.26234868398E+02  0.96332297623E+02  0.91967790045E+02 0.  0.
         11    1    3    3    0    0 -0.86319188729E+01  0.41896830039E+02  0.37261360581E+02  0.56729739849E+02  0.51100000000E-03 0.  1.
         22    1    1    0    0    0  0.10869866125E+02 -0.39261749973E+01 -0.26234868398E+02  0.28667702377E+02  0.00000000000E+00 0.  1.
</event>
<event>
 5    1  0.8907853E-005  0.9118800E+02  0.7818608E-02  0.1130116E+00
         25   -1    0    0    0    0  0.00000000000E+00  0.00000000000E+00  0.99999998245E-14  0.12500000000E+03  0.12500000000E+03 0.  0.
        -11    1    3    3    0    0  0.13764077219E+02  0.17085058739E+02 -0.34718425968E+02  0.41069674406E+02  0.51100000000E-03 0.  1.
         23    2    1    0    0    0  0.43018764899E+01 -0.28189180162E+02 -0.49926420418E+01  0.96050690957E+02  0.91584238487E+02 0.  0.
         11    1    3    3    0    0 -0.94622007294E+01 -0.45274238901E+02  0.29725783926E+02  0.54981016551E+02  0.51100000000E-03 0. -1.
         22    1    1    0    0    0 -0.43018764899E+01  0.28189180162E+02  0.49926420418E+01  0.28949309043E+02  0.00000000000E+00 0. -1.
</event>
<event>
 5    1  0.8907853E-005  0.9118800E+02  0.7818608E-02  0.1130116E+00
         25   -1    0    0    0    0  0.00000000000E+00  0.00000000000E+00  0.99999998245E-14  0.12500000000E+03  0.12500000000E+03 0.  0.
        -11    1    3    3    0    0 -0.27570467696E+02  0.13960849962E+02  0.14802928323E+02  0.34266057664E+02  0.51100000000E-03 0.  1.
         23    2    1    0    0    0  0.15989660345E+02 -0.11978929076E+02 -0.20755174233E+02  0.96191299280E+02  0.91775949028E+02 0.  0.
         11    1    3    3    0    0  0.43560128040E+02 -0.25939779038E+02 -0.35558102557E+02  0.61925241615E+02  0.51100000000E-03 0. -1.
         22    1    1    0    0    0 -0.15989660345E+02  0.11978929076E+02  0.20755174233E+02  0.28808700720E+02  0.00000000000E+00 0. -1.
</event>
<event>
 5    1  0.8907853E-005  0.9118800E+02  0.7818608E-02  0.1130116E+00
         25   -1    0    0    0    0  0.00000000000E+00  0.00000000000E+00  0.99999998245E-14  0.12500000000E+03  0.12500000000E+03 0.  0.
        -11    1    3    3    0    0  0.13121417965E+01  0.15701821789E+02  0.40321368820E+02  0.43290665360E+02  0.51100000000E-03 0. -1.
         23    2    1    0    0    0  0.20448406476E+02 -0.19414650893E+02  0.55998800077E+01  0.96252397442E+02  0.91859127802E+02 0.  0.
         11    1    3    3    0    0  0.19136264679E+02 -0.35116472683E+02 -0.34721488812E+02  0.52961732082E+02  0.51100000000E-03 0.  1.
         22    1    1    0    0    0 -0.20448406476E+02  0.19414650893E+02 -0.55998800077E+01  0.28747602558E+02  0.00000000000E+00 0.  1.
</event>
<event>
 5    1  0.8907853E-005  0.9118800E+02  0.7818608E-02  0.1130116E+00
         25   -1    0    0    0    0  0.00000000000E+00  0.00000000000E+00  0.99999998245E-14  0.12500000000E+03  0.12500000000E+03 0.  0.
        -11    1    3    3    0    0  0.38308230186E+02  0.13096516121E+02  0.46734644811E+02  0.61831757701E+02  0.51100000000E-03 0. -1.
         23    2    1    0    0    0  0.13311318541E+02  0.37182509254E+01  0.25694777218E+02  0.95824013855E+02  0.91274330804E+02 0.  0.
         11    1    3    3    0    0 -0.24996911645E+02 -0.93782651951E+01 -0.21039867593E+02  0.33992256154E+02  0.51100000000E-03 0.  1.
         22    1    1    0    0    0 -0.13311318541E+02 -0.37182509254E+01 -0.25694777218E+02  0.29175986145E+02  0.00000000000E+00 0. -1.
</event>
<event>
 5    1  0.8907853E-005  0.9118800E+02  0.7818608E-02  0.1130116E+00
         25   -1    0    0    0    0  0.00000000000E+00  0.00000000000E+00  0.99999998245E-14  0.12500000000E+03  0.12500000000E+03 0.  0.
        -11    1    3    3    0    0 -0.20278454155E+02 -0.53217773455E+02  0.21203119455E+02  0.60769395170E+02  0.51100000000E-03 0.  1.
         23    2    1    0    0    0 -0.51299053616E+00 -0.24940213423E+02  0.15199979778E+02  0.95788413427E+02  0.91225563066E+02 0.  0.
         11    1    3    3    0    0  0.19765463619E+02  0.28277560032E+02 -0.60031396774E+01  0.35019018257E+02  0.51100000000E-03 0. -1.
         22    1    1    0    0    0  0.51299053616E+00  0.24940213423E+02 -0.15199979778E+02  0.29211586573E+02  0.00000000000E+00 0.  1.
</event>
<event>
 5    1  0.8907853E-005  0.9118800E+02  0.7818608E-02  0.1130116E+00
         25   -1    0    0    0    0  0.00000000000E+00  0.00000000000E+00  0.99999998245E-14  0.12500000000E+03  0.12500000000E+03 0.  0.
        -11    1    3    3    0    0 -0.24224967211E+01 -0.26892892873E+02  0.20052133552E+02  0.33633082489E+02  0.51100000000E-03 0.  1.
         23    2    1    0    0    0  0.10205039990E+02  0.22844560938E+02 -0.15046677471E+02  0.95803779208E+02  0.91246615290E+02 0.  0.
         11    1    3    3    0    0  0.12627536711E+02  0.49737453811E+02 -0.35098811023E+02  0.62170696719E+02  0.51100000000E-03 0. -1.
         22    1    1    0    0    0 -0.10205039990E+02 -0.22844560938E+02  0.15046677471E+02  0.29196220792E+02  0.00000000000E+00 0. -1.
</event>
<event>
 5    1  0.8907853E-005  0.9118800E+02  0.7818608E-02  0.1130116E+00
         25   -1    0    0    0    0  0.00000000000E+00  0.00000000000E+00  0.99999998245E-14  0.12500000000E+03  0.12500000000E+03 0.  0.
        -11    1    3    3    0    0  0.26870541114E+01 -0.28042019451E+02 -0.15405416602E+02  0.32107662257E+02  0.51100000000E-03 0.  1.
         23    2    1    0    0    0 -0.10651445598E+02  0.29284593823E+02  0.27897841968E+01  0.93713842924E+02  0.88337199022E+02 0.  0.
         11    1    3    3    0    0 -0.13338499709E+02  0.57326613274E+02  0.18195200799E+02  0.61606180667E+02  0.51100000000E-03 0. -1.
         22    1    1    0    0    0  0.10651445598E+02 -0.29284593823E+02 -0.27897841968E+01  0.31286157076E+02  0.00000000000E+00 0. -1.
</event>
<event>
 5    1  0.8907853E-005  0.9118800E+02  0.7818608E-02  0.1130116E+00
         25   -1    0    0    0    0  0.00000000000E+00  0.00000000000E+00  0.99999998245E-14  0.12500000000E+03  0.12500000000E+03 0.  0.
        -11    1    3    3    0    0  0.29994623860E+02 -0.10497527261E+01  0.25723036522E+02  0.39527889514E+02  0.51100000000E-03 0.  1.
         23    2    1    0    0    0 -0.18882567777E+02 -0.21272695431E+02  0.63826914194E+01  0.95848367344E+02  0.91307676764E+02 0.  0.
         11    1    3    3    0    0 -0.48877191637E+02 -0.20222942705E+02 -0.19340345103E+02  0.56320477829E+02  0.51100000000E-03 0. -1.
         22    1    1    0    0    0  0.18882567777E+02  0.21272695431E+02 -0.63826914194E+01  0.29151632656E+02  0.00000000000E+00 0. -1.
</event>
<event>
 5    1  0.8907853E-005  0.9118800E+02  0.7818608E-02  0.1130116E+00
         25   -1    0    0    0    0  0.00000000000E+00  0.00000000000E+00  0.99999998245E-14  0.12500000000E+03  0.12500000000E+03 0.  0.
        -11    1    3    3    0    0  0.39742437794E+02  0.34800595169E+02 -0.31717769952E+02  0.61616229331E+02  0.51100000000E-03 0.  1.
         23    2    1    0    0    0  0.18766232503E+02  0.10145720684E+02 -0.19121790392E+02  0.96351265327E+02  0.91993566796E+02 0.  0.
         11    1    3    3    0    0 -0.20976205292E+02 -0.24654874485E+02  0.12595979560E+02  0.34735035996E+02  0.51100000000E-03 0. -1.
         22    1    1    0    0    0 -0.18766232503E+02 -0.10145720684E+02  0.19121790392E+02  0.28648734673E+02  0.00000000000E+00 0.  1.
</event>
<event>
 5    1  0.8907853E-005  0.9118800E+02  0.7818608E-02  0.1130116E+00
         25   -1    0    0    0    0  0.00000000000E+00  0.00000000000E+00  0.99999998245E-14  0.12500000000E+03  0.12500000000E+03 0.  0.
        -11    1    3    3    0    0  0.15660813731E+02 -0.19984715606E+02  0.21035123007E+02  0.32971599062E+02  0.51100000000E-03 0.  1.
         23    2    1    0    0    0 -0.57766303322E+01  0.25227643523E+02 -0.15414141215E+02  0.94876932342E+02  0.89967955882E+02 0.  0.
         11    1    3    3    0    0 -0.21437444063E+02  0.45212359129E+02 -0.36449264222E+02  0.61905333280E+02  0.51100000000E-03 0. -1.
         22    1    1    0    0    0  0.57766303322E+01 -0.25227643523E+02  0.15414141215E+02  0.30123067658E+02  0.00000000000E+00 0. -1.
</event>
<event>
 5    1  0.8907853E-005  0.9118800E+02  0.7818608E-02  0.1130116E+00
         25   -1    0    0    0    0  0.00000000000E+00  0.00000000000E+00  0.99999998245E-14  0.12500000000E+03  0.12500000000E+03 0.  0.
        -11    1    3    3    0    0 -0.57649532417E+02 -0.20976026864E+02  0.10269291019E+01  0.61355658863E+02  0.51100000000E-03 0.  1.
         23    2    1    0    0    0 -0.25434101681E+02 -0.16537432070E+02  0.54556086450E+01  0.94175596462E+02  0.88988196496E+02 0.  0.
         11    1    3    3    0    0  0.32215430736E+02  0.44385947942E+01  0.44286795431E+01  0.32819937599E+02  0.51100000000E-03 0. -1.
         22    1    1    0    0    0  0.25434101681E+02  0.16537432070E+02 -0.54556086450E+01  0.30824403538E+02  0.00000000000E+00 0.  1.
</event>
<event>
 5    1  0.8907853E-005  0.9118800E+02  0.7818608E-02  0.1130116E+00
         25   -1    0    0    0    0  0.00000000000E+00  0.00000000000E+00  0.99999998245E-14  0.12500000000E+03  0.12500000000E+03 0.  0.
        -11    1    3    3    0    0 -0.31890883590E+02  0.54814894854E+01 -0.14947112185E+02  0.35643952447E+02  0.51100000000E-03 0. -1.
         23    2    1    0    0    0 -0.70942496875E+01 -0.68544174584E+01  0.32748757278E+02  0.90797770240E+02  0.84109705504E+02 0.  0.
         11    1    3    3    0    0  0.24796633902E+02 -0.12335906944E+02  0.47695869463E+02  0.55153817793E+02  0.51100000000E-03 0.  1.
         22    1    1    0    0    0  0.70942496875E+01  0.68544174584E+01 -0.32748757278E+02  0.34202229760E+02  0.00000000000E+00 0.  1.
</event>
<event>
 5    1  0.8907853E-005  0.9118800E+02  0.7818608E-02  0.1130116E+00
         25   -1    0    0    0    0  0.00000000000E+00  0.00000000000E+00  0.99999998245E-14  0.12500000000E+03  0.12500000000E+03 0.  0.
        -11    1    3    3    0    0 -0.26375061850E+02 -0.39010563711E+02  0.25594044162E+02  0.53595923963E+02  0.51100000000E-03 0.  1.
         23    2    1    0    0    0 -0.28789088515E+02 -0.31351956785E+01  0.34212196209E+01  0.95839310482E+02  0.91295277098E+02 0.  0.
         11    1    3    3    0    0 -0.24140266653E+01  0.35875368032E+02 -0.22172824541E+02  0.42243386519E+02  0.51100000000E-03 0. -1.
         22    1    1    0    0    0  0.28789088515E+02  0.31351956785E+01 -0.34212196209E+01  0.29160689518E+02  0.00000000000E+00 0.  1.
</event>
<event>
 5    1  0.8907853E-005  0.9118800E+02  0.7818608E-02  0.1130116E+00
         25   -1    0    0    0    0  0.00000000000E+00  0.00000000000E+00  0.99999998245E-14  0.12500000000E+03  0.12500000000E+03 0.  0.
        -11    1    3    3    0    0 -0.33051156896E+02 -0.36710374474E+01  0.21040762219E+02  0.39351863528E+02  0.51100000000E-03 0.  1.
         23    2    1    0    0    0 -0.20531550895E+00  0.25223165805E+02 -0.14667607277E+02  0.95821429937E+02  0.91270792065E+02 0.  0.
         11    1    3    3    0    0  0.32845841387E+02  0.28894203253E+02 -0.35708369496E+02  0.56469566409E+02  0.51100000000E-03 0. -1.
         22    1    1    0    0    0  0.20531550895E+00 -0.25223165805E+02  0.14667607277E+02  0.29178570063E+02  0.00000000000E+00 0. -1.
</event>
<event>
 5    1  0.8907853E-005  0.9118800E+02  0.7818608E-02  0.1130116E+00
         25   -1    0    0    0    0  0.00000000000E+00  0.00000000000E+00  0.99999998245E-14  0.12500000000E+03  0.12500000000E+03 0.  0.
        -11    1    3    3    0    0  0.16396079080E+02 -0.14456642728E+02  0.49726146802E+02  0.54318648770E+02  0.51100000000E-03 0.  1.
         23    2    1    0    0    0  0.10373081073E+02 -0.25099656048E+02  0.97164637653E+01  0.96155534104E+02  0.91727223473E+02 0.  0.
         11    1    3    3    0    0 -0.60229980061E+01 -0.10643013320E+02 -0.40009683037E+02  0.41836885334E+02  0.51100000000E-03 0. -1.
         22    1    1    0    0    0 -0.10373081073E+02  0.25099656048E+02 -0.97164637653E+01  0.28844465896E+02  0.00000000000E+00 0.  1.
</event>
<event>
 5    1  0.8907853E-005  0.9118800E+02  0.7818608E-02  0.1130116E+00
         25   -1    0    0    0    0  0.00000000000E+00  0.00000000000E+00  0.99999998245E-14  0.12500000000E+03  0.12500000000E+03 0.  0.
        -11    1    3    3    0    0  0.59396792608E+02  0.15847820821E+01 -0.35601013320E+01  0.59524489314E+02  0.51100000000E-03 0. -1.
         23    2    1    0    0    0  0.30244784902E+02  0.57370509612E+01 -0.14544678780E+02  0.90952849630E+02  0.84339862506E+02 0.  0.
         11    1    3    3    0    0 -0.29152007706E+02  0.41522688791E+01 -0.10984577448E+02  0.31428360316E+02  0.51100000000E-03 0.  1.
         22    1    1    0    0    0 -0.30244784902E+02 -0.57370509612E+01  0.14544678780E+02  0.34047150370E+02  0.00000000000E+00 0. -1.
</event>
<event>
 5    1  0.8907853E-005  0.9118800E+02  0.7818608E-02  0.1130116E+00
         25   -1    0    0    0    0  0.00000000000E+00  0.00000000000E+00  0.99999998245E-14  0.12500000000E+03  0.12500000000E+03 0.  0.
        -11    1    3    3    0    0 -0.46322084915E+02  0.11179605977E+01 -0.26349032975E+01  0.46410430966E+02  0.51100000000E-03 0.  1.
         23    2    1    0    0    0 -0.16783804622E+01  0.27893233873E+01 -0.27343746732E+02  0.97463156113E+02  0.93492186990E+02 0.  0.
         11    1    3    3    0    0  0.44643704453E+02  0.16713627896E+01 -0.24708843434E+02  0.51052725147E+02  0.51100000000E-03 0. -1.
         22    1    1    0    0    0  0.16783804622E+01 -0.27893233873E+01  0.27343746732E+02  0.27536843887E+02  0.00000000000E+00 0. -1.
</event>
<event>
 5    1  0.8907853E-005  0.9118800E+02  0.7818608E-02  0.1130116E+00
         25   -1    0    0    0    0  0.00000000000E+00  0.00000000000E+00  0.99999998245E-14  0.12500000000E+03  0.12500000000E+03 0.  0.
        -11    1    3    3    0    0  0.87505194438E+01  0.30205366989E+02 -0.24188611296E+02  0.39673980165E+02  0.51100000000E-03 0.  1.
         23    2    1    0    0    0  0.83972244959E+01  0.57747445703E+01  0.26861684893E+02  0.96270030119E+02  0.91883118850E+02 0.  0.
         11    1    3    3    0    0 -0.35329494797E+00 -0.24430622419E+02  0.51050296189E+02  0.56596049953E+02  0.51100000000E-03 0. -1.
         22    1    1    0    0    0 -0.83972244959E+01 -0.57747445703E+01 -0.26861684893E+02  0.28729969881E+02  0.00000000000E+00 0. -1.
</event>
<event>
 5    1  0.8907853E-005  0.9118800E+02  0.7818608E-02  0.1130116E+00
         25   -1    0    0    0    0  0.00000000000E+00  0.00000000000E+00  0.99999998245E-14  0.12500000000E+03  0.12500000000E+03 0.  0.
        -11    1    3    3    0    0  0.77423060349E+01  0.42876807315E+02  0.33667127605E+02  0.55062141165E+02  0.51100000000E-03 0.  1.
         23    2    1    0    0    0 -0.13383891715E+02  0.24702769761E+02  0.26188326069E+01  0.96782741531E+02  0.92577996212E+02 0.  0.
         11    1    3    3    0    0 -0.21126197750E+02 -0.18174037554E+02 -0.31048294998E+02  0.41720600366E+02  0.51100000000E-03 0. -1.
         22    1    1    0    0    0  0.13383891715E+02 -0.24702769761E+02 -0.26188326069E+01  0.28217258469E+02  0.00000000000E+00 0.  1.
</event>
<event>
 5    1  0.8907853E-005  0.9118800E+02  0.7818608E-02  0.1130116E+00
         25   -1    0    0    0    0  0.00000000000E+00  0.00000000000E+00  0.99999998245E-14  0.12500000000E+03  0.12500000000E+03 0.  0.
        -11    1    3    3    0    0 -0.13300087114E+01 -0.32432823385E+02  0.87246360763E+01  0.33612144098E+02  0.51100000000E-03 0.  1.
         23    2    1    0    0    0  0.22291446203E+01  0.27611893434E+02 -0.82218593044E+01  0.96103897924E+02  0.91656829975E+02 0.  0.
         11    1    3    3    0    0  0.35591533316E+01  0.60044716819E+02 -0.16946495381E+02  0.62491753827E+02  0.51100000000E-03 0. -1.
         22    1    1    0    0    0 -0.22291446203E+01 -0.27611893434E+02  0.82218593044E+01  0.28896102076E+02  0.00000000000E+00 0. -1.
</event>
<event>
 5    1  0.8907853E-005  0.9118800E+02  0.7818608E-02  0.1130116E+00
         25   -1    0    0    0    0  0.00000000000E+00  0.00000000000E+00  0.99999998245E-14  0.12500000000E+03  0.12500000000E+03 0.  0.
        -11    1    3    3    0    0 -0.12269887609E+02 -0.27562960773E+01 -0.58172775622E+02  0.59516545043E+02  0.51100000000E-03 0. -1.
         23    2    1    0    0    0  0.96967594403E+00  0.10559072121E+02 -0.28051943239E+02  0.95010905399E+02  0.90153903686E+02 0.  0.
         11    1    3    3    0    0  0.13239563553E+02  0.13315368199E+02  0.30120832384E+02  0.35494360356E+02  0.51100000000E-03 0.  1.
         22    1    1    0    0    0 -0.96967594403E+00 -0.10559072121E+02  0.28051943239E+02  0.29989094601E+02  0.00000000000E+00 0. -1.
</event>
<event>
 5    1  0.8907853E-005  0.9118800E+02  0.7818608E-02  0.1130116E+00
         25   -1    0    0    0    0  0.00000000000E+00  0.00000000000E+00  0.99999998245E-14  0.12500000000E+03  0.12500000000E+03 0.  0.
        -11    1    3    3    0    0 -0.28984391994E+02  0.14967846100E+02 -0.33064781956E+02  0.46447940774E+02  0.51100000000E-03 0. -1.
         23    2    1    0    0    0 -0.22480820131E+02  0.16069581349E+02  0.14034361668E+02  0.94006742251E+02  0.88750693308E+02 0.  0.
         11    1    3    3    0    0  0.65035718625E+01  0.11017352490E+01  0.47099143624E+02  0.47558801477E+02  0.51100000000E-03 0.  1.
         22    1    1    0    0    0  0.22480820131E+02 -0.16069581349E+02 -0.14034361668E+02  0.30993257749E+02  0.00000000000E+00 0.  1.
</event>
<event>
 5    1  0.8907853E-005  0.9118800E+02  0.7818608E-02  0.1130116E+00
         25   -1    0    0    0    0  0.00000000000E+00  0.00000000000E+00  0.99999998245E-14  0.12500000000E+03  0.12500000000E+03 0.  0.
        -11    1    3    3    0    0 -0.40303462930E+02 -0.19820043154E+02  0.16065016328E+02  0.47699978875E+02  0.51100000000E-03 0.  1.
         23    2    1    0    0    0  0.71127831072E+01 -0.19582158085E+02  0.21056200216E+02  0.95378788574E+02  0.90662545429E+02 0.  0.
         11    1    3    3    0    0  0.47416246037E+02  0.23788506914E+00  0.49911838876E+01  0.47678809700E+02  0.51100000000E-03 0. -1.
         22    1    1    0    0    0 -0.71127831072E+01  0.19582158085E+02 -0.21056200216E+02  0.29621211426E+02  0.00000000000E+00 0. -1.
</event>
<event>
 5    1  0.8907853E-005  0.9118800E+02  0.7818608E-02  0.1130116E+00
         25   -1    0    0    0    0  0.00000000000E+00  0.00000000000E+00  0.99999998245E-14  0.12500000000E+03  0.12500000000E+03 0.  0.
        -11    1    3    3    0    0 -0.44528912185E+01  0.26174404966E+02  0.56320695631E+02  0.62265146528E+02  0.51100000000E-03 0. -1.
         23    2    1    0    0    0 -0.23586051681E+01  0.76639288858E+01  0.25405421053E+02  0.98359162116E+02  0.94682577747E+02 0.  0.
         11    1    3    3    0    0  0.20942860504E+01 -0.18510476080E+02 -0.30915274578E+02  0.36094015588E+02  0.51100000000E-03 0.  1.
         22    1    1    0    0    0  0.23586051681E+01 -0.76639288858E+01 -0.25405421053E+02  0.26640837884E+02  0.00000000000E+00 0. -1.
</event>
<event>
 5    1  0.8907853E-005  0.9118800E+02  0.7818608E-02  0.1130116E+00
         25   -1    0    0    0    0  0.00000000000E+00  0.00000000000E+00  0.99999998245E-14  0.12500000000E+03  0.12500000000E+03 0.  0.
        -11    1    3    3    0    0  0.52886331724E+02  0.21963756276E+02 -0.12116823970E+02  0.58533649266E+02  0.51100000000E-03 0. -1.
         23    2    1    0    0    0  0.20132583415E+02  0.15207291782E+02  0.91446914248E+01  0.98163308334E+02  0.94423657436E+02 0.  0.
         11    1    3    3    0    0 -0.32753748309E+02 -0.67564644939E+01  0.21261515394E+02  0.39629659069E+02  0.51100000000E-03 0.  1.
         22    1    1    0    0    0 -0.20132583415E+02 -0.15207291782E+02 -0.91446914248E+01  0.26836691666E+02  0.00000000000E+00 0. -1.
</event>
<event>
 5    1  0.8907853E-005  0.9118800E+02  0.7818608E-02  0.1130116E+00
         25   -1    0    0    0    0  0.00000000000E+00  0.00000000000E+00  0.99999998245E-14  0.12500000000E+03  0.12500000000E+03 0.  0.
        -11    1    3    3    0    0  0.49017834218E+02  0.26822830498E+02  0.72066193412E+01  0.56339574634E+02  0.51100000000E-03 0. -1.
         23    2    1    0    0    0  0.27883477728E+02 -0.65212938417E+01  0.54054018146E+01  0.95858380753E+02  0.91321384069E+02 0.  0.
         11    1    3    3    0    0 -0.21134356490E+02 -0.33344124340E+02 -0.18012175267E+01  0.39518806119E+02  0.51100000000E-03 0.  1.
         22    1    1    0    0    0 -0.27883477728E+02  0.65212938417E+01 -0.54054018146E+01  0.29141619247E+02  0.00000000000E+00 0. -1.
</event>
<event>
 5    1  0.8907853E-005  0.9118800E+02  0.7818608E-02  0.1130116E+00
         25   -1    0    0    0    0  0.00000000000E+00  0.00000000000E+00  0.99999998245E-14  0.12500000000E+03  0.12500000000E+03 0.  0.
        -11    1    3    3    0    0  0.34800205002E+02  0.15693119207E+02  0.35020529604E+02  0.51805074584E+02  0.51100000000E-03 0. -1.
         23    2    1    0    0    0 -0.71986633065E+01  0.17041027613E+02  0.22945411729E+02  0.95526125214E+02  0.90865457152E+02 0.  0.
         11    1    3    3    0    0 -0.41998868308E+02  0.13479084052E+01 -0.12075117875E+02  0.43721050630E+02  0.51100000000E-03 0.  1.
         22    1    1    0    0    0  0.71986633065E+01 -0.17041027613E+02 -0.22945411729E+02  0.29473874786E+02  0.00000000000E+00 0. -1.
</event>
<event>
 5    1  0.8907853E-005  0.9118800E+02  0.7818608E-02  0.1130116E+00
         25   -1    0    0    0    0  0.00000000000E+00  0.00000000000E+00  0.99999998245E-14  0.12500000000E+03  0.12500000000E+03 0.  0.
        -11    1    3    3    0    0  0.24721466480E+02 -0.24915038202E+02 -0.92600053644E+01  0.36299555550E+02  0.51100000000E-03 0. -1.
         23    2    1    0    0    0 -0.14009027484E+02  0.17140586549E+02  0.14845038430E+02  0.98346149916E+02  0.94665397475E+02 0.  0.
         11    1    3    3    0    0 -0.38730493964E+02  0.42055624751E+02  0.24105043794E+02  0.62046594366E+02  0.51100000000E-03 0.  1.
         22    1    1    0    0    0  0.14009027484E+02 -0.17140586549E+02 -0.14845038430E+02  0.26653850084E+02  0.00000000000E+00 0.  1.
</event>
<event>
 5    1  0.8907853E-005  0.9118800E+02  0.7818608E-02  0.1130116E+00
         25   -1    0    0    0    0  0.00000000000E+00  0.00000000000E+00  0.99999998245E-14  0.12500000000E+03  0.12500000000E+03 0.  0.
        -11    1    3    3    0    0 -0.99595650231E+00  0.44509972838E+02 -0.30077561228E+02  0.53728849802E+02  0.51100000000E-03 0.  1.
         23    2    1    0    0    0 -0.11918891493E+02  0.43480011476E+01 -0.26642112219E+02  0.95491234660E+02  0.90817446920E+02 0.  0.
         11    1    3    3    0    0 -0.10922934990E+02 -0.40161971690E+02  0.34354490085E+01  0.41762384858E+02  0.51100000000E-03 0. -1.
         22    1    1    0    0    0  0.11918891493E+02 -0.43480011476E+01  0.26642112219E+02  0.29508765340E+02  0.00000000000E+00 0.  1.
</event>
<event>
 5    1  0.8907853E-005  0.9118800E+02  0.7818608E-02  0.1130116E+00
         25   -1    0    0    0    0  0.00000000000E+00  0.00000000000E+00  0.99999998245E-14  0.12500000000E+03  0.12500000000E+03 0.  0.
        -11    1    3    3    0    0  0.84979930152E+01  0.35040351699E+02 -0.33254427483E+01  0.36209124571E+02  0.51100000000E-03 0.  1.
         23    2    1    0    0    0 -0.26827309459E+01 -0.17981211001E+02  0.22364715289E+02  0.96178107551E+02  0.91757979967E+02 0.  0.
         11    1    3    3    0    0 -0.11180723961E+02 -0.53021562699E+02  0.25690158038E+02  0.59968982980E+02  0.51100000000E-03 0. -1.
         22    1    1    0    0    0  0.26827309459E+01  0.17981211001E+02 -0.22364715289E+02  0.28821892449E+02  0.00000000000E+00 0. -1.
</event>
<event>
 5    1  0.8907853E-005  0.9118800E+02  0.7818608E-02  0.1130116E+00
         25   -1    0    0    0    0  0.00000000000E+00  0.00000000000E+00  0.99999998245E-14  0.12500000000E+03  0.12500000000E+03 0.  0.
        -11    1    3    3    0    0 -0.54811449981E+01  0.27933179388E+02  0.17801557469E+02  0.33573812857E+02  0.51100000000E-03 0.  1.
         23    2    1    0    0    0  0.14506860987E+01 -0.18505643623E+02 -0.22766483389E+02  0.95625247202E+02  0.91001713174E+02 0.  0.
         11    1    3    3    0    0  0.69318310968E+01 -0.46438823011E+02 -0.40568040857E+02  0.62051434345E+02  0.51100000000E-03 0. -1.
         22    1    1    0    0    0 -0.14506860987E+01  0.18505643623E+02  0.22766483389E+02  0.29374752798E+02  0.00000000000E+00 0. -1.
</event>
<event>
 5    1  0.8907853E-005  0.9118800E+02  0.7818608E-02  0.1130116E+00
         25   -1    0    0    0    0  0.00000000000E+00  0.00000000000E+00  0.99999998245E-14  0.12500000000E+03  0.12500000000E+03 0.  0.
        -11    1    3    3    0    0  0.11086905776E+02  0.29671405742E+02 -0.25066744188E+02  0.40393730490E+02  0.51100000000E-03 0. -1.
         23    2    1    0    0    0  0.21577301013E+02 -0.17578041996E+02  0.40484157287E+01  0.96876039587E+02  0.92703882857E+02 0.  0.
         11    1    3    3    0    0  0.10490395236E+02 -0.47249447738E+02  0.29115159917E+02  0.56482309098E+02  0.51100000000E-03 0.  1.
         22    1    1    0    0    0 -0.21577301013E+02  0.17578041996E+02 -0.40484157287E+01  0.28123960413E+02  0.00000000000E+00 0.  1.
</event>
<event>
 5    1  0.8907853E-005  0.9118800E+02  0.7818608E-02  0.1130116E+00
         25   -1    0    0    0    0  0.00000000000E+00  0.00000000000E+00  0.99999998245E-14  0.12500000000E+03  0.12500000000E+03 0.  0.
        -11    1    3    3    0    0  0.30060001793E+02 -0.72199233883E+01 -0.18815683722E+02  0.36190619720E+02  0.51100000000E-03 0. -1.
         23    2    1    0    0    0 -0.23152981089E+02 -0.18319429226E+02  0.41209660900E+01  0.95189861088E+02  0.90401688435E+02 0.  0.
         11    1    3    3    0    0 -0.53212982882E+02 -0.11099505837E+02  0.22936649812E+02  0.58999241367E+02  0.51100000000E-03 0.  1.
         22    1    1    0    0    0  0.23152981089E+02  0.18319429226E+02 -0.41209660900E+01  0.29810138912E+02  0.00000000000E+00 0.  1.
</event>
<event>
 5    1  0.8907853E-005  0.9118800E+02  0.7818608E-02  0.1130116E+00
         25   -1    0    0    0    0  0.00000000000E+00  0.00000000000E+00  0.99999998245E-14  0.12500000000E+03  0.12500000000E+03 0.  0.
        -11    1    3    3    0    0 -0.10248670313E+02 -0.60139919204E+02 -0.41743651811E+01  0.61149574405E+02  0.51100000000E-03 0.  1.
         23    2    1    0    0    0 -0.77720918881E+01 -0.22830869746E+02 -0.98111905690E+01  0.98963228195E+02  0.95476735641E+02 0.  0.
         11    1    3    3    0    0  0.24765784246E+01  0.37309049458E+02 -0.56368253879E+01  0.37813653789E+02  0.51100000000E-03 0. -1.
         22    1    1    0    0    0  0.77720918881E+01  0.22830869746E+02  0.98111905690E+01  0.26036771805E+02  0.00000000000E+00 0.  1.
</event>
<event>
 5    1  0.8907853E-005  0.9118800E+02  0.7818608E-02  0.1130116E+00
         25   -1    0    0    0    0  0.00000000000E+00  0.00000000000E+00  0.99999998245E-14  0.12500000000E+03  0.12500000000E+03 0.  0.
        -11    1    3    3    0    0  0.17386401986E+02 -0.52016353975E+02  0.17236092254E+02  0.57489746315E+02  0.51100000000E-03 0.  1.
         23    2    1    0    0    0 -0.71825932337E+01 -0.29975172980E+02  0.15389185812E+02  0.90548183201E+02  0.83737959137E+02 0.  0.
         11    1    3    3    0    0 -0.24568995219E+02  0.22041180995E+02 -0.18469064425E+01  0.33058436887E+02  0.51100000000E-03 0. -1.
         22    1    1    0    0    0  0.71825932337E+01  0.29975172980E+02 -0.15389185812E+02  0.34451816799E+02  0.00000000000E+00 0.  1.
</event>
<event>
 5    1  0.8907853E-005  0.9118800E+02  0.7818608E-02  0.1130116E+00
         25   -1    0    0    0    0  0.00000000000E+00  0.00000000000E+00  0.99999998245E-14  0.12500000000E+03  0.12500000000E+03 0.  0.
        -11    1    3    3    0    0 -0.14576330558E+02 -0.41206509449E+02 -0.34901888321E+02  0.55933779079E+02  0.51100000000E-03 0.  1.
         23    2    1    0    0    0  0.11204801467E+02 -0.20608259939E+02 -0.25726111659E+02  0.90185049552E+02  0.83194124720E+02 0.  0.
         11    1    3    3    0    0  0.25781132025E+02  0.20598249509E+02  0.91757766621E+01  0.34251270472E+02  0.51100000000E-03 0. -1.
         22    1    1    0    0    0 -0.11204801467E+02  0.20608259939E+02  0.25726111659E+02  0.34814950448E+02  0.00000000000E+00 0.  1.
</event>
<event>
 5    1  0.8907853E-005  0.9118800E+02  0.7818608E-02  0.1130116E+00
         25   -1    0    0    0    0  0.00000000000E+00  0.00000000000E+00  0.99999998245E-14  0.12500000000E+03  0.12500000000E+03 0.  0.
        -11    1    3    3    0    0 -0.31464572342E+02 -0.24550635271E+02 -0.39197684009E+01  0.40101341492E+02  0.51100000000E-03 0.  1.
         23    2    1    0    0    0 -0.12867629627E+02  0.26807204330E+02 -0.55692097851E+01  0.94747426658E+02  0.89787842520E+02 0.  0.
         11    1    3    3    0    0  0.18596942715E+02  0.51357839601E+02 -0.16494413843E+01  0.54646085166E+02  0.51100000000E-03 0. -1.
         22    1    1    0    0    0  0.12867629627E+02 -0.26807204330E+02  0.55692097851E+01  0.30252573342E+02  0.00000000000E+00 0.  1.
</event>
<event>
 5    1  0.8907853E-005  0.9118800E+02  0.7818608E-02  0.1130116E+00
         25   -1    0    0    0    0  0.00000000000E+00  0.00000000000E+00  0.99999998245E-14  0.12500000000E+03  0.12500000000E+03 0.  0.
        -11    1    3    3    0    0  0.52441505788E+01 -0.11200372754E+02  0.56448988316E+02  0.57787868513E+02  0.51100000000E-03 0.  1.
         23    2    1    0    0    0  0.12472349308E+02 -0.17010679963E+02  0.18215065137E+02  0.97130458776E+02  0.93046304032E+02 0.  0.
         11    1    3    3    0    0  0.72281987288E+01 -0.58103072092E+01 -0.38233923179E+02  0.39342590263E+02  0.51100000000E-03 0. -1.
         22    1    1    0    0    0 -0.12472349308E+02  0.17010679963E+02 -0.18215065137E+02  0.27869541224E+02  0.00000000000E+00 0. -1.
</event>
<event>
 5    1  0.8907853E-005  0.9118800E+02  0.7818608E-02  0.1130116E+00
         25   -1    0    0    0    0  0.00000000000E+00  0.00000000000E+00  0.99999998245E-14  0.12500000000E+03  0.12500000000E+03 0.  0.
        -11    1    3    3    0    0 -0.55500200017E+02 -0.23839681064E+02  0.13961174305E+02  0.61996104583E+02  0.51100000000E-03 0.  1.
         23    2    1    0    0    0 -0.26461909020E+02 -0.97963329105E+01  0.98026330860E+00  0.96765948154E+02  0.92555318802E+02 0.  0.
         11    1    3    3    0    0  0.29038290997E+02  0.14043348154E+02 -0.12980910997E+02  0.34769843571E+02  0.51100000000E-03 0. -1.
         22    1    1    0    0    0  0.26461909020E+02  0.97963329105E+01 -0.98026330860E+00  0.28234051846E+02  0.00000000000E+00 0.  1.
</event>
<event>
 5    1  0.8907853E-005  0.9118800E+02  0.7818608E-02  0.1130116E+00
         25   -1    0    0    0    0  0.00000000000E+00  0.00000000000E+00  0.99999998245E-14  0.12500000000E+03  0.12500000000E+03 0.  0.
        -11    1    3    3    0    0  0.84962184062E+01  0.31227942960E+02  0.37496357446E+02  0.49531272654E+02  0.51100000000E-03 0.  1.
         23    2    1    0    0    0 -0.17527376941E+02 -0.39175009526E+01  0.23449030512E+02  0.95463365322E+02  0.90779079807E+02 0.  0.
         11    1    3    3    0    0 -0.26023595347E+02 -0.35145443913E+02 -0.14047326934E+02  0.45932092668E+02  0.51100000000E-03 0. -1.
         22    1    1    0    0    0  0.17527376941E+02  0.39175009526E+01 -0.23449030512E+02  0.29536634678E+02  0.00000000000E+00 0. -1.
</event>
<event>
 5    1  0.8907853E-005  0.9118800E+02  0.7818608E-02  0.1130116E+00
         25   -1    0    0    0    0  0.00000000000E+00  0.00000000000E+00  0.99999998245E-14  0.12500000000E+03  0.12500000000E+03 0.  0.
        -11    1    3    3    0    0 -0.50013462137E+02  0.19325969672E+02 -0.38173696133E+01  0.53753249294E+02  0.51100000000E-03 0. -1.
         23    2    1    0    0    0 -0.11076411362E+02  0.21967873974E+02  0.14042306859E+02  0.96672261694E+02  0.92428704543E+02 0.  0.
         11    1    3    3    0    0  0.38937050775E+02  0.26419043024E+01  0.17859676473E+02  0.42919012399E+02  0.51100000000E-03 0.  1.
         22    1    1    0    0    0  0.11076411362E+02 -0.21967873974E+02 -0.14042306859E+02  0.28327738306E+02  0.00000000000E+00 0. -1.
</event>
<event>
 5    1  0.8907853E-005  0.9118800E+02  0.7818608E-02  0.1130116E+00
         25   -1    0    0    0    0  0.00000000000E+00  0.00000000000E+00  0.99999998245E-14  0.12500000000E+03  0.12500000000E+03 0.  0.
        -11    1    3    3    0    0 -0.19912422957E+02  0.50442237286E+02  0.30983420904E+02  0.62457155408E+02  0.51100000000E-03 0.  1.
         23    2    1    0    0    0 -0.78283828088E+01  0.22781204219E+02  0.12359065718E+02  0.97925780741E+02  0.94108688150E+02 0.  0.
         11    1    3    3    0    0  0.12084040148E+02 -0.27661033068E+02 -0.18624355186E+02  0.35468625333E+02  0.51100000000E-03 0. -1.
         22    1    1    0    0    0  0.78283828088E+01 -0.22781204219E+02 -0.12359065718E+02  0.27074219259E+02  0.00000000000E+00 0.  1.
</event>
<event>
 5    1  0.8907853E-005  0.9118800E+02  0.7818608E-02  0.1130116E+00
         25   -1    0    0    0    0  0.00000000000E+00  0.00000000000E+00  0.99999998245E-14  0.12500000000E+03  0.12500000000E+03 0.  0.
        -11    1    3    3    0    0  0.26385508165E+02  0.13563495477E+02  0.20560368814E+02  0.36095598301E+02  0.51100000000E-03 0.  1.
         23    2    1    0    0    0 -0.22302958573E+02 -0.17824377848E+02  0.75635534371E+01  0.95464635648E+02  0.90780828990E+02 0.  0.
         11    1    3    3    0    0 -0.48688466739E+02 -0.31387873326E+02 -0.12996815377E+02  0.59369037347E+02  0.51100000000E-03 0. -1.
         22    1    1    0    0    0  0.22302958573E+02  0.17824377848E+02 -0.75635534371E+01  0.29535364352E+02  0.00000000000E+00 0. -1.
</event>
<event>
 5    1  0.8907853E-005  0.9118800E+02  0.7818608E-02  0.1130116E+00
         25   -1    0    0    0    0  0.00000000000E+00  0.00000000000E+00  0.99999998245E-14  0.12500000000E+03  0.12500000000E+03 0.  0.
        -11    1    3    3    0    0  0.33744422847E+02  0.26038548250E+02  0.45536221231E+02  0.62371784586E+02  0.51100000000E-03 0.  1.
         23    2    1    0    0    0  0.16589959308E+02  0.13521588417E+02  0.18816925821E+02  0.96501986025E+02  0.92198137217E+02 0.  0.
         11    1    3    3    0    0 -0.17154463539E+02 -0.12516959833E+02 -0.26719295410E+02  0.34130201439E+02  0.51100000000E-03 0. -1.
         22    1    1    0    0    0 -0.16589959308E+02 -0.13521588417E+02 -0.18816925821E+02  0.28498013975E+02  0.00000000000E+00 0.  1.
</event>
<event>
 5    1  0.8907853E-005  0.9118800E+02  0.7818608E-02  0.1130116E+00
         25   -1    0    0    0    0  0.00000000000E+00  0.00000000000E+00  0.99999998245E-14  0.12500000000E+03  0.12500000000E+03 0.  0.
        -11    1    3    3    0    0  0.36267153800E+02 -0.26960212279E+01 -0.16068973453E+02  0.39759110696E+02  0.51100000000E-03 0.  1.
         23    2    1    0    0    0  0.47979596096E+01 -0.13106463931E+02  0.27296855391E+02  0.94341915790E+02  0.89221516169E+02 0.  0.
         11    1    3    3    0    0 -0.31469194190E+02 -0.10410442703E+02  0.43365828845E+02  0.54582805094E+02  0.51100000000E-03 0. -1.
         22    1    1    0    0    0 -0.47979596096E+01  0.13106463931E+02 -0.27296855391E+02  0.30658084210E+02  0.00000000000E+00 0.  1.
</event>
<event>
 5    1  0.8907853E-005  0.9118800E+02  0.7818608E-02  0.1130116E+00
         25   -1    0    0    0    0  0.00000000000E+00  0.00000000000E+00  0.99999998245E-14  0.12500000000E+03  0.12500000000E+03 0.  0.
        -11    1    3    3    0    0 -0.46414227477E+02 -0.12199419345E+02 -0.38201958557E+01  0.48142499325E+02  0.51100000000E-03 0.  1.
         23    2    1    0    0    0 -0.13382891321E+02  0.11313742970E+02  0.22499126729E+02  0.96481352352E+02  0.92170158337E+02 0.  0.
         11    1    3    3    0    0  0.33031336156E+02  0.23513162316E+02  0.26319322585E+02  0.48338853026E+02  0.51100000000E-03 0. -1.
         22    1    1    0    0    0  0.13382891321E+02 -0.11313742970E+02 -0.22499126729E+02  0.28518647648E+02  0.00000000000E+00 0. -1.
</event>
<event>
 5    1  0.8907853E-005  0.9118800E+02  0.7818608E-02  0.1130116E+00
         25   -1    0    0    0    0  0.00000000000E+00  0.00000000000E+00  0.99999998245E-14  0.12500000000E+03  0.12500000000E+03 0.  0.
        -11    1    3    3    0    0 -0.17145153501E+02 -0.11920708394E+02 -0.38755174309E+02  0.44022983919E+02  0.51100000000E-03 0.  1.
         23    2    1    0    0    0 -0.16293392651E+02 -0.18336513388E+01  0.17405036882E+02  0.10108824076E+03  0.98219449138E+02 0.  0.
         11    1    3    3    0    0  0.85176085033E+00  0.10087057056E+02  0.56160211190E+02  0.57065256836E+02  0.51100000000E-03 0. -1.
         22    1    1    0    0    0  0.16293392651E+02  0.18336513388E+01 -0.17405036882E+02  0.23911759244E+02  0.00000000000E+00 0.  1.
</event>
<event>
 5    1  0.8907853E-005  0.9118800E+02  0.7818608E-02  0.1130116E+00
         25   -1    0    0    0    0  0.00000000000E+00  0.00000000000E+00  0.99999998245E-14  0.12500000000E+03  0.12500000000E+03 0.  0.
        -11    1    3    3    0    0 -0.24609070715E+02 -0.20107710962E+02  0.50789209144E+02  0.59912187135E+02  0.51100000000E-03 0.  1.
         23    2    1    0    0    0 -0.22209366433E+02 -0.10624264763E+02  0.17019622582E+02  0.95070106717E+02  0.90235950038E+02 0.  0.
         11    1    3    3    0    0  0.23997042826E+01  0.94834461987E+01 -0.33769586562E+02  0.35157919582E+02  0.51100000000E-03 0. -1.
         22    1    1    0    0    0  0.22209366433E+02  0.10624264763E+02 -0.17019622582E+02  0.29929893283E+02  0.00000000000E+00 0.  1.
</event>
<event>
 5    1  0.8907853E-005  0.9118800E+02  0.7818608E-02  0.1130116E+00
         25   -1    0    0    0    0  0.00000000000E+00  0.00000000000E+00  0.99999998245E-14  0.12500000000E+03  0.12500000000E+03 0.  0.
        -11    1    3    3    0    0 -0.87775767345E+01 -0.60407747469E+01 -0.37016408936E+02  0.38519493034E+02  0.51100000000E-03 0.  1.
         23    2    1    0    0    0 -0.74873157242E+01 -0.27477826551E+02  0.13552844261E+02  0.93460018448E+02  0.87977296003E+02 0.  0.
         11    1    3    3    0    0  0.12902610103E+01 -0.21437051804E+02  0.50569253197E+02  0.54940525414E+02  0.51100000000E-03 0. -1.
         22    1    1    0    0    0  0.74873157242E+01  0.27477826551E+02 -0.13552844261E+02  0.31539981552E+02  0.00000000000E+00 0.  1.
</event>
<event>
 5    1  0.8907853E-005  0.9118800E+02  0.7818608E-02  0.1130116E+00
         25   -1    0    0    0    0  0.00000000000E+00  0.00000000000E+00  0.99999998245E-14  0.12500000000E+03  0.12500000000E+03 0.  0.
        -11    1    3    3    0    0  0.38103583974E+02 -0.34890271212E+02 -0.16474592861E+02  0.54227542330E+02  0.51100000000E-03 0.  1.
         23    2    1    0    0    0  0.17847051379E+02 -0.13785957187E+02  0.15554325371E+02  0.97604619071E+02  0.93681133468E+02 0.  0.
         11    1    3    3    0    0 -0.20256532595E+02  0.21104314025E+02  0.32028918232E+02  0.43377076741E+02  0.51100000000E-03 0. -1.
         22    1    1    0    0    0 -0.17847051379E+02  0.13785957187E+02 -0.15554325371E+02  0.27395380929E+02  0.00000000000E+00 0.  1.
</event>
<event>
 5    1  0.8907853E-005  0.9118800E+02  0.7818608E-02  0.1130116E+00
         25   -1    0    0    0    0  0.00000000000E+00  0.00000000000E+00  0.99999998245E-14  0.12500000000E+03  0.12500000000E+03 0.  0.
        -11    1    3    3    0    0 -0.76185346543E+01 -0.46056562660E+02 -0.96143501340E+01  0.47662194275E+02  0.51100000000E-03 0. -1.
         23    2    1    0    0    0  0.25967439387E+02 -0.16229059795E+02  0.27596168029E+01  0.94254174673E+02  0.89098505422E+02 0.  0.
         11    1    3    3    0    0  0.33585974041E+02  0.29827502865E+02  0.12373966937E+02  0.46591980399E+02  0.51100000000E-03 0.  1.
         22    1    1    0    0    0 -0.25967439387E+02  0.16229059795E+02 -0.27596168029E+01  0.30745825327E+02  0.00000000000E+00 0. -1.
</event>
<event>
 5    1  0.8907853E-005  0.9118800E+02  0.7818608E-02  0.1130116E+00
         25   -1    0    0    0    0  0.00000000000E+00  0.00000000000E+00  0.99999998245E-14  0.12500000000E+03  0.12500000000E+03 0.  0.
        -11    1    3    3    0    0  0.37880316074E+02 -0.23253728454E+02 -0.39033528465E+02  0.59154632765E+02  0.51100000000E-03 0. -1.
         23    2    1    0    0    0  0.20708997780E+02  0.32155243011E+01 -0.20162280118E+02  0.95918739279E+02  0.91403965011E+02 0.  0.
         11    1    3    3    0    0 -0.17171318293E+02  0.26469252755E+02  0.18871248347E+02  0.36764106514E+02  0.51100000000E-03 0.  1.
         22    1    1    0    0    0 -0.20708997780E+02 -0.32155243011E+01  0.20162280118E+02  0.29081260721E+02  0.00000000000E+00 0. -1.
</event>
<event>
 5    1  0.8907853E-005  0.9118800E+02  0.7818608E-02  0.1130116E+00
         25   -1    0    0    0    0  0.00000000000E+00  0.00000000000E+00  0.99999998245E-14  0.12500000000E+03  0.12500000000E+03 0.  0.
        -11    1    3    3    0    0  0.20899409648E+02  0.23532183423E+02 -0.18339749259E+02  0.36426575236E+02  0.51100000000E-03 0.  1.
         23    2    1    0    0    0 -0.29092665364E+02  0.15901613902E+02  0.37930563161E+01  0.91628878069E+02  0.85335921612E+02 0.  0.
         11    1    3    3    0    0 -0.49992075012E+02 -0.76305695206E+01  0.22132805575E+02  0.55202302833E+02  0.51100000000E-03 0. -1.
         22    1    1    0    0    0  0.29092665364E+02 -0.15901613902E+02 -0.37930563161E+01  0.33371121931E+02  0.00000000000E+00 0. -1.
</event>
<event>
 5    1  0.8907853E-005  0.9118800E+02  0.7818608E-02  0.1130116E+00
         25   -1    0    0    0    0  0.00000000000E+00  0.00000000000E+00  0.99999998245E-14  0.12500000000E+03  0.12500000000E+03 0.  0.
        -11    1    3    3    0    0 -0.91372621928E+01  0.41293270546E+02 -0.42383289533E+02  0.59874593816E+02  0.51100000000E-03 0.  1.
         23    2    1    0    0    0 -0.11219335809E+02  0.10452151914E+02 -0.25887643553E+02  0.94911944823E+02  0.90016588503E+02 0.  0.
         11    1    3    3    0    0 -0.20820736160E+01 -0.30841118632E+02  0.16495645980E+02  0.35037351007E+02  0.51100000000E-03 0. -1.
         22    1    1    0    0    0  0.11219335809E+02 -0.10452151914E+02  0.25887643553E+02  0.30088055177E+02  0.00000000000E+00 0.  1.
</event>
<event>
 5    1  0.8907853E-005  0.9118800E+02  0.7818608E-02  0.1130116E+00
         25   -1    0    0    0    0  0.00000000000E+00  0.00000000000E+00  0.99999998245E-14  0.12500000000E+03  0.12500000000E+03 0.  0.
        -11    1    3    3    0    0 -0.24081262450E+02 -0.21391414164E+02  0.23572301261E+02  0.39914323095E+02  0.51100000000E-03 0.  1.
         23    2    1    0    0    0 -0.17869707861E+02  0.20958195531E+02 -0.11404080798E+02  0.95190178166E+02  0.90402126864E+02 0.  0.
         11    1    3    3    0    0  0.62115545898E+01  0.42349609694E+02 -0.34976382059E+02  0.55275855071E+02  0.51100000000E-03 0. -1.
         22    1    1    0    0    0  0.17869707861E+02 -0.20958195531E+02  0.11404080798E+02  0.29809821834E+02  0.00000000000E+00 0. -1.
</event>
<event>
 5    1  0.8907853E-005  0.9118800E+02  0.7818608E-02  0.1130116E+00
         25   -1    0    0    0    0  0.00000000000E+00  0.00000000000E+00  0.99999998245E-14  0.12500000000E+03  0.12500000000E+03 0.  0.
        -11    1    3    3    0    0  0.55166044087E+02  0.26648585889E+02  0.25817054353E+01  0.61319693030E+02  0.51100000000E-03 0.  1.
         23    2    1    0    0    0  0.47993610560E+02  0.16853754180E+02 -0.14521145275E+01  0.74112434513E+02  0.53880503230E+02 0.  0.
         11    1    3    3    0    0 -0.71724335271E+01 -0.97948317088E+01 -0.40338199629E+01  0.12792741483E+02  0.51100000000E-03 0. -1.
         22    1    1    0    0    0 -0.47993610560E+02 -0.16853754180E+02  0.14521145275E+01  0.50887565487E+02  0.00000000000E+00 0.  1.
</event>
<event>
 5    1  0.8907853E-005  0.9118800E+02  0.7818608E-02  0.1130116E+00
         25   -1    0    0    0    0  0.00000000000E+00  0.00000000000E+00  0.99999998245E-14  0.12500000000E+03  0.12500000000E+03 0.  0.
        -11    1    3    3    0    0  0.26294706904E+02  0.43889670824E+01 -0.28985860910E+02  0.39380893542E+02  0.51100000000E-03 0.  1.
         23    2    1    0    0    0 -0.24096573353E+02 -0.94613664790E+01 -0.59322241867E-01  0.99112438853E+02  0.95671885700E+02 0.  0.
         11    1    3    3    0    0 -0.50391280257E+02 -0.13850333561E+02  0.28926538668E+02  0.59731545311E+02  0.51100000000E-03 0. -1.
         22    1    1    0    0    0  0.24096573353E+02  0.94613664790E+01  0.59322241867E-01  0.25887561147E+02  0.00000000000E+00 0. -1.
</event>
<event>
 5    1  0.8907853E-005  0.9118800E+02  0.7818608E-02  0.1130116E+00
         25   -1    0    0    0    0  0.00000000000E+00  0.00000000000E+00  0.99999998245E-14  0.12500000000E+03  0.12500000000E+03 0.  0.
        -11    1    3    3    0    0 -0.38971204847E+02  0.47115137831E+02  0.72910221094E+01  0.61577187527E+02  0.51100000000E-03 0. -1.
         23    2    1    0    0    0 -0.24228869648E+02  0.17394668222E+02  0.34243091119E+01  0.94977699957E+02  0.90107851984E+02 0.  0.
         11    1    3    3    0    0  0.14742335199E+02 -0.29720469609E+02 -0.38667129974E+01  0.33400512430E+02  0.51100000000E-03 0.  1.
         22    1    1    0    0    0  0.24228869648E+02 -0.17394668222E+02 -0.34243091119E+01  0.30022300043E+02  0.00000000000E+00 0. -1.
</event>
<event>
 5    1  0.8907853E-005  0.9118800E+02  0.7818608E-02  0.1130116E+00
         25   -1    0    0    0    0  0.00000000000E+00  0.00000000000E+00  0.99999998245E-14  0.12500000000E+03  0.12500000000E+03 0.  0.
        -11    1    3    3    0    0 -0.12851760485E+02  0.50233934405E+02  0.98247033193E+01  0.52774432341E+02  0.51100000000E-03 0. -1.
         23    2    1    0    0    0 -0.14335973404E+02  0.28047082167E+01  0.18926470449E+02  0.10109188830E+03  0.98224091107E+02 0.  0.
         11    1    3    3    0    0 -0.14842129193E+01 -0.47429226188E+02  0.91017671293E+01  0.48317455955E+02  0.51100000000E-03 0.  1.
         22    1    1    0    0    0  0.14335973404E+02 -0.28047082167E+01 -0.18926470449E+02  0.23908111704E+02  0.00000000000E+00 0. -1.
</event>
<event>
 5    1  0.8907853E-005  0.9118800E+02  0.7818608E-02  0.1130116E+00
         25   -1    0    0    0    0  0.00000000000E+00  0.00000000000E+00  0.99999998245E-14  0.12500000000E+03  0.12500000000E+03 0.  0.
        -11    1    3    3    0    0  0.32637597565E+02  0.13307412448E+02  0.44303931752E+02  0.56613941480E+02  0.51100000000E-03 0. -1.
         23    2    1    0    0    0  0.97219271370E+01 -0.12231147747E+02  0.23624697548E+02  0.96676102375E+02  0.92433898510E+02 0.  0.
         11    1    3    3    0    0 -0.22915670428E+02 -0.25538560196E+02 -0.20679234205E+02  0.40062160895E+02  0.51100000000E-03 0.  1.
         22    1    1    0    0    0 -0.97219271370E+01  0.12231147747E+02 -0.23624697548E+02  0.28323897625E+02  0.00000000000E+00 0. -1.
</event>
<event>
 5    1  0.8907853E-005  0.9118800E+02  0.7818608E-02  0.1130116E+00
         25   -1    0    0    0    0  0.00000000000E+00  0.00000000000E+00  0.99999998245E-14  0.12500000000E+03  0.12500000000E+03 0.  0.
        -11    1    3    3    0    0  0.20591149377E+02 -0.25130601018E+02 -0.22267571161E+02  0.39387653724E+02  0.51100000000E-03 0.  1.
         23    2    1    0    0    0 -0.21840912497E+02 -0.11594112799E+02  0.13785125745E+02  0.96689602580E+02  0.92452153274E+02 0.  0.
         11    1    3    3    0    0 -0.42432061874E+02  0.13536488219E+02  0.36052696906E+02  0.57301948856E+02  0.51100000000E-03 0. -1.
         22    1    1    0    0    0  0.21840912497E+02  0.11594112799E+02 -0.13785125745E+02  0.28310397420E+02  0.00000000000E+00 0. -1.
</event>
<event>
 5    1  0.8907853E-005  0.9118800E+02  0.7818608E-02  0.1130116E+00
         25   -1    0    0    0    0  0.00000000000E+00  0.00000000000E+00  0.99999998245E-14  0.12500000000E+03  0.12500000000E+03 0.  0.
        -11    1    3    3    0    0  0.16846903575E+02  0.45421152844E+02  0.30253533250E+02  0.57115458154E+02  0.51100000000E-03 0. -1.
         23    2    1    0    0    0  0.21817589917E+02  0.12859494045E+02  0.22880641226E+02  0.90869404345E+02  0.84216097548E+02 0.  0.
         11    1    3    3    0    0  0.49706863419E+01 -0.32561658798E+02 -0.73728920239E+01  0.33753946191E+02  0.51100000000E-03 0.  1.
         22    1    1    0    0    0 -0.21817589917E+02 -0.12859494045E+02 -0.22880641226E+02  0.34130595655E+02  0.00000000000E+00 0. -1.
</event>
<event>
 5    1  0.8907853E-005  0.9118800E+02  0.7818608E-02  0.1130116E+00
         25   -1    0    0    0    0  0.00000000000E+00  0.00000000000E+00  0.99999998245E-14  0.12500000000E+03  0.12500000000E+03 0.  0.
        -11    1    3    3    0    0  0.29468711746E+02 -0.30137479886E+02  0.78661091243E+01  0.42878296828E+02  0.51100000000E-03 0.  1.
         23    2    1    0    0    0 -0.21529192519E+02 -0.20501567928E+02  0.77465396487E+00  0.95260791759E+02  0.90499712374E+02 0.  0.
         11    1    3    3    0    0 -0.50997904265E+02  0.96359119576E+01 -0.70914551594E+01  0.52382494931E+02  0.51100000000E-03 0. -1.
         22    1    1    0    0    0  0.21529192519E+02  0.20501567928E+02 -0.77465396487E+00  0.29739208241E+02  0.00000000000E+00 0.  1.
</event>
<event>
 5    1  0.8907853E-005  0.9118800E+02  0.7818608E-02  0.1130116E+00
         25   -1    0    0    0    0  0.00000000000E+00  0.00000000000E+00  0.99999998245E-14  0.12500000000E+03  0.12500000000E+03 0.  0.
        -11    1    3    3    0    0 -0.38573307630E+02  0.31502784390E+02 -0.17402628465E+02  0.52755823978E+02  0.51100000000E-03 0.  1.
         23    2    1    0    0    0 -0.19235405007E+02 -0.86235413436E+01 -0.17966432057E+02  0.97302365589E+02  0.93276960699E+02 0.  0.
         11    1    3    3    0    0  0.19337902623E+02 -0.40126325734E+02 -0.56380359157E+00  0.44546541611E+02  0.51100000000E-03 0. -1.
         22    1    1    0    0    0  0.19235405007E+02  0.86235413436E+01  0.17966432057E+02  0.27697634411E+02  0.00000000000E+00 0.  1.
</event>
<event>
 5    1  0.8907853E-005  0.9118800E+02  0.7818608E-02  0.1130116E+00
         25   -1    0    0    0    0  0.00000000000E+00  0.00000000000E+00  0.99999998245E-14  0.12500000000E+03  0.12500000000E+03 0.  0.
        -11    1    3    3    0    0 -0.40336142091E+02 -0.32039615940E+02 -0.21238110116E+01  0.51556298566E+02  0.51100000000E-03 0. -1.
         23    2    1    0    0    0 -0.67630629640E+00 -0.26044645838E+02  0.14738140804E+02  0.95066845115E+02  0.90231431767E+02 0.  0.
         11    1    3    3    0    0  0.39659835794E+02  0.59949701021E+01  0.16861951815E+02  0.43510546549E+02  0.51100000000E-03 0.  1.
         22    1    1    0    0    0  0.67630629640E+00  0.26044645838E+02 -0.14738140804E+02  0.29933154885E+02  0.00000000000E+00 0.  1.
</event>
<event>
 5    1  0.8907853E-005  0.9118800E+02  0.7818608E-02  0.1130116E+00
         25   -1    0    0    0    0  0.00000000000E+00  0.00000000000E+00  0.99999998245E-14  0.12500000000E+03  0.12500000000E+03 0.  0.
        -11    1    3    3    0    0 -0.23083087896E+02  0.23903565997E+02  0.13184056009E+02  0.35749527931E+02  0.51100000000E-03 0. -1.
         23    2    1    0    0    0  0.34042959343E+01 -0.27055983448E+02 -0.73756498852E+01  0.96750828642E+02  0.92534896988E+02 0.  0.
         11    1    3    3    0    0  0.26487383830E+02 -0.50959549445E+02 -0.20559705894E+02  0.61001300712E+02  0.51100000000E-03 0.  1.
         22    1    1    0    0    0 -0.34042959343E+01  0.27055983448E+02  0.73756498852E+01  0.28249171358E+02  0.00000000000E+00 0.  1.
</event>
<event>
 5    1  0.8907853E-005  0.9118800E+02  0.7818608E-02  0.1130116E+00
         25   -1    0    0    0    0  0.00000000000E+00  0.00000000000E+00  0.99999998245E-14  0.12500000000E+03  0.12500000000E+03 0.  0.
        -11    1    3    3    0    0 -0.38417882352E+02  0.34482735410E+02  0.36024327957E+01  0.51749108669E+02  0.51100000000E-03 0. -1.
         23    2    1    0    0    0 -0.28457360488E+02 -0.78521422124E+01  0.37636280195E+01  0.95240255392E+02  0.90471342689E+02 0.  0.
         11    1    3    3    0    0  0.99605218635E+01 -0.42334877622E+02  0.16119522383E+00  0.43491146722E+02  0.51100000000E-03 0.  1.
         22    1    1    0    0    0  0.28457360488E+02  0.78521422124E+01 -0.37636280195E+01  0.29759744608E+02  0.00000000000E+00 0. -1.
</event>
<event>
 5    1  0.8907853E-005  0.9118800E+02  0.7818608E-02  0.1130116E+00
         25   -1    0    0    0    0  0.00000000000E+00  0.00000000000E+00  0.99999998245E-14  0.12500000000E+03  0.12500000000E+03 0.  0.
        -11    1    3    3    0    0  0.39974460745E+01  0.30414467201E+01  0.42917710738E+02  0.43210645315E+02  0.51100000000E-03 0.  1.
         23    2    1    0    0    0 -0.24095225552E+02 -0.15184525009E+02  0.14897001637E+01  0.96480376918E+02  0.92168835457E+02 0.  0.
         11    1    3    3    0    0 -0.28092671627E+02 -0.18225971729E+02 -0.41428010575E+02  0.53269731603E+02  0.51100000000E-03 0. -1.
         22    1    1    0    0    0  0.24095225552E+02  0.15184525009E+02 -0.14897001637E+01  0.28519623082E+02  0.00000000000E+00 0. -1.
</event>
<event>
 5    1  0.8907853E-005  0.9118800E+02  0.7818608E-02  0.1130116E+00
         25   -1    0    0    0    0  0.00000000000E+00  0.00000000000E+00  0.99999998245E-14  0.12500000000E+03  0.12500000000E+03 0.  0.
        -11    1    3    3    0    0  0.17586019856E+02  0.32717523679E+02 -0.10338770387E+02  0.38556382396E+02  0.51100000000E-03 0. -1.
         23    2    1    0    0    0 -0.21611030024E+02 -0.91486647691E+01 -0.16608860303E+02  0.96249540416E+02  0.91855239938E+02 0.  0.
         11    1    3    3    0    0 -0.39197049880E+02 -0.41866188448E+02 -0.62700899158E+01  0.57693158020E+02  0.51100000000E-03 0.  1.
         22    1    1    0    0    0  0.21611030024E+02  0.91486647691E+01  0.16608860303E+02  0.28750459584E+02  0.00000000000E+00 0.  1.
</event>
<event>
 5    1  0.8907853E-005  0.9118800E+02  0.7818608E-02  0.1130116E+00
         25   -1    0    0    0    0  0.00000000000E+00  0.00000000000E+00  0.99999998245E-14  0.12500000000E+03  0.12500000000E+03 0.  0.
        -11    1    3    3    0    0  0.24389876163E+02 -0.10921371929E+02 -0.29469621808E+02  0.39781918428E+02  0.51100000000E-03 0.  1.
         23    2    1    0    0    0 -0.95590047938E+01 -0.27804949516E+02  0.94493254036E+01  0.94116678598E+02  0.88905397190E+02 0.  0.
         11    1    3    3    0    0 -0.33948880957E+02 -0.16883577587E+02  0.38918947211E+02  0.54334760170E+02  0.51100000000E-03 0. -1.
         22    1    1    0    0    0  0.95590047938E+01  0.27804949516E+02 -0.94493254036E+01  0.30883321402E+02  0.00000000000E+00 0. -1.
</event>
<event>
 5    1  0.8907853E-005  0.9118800E+02  0.7818608E-02  0.1130116E+00
         25   -1    0    0    0    0  0.00000000000E+00  0.00000000000E+00  0.99999998245E-14  0.12500000000E+03  0.12500000000E+03 0.  0.
        -11    1    3    3    0    0 -0.23853267997E+02  0.52582242037E+02  0.87089622934E+01  0.58392778631E+02  0.51100000000E-03 0.  1.
         23    2    1    0    0    0  0.36394335474E+01  0.25972240006E+02  0.10627986178E+02  0.96702353143E+02  0.92469391074E+02 0.  0.
         11    1    3    3    0    0  0.27492701544E+02 -0.26610002031E+02  0.19190238845E+01  0.38309574511E+02  0.51100000000E-03 0. -1.
         22    1    1    0    0    0 -0.36394335474E+01 -0.25972240006E+02 -0.10627986178E+02  0.28297646857E+02  0.00000000000E+00 0.  1.
</event>
<event>
 5    1  0.8907853E-005  0.9118800E+02  0.7818608E-02  0.1130116E+00
         25   -1    0    0    0    0  0.00000000000E+00  0.00000000000E+00  0.99999998245E-14  0.12500000000E+03  0.12500000000E+03 0.  0.
        -11    1    3    3    0    0 -0.13509839579E+02  0.22446805649E+02  0.37723818732E+02  0.45928872720E+02  0.51100000000E-03 0. -1.
         23    2    1    0    0    0 -0.27931879778E+01 -0.22282447486E+02  0.18980632910E+02  0.95596364328E+02  0.90962030992E+02 0.  0.
         11    1    3    3    0    0  0.10716651602E+02 -0.44729253136E+02 -0.18743185823E+02  0.49667491608E+02  0.51100000000E-03 0.  1.
         22    1    1    0    0    0  0.27931879778E+01  0.22282447486E+02 -0.18980632910E+02  0.29403635672E+02  0.00000000000E+00 0.  1.
</event>
<event>
 5    1  0.8907853E-005  0.9118800E+02  0.7818608E-02  0.1130116E+00
         25   -1    0    0    0    0  0.00000000000E+00  0.00000000000E+00  0.99999998245E-14  0.12500000000E+03  0.12500000000E+03 0.  0.
        -11    1    3    3    0    0 -0.11071915467E+02 -0.31111974122E+02  0.19694938615E+02  0.38450394708E+02  0.51100000000E-03 0.  1.
         23    2    1    0    0    0  0.16712306243E+02  0.19855507456E+02  0.93546655055E+01  0.97412826839E+02  0.93424872008E+02 0.  0.
         11    1    3    3    0    0  0.27784221710E+02  0.50967481579E+02 -0.10340273110E+02  0.58962432130E+02  0.51100000000E-03 0. -1.
         22    1    1    0    0    0 -0.16712306243E+02 -0.19855507456E+02 -0.93546655055E+01  0.27587173161E+02  0.00000000000E+00 0. -1.
</event>
<event>
 5    1  0.8907853E-005  0.9118800E+02  0.7818608E-02  0.1130116E+00
         25   -1    0    0    0    0  0.00000000000E+00  0.00000000000E+00  0.99999998245E-14  0.12500000000E+03  0.12500000000E+03 0.  0.
        -11    1    3    3    0    0 -0.26372071186E+01 -0.37780479912E+02 -0.11138074773E+01  0.37888785823E+02  0.51100000000E-03 0.  1.
         23    2    1    0    0    0  0.22593276726E+02  0.14364661005E+02  0.91240974554E+01  0.96714866212E+02  0.92486304678E+02 0.  0.
         11    1    3    3    0    0  0.25230483845E+02  0.52145140917E+02  0.10237904933E+02  0.58826080389E+02  0.51100000000E-03 0. -1.
         22    1    1    0    0    0 -0.22593276726E+02 -0.14364661005E+02 -0.91240974554E+01  0.28285133788E+02  0.00000000000E+00 0. -1.
</event>
<event>
 5    1  0.8907853E-005  0.9118800E+02  0.7818608E-02  0.1130116E+00
         25   -1    0    0    0    0  0.00000000000E+00  0.00000000000E+00  0.99999998245E-14  0.12500000000E+03  0.12500000000E+03 0.  0.
        -11    1    3    3    0    0  0.44818908253E+02 -0.16684657160E+02 -0.12883362031E+02  0.49528712268E+02  0.51100000000E-03 0.  1.
         23    2    1    0    0    0  0.73948611166E+01  0.17680045535E+01 -0.29570397791E+02  0.94467750877E+02  0.89397638219E+02 0.  0.
         11    1    3    3    0    0 -0.37424047136E+02  0.18452661713E+02 -0.16687035759E+02  0.44939038608E+02  0.51100000000E-03 0. -1.
         22    1    1    0    0    0 -0.73948611166E+01 -0.17680045535E+01  0.29570397791E+02  0.30532249123E+02  0.00000000000E+00 0. -1.
</event>
<event>
 5    1  0.8907853E-005  0.9118800E+02  0.7818608E-02  0.1130116E+00
         25   -1    0    0    0    0  0.00000000000E+00  0.00000000000E+00  0.99999998245E-14  0.12500000000E+03  0.12500000000E+03 0.  0.
        -11    1    3    3    0    0  0.26315241209E+01 -0.17292936881E+02 -0.34314838352E+02  0.38515954052E+02  0.51100000000E-03 0. -1.
         23    2    1    0    0    0 -0.21971566177E+02 -0.15642183303E+02  0.15351166593E+02  0.93966374132E+02  0.88693819023E+02 0.  0.
         11    1    3    3    0    0 -0.24603090298E+02  0.16507535778E+01  0.49666004945E+02  0.55450420080E+02  0.51100000000E-03 0.  1.
         22    1    1    0    0    0  0.21971566177E+02  0.15642183303E+02 -0.15351166593E+02  0.31033625868E+02  0.00000000000E+00 0.  1.
</event>
<event>
 5    1  0.8907853E-005  0.9118800E+02  0.7818608E-02  0.1130116E+00
         25   -1    0    0    0    0  0.00000000000E+00  0.00000000000E+00  0.99999998245E-14  0.12500000000E+03  0.12500000000E+03 0.  0.
        -11    1    3    3    0    0  0.56617423184E+02  0.51370978267E+01 -0.25836448117E+02  0.62445531735E+02  0.51100000000E-03 0.  1.
         23    2    1    0    0    0  0.24876885832E+02  0.40297362710E+01 -0.11972081344E+02  0.97099660309E+02  0.93004919641E+02 0.  0.
         11    1    3    3    0    0 -0.31740537352E+02 -0.11073615558E+01  0.13864366773E+02  0.34654128575E+02  0.51100000000E-03 0. -1.
         22    1    1    0    0    0 -0.24876885832E+02 -0.40297362710E+01  0.11972081344E+02  0.27900339691E+02  0.00000000000E+00 0.  1.
</event>
<event>
 5    1  0.8907853E-005  0.9118800E+02  0.7818608E-02  0.1130116E+00
         25   -1    0    0    0    0  0.00000000000E+00  0.00000000000E+00  0.99999998245E-14  0.12500000000E+03  0.12500000000E+03 0.  0.
        -11    1    3    3    0    0 -0.73899436298E+01 -0.56101193133E+01 -0.57875385785E+02  0.58614375247E+02  0.51100000000E-03 0. -1.
         23    2    1    0    0    0  0.61377578353E+01 -0.14895811790E+02 -0.28814241303E+02  0.91987611689E+02  0.85859786409E+02 0.  0.
         11    1    3    3    0    0  0.13527701465E+02 -0.92856924769E+01  0.29061144482E+02  0.33373236441E+02  0.51100000000E-03 0.  1.
         22    1    1    0    0    0 -0.61377578353E+01  0.14895811790E+02  0.28814241303E+02  0.33012388311E+02  0.00000000000E+00 0. -1.
</event>
<event>
 5    1  0.8907853E-005  0.9118800E+02  0.7818608E-02  0.1130116E+00
         25   -1    0    0    0    0  0.00000000000E+00  0.00000000000E+00  0.99999998245E-14  0.12500000000E+03  0.12500000000E+03 0.  0.
        -11    1    3    3    0    0 -0.21795867147E+02  0.25290000436E+02  0.12986070214E+02  0.35822925154E+02  0.51100000000E-03 0. -1.
         23    2    1    0    0    0  0.20541736547E+02 -0.18262008464E+02  0.37983321877E+01  0.97253086281E+02  0.93210898345E+02 0.  0.
         11    1    3    3    0    0  0.42337603694E+02 -0.43552008900E+02 -0.91877380261E+01  0.61430161127E+02  0.51100000000E-03 0.  1.
         22    1    1    0    0    0 -0.20541736547E+02  0.18262008464E+02 -0.37983321877E+01  0.27746913719E+02  0.00000000000E+00 0.  1.
</event>
<event>
 5    1  0.8907853E-005  0.9118800E+02  0.7818608E-02  0.1130116E+00
         25   -1    0    0    0    0  0.00000000000E+00  0.00000000000E+00  0.99999998245E-14  0.12500000000E+03  0.12500000000E+03 0.  0.
        -11    1    3    3    0    0  0.36046021146E+02 -0.33809722955E+02  0.19150903560E+02  0.53001604826E+02  0.51100000000E-03 0. -1.
         23    2    1    0    0    0  0.17006783809E+02 -0.16050814596E+02 -0.15941885063E+02  0.96698002825E+02  0.92463510134E+02 0.  0.
         11    1    3    3    0    0 -0.19039237336E+02  0.17758908360E+02 -0.35092788623E+02  0.43696397999E+02  0.51100000000E-03 0.  1.
         22    1    1    0    0    0 -0.17006783809E+02  0.16050814596E+02  0.15941885063E+02  0.28301997175E+02  0.00000000000E+00 0. -1.
</event>
<event>
 5    1  0.8907853E-005  0.9118800E+02  0.7818608E-02  0.1130116E+00
         25   -1    0    0    0    0  0.00000000000E+00  0.00000000000E+00  0.99999998245E-14  0.12500000000E+03  0.12500000000E+03 0.  0.
        -11    1    3    3    0    0 -0.34302809510E+02 -0.19903569023E+01 -0.25670862257E+02  0.42890994744E+02  0.51100000000E-03 0. -1.
         23    2    1    0    0    0 -0.19951300956E+01  0.29289917745E+02  0.17997957922E+01  0.95587093130E+02  0.90949289621E+02 0.  0.
         11    1    3    3    0    0  0.32307679415E+02  0.31280274648E+02  0.27470658049E+02  0.52696098386E+02  0.51100000000E-03 0.  1.
         22    1    1    0    0    0  0.19951300956E+01 -0.29289917745E+02 -0.17997957922E+01  0.29412906870E+02  0.00000000000E+00 0.  1.
</event>
<event>
 5    1  0.8907853E-005  0.9118800E+02  0.7818608E-02  0.1130116E+00
         25   -1    0    0    0    0  0.00000000000E+00  0.00000000000E+00  0.99999998245E-14  0.12500000000E+03  0.12500000000E+03 0.  0.
        -11    1    3    3    0    0 -0.61603788221E+02  0.32014012997E+00 -0.50021750518E+01  0.61807369855E+02  0.51100000000E-03 0. -1.
         23    2    1    0    0    0 -0.29378491568E+02  0.42382465189E+01  0.27730004504E+01  0.95188122638E+02  0.90399284618E+02 0.  0.
         11    1    3    3    0    0  0.32225296653E+02  0.39181063890E+01  0.77751755022E+01  0.33380752783E+02  0.51100000000E-03 0.  1.
         22    1    1    0    0    0  0.29378491568E+02 -0.42382465189E+01 -0.27730004504E+01  0.29811877362E+02  0.00000000000E+00 0. -1.
</event>
<event>
 5    1  0.8907853E-005  0.9118800E+02  0.7818608E-02  0.1130116E+00
         25   -1    0    0    0    0  0.00000000000E+00  0.00000000000E+00  0.99999998245E-14  0.12500000000E+03  0.12500000000E+03 0.  0.
        -11    1    3    3    0    0  0.18388287805E+02 -0.20455565594E+02 -0.25480881586E+02  0.37494461175E+02  0.51100000000E-03 0. -1.
         23    2    1    0    0    0  0.13687883510E+02  0.21893066944E+02  0.14039907406E+02  0.95609805459E+02  0.90980499915E+02 0.  0.
         11    1    3    3    0    0 -0.47004042948E+01  0.42348632538E+02  0.39520788992E+02  0.58115344283E+02  0.51100000000E-03 0.  1.
         22    1    1    0    0    0 -0.13687883510E+02 -0.21893066944E+02 -0.14039907406E+02  0.29390194541E+02  0.00000000000E+00 0.  1.
</event>
<event>
 5    1  0.8907853E-005  0.9118800E+02  0.7818608E-02  0.1130116E+00
         25   -1    0    0    0    0  0.00000000000E+00  0.00000000000E+00  0.99999998245E-14  0.12500000000E+03  0.12500000000E+03 0.  0.
        -11    1    3    3    0    0  0.11725811523E+02  0.14771986573E+02 -0.50770837960E+02  0.54160725905E+02  0.51100000000E-03 0.  1.
         23    2    1    0    0    0 -0.16320620809E+02  0.13436523570E+02 -0.24852263660E+02  0.92372743936E+02  0.86418666872E+02 0.  0.
         11    1    3    3    0    0 -0.28046432332E+02 -0.13354630034E+01  0.25918574300E+02  0.38212018030E+02  0.51100000000E-03 0. -1.
         22    1    1    0    0    0  0.16320620809E+02 -0.13436523570E+02  0.24852263660E+02  0.32627256064E+02  0.00000000000E+00 0.  1.
</event>
<event>
 5    1  0.8907853E-005  0.9118800E+02  0.7818608E-02  0.1130116E+00
         25   -1    0    0    0    0  0.00000000000E+00  0.00000000000E+00  0.99999998245E-14  0.12500000000E+03  0.12500000000E+03 0.  0.
        -11    1    3    3    0    0 -0.20969096731E+02 -0.24935735601E+02 -0.75819969491E+01  0.33451167478E+02  0.51100000000E-03 0. -1.
         23    2    1    0    0    0  0.15649267158E+02  0.21276212798E+02  0.12554563530E+02  0.95756302234E+02  0.91181552731E+02 0.  0.
         11    1    3    3    0    0  0.36618363889E+02  0.46211948399E+02  0.20136560479E+02  0.62305134756E+02  0.51100000000E-03 0.  1.
         22    1    1    0    0    0 -0.15649267158E+02 -0.21276212798E+02 -0.12554563530E+02  0.29243697766E+02  0.00000000000E+00 0.  1.
</event>
<event>
 5    1  0.8907853E-005  0.9118800E+02  0.7818608E-02  0.1130116E+00
         25   -1    0    0    0    0  0.00000000000E+00  0.00000000000E+00  0.99999998245E-14  0.12500000000E+03  0.12500000000E+03 0.  0.
        -11    1    3    3    0    0 -0.33753228274E+02 -0.96587551641E+01  0.67949968480E+01  0.35759529536E+02  0.51100000000E-03 0.  1.
         23    2    1    0    0    0  0.23120460185E+02 -0.20702149906E+02  0.17001962986E+01  0.93919051537E+02  0.88627100168E+02 0.  0.
         11    1    3    3    0    0  0.56873688459E+02 -0.11043394742E+02 -0.50948005494E+01  0.58159522000E+02  0.51100000000E-03 0. -1.
         22    1    1    0    0    0 -0.23120460185E+02  0.20702149906E+02 -0.17001962986E+01  0.31080948463E+02  0.00000000000E+00 0. -1.
</event>
<event>
 5    1  0.8907853E-005  0.9118800E+02  0.7818608E-02  0.1130116E+00
         25   -1    0    0    0    0  0.00000000000E+00  0.00000000000E+00  0.99999998245E-14  0.12500000000E+03  0.12500000000E+03 0.  0.
        -11    1    3    3    0    0  0.52090379502E+02 -0.30627284719E+02 -0.70379727589E+01  0.60835608543E+02  0.51100000000E-03 0.  1.
         23    2    1    0    0    0  0.17628679135E+02 -0.21496205777E+02  0.12721499281E+00  0.97199399746E+02  0.93138874464E+02 0.  0.
         11    1    3    3    0    0 -0.34461700368E+02  0.91310789418E+01  0.71651877517E+01  0.36363791203E+02  0.51100000000E-03 0. -1.
         22    1    1    0    0    0 -0.17628679135E+02  0.21496205777E+02 -0.12721499281E+00  0.27800600254E+02  0.00000000000E+00 0.  1.
</event>
<event>
 5    1  0.8907853E-005  0.9118800E+02  0.7818608E-02  0.1130116E+00
         25   -1    0    0    0    0  0.00000000000E+00  0.00000000000E+00  0.99999998245E-14  0.12500000000E+03  0.12500000000E+03 0.  0.
        -11    1    3    3    0    0  0.30141805174E+02  0.50746542705E+02  0.10330029914E+02  0.59920359928E+02  0.51100000000E-03 0.  1.
         23    2    1    0    0    0  0.24011983032E+02  0.15943063408E+02  0.63788637397E+01  0.95479727261E+02  0.90801606898E+02 0.  0.
         11    1    3    3    0    0 -0.61298221412E+01 -0.34803479297E+02 -0.39511661743E+01  0.35559367333E+02  0.51100000000E-03 0. -1.
         22    1    1    0    0    0 -0.24011983032E+02 -0.15943063408E+02 -0.63788637397E+01  0.29520272739E+02  0.00000000000E+00 0.  1.
</event>
<event>
 5    1  0.8907853E-005  0.9118800E+02  0.7818608E-02  0.1130116E+00
         25   -1    0    0    0    0  0.00000000000E+00  0.00000000000E+00  0.99999998245E-14  0.12500000000E+03  0.12500000000E+03 0.  0.
        -11    1    3    3    0    0  0.38164965135E+02 -0.26359233495E+02  0.33097714087E+02  0.56980983075E+02  0.51100000000E-03 0.  1.
         23    2    1    0    0    0  0.25505233866E+02  0.46501947569E+01  0.14808771971E+02  0.95142990888E+02  0.90336856941E+02 0.  0.
         11    1    3    3    0    0 -0.12659731269E+02  0.31009428252E+02 -0.18288942117E+02  0.38162007813E+02  0.51100000000E-03 0. -1.
         22    1    1    0    0    0 -0.25505233866E+02 -0.46501947569E+01 -0.14808771971E+02  0.29857009112E+02  0.00000000000E+00 0.  1.
</event>
<event>
 5    1  0.8907853E-005  0.9118800E+02  0.7818608E-02  0.1130116E+00
         25   -1    0    0    0    0  0.00000000000E+00  0.00000000000E+00  0.99999998245E-14  0.12500000000E+03  0.12500000000E+03 0.  0.
        -11    1    3    3    0    0 -0.34847740838E+02  0.31328587714E+02 -0.32900033723E+02  0.57256071022E+02  0.51100000000E-03 0. -1.
         23    2    1    0    0    0 -0.88155204947E+01  0.27680559026E+02 -0.51194243227E+01  0.95501944894E+02  0.90832187156E+02 0.  0.
         11    1    3    3    0    0  0.26032220344E+02 -0.36480286875E+01  0.27780609400E+02  0.38245873872E+02  0.51100000000E-03 0.  1.
         22    1    1    0    0    0  0.88155204947E+01 -0.27680559026E+02  0.51194243227E+01  0.29498055106E+02  0.00000000000E+00 0. -1.
</event>
<event>
 5    1  0.8907853E-005  0.9118800E+02  0.7818608E-02  0.1130116E+00
         25   -1    0    0    0    0  0.00000000000E+00  0.00000000000E+00  0.99999998245E-14  0.12500000000E+03  0.12500000000E+03 0.  0.
        -11    1    3    3    0    0  0.40010776164E+01  0.40956296204E+02 -0.21841844573E+02  0.46588550046E+02  0.51100000000E-03 0. -1.
         23    2    1    0    0    0  0.19430686018E+02 -0.59109647164E+01 -0.20782013650E+02  0.95941728297E+02  0.91435398365E+02 0.  0.
         11    1    3    3    0    0  0.15429608402E+02 -0.46867260920E+02  0.10598309229E+01  0.49353178251E+02  0.51100000000E-03 0.  1.
         22    1    1    0    0    0 -0.19430686018E+02  0.59109647164E+01  0.20782013650E+02  0.29058271703E+02  0.00000000000E+00 0.  1.
</event>
<event>
 5    1  0.8907853E-005  0.9118800E+02  0.7818608E-02  0.1130116E+00
         25   -1    0    0    0    0  0.00000000000E+00  0.00000000000E+00  0.99999998245E-14  0.12500000000E+03  0.12500000000E+03 0.  0.
        -11    1    3    3    0    0  0.12795440943E+02 -0.42310294414E+02  0.29453157017E+02  0.53116596096E+02  0.51100000000E-03 0.  1.
         23    2    1    0    0    0 -0.83710090827E+01 -0.25084972007E+01  0.25118880463E+02  0.98404426929E+02  0.94742317537E+02 0.  0.
         11    1    3    3    0    0 -0.21166450025E+02  0.39801797213E+02 -0.43342765540E+01  0.45287830833E+02  0.51100000000E-03 0. -1.
         22    1    1    0    0    0  0.83710090827E+01  0.25084972007E+01 -0.25118880463E+02  0.26595573071E+02  0.00000000000E+00 0.  1.
</event>
<event>
 5    1  0.8907853E-005  0.9118800E+02  0.7818608E-02  0.1130116E+00
         25   -1    0    0    0    0  0.00000000000E+00  0.00000000000E+00  0.99999998245E-14  0.12500000000E+03  0.12500000000E+03 0.  0.
        -11    1    3    3    0    0  0.21428189323E+02 -0.12778447350E+02 -0.34770725882E+02  0.42795553426E+02  0.51100000000E-03 0. -1.
         23    2    1    0    0    0  0.12421352310E+02 -0.31558258881E+02  0.78102595094E+01  0.90197502239E+02  0.83212832903E+02 0.  0.
         11    1    3    3    0    0 -0.90068370135E+01 -0.18779811531E+02  0.42580985392E+02  0.47401948814E+02  0.51100000000E-03 0.  1.
         22    1    1    0    0    0 -0.12421352310E+02  0.31558258881E+02 -0.78102595094E+01  0.34802497761E+02  0.00000000000E+00 0. -1.
</event>
<event>
 5    1  0.8907853E-005  0.9118800E+02  0.7818608E-02  0.1130116E+00
         25   -1    0    0    0    0  0.00000000000E+00  0.00000000000E+00  0.99999998245E-14  0.12500000000E+03  0.12500000000E+03 0.  0.
        -11    1    3    3    0    0 -0.51727940989E+02  0.15796609192E+02  0.98907885350E+01  0.54983092302E+02  0.51100000000E-03 0. -1.
         23    2    1    0    0    0 -0.13168450702E+02  0.25990338305E+02  0.99635051781E+00  0.95846981401E+02  0.91305779392E+02 0.  0.
         11    1    3    3    0    0  0.38559490287E+02  0.10193729112E+02 -0.88944380171E+01  0.40863889100E+02  0.51100000000E-03 0.  1.
         22    1    1    0    0    0  0.13168450702E+02 -0.25990338305E+02 -0.99635051781E+00  0.29153018599E+02  0.00000000000E+00 0. -1.
</event>
<event>
 5    1  0.8907853E-005  0.9118800E+02  0.7818608E-02  0.1130116E+00
         25   -1    0    0    0    0  0.00000000000E+00  0.00000000000E+00  0.99999998245E-14  0.12500000000E+03  0.12500000000E+03 0.  0.
        -11    1    3    3    0    0  0.28909437090E+02  0.15541606562E+02 -0.39391268362E+02  0.51273473754E+02  0.51100000000E-03 0. -1.
         23    2    1    0    0    0  0.19621811169E+02 -0.18234171177E+02 -0.12467080707E+02  0.95454635331E+02  0.90767058081E+02 0.  0.
         11    1    3    3    0    0 -0.92876259209E+01 -0.33775777739E+02  0.26924187655E+02  0.44181161577E+02  0.51100000000E-03 0.  1.
         22    1    1    0    0    0 -0.19621811169E+02  0.18234171177E+02  0.12467080707E+02  0.29545364669E+02  0.00000000000E+00 0. -1.
</event>
<event>
 5    1  0.8907853E-005  0.9118800E+02  0.7818608E-02  0.1130116E+00
         25   -1    0    0    0    0  0.00000000000E+00  0.00000000000E+00  0.99999998245E-14  0.12500000000E+03  0.12500000000E+03 0.  0.
        -11    1    3    3    0    0  0.10506492840E+02 -0.16334893748E+00  0.38513185910E+02  0.39920903846E+02  0.51100000000E-03 0. -1.
         23    2    1    0    0    0  0.25161912124E+02  0.34955222468E+00 -0.15200939041E+02  0.95600806877E+02  0.90968135736E+02 0.  0.
         11    1    3    3    0    0  0.14655419284E+02  0.51290116215E+00 -0.53714124952E+02  0.55679903031E+02  0.51100000000E-03 0.  1.
         22    1    1    0    0    0 -0.25161912124E+02 -0.34955222468E+00  0.15200939041E+02  0.29399193123E+02  0.00000000000E+00 0. -1.
</event>
<event>
 5    1  0.8907853E-005  0.9118800E+02  0.7818608E-02  0.1130116E+00
         25   -1    0    0    0    0  0.00000000000E+00  0.00000000000E+00  0.99999998245E-14  0.12500000000E+03  0.12500000000E+03 0.  0.
        -11    1    3    3    0    0  0.25814490895E+02  0.24976364297E+02 -0.94785382413E+01  0.37149016153E+02  0.51100000000E-03 0.  1.
         23    2    1    0    0    0 -0.13862238178E+02 -0.18961248889E+02 -0.15808532190E+02  0.96687453369E+02  0.92449247386E+02 0.  0.
         11    1    3    3    0    0 -0.39676729073E+02 -0.43937613186E+02 -0.63299939489E+01  0.59538437216E+02  0.51100000000E-03 0. -1.
         22    1    1    0    0    0  0.13862238178E+02  0.18961248889E+02  0.15808532190E+02  0.28312546631E+02  0.00000000000E+00 0. -1.
</event>
<event>
 5    1  0.8907853E-005  0.9118800E+02  0.7818608E-02  0.1130116E+00
         25   -1    0    0    0    0  0.00000000000E+00  0.00000000000E+00  0.99999998245E-14  0.12500000000E+03  0.12500000000E+03 0.  0.
        -11    1    3    3    0    0  0.24218552765E+02 -0.33386473529E+01 -0.32077140346E+02  0.40331474027E+02  0.51100000000E-03 0. -1.
         23    2    1    0    0    0  0.20421417727E+02 -0.57175926096E+01  0.21912083175E+02  0.94506319404E+02  0.89451550300E+02 0.  0.
         11    1    3    3    0    0 -0.37971350387E+01 -0.23789452567E+01  0.53989223520E+02  0.54174845377E+02  0.51100000000E-03 0.  1.
         22    1    1    0    0    0 -0.20421417727E+02  0.57175926096E+01 -0.21912083175E+02  0.30493680596E+02  0.00000000000E+00 0.  1.
</event>
<event>
 5    1  0.8907853E-005  0.9118800E+02  0.7818608E-02  0.1130116E+00
         25   -1    0    0    0    0  0.00000000000E+00  0.00000000000E+00  0.99999998245E-14  0.12500000000E+03  0.12500000000E+03 0.  0.
        -11    1    3    3    0    0  0.23832886269E+02 -0.30041993918E+02  0.34997636051E+02  0.51916879681E+02  0.51100000000E-03 0. -1.
         23    2    1    0    0    0 -0.14747665919E+02 -0.15325195478E+02  0.19872653018E+02  0.95891966668E+02  0.91367344642E+02 0.  0.
         11    1    3    3    0    0 -0.38580552188E+02  0.14716798440E+02 -0.15124983033E+02  0.43975086986E+02  0.51100000000E-03 0.  1.
         22    1    1    0    0    0  0.14747665919E+02  0.15325195478E+02 -0.19872653018E+02  0.29108033332E+02  0.00000000000E+00 0. -1.
</event>
<event>
 5    1  0.8907853E-005  0.9118800E+02  0.7818608E-02  0.1130116E+00
         25   -1    0    0    0    0  0.00000000000E+00  0.00000000000E+00  0.99999998245E-14  0.12500000000E+03  0.12500000000E+03 0.  0.
        -11    1    3    3    0    0 -0.13672011592E+02  0.50213341807E+01 -0.31864806160E+02  0.35035747028E+02  0.51100000000E-03 0.  1.
         23    2    1    0    0    0  0.18624885485E+02  0.82828004330E+01  0.20143124347E+02  0.96342774021E+02  0.91982028165E+02 0.  0.
         11    1    3    3    0    0  0.32296897077E+02  0.32614662524E+01  0.52007930507E+02  0.61307026993E+02  0.51100000000E-03 0. -1.
         22    1    1    0    0    0 -0.18624885485E+02 -0.82828004330E+01 -0.20143124347E+02  0.28657225979E+02  0.00000000000E+00 0. -1.
</event>
<event>
 5    1  0.8907853E-005  0.9118800E+02  0.7818608E-02  0.1130116E+00
         25   -1    0    0    0    0  0.00000000000E+00  0.00000000000E+00  0.99999998245E-14  0.12500000000E+03  0.12500000000E+03 0.  0.
        -11    1    3    3    0    0  0.45295381629E+02 -0.30720585968E+02 -0.56879510082E+01  0.55025255893E+02  0.51100000000E-03 0. -1.
         23    2    1    0    0    0  0.90385270063E+01 -0.17640812695E+02 -0.20654538570E+02  0.96373033579E+02  0.92023140539E+02 0.  0.
         11    1    3    3    0    0 -0.36256854623E+02  0.13079773274E+02 -0.14966587561E+02  0.41347777685E+02  0.51100000000E-03 0.  1.
         22    1    1    0    0    0 -0.90385270063E+01  0.17640812695E+02  0.20654538570E+02  0.28626966421E+02  0.00000000000E+00 0. -1.
</event>
<event>
 5    1  0.8907853E-005  0.9118800E+02  0.7818608E-02  0.1130116E+00
         25   -1    0    0    0    0  0.00000000000E+00  0.00000000000E+00  0.99999998245E-14  0.12500000000E+03  0.12500000000E+03 0.  0.
        -11    1    3    3    0    0 -0.77090561903E+01 -0.32181283262E+01  0.57777032178E+02  0.58377832650E+02  0.51100000000E-03 0. -1.
         23    2    1    0    0    0 -0.24580274747E+01 -0.17085269693E+02  0.22522751469E+02  0.96623554252E+02  0.92362809414E+02 0.  0.
         11    1    3    3    0    0  0.52510287156E+01 -0.13867141367E+02 -0.35254280709E+02  0.38245721602E+02  0.51100000000E-03 0.  1.
         22    1    1    0    0    0  0.24580274747E+01  0.17085269693E+02 -0.22522751469E+02  0.28376445748E+02  0.00000000000E+00 0. -1.
</event>
<event>
 5    1  0.8907853E-005  0.9118800E+02  0.7818608E-02  0.1130116E+00
         25   -1    0    0    0    0  0.00000000000E+00  0.00000000000E+00  0.99999998245E-14  0.12500000000E+03  0.12500000000E+03 0.  0.
        -11    1    3    3    0    0  0.21684793668E+02 -0.36059022539E+02  0.17579514671E+02  0.45601784167E+02  0.51100000000E-03 0.  1.
         23    2    1    0    0    0 -0.13199735009E+02 -0.31236495812E+02  0.26537668316E+02  0.81939582972E+02  0.69712952477E+02 0.  0.
         11    1    3    3    0    0 -0.34884528677E+02  0.48225267267E+01  0.89581536457E+01  0.36337798806E+02  0.51100000000E-03 0. -1.
         22    1    1    0    0    0  0.13199735009E+02  0.31236495812E+02 -0.26537668316E+02  0.43060417028E+02  0.00000000000E+00 0.  1.
</event>
<event>
 5    1  0.8907853E-005  0.9118800E+02  0.7818608E-02  0.1130116E+00
         25   -1    0    0    0    0  0.00000000000E+00  0.00000000000E+00  0.99999998245E-14  0.12500000000E+03  0.12500000000E+03 0.  0.
        -11    1    3    3    0    0  0.36908198915E+02  0.16157312149E+02 -0.32916205396E+02  0.52026440019E+02  0.51100000000E-03 0.  1.
         23    2    1    0    0    0  0.27703090559E+02 -0.11834737493E+02 -0.18899449103E+01  0.94815664165E+02  0.89882790573E+02 0.  0.
         11    1    3    3    0    0 -0.92051083568E+01 -0.27992049642E+02  0.31026260486E+02  0.42789224146E+02  0.51100000000E-03 0. -1.
         22    1    1    0    0    0 -0.27703090559E+02  0.11834737493E+02  0.18899449103E+01  0.30184335835E+02  0.00000000000E+00 0.  1.
</event>
<event>
 5    1  0.8907853E-005  0.9118800E+02  0.7818608E-02  0.1130116E+00
         25   -1    0    0    0    0  0.00000000000E+00  0.00000000000E+00  0.99999998245E-14  0.12500000000E+03  0.12500000000E+03 0.  0.
        -11    1    3    3    0    0  0.16623807848E+02 -0.44058286906E+02  0.14554341573E+02  0.49288056274E+02  0.51100000000E-03 0. -1.
         23    2    1    0    0    0 -0.74591865878E+01 -0.21403195241E+02 -0.18276770956E+02  0.95883396702E+02  0.91355619287E+02 0.  0.
         11    1    3    3    0    0 -0.24082994436E+02  0.22655091665E+02 -0.32831112529E+02  0.46595340427E+02  0.51100000000E-03 0.  1.
         22    1    1    0    0    0  0.74591865878E+01  0.21403195241E+02  0.18276770956E+02  0.29116603298E+02  0.00000000000E+00 0.  1.
</event>
<event>
 5    1  0.8907853E-005  0.9118800E+02  0.7818608E-02  0.1130116E+00
         25   -1    0    0    0    0  0.00000000000E+00  0.00000000000E+00  0.99999998245E-14  0.12500000000E+03  0.12500000000E+03 0.  0.
        -11    1    3    3    0    0  0.18307377743E+02  0.46453539807E+02  0.19949194723E+02  0.53768595023E+02  0.51100000000E-03 0.  1.
         23    2    1    0    0    0  0.27415949538E+02  0.11316713179E+02 -0.31164398731E+00  0.95338587218E+02  0.90607101292E+02 0.  0.
         11    1    3    3    0    0  0.91085717945E+01 -0.35136826628E+02 -0.20260838710E+02  0.41569992195E+02  0.51100000000E-03 0. -1.
         22    1    1    0    0    0 -0.27415949538E+02 -0.11316713179E+02  0.31164398731E+00  0.29661412782E+02  0.00000000000E+00 0.  1.
</event>
<event>
 5    1  0.8907853E-005  0.9118800E+02  0.7818608E-02  0.1130116E+00
         25   -1    0    0    0    0  0.00000000000E+00  0.00000000000E+00  0.99999998245E-14  0.12500000000E+03  0.12500000000E+03 0.  0.
        -11    1    3    3    0    0  0.30247746248E+02  0.19221376289E+02 -0.36250454930E+01  0.36021221725E+02  0.51100000000E-03 0.  1.
         23    2    1    0    0    0 -0.12420137641E+02 -0.16757121083E+02  0.19511085498E+02  0.96438778330E+02  0.92112401893E+02 0.  0.
         11    1    3    3    0    0 -0.42667883888E+02 -0.35978497372E+02  0.23136130991E+02  0.60417556605E+02  0.51100000000E-03 0. -1.
         22    1    1    0    0    0  0.12420137641E+02  0.16757121083E+02 -0.19511085498E+02  0.28561221670E+02  0.00000000000E+00 0. -1.
</event>
<event>
 5    1  0.8907853E-005  0.9118800E+02  0.7818608E-02  0.1130116E+00
         25   -1    0    0    0    0  0.00000000000E+00  0.00000000000E+00  0.99999998245E-14  0.12500000000E+03  0.12500000000E+03 0.  0.
        -11    1    3    3    0    0 -0.29929620110E+02  0.95998707074E+01  0.19136983106E+02  0.36798964662E+02  0.51100000000E-03 0. -1.
         23    2    1    0    0    0 -0.18338851676E+01 -0.72691924373E+01 -0.29008064168E+02  0.95038823784E+02  0.90192604719E+02 0.  0.
         11    1    3    3    0    0  0.28095734943E+02 -0.16869063145E+02 -0.48145047273E+02  0.58239859122E+02  0.51100000000E-03 0.  1.
         22    1    1    0    0    0  0.18338851676E+01  0.72691924373E+01  0.29008064168E+02  0.29961176216E+02  0.00000000000E+00 0.  1.
</event>
<event>
 5    1  0.8907853E-005  0.9118800E+02  0.7818608E-02  0.1130116E+00
         25   -1    0    0    0    0  0.00000000000E+00  0.00000000000E+00  0.99999998245E-14  0.12500000000E+03  0.12500000000E+03 0.  0.
        -11    1    3    3    0    0 -0.73639520780E+01 -0.14724210035E+02 -0.40960307265E+02  0.44144953539E+02  0.51100000000E-03 0. -1.
         23    2    1    0    0    0  0.17081769295E+02 -0.25593145289E+02  0.13461076439E+01  0.94200520559E+02  0.89023200009E+02 0.  0.
         11    1    3    3    0    0  0.24445721373E+02 -0.10868935253E+02  0.42306414909E+02  0.50055567021E+02  0.51100000000E-03 0.  1.
         22    1    1    0    0    0 -0.17081769295E+02  0.25593145289E+02 -0.13461076439E+01  0.30799479441E+02  0.00000000000E+00 0.  1.
</event>
<event>
 5    1  0.8907853E-005  0.9118800E+02  0.7818608E-02  0.1130116E+00
         25   -1    0    0    0    0  0.00000000000E+00  0.00000000000E+00  0.99999998245E-14  0.12500000000E+03  0.12500000000E+03 0.  0.
        -11    1    3    3    0    0 -0.17137499296E+02 -0.36509805064E+02 -0.44722657143E+02  0.60222718388E+02  0.51100000000E-03 0. -1.
         23    2    1    0    0    0 -0.18929313095E+02 -0.14094791827E+02 -0.17022290520E+02  0.95901195463E+02  0.91379969719E+02 0.  0.
         11    1    3    3    0    0 -0.17918137993E+01  0.22415013236E+02  0.27700366623E+02  0.35678477075E+02  0.51100000000E-03 0.  1.
         22    1    1    0    0    0  0.18929313095E+02  0.14094791827E+02  0.17022290520E+02  0.29098804537E+02  0.00000000000E+00 0. -1.
</event>
<event>
 5    1  0.8907853E-005  0.9118800E+02  0.7818608E-02  0.1130116E+00
         25   -1    0    0    0    0  0.00000000000E+00  0.00000000000E+00  0.99999998245E-14  0.12500000000E+03  0.12500000000E+03 0.  0.
        -11    1    3    3    0    0 -0.94714947583E+00 -0.10812441431E+01  0.39210650626E+02  0.39236988975E+02  0.51100000000E-03 0. -1.
         23    2    1    0    0    0 -0.27586865092E+02 -0.14941454604E+01 -0.10343911152E+02  0.95499761116E+02  0.90829181869E+02 0.  0.
         11    1    3    3    0    0 -0.26639715617E+02 -0.41290131725E+00 -0.49554561779E+02  0.56262772141E+02  0.51100000000E-03 0.  1.
         22    1    1    0    0    0  0.27586865092E+02  0.14941454604E+01  0.10343911152E+02  0.29500238884E+02  0.00000000000E+00 0.  1.
</event>
<event>
 5    1  0.8907853E-005  0.9118800E+02  0.7818608E-02  0.1130116E+00
         25   -1    0    0    0    0  0.00000000000E+00  0.00000000000E+00  0.99999998245E-14  0.12500000000E+03  0.12500000000E+03 0.  0.
        -11    1    3    3    0    0 -0.41309360096E+02  0.71611907032E+01  0.45784256501E+02  0.62080141973E+02  0.51100000000E-03 0. -1.
         23    2    1    0    0    0 -0.24407682551E+02  0.34344358414E+01  0.19407515644E+02  0.93628325187E+02  0.88216105654E+02 0.  0.
         11    1    3    3    0    0  0.16901677545E+02 -0.37267548618E+01 -0.26376740857E+02  0.31548183214E+02  0.51100000000E-03 0.  1.
         22    1    1    0    0    0  0.24407682551E+02 -0.34344358414E+01 -0.19407515644E+02  0.31371674813E+02  0.00000000000E+00 0. -1.
</event>
<event>
 5    1  0.8907853E-005  0.9118800E+02  0.7818608E-02  0.1130116E+00
         25   -1    0    0    0    0  0.00000000000E+00  0.00000000000E+00  0.99999998245E-14  0.12500000000E+03  0.12500000000E+03 0.  0.
        -11    1    3    3    0    0  0.24352244602E+02 -0.81970012144E+01  0.29054166299E+02  0.38786173125E+02  0.51100000000E-03 0.  1.
         23    2    1    0    0    0 -0.27594072443E+02 -0.47531814903E+01  0.34951118089E+01  0.96782250713E+02  0.92577333501E+02 0.  0.
         11    1    3    3    0    0 -0.51946317045E+02  0.34438197241E+01 -0.25559054490E+02  0.57996077588E+02  0.51100000000E-03 0. -1.
         22    1    1    0    0    0  0.27594072443E+02  0.47531814903E+01 -0.34951118089E+01  0.28217749287E+02  0.00000000000E+00 0. -1.
</event>
<event>
 5    1  0.8907853E-005  0.9118800E+02  0.7818608E-02  0.1130116E+00
         25   -1    0    0    0    0  0.00000000000E+00  0.00000000000E+00  0.99999998245E-14  0.12500000000E+03  0.12500000000E+03 0.  0.
        -11    1    3    3    0    0  0.18917608294E+02 -0.20814166497E+02 -0.42202315322E+02  0.50716277952E+02  0.51100000000E-03 0. -1.
         23    2    1    0    0    0  0.11025598985E+02  0.16960569727E+02 -0.24653132294E+02  0.93109536059E+02  0.87477905867E+02 0.  0.
         11    1    3    3    0    0 -0.78920093095E+01  0.37774736224E+02  0.17549183028E+02  0.42393258107E+02  0.51100000000E-03 0.  1.
         22    1    1    0    0    0 -0.11025598985E+02 -0.16960569727E+02  0.24653132294E+02  0.31890463941E+02  0.00000000000E+00 0. -1.
</event>
<event>
 5    1  0.8907853E-005  0.9118800E+02  0.7818608E-02  0.1130116E+00
         25   -1    0    0    0    0  0.00000000000E+00  0.00000000000E+00  0.99999998245E-14  0.12500000000E+03  0.12500000000E+03 0.  0.
        -11    1    3    3    0    0 -0.13372819792E+02  0.44548187498E+02 -0.30843442356E+02  0.55809419054E+02  0.51100000000E-03 0.  1.
         23    2    1    0    0    0 -0.10306412362E+02  0.48605846128E+01 -0.26870605684E+02  0.95813070248E+02  0.91259342327E+02 0.  0.
         11    1    3    3    0    0  0.30664074292E+01 -0.39687602885E+02  0.39728366727E+01  0.40003651193E+02  0.51100000000E-03 0. -1.
         22    1    1    0    0    0  0.10306412362E+02 -0.48605846128E+01  0.26870605684E+02  0.29186929752E+02  0.00000000000E+00 0.  1.
</event>
<event>
 5    1  0.8907853E-005  0.9118800E+02  0.7818608E-02  0.1130116E+00
         25   -1    0    0    0    0  0.00000000000E+00  0.00000000000E+00  0.99999998245E-14  0.12500000000E+03  0.12500000000E+03 0.  0.
        -11    1    3    3    0    0 -0.28812821680E+02  0.41573821335E+02  0.13816026745E+01  0.50601088326E+02  0.51100000000E-03 0.  1.
         23    2    1    0    0    0 -0.24523950883E+02 -0.14265395805E+01  0.15370039710E+02  0.96022469002E+02  0.91545711262E+02 0.  0.
         11    1    3    3    0    0  0.42888707973E+01 -0.43000360915E+02  0.13988437036E+02  0.45421380676E+02  0.51100000000E-03 0. -1.
         22    1    1    0    0    0  0.24523950883E+02  0.14265395805E+01 -0.15370039710E+02  0.28977530998E+02  0.00000000000E+00 0.  1.
</event>
<event>
 5    1  0.8907853E-005  0.9118800E+02  0.7818608E-02  0.1130116E+00
         25   -1    0    0    0    0  0.00000000000E+00  0.00000000000E+00  0.99999998245E-14  0.12500000000E+03  0.12500000000E+03 0.  0.
        -11    1    3    3    0    0  0.38653610887E+02 -0.13629591083E+02 -0.11641513505E+02  0.42607419831E+02  0.51100000000E-03 0. -1.
         23    2    1    0    0    0 -0.10842282878E+01  0.22231385795E+02  0.10322297506E+02  0.10046512908E+03  0.97423212170E+02 0.  0.
         11    1    3    3    0    0 -0.39737839175E+02  0.35860976878E+02  0.21963811011E+02  0.57857709247E+02  0.51100000000E-03 0.  1.
         22    1    1    0    0    0  0.10842282878E+01 -0.22231385795E+02 -0.10322297506E+02  0.24534870922E+02  0.00000000000E+00 0.  1.
</event>
<event>
 5    1  0.8907853E-005  0.9118800E+02  0.7818608E-02  0.1130116E+00
         25   -1    0    0    0    0  0.00000000000E+00  0.00000000000E+00  0.99999998245E-14  0.12500000000E+03  0.12500000000E+03 0.  0.
        -11    1    3    3    0    0 -0.48143686127E+01 -0.52977293069E+02  0.29164564161E+02  0.60665834941E+02  0.51100000000E-03 0.  1.
         23    2    1    0    0    0 -0.65429959229E+01 -0.29334439569E+02  0.49733067220E+01  0.94536022581E+02  0.89493048027E+02 0.  0.
         11    1    3    3    0    0 -0.17286273102E+01  0.23642853501E+02 -0.24191257439E+02  0.33870187640E+02  0.51100000000E-03 0. -1.
         22    1    1    0    0    0  0.65429959229E+01  0.29334439569E+02 -0.49733067220E+01  0.30463977419E+02  0.00000000000E+00 0.  1.
</event>
<event>
 5    1  0.8907853E-005  0.9118800E+02  0.7818608E-02  0.1130116E+00
         25   -1    0    0    0    0  0.00000000000E+00  0.00000000000E+00  0.99999998245E-14  0.12500000000E+03  0.12500000000E+03 0.  0.
        -11    1    3    3    0    0 -0.45154674195E+02 -0.13537102246E+02 -0.79301328551E+01  0.47802560038E+02  0.51100000000E-03 0. -1.
         23    2    1    0    0    0 -0.11546963955E-01 -0.24329749060E+02 -0.17290195412E+02  0.95152258376E+02  0.90349679546E+02 0.  0.
         11    1    3    3    0    0  0.45143127231E+02 -0.10792646813E+02 -0.93600625573E+01  0.47349698338E+02  0.51100000000E-03 0.  1.
         22    1    1    0    0    0  0.11546963955E-01  0.24329749060E+02  0.17290195412E+02  0.29847741624E+02  0.00000000000E+00 0.  1.
</event>
<event>
 5    1  0.8907853E-005  0.9118800E+02  0.7818608E-02  0.1130116E+00
         25   -1    0    0    0    0  0.00000000000E+00  0.00000000000E+00  0.99999998245E-14  0.12500000000E+03  0.12500000000E+03 0.  0.
        -11    1    3    3    0    0 -0.12725618078E+02 -0.30971342958E+02 -0.10727159071E+02  0.35160167549E+02  0.51100000000E-03 0.  1.
         23    2    1    0    0    0  0.22326979036E+02  0.18136187215E+02 -0.14992414435E+01  0.96196128655E+02  0.91782526462E+02 0.  0.
         11    1    3    3    0    0  0.35052597114E+02  0.49107530173E+02  0.92279176273E+01  0.61035961106E+02  0.51100000000E-03 0. -1.
         22    1    1    0    0    0 -0.22326979036E+02 -0.18136187215E+02  0.14992414435E+01  0.28803871345E+02  0.00000000000E+00 0. -1.
</event>
<event>
 5    1  0.8907853E-005  0.9118800E+02  0.7818608E-02  0.1130116E+00
         25   -1    0    0    0    0  0.00000000000E+00  0.00000000000E+00  0.99999998245E-14  0.12500000000E+03  0.12500000000E+03 0.  0.
        -11    1    3    3    0    0 -0.30769814999E+01  0.18910840315E+02  0.55381767375E+02  0.58602285402E+02  0.51100000000E-03 0. -1.
         23    2    1    0    0    0  0.63656477836E+01 -0.44092233533E+01  0.28693554717E+02  0.95279925899E+02  0.90526136970E+02 0.  0.
         11    1    3    3    0    0  0.94426292834E+01 -0.23320063668E+02 -0.26688212658E+02  0.36677640497E+02  0.51100000000E-03 0.  1.
         22    1    1    0    0    0 -0.63656477836E+01  0.44092233533E+01 -0.28693554717E+02  0.29720074101E+02  0.00000000000E+00 0. -1.
</event>
<event>
 5    1  0.8907853E-005  0.9118800E+02  0.7818608E-02  0.1130116E+00
         25   -1    0    0    0    0  0.00000000000E+00  0.00000000000E+00  0.99999998245E-14  0.12500000000E+03  0.12500000000E+03 0.  0.
        -11    1    3    3    0    0 -0.38211372388E+02  0.37001047099E+02  0.12401540545E+02  0.54616706916E+02  0.51100000000E-03 0. -1.
         23    2    1    0    0    0  0.23487369276E+01  0.26626343457E+02  0.96816727774E+01  0.96570903658E+02  0.92291526776E+02 0.  0.
         11    1    3    3    0    0  0.40560109315E+02 -0.10374703643E+02 -0.27198677676E+01  0.41954196742E+02  0.51100000000E-03 0.  1.
         22    1    1    0    0    0 -0.23487369276E+01 -0.26626343457E+02 -0.96816727774E+01  0.28429096342E+02  0.00000000000E+00 0. -1.
</event>
<event>
 5    1  0.8907853E-005  0.9118800E+02  0.7818608E-02  0.1130116E+00
         25   -1    0    0    0    0  0.00000000000E+00  0.00000000000E+00  0.99999998245E-14  0.12500000000E+03  0.12500000000E+03 0.  0.
        -11    1    3    3    0    0 -0.31920711109E+02  0.65084757008E+01  0.16679331198E+02  0.36599072982E+02  0.51100000000E-03 0.  1.
         23    2    1    0    0    0  0.17556834689E+02  0.26718900078E+02  0.13959416207E+02  0.90114367334E+02  0.83087856113E+02 0.  0.
         11    1    3    3    0    0  0.49477545798E+02  0.20210424377E+02 -0.27199149911E+01  0.53515294352E+02  0.51100000000E-03 0. -1.
         22    1    1    0    0    0 -0.17556834689E+02 -0.26718900078E+02 -0.13959416207E+02  0.34885632666E+02  0.00000000000E+00 0. -1.
</event>
<event>
 5    1  0.8907853E-005  0.9118800E+02  0.7818608E-02  0.1130116E+00
         25   -1    0    0    0    0  0.00000000000E+00  0.00000000000E+00  0.99999998245E-14  0.12500000000E+03  0.12500000000E+03 0.  0.
        -11    1    3    3    0    0  0.26198563717E+02  0.18846287355E+02  0.10611047679E+02  0.33972659905E+02  0.51100000000E-03 0.  1.
         23    2    1    0    0    0 -0.23069631575E+02 -0.15816936575E+02 -0.58546158947E+01  0.96422737869E+02  0.92090631811E+02 0.  0.
         11    1    3    3    0    0 -0.49268195292E+02 -0.34663223930E+02 -0.16465663574E+02  0.62450077964E+02  0.51100000000E-03 0. -1.
         22    1    1    0    0    0  0.23069631575E+02  0.15816936575E+02  0.58546158947E+01  0.28577262131E+02  0.00000000000E+00 0. -1.
</event>
<event>
 5    1  0.8907853E-005  0.9118800E+02  0.7818608E-02  0.1130116E+00
         25   -1    0    0    0    0  0.00000000000E+00  0.00000000000E+00  0.99999998245E-14  0.12500000000E+03  0.12500000000E+03 0.  0.
        -11    1    3    3    0    0 -0.21540032045E+02 -0.49601301339E+02  0.81570316594E+01  0.54688200197E+02  0.51100000000E-03 0.  1.
         23    2    1    0    0    0 -0.28201257819E+02 -0.10580539540E+02  0.13939280182E+01  0.94847026766E+02  0.89926395966E+02 0.  0.
         11    1    3    3    0    0 -0.66612257742E+01  0.39020761800E+02 -0.67631036412E+01  0.40158826569E+02  0.51100000000E-03 0. -1.
         22    1    1    0    0    0  0.28201257819E+02  0.10580539540E+02 -0.13939280182E+01  0.30152973234E+02  0.00000000000E+00 0.  1.
</event>
<event>
 5    1  0.8907853E-005  0.9118800E+02  0.7818608E-02  0.1130116E+00
         25   -1    0    0    0    0  0.00000000000E+00  0.00000000000E+00  0.99999998245E-14  0.12500000000E+03  0.12500000000E+03 0.  0.
        -11    1    3    3    0    0  0.10924034148E+02 -0.56037602354E+01  0.33981678691E+02  0.36131580892E+02  0.51100000000E-03 0. -1.
         23    2    1    0    0    0 -0.29833623068E+02  0.18013200230E+01 -0.68930174883E+01  0.94327479574E+02  0.89201288631E+02 0.  0.
         11    1    3    3    0    0 -0.40757657216E+02  0.74050802585E+01 -0.40874696179E+02  0.58195898682E+02  0.51100000000E-03 0.  1.
         22    1    1    0    0    0  0.29833623068E+02 -0.18013200230E+01  0.68930174883E+01  0.30672520426E+02  0.00000000000E+00 0.  1.
</event>
<event>
 5    1  0.8907853E-005  0.9118800E+02  0.7818608E-02  0.1130116E+00
         25   -1    0    0    0    0  0.00000000000E+00  0.00000000000E+00  0.99999998245E-14  0.12500000000E+03  0.12500000000E+03 0.  0.
        -11    1    3    3    0    0 -0.27072241507E+02  0.52660742047E+02 -0.85002022122E+01  0.59819005768E+02  0.51100000000E-03 0.  1.
         23    2    1    0    0    0 -0.20889718872E+02  0.34404127254E+02  0.64818370118E+01  0.84231893131E+02  0.73708705610E+02 0.  0.
         11    1    3    3    0    0  0.61825226350E+01 -0.18256614793E+02  0.14982039224E+02  0.24412887363E+02  0.51100000000E-03 0. -1.
         22    1    1    0    0    0  0.20889718872E+02 -0.34404127254E+02 -0.64818370118E+01  0.40768106869E+02  0.00000000000E+00 0.  1.
</event>
<event>
 5    1  0.8907853E-005  0.9118800E+02  0.7818608E-02  0.1130116E+00
         25   -1    0    0    0    0  0.00000000000E+00  0.00000000000E+00  0.99999998245E-14  0.12500000000E+03  0.12500000000E+03 0.  0.
        -11    1    3    3    0    0  0.35714503694E+02 -0.36691535058E+02  0.25390874769E+02  0.57153224238E+02  0.51100000000E-03 0.  1.
         23    2    1    0    0    0  0.20817881800E+02 -0.57221494773E+01  0.25589184279E+02  0.91519654283E+02  0.85175780423E+02 0.  0.
         11    1    3    3    0    0 -0.14896621894E+02  0.30969385581E+02  0.19830950921E+00  0.34366430044E+02  0.51100000000E-03 0. -1.
         22    1    1    0    0    0 -0.20817881800E+02  0.57221494773E+01 -0.25589184279E+02  0.33480345717E+02  0.00000000000E+00 0.  1.
</event>
<event>
 5    1  0.8907853E-005  0.9118800E+02  0.7818608E-02  0.1130116E+00
         25   -1    0    0    0    0  0.00000000000E+00  0.00000000000E+00  0.99999998245E-14  0.12500000000E+03  0.12500000000E+03 0.  0.
        -11    1    3    3    0    0 -0.11134528740E+02 -0.18655242930E+02  0.32796965855E+02  0.39340015107E+02  0.51100000000E-03 0.  1.
         23    2    1    0    0    0 -0.72937302261E+01  0.28726364993E+02  0.35581084048E+01  0.95149326946E+02  0.90345623782E+02 0.  0.
         11    1    3    3    0    0  0.38407985143E+01  0.47381607924E+02 -0.29238857450E+02  0.55809311839E+02  0.51100000000E-03 0. -1.
         22    1    1    0    0    0  0.72937302261E+01 -0.28726364993E+02 -0.35581084048E+01  0.29850673054E+02  0.00000000000E+00 0. -1.
</event>
<event>
 5    1  0.8907853E-005  0.9118800E+02  0.7818608E-02  0.1130116E+00
         25   -1    0    0    0    0  0.00000000000E+00  0.00000000000E+00  0.99999998245E-14  0.12500000000E+03  0.12500000000E+03 0.  0.
        -11    1    3    3    0    0 -0.34225784001E+02 -0.22249318408E+02  0.41972855423E+02  0.58550465863E+02  0.51100000000E-03 0.  1.
         23    2    1    0    0    0 -0.35739740760E+02 -0.16538496786E+02  0.20938604295E+02  0.80398698502E+02  0.66893008794E+02 0.  0.
         11    1    3    3    0    0 -0.15139567583E+01  0.57108216221E+01 -0.21034251128E+02  0.21848232639E+02  0.51100000000E-03 0. -1.
         22    1    1    0    0    0  0.35739740760E+02  0.16538496786E+02 -0.20938604295E+02  0.44601301498E+02  0.00000000000E+00 0.  1.
</event>
<event>
 5    1  0.8907853E-005  0.9118800E+02  0.7818608E-02  0.1130116E+00
         25   -1    0    0    0    0  0.00000000000E+00  0.00000000000E+00  0.99999998245E-14  0.12500000000E+03  0.12500000000E+03 0.  0.
        -11    1    3    3    0    0  0.13112230536E+02 -0.23104951003E+01 -0.33786153201E+02  0.36314916021E+02  0.51100000000E-03 0.  1.
         23    2    1    0    0    0 -0.89385905634E+01  0.23929884353E+02  0.14574339555E+02  0.95589982321E+02  0.90953260416E+02 0.  0.
         11    1    3    3    0    0 -0.22050821099E+02  0.26240379453E+02  0.48360492756E+02  0.59275066300E+02  0.51100000000E-03 0. -1.
         22    1    1    0    0    0  0.89385905634E+01 -0.23929884353E+02 -0.14574339555E+02  0.29410017679E+02  0.00000000000E+00 0. -1.
</event>
<event>
 5    1  0.8907853E-005  0.9118800E+02  0.7818608E-02  0.1130116E+00
         25   -1    0    0    0    0  0.00000000000E+00  0.00000000000E+00  0.99999998245E-14  0.12500000000E+03  0.12500000000E+03 0.  0.
        -11    1    3    3    0    0  0.37567544566E+02 -0.25044050268E+02 -0.19130399961E+02  0.49035671316E+02  0.51100000000E-03 0.  1.
         23    2    1    0    0    0  0.26076905644E+02  0.32994748044E+01  0.14896557730E+02  0.94787436816E+02  0.89843526222E+02 0.  0.
         11    1    3    3    0    0 -0.11490638922E+02  0.28343525072E+02  0.34026957691E+02  0.45751765500E+02  0.51100000000E-03 0. -1.
         22    1    1    0    0    0 -0.26076905644E+02 -0.32994748044E+01 -0.14896557730E+02  0.30212563184E+02  0.00000000000E+00 0.  1.
</event>
<event>
 5    1  0.8907853E-005  0.9118800E+02  0.7818608E-02  0.1130116E+00
         25   -1    0    0    0    0  0.00000000000E+00  0.00000000000E+00  0.99999998245E-14  0.12500000000E+03  0.12500000000E+03 0.  0.
        -11    1    3    3    0    0 -0.35332949235E+02  0.35834858567E+02  0.41193718901E+01  0.50492807559E+02  0.51100000000E-03 0.  1.
         23    2    1    0    0    0 -0.20648816927E+02 -0.38459836063E+01 -0.17182456204E+02  0.97863271539E+02  0.94025623554E+02 0.  0.
         11    1    3    3    0    0  0.14684132309E+02 -0.39680842173E+02 -0.21301828094E+02  0.47370463980E+02  0.51100000000E-03 0. -1.
         22    1    1    0    0    0  0.20648816927E+02  0.38459836063E+01  0.17182456204E+02  0.27136728461E+02  0.00000000000E+00 0. -1.
</event>
<event>
 5    1  0.8907853E-005  0.9118800E+02  0.7818608E-02  0.1130116E+00
         25   -1    0    0    0    0  0.00000000000E+00  0.00000000000E+00  0.99999998245E-14  0.12500000000E+03  0.12500000000E+03 0.  0.
        -11    1    3    3    0    0  0.21107929944E+01 -0.14119400966E+02  0.36813823545E+02  0.39485067240E+02  0.51100000000E-03 0. -1.
         23    2    1    0    0    0  0.32033707000E+02 -0.28332632928E+01 -0.53437653364E+01  0.92400282317E+02  0.86458490498E+02 0.  0.
         11    1    3    3    0    0  0.29922914005E+02  0.11286137673E+02 -0.42157588881E+02  0.52915215077E+02  0.51100000000E-03 0.  1.
         22    1    1    0    0    0 -0.32033707000E+02  0.28332632928E+01  0.53437653364E+01  0.32599717683E+02  0.00000000000E+00 0.  1.
</event>
<event>
 5    1  0.8907853E-005  0.9118800E+02  0.7818608E-02  0.1130116E+00
         25   -1    0    0    0    0  0.00000000000E+00  0.00000000000E+00  0.99999998245E-14  0.12500000000E+03  0.12500000000E+03 0.  0.
        -11    1    3    3    0    0 -0.20113331998E+02 -0.34313616312E+02  0.10303488115E+01  0.39787334761E+02  0.51100000000E-03 0. -1.
         23    2    1    0    0    0 -0.16584185056E+02  0.20682411297E+02  0.11871948292E+02  0.95952788649E+02  0.91450517562E+02 0.  0.
         11    1    3    3    0    0  0.35291469418E+01  0.54996027609E+02  0.10841599480E+02  0.56165453888E+02  0.51100000000E-03 0.  1.
         22    1    1    0    0    0  0.16584185056E+02 -0.20682411297E+02 -0.11871948292E+02  0.29047211351E+02  0.00000000000E+00 0.  1.
</event>
<event>
 5    1  0.8907853E-005  0.9118800E+02  0.7818608E-02  0.1130116E+00
         25   -1    0    0    0    0  0.00000000000E+00  0.00000000000E+00  0.99999998245E-14  0.12500000000E+03  0.12500000000E+03 0.  0.
        -11    1    3    3    0    0 -0.35695742376E+01 -0.31930426405E+02  0.53326660943E+02  0.62257744564E+02  0.51100000000E-03 0.  1.
         23    2    1    0    0    0 -0.50805496731E+01 -0.17528546133E+02  0.25297084970E+02  0.93806981190E+02  0.88468894519E+02 0.  0.
         11    1    3    3    0    0 -0.15109754355E+01  0.14401880272E+02 -0.28029575973E+02  0.31549236625E+02  0.51100000000E-03 0. -1.
         22    1    1    0    0    0  0.50805496731E+01  0.17528546133E+02 -0.25297084970E+02  0.31193018810E+02  0.00000000000E+00 0.  1.
</event>
<event>
 5    1  0.8907853E-005  0.9118800E+02  0.7818608E-02  0.1130116E+00
         25   -1    0    0    0    0  0.00000000000E+00  0.00000000000E+00  0.99999998245E-14  0.12500000000E+03  0.12500000000E+03 0.  0.
        -11    1    3    3    0    0 -0.24591959194E+02 -0.14199435181E+02  0.23074264556E+02  0.36589754051E+02  0.51100000000E-03 0. -1.
         23    2    1    0    0    0 -0.49461697028E+01  0.99153367614E+01 -0.27155814938E+02  0.95670547520E+02  0.91063916454E+02 0.  0.
         11    1    3    3    0    0  0.19645789492E+02  0.24114771943E+02 -0.50230079494E+02  0.59080793468E+02  0.51100000000E-03 0.  1.
         22    1    1    0    0    0  0.49461697028E+01 -0.99153367614E+01  0.27155814938E+02  0.29329452480E+02  0.00000000000E+00 0.  1.
</event>
<event>
 5    1  0.8907853E-005  0.9118800E+02  0.7818608E-02  0.1130116E+00
         25   -1    0    0    0    0  0.00000000000E+00  0.00000000000E+00  0.99999998245E-14  0.12500000000E+03  0.12500000000E+03 0.  0.
        -11    1    3    3    0    0  0.39795307051E+01  0.33525089312E+02 -0.15843932765E+01  0.33797612051E+02  0.51100000000E-03 0. -1.
         23    2    1    0    0    0 -0.13991876931E+02 -0.25006601887E+02  0.66673501565E+01  0.95579661523E+02  0.90939075104E+02 0.  0.
         11    1    3    3    0    0 -0.17971407636E+02 -0.58531691199E+02  0.82517434330E+01  0.61782049472E+02  0.51100000000E-03 0.  1.
         22    1    1    0    0    0  0.13991876931E+02  0.25006601887E+02 -0.66673501565E+01  0.29420338477E+02  0.00000000000E+00 0.  1.
</event>
<event>
 5    1  0.8907853E-005  0.9118800E+02  0.7818608E-02  0.1130116E+00
         25   -1    0    0    0    0  0.00000000000E+00  0.00000000000E+00  0.99999998245E-14  0.12500000000E+03  0.12500000000E+03 0.  0.
        -11    1    3    3    0    0  0.28181484822E+02  0.94661607331E+01  0.16312926018E+02  0.33910409041E+02  0.51100000000E-03 0. -1.
         23    2    1    0    0    0 -0.25071286921E+02  0.67577999170E+01 -0.14260954629E+02  0.95375481193E+02  0.90657985298E+02 0.  0.
         11    1    3    3    0    0 -0.53252771743E+02 -0.27083608161E+01 -0.30573880647E+02  0.61465072152E+02  0.51100000000E-03 0.  1.
         22    1    1    0    0    0  0.25071286921E+02 -0.67577999170E+01  0.14260954629E+02  0.29624518807E+02  0.00000000000E+00 0.  1.
</event>
<event>
 5    1  0.8907853E-005  0.9118800E+02  0.7818608E-02  0.1130116E+00
         25   -1    0    0    0    0  0.00000000000E+00  0.00000000000E+00  0.99999998245E-14  0.12500000000E+03  0.12500000000E+03 0.  0.
        -11    1    3    3    0    0  0.33670859913E+02 -0.20039409521E+02 -0.43309898652E+02  0.58404212714E+02  0.51100000000E-03 0.  1.
         23    2    1    0    0    0  0.41823898475E+01 -0.19971310896E+02 -0.23234701893E+02  0.94077564524E+02  0.88850386218E+02 0.  0.
         11    1    3    3    0    0 -0.29488470065E+02  0.68098624905E-01  0.20075196759E+02  0.35673351811E+02  0.51100000000E-03 0. -1.
         22    1    1    0    0    0 -0.41823898475E+01  0.19971310896E+02  0.23234701893E+02  0.30922435476E+02  0.00000000000E+00 0.  1.
</event>
<event>
 5    1  0.8907853E-005  0.9118800E+02  0.7818608E-02  0.1130116E+00
         25   -1    0    0    0    0  0.00000000000E+00  0.00000000000E+00  0.99999998245E-14  0.12500000000E+03  0.12500000000E+03 0.  0.
        -11    1    3    3    0    0 -0.40281476681E+02  0.96039338035E+01  0.65396065258E+01  0.41923732680E+02  0.51100000000E-03 0.  1.
         23    2    1    0    0    0 -0.72171631961E+00  0.26309036989E+02  0.25031588325E+02  0.88678288644E+02  0.80898530031E+02 0.  0.
         11    1    3    3    0    0  0.39559760361E+02  0.16705103185E+02  0.18491981800E+02  0.46754555964E+02  0.51100000000E-03 0. -1.
         22    1    1    0    0    0  0.72171631961E+00 -0.26309036989E+02 -0.25031588325E+02  0.36321711356E+02  0.00000000000E+00 0. -1.
</event>
<event>
 5    1  0.8907853E-005  0.9118800E+02  0.7818608E-02  0.1130116E+00
         25   -1    0    0    0    0  0.00000000000E+00  0.00000000000E+00  0.99999998245E-14  0.12500000000E+03  0.12500000000E+03 0.  0.
        -11    1    3    3    0    0 -0.27602610121E+02 -0.14373019688E+02 -0.22285694118E+02  0.38277146485E+02  0.51100000000E-03 0.  1.
         23    2    1    0    0    0  0.26713679159E+02 -0.65343808567E+01 -0.26016489883E-01  0.97498737043E+02  0.93539746957E+02 0.  0.
         11    1    3    3    0    0  0.54316289280E+02  0.78386388309E+01  0.22259677628E+02  0.59221590558E+02  0.51100000000E-03 0. -1.
         22    1    1    0    0    0 -0.26713679159E+02  0.65343808567E+01  0.26016489883E-01  0.27501262957E+02  0.00000000000E+00 0. -1.
</event>
<event>
 5    1  0.8907853E-005  0.9118800E+02  0.7818608E-02  0.1130116E+00
         25   -1    0    0    0    0  0.00000000000E+00  0.00000000000E+00  0.99999998245E-14  0.12500000000E+03  0.12500000000E+03 0.  0.
        -11    1    3    3    0    0  0.38071362640E+02 -0.91895441037E+01 -0.82878390214E+01  0.40032045289E+02  0.51100000000E-03 0.  1.
         23    2    1    0    0    0 -0.12083553864E+02  0.10281717954E+02 -0.24133012078E+02  0.96118721115E+02  0.91677043357E+02 0.  0.
         11    1    3    3    0    0 -0.50154916505E+02  0.19471262058E+02 -0.15845173057E+02  0.56086675826E+02  0.51100000000E-03 0. -1.
         22    1    1    0    0    0  0.12083553864E+02 -0.10281717954E+02  0.24133012078E+02  0.28881278885E+02  0.00000000000E+00 0. -1.
</event>
<event>
 5    1  0.8907853E-005  0.9118800E+02  0.7818608E-02  0.1130116E+00
         25   -1    0    0    0    0  0.00000000000E+00  0.00000000000E+00  0.99999998245E-14  0.12500000000E+03  0.12500000000E+03 0.  0.
        -11    1    3    3    0    0 -0.34971538408E+02 -0.97955071924E+01 -0.15907746639E+02  0.39648667861E+02  0.51100000000E-03 0.  1.
         23    2    1    0    0    0 -0.49332721190E+01  0.12535055083E+02  0.25926383255E+02  0.95782845306E+02  0.91217933141E+02 0.  0.
         11    1    3    3    0    0  0.30038266289E+02  0.22330562275E+02  0.41834129894E+02  0.56134177445E+02  0.51100000000E-03 0. -1.
         22    1    1    0    0    0  0.49332721190E+01 -0.12535055083E+02 -0.25926383255E+02  0.29217154694E+02  0.00000000000E+00 0. -1.
</event>
<event>
 5    1  0.8907853E-005  0.9118800E+02  0.7818608E-02  0.1130116E+00
         25   -1    0    0    0    0  0.00000000000E+00  0.00000000000E+00  0.99999998245E-14  0.12500000000E+03  0.12500000000E+03 0.  0.
        -11    1    3    3    0    0  0.28463684055E+01  0.40525351661E+01 -0.37765938000E+02  0.38089249502E+02  0.51100000000E-03 0.  1.
         23    2    1    0    0    0  0.11005195108E+02 -0.23722122877E+02  0.12438697775E+02  0.96041846822E+02  0.91572166653E+02 0.  0.
         11    1    3    3    0    0  0.81588267021E+01 -0.27774658043E+02  0.50204635775E+02  0.57952597320E+02  0.51100000000E-03 0. -1.
         22    1    1    0    0    0 -0.11005195108E+02  0.23722122877E+02 -0.12438697775E+02  0.28958153178E+02  0.00000000000E+00 0. -1.
</event>
<event>
 5    1  0.8907853E-005  0.9118800E+02  0.7818608E-02  0.1130116E+00
         25   -1    0    0    0    0  0.00000000000E+00  0.00000000000E+00  0.99999998245E-14  0.12500000000E+03  0.12500000000E+03 0.  0.
        -11    1    3    3    0    0  0.24767831186E+02  0.52340562770E+01 -0.33437172585E+02  0.41939066722E+02  0.51100000000E-03 0.  1.
         23    2    1    0    0    0  0.17516704577E+02 -0.65943468727E+01  0.20270550223E+02  0.97409864874E+02  0.93420908894E+02 0.  0.
         11    1    3    3    0    0 -0.72511266086E+01 -0.11828403150E+02  0.53707722808E+02  0.55470798152E+02  0.51100000000E-03 0. -1.
         22    1    1    0    0    0 -0.17516704577E+02  0.65943468727E+01 -0.20270550223E+02  0.27590135126E+02  0.00000000000E+00 0. -1.
</event>
<event>
 5    1  0.8907853E-005  0.9118800E+02  0.7818608E-02  0.1130116E+00
         25   -1    0    0    0    0  0.00000000000E+00  0.00000000000E+00  0.99999998245E-14  0.12500000000E+03  0.12500000000E+03 0.  0.
        -11    1    3    3    0    0  0.33180943534E+02 -0.23923378381E+02 -0.33341606498E+02  0.52772774904E+02  0.51100000000E-03 0. -1.
         23    2    1    0    0    0  0.51144263985E+00 -0.28605350991E+02 -0.56880739621E+01  0.95830120598E+02  0.91282693593E+02 0.  0.
         11    1    3    3    0    0 -0.32669500895E+02 -0.46819726106E+01  0.27653532536E+02  0.43057345694E+02  0.51100000000E-03 0.  1.
         22    1    1    0    0    0 -0.51144263985E+00  0.28605350991E+02  0.56880739621E+01  0.29169879402E+02  0.00000000000E+00 0. -1.
</event>
<event>
 5    1  0.8907853E-005  0.9118800E+02  0.7818608E-02  0.1130116E+00
         25   -1    0    0    0    0  0.00000000000E+00  0.00000000000E+00  0.99999998245E-14  0.12500000000E+03  0.12500000000E+03 0.  0.
        -11    1    3    3    0    0  0.12242422336E+02 -0.31362872254E+02  0.19395438742E+02  0.38854725644E+02  0.51100000000E-03 0.  1.
         23    2    1    0    0    0 -0.47976592874E+01 -0.47775096796E+01 -0.28214292498E+02  0.95984686207E+02  0.91494106650E+02 0.  0.
         11    1    3    3    0    0 -0.17040081624E+02  0.26585362574E+02 -0.47609731239E+02  0.57129960562E+02  0.51100000000E-03 0. -1.
         22    1    1    0    0    0  0.47976592874E+01  0.47775096796E+01  0.28214292498E+02  0.29015313793E+02  0.00000000000E+00 0. -1.
</event>
<event>
 5    1  0.8907853E-005  0.9118800E+02  0.7818608E-02  0.1130116E+00
         25   -1    0    0    0    0  0.00000000000E+00  0.00000000000E+00  0.99999998245E-14  0.12500000000E+03  0.12500000000E+03 0.  0.
        -11    1    3    3    0    0  0.27328223188E+02  0.19348152391E+02  0.41085526111E+01  0.33735189170E+02  0.51100000000E-03 0.  1.
         23    2    1    0    0    0 -0.26344044383E+02 -0.77749593175E+01 -0.10455453127E+02  0.95609947823E+02  0.90980695512E+02 0.  0.
         11    1    3    3    0    0 -0.53672267571E+02 -0.27123111709E+02 -0.14564005738E+02  0.61874758653E+02  0.51100000000E-03 0. -1.
         22    1    1    0    0    0  0.26344044383E+02  0.77749593175E+01  0.10455453127E+02  0.29390052177E+02  0.00000000000E+00 0. -1.
</event>
<event>
 5    1  0.8907853E-005  0.9118800E+02  0.7818608E-02  0.1130116E+00
         25   -1    0    0    0    0  0.00000000000E+00  0.00000000000E+00  0.99999998245E-14  0.12500000000E+03  0.12500000000E+03 0.  0.
        -11    1    3    3    0    0  0.29555049142E+02  0.59404101650E+01  0.16633603533E+02  0.34430599319E+02  0.51100000000E-03 0.  1.
         23    2    1    0    0    0  0.36216130436E+01 -0.31551286400E+01 -0.33261388458E+02  0.91393588708E+02  0.84990571106E+02 0.  0.
         11    1    3    3    0    0 -0.25933436098E+02 -0.90955388050E+01 -0.49894991991E+02  0.56962989389E+02  0.51100000000E-03 0. -1.
         22    1    1    0    0    0 -0.36216130436E+01  0.31551286400E+01  0.33261388458E+02  0.33606411292E+02  0.00000000000E+00 0. -1.
</event>
<event>
 5    1  0.8907853E-005  0.9118800E+02  0.7818608E-02  0.1130116E+00
         25   -1    0    0    0    0  0.00000000000E+00  0.00000000000E+00  0.99999998245E-14  0.12500000000E+03  0.12500000000E+03 0.  0.
        -11    1    3    3    0    0 -0.24543746447E+02 -0.22993160144E+02 -0.14964644462E+02  0.36810616502E+02  0.51100000000E-03 0.  1.
         23    2    1    0    0    0  0.14284188790E+02  0.20845436752E+02 -0.15463647942E+02  0.95374087517E+02  0.90656063665E+02 0.  0.
         11    1    3    3    0    0  0.38827935237E+02  0.43838596897E+02 -0.49900347968E+00  0.58563471015E+02  0.51100000000E-03 0. -1.
         22    1    1    0    0    0 -0.14284188790E+02 -0.20845436752E+02  0.15463647942E+02  0.29625912483E+02  0.00000000000E+00 0. -1.
</event>
<event>
 5    1  0.8907853E-005  0.9118800E+02  0.7818608E-02  0.1130116E+00
         25   -1    0    0    0    0  0.00000000000E+00  0.00000000000E+00  0.99999998245E-14  0.12500000000E+03  0.12500000000E+03 0.  0.
        -11    1    3    3    0    0  0.25170379440E+02  0.22446781553E+02  0.16599490511E+02  0.37589215059E+02  0.51100000000E-03 0. -1.
         23    2    1    0    0    0  0.51053941218E+01 -0.29445071193E+02  0.23365133798E+01  0.95024400566E+02  0.90172613034E+02 0.  0.
         11    1    3    3    0    0 -0.20064985318E+02 -0.51891852746E+02 -0.14262977131E+02  0.57435185506E+02  0.51100000000E-03 0.  1.
         22    1    1    0    0    0 -0.51053941218E+01  0.29445071193E+02 -0.23365133798E+01  0.29975599434E+02  0.00000000000E+00 0.  1.
</event>
<event>
 5    1  0.8907853E-005  0.9118800E+02  0.7818608E-02  0.1130116E+00
         25   -1    0    0    0    0  0.00000000000E+00  0.00000000000E+00  0.99999998245E-14  0.12500000000E+03  0.12500000000E+03 0.  0.
        -11    1    3    3    0    0  0.30786606529E+02 -0.29827310756E+01 -0.19125858868E+02  0.36366334761E+02  0.51100000000E-03 0.  1.
         23    2    1    0    0    0 -0.26759109776E+02  0.20134932892E+01 -0.14956117577E+02  0.94278841750E+02  0.89133105172E+02 0.  0.
         11    1    3    3    0    0 -0.57545716305E+02  0.49962243648E+01  0.41697412912E+01  0.57912506989E+02  0.51100000000E-03 0. -1.
         22    1    1    0    0    0  0.26759109776E+02 -0.20134932892E+01  0.14956117577E+02  0.30721158250E+02  0.00000000000E+00 0. -1.
</event>
<event>
 5    1  0.8907853E-005  0.9118800E+02  0.7818608E-02  0.1130116E+00
         25   -1    0    0    0    0  0.00000000000E+00  0.00000000000E+00  0.99999998245E-14  0.12500000000E+03  0.12500000000E+03 0.  0.
        -11    1    3    3    0    0  0.51076233248E+02 -0.19861337180E+02  0.19984625239E+01  0.54838382271E+02  0.51100000000E-03 0. -1.
         23    2    1    0    0    0  0.14673510229E+02 -0.25455691933E+02 -0.10601099343E+02  0.93764003753E+02  0.88408149728E+02 0.  0.
         11    1    3    3    0    0 -0.36402723019E+02 -0.55943547531E+01 -0.12599561867E+02  0.38925621483E+02  0.51100000000E-03 0.  1.
         22    1    1    0    0    0 -0.14673510229E+02  0.25455691933E+02  0.10601099343E+02  0.31235996247E+02  0.00000000000E+00 0. -1.
</event>
<event>
 4    1  0.8907853E-005  0.9118800E+02  0.7818608E-02  0.1130116E+00
         25   -1    0    0    0    0  0.00000000000E+00  0.00000000000E+00  0.99999998245E-14  0.12500000000E+03  0.12500000000E+03 0.  0.
        -11    1    1    0    0    0 -0.15298194462E+02 -0.44329299276E+02 -0.52638334459E+01  0.47189294029E+02  0.51100000000E-03 0. -1.
         11    1    1    0    0    0  0.14503768222E+02 -0.40877718601E+01  0.21922320467E+02  0.26601829004E+02  0.51100000000E-03 0.  1.
         22    1    1    0    0    0  0.79442624040E+00  0.48417071136E+02 -0.16658487021E+02  0.51208876968E+02  0.00000000000E+00 0. -1.
</event>
<event>
 5    1  0.8907853E-005  0.9118800E+02  0.7818608E-02  0.1130116E+00
         25   -1    0    0    0    0  0.00000000000E+00  0.00000000000E+00  0.99999998245E-14  0.12500000000E+03  0.12500000000E+03 0.  0.
        -11    1    3    3    0    0 -0.17850042948E+02  0.43880971132E+02 -0.33622632898E+01  0.47491772713E+02  0.51100000000E-03 0. -1.
         23    2    1    0    0    0  0.20351880802E+02  0.15535527227E+02 -0.13389526881E+02  0.96106556305E+02  0.91660455358E+02 0.  0.
         11    1    3    3    0    0  0.38201923751E+02 -0.28345443904E+02 -0.10027263591E+02  0.48614783593E+02  0.51100000000E-03 0.  1.
         22    1    1    0    0    0 -0.20351880802E+02 -0.15535527227E+02  0.13389526881E+02  0.28893443695E+02  0.00000000000E+00 0. -1.
</event>
<event>
 5    1  0.8907853E-005  0.9118800E+02  0.7818608E-02  0.1130116E+00
         25   -1    0    0    0    0  0.00000000000E+00  0.00000000000E+00  0.99999998245E-14  0.12500000000E+03  0.12500000000E+03 0.  0.
        -11    1    3    3    0    0 -0.41525460525E+02 -0.23276822132E+02  0.14417491932E+02  0.49739706416E+02  0.51100000000E-03 0. -1.
         23    2    1    0    0    0  0.26921360836E+00 -0.69005053214E+01  0.27620217879E+02  0.96529561202E+02  0.92235515397E+02 0.  0.
         11    1    3    3    0    0  0.41794674134E+02  0.16376316811E+02  0.13202725947E+02  0.46789854786E+02  0.51100000000E-03 0.  1.
         22    1    1    0    0    0 -0.26921360836E+00  0.69005053214E+01 -0.27620217879E+02  0.28470438798E+02  0.00000000000E+00 0. -1.
</event>
<event>
 5    1  0.8907853E-005  0.9118800E+02  0.7818608E-02  0.1130116E+00
         25   -1    0    0    0    0  0.00000000000E+00  0.00000000000E+00  0.99999998245E-14  0.12500000000E+03  0.12500000000E+03 0.  0.
        -11    1    3    3    0    0 -0.31151140483E+02 -0.23693947763E+01  0.37333706620E+02  0.48680727555E+02  0.51100000000E-03 0.  1.
         23    2    1    0    0    0 -0.19454606396E+02 -0.27656560910E+02  0.59159876680E+01  0.90672664224E+02  0.83923572707E+02 0.  0.
         11    1    3    3    0    0  0.11696534087E+02 -0.25287166134E+02 -0.31417718952E+02  0.41991936669E+02  0.51100000000E-03 0. -1.
         22    1    1    0    0    0  0.19454606396E+02  0.27656560910E+02 -0.59159876680E+01  0.34327335776E+02  0.00000000000E+00 0.  1.
</event>
<event>
 5    1  0.8907853E-005  0.9118800E+02  0.7818608E-02  0.1130116E+00
         25   -1    0    0    0    0  0.00000000000E+00  0.00000000000E+00  0.99999998245E-14  0.12500000000E+03  0.12500000000E+03 0.  0.
        -11    1    3    3    0    0 -0.55561741895E+02  0.10981861486E+02 -0.39022430689E+01  0.56770907561E+02  0.51100000000E-03 0.  1.
         23    2    1    0    0    0 -0.26416475357E+02 -0.93261901463E+01 -0.13973872227E+02  0.93693816937E+02  0.88308857055E+02 0.  0.
         11    1    3    3    0    0  0.29145266538E+02 -0.20308051632E+02 -0.10071629158E+02  0.36922909376E+02  0.51100000000E-03 0. -1.
         22    1    1    0    0    0  0.26416475357E+02  0.93261901463E+01  0.13973872227E+02  0.31306183063E+02  0.00000000000E+00 0.  1.
</event>
<event>
 5    1  0.8907853E-005  0.9118800E+02  0.7818608E-02  0.1130116E+00
         25   -1    0    0    0    0  0.00000000000E+00  0.00000000000E+00  0.99999998245E-14  0.12500000000E+03  0.12500000000E+03 0.  0.
        -11    1    3    3    0    0 -0.58115471409E+01 -0.61598448908E+02 -0.61005895217E+01  0.62172020884E+02  0.51100000000E-03 0.  1.
         23    2    1    0    0    0 -0.70771390587E+01 -0.28220317531E+02 -0.38854142671E+01  0.95647510109E+02  0.91032288377E+02 0.  0.
         11    1    3    3    0    0 -0.12655919178E+01  0.33378131377E+02  0.22151752547E+01  0.33475489225E+02  0.51100000000E-03 0. -1.
         22    1    1    0    0    0  0.70771390587E+01  0.28220317531E+02  0.38854142671E+01  0.29352489891E+02  0.00000000000E+00 0.  1.
</event>
<event>
 5    1  0.8907853E-005  0.9118800E+02  0.7818608E-02  0.1130116E+00
         25   -1    0    0    0    0  0.00000000000E+00  0.00000000000E+00  0.99999998245E-14  0.12500000000E+03  0.12500000000E+03 0.  0.
        -11    1    3    3    0    0  0.45028446549E+01  0.39030151275E+02 -0.17954487341E+02  0.43197128775E+02  0.51100000000E-03 0. -1.
         23    2    1    0    0    0  0.20622924218E+02 -0.10796262030E+02 -0.18013256620E+02  0.95566317064E+02  0.90920730672E+02 0.  0.
         11    1    3    3    0    0  0.16120079563E+02 -0.49826413305E+02 -0.58769279535E-01  0.52369188289E+02  0.51100000000E-03 0.  1.
         22    1    1    0    0    0 -0.20622924218E+02  0.10796262030E+02  0.18013256620E+02  0.29433682936E+02  0.00000000000E+00 0.  1.
</event>
<event>
 5    1  0.8907853E-005  0.9118800E+02  0.7818608E-02  0.1130116E+00
         25   -1    0    0    0    0  0.00000000000E+00  0.00000000000E+00  0.99999998245E-14  0.12500000000E+03  0.12500000000E+03 0.  0.
        -11    1    3    3    0    0 -0.25270387726E+02 -0.53737734067E+02 -0.15325331773E+02  0.61328642189E+02  0.51100000000E-03 0.  1.
         23    2    1    0    0    0 -0.85539098307E+01 -0.23828756367E+02 -0.14957501542E+02  0.95594118687E+02  0.90958944980E+02 0.  0.
         11    1    3    3    0    0  0.16716477896E+02  0.29908977700E+02  0.36783023037E+00  0.34265476498E+02  0.51100000000E-03 0. -1.
         22    1    1    0    0    0  0.85539098307E+01  0.23828756367E+02  0.14957501542E+02  0.29405881313E+02  0.00000000000E+00 0.  1.
</event>
<event>
 5    1  0.8907853E-005  0.9118800E+02  0.7818608E-02  0.1130116E+00
         25   -1    0    0    0    0  0.00000000000E+00  0.00000000000E+00  0.99999998245E-14  0.12500000000E+03  0.12500000000E+03 0.  0.
        -11    1    3    3    0    0  0.21592904936E+02 -0.98261945103E+01 -0.52670354628E+02  0.57766546539E+02  0.51100000000E-03 0.  1.
         23    2    1    0    0    0 -0.51339040041E+01 -0.13532810772E+02 -0.22541630714E+02  0.98211587338E+02  0.94487548568E+02 0.  0.
         11    1    3    3    0    0 -0.26726808940E+02 -0.37066162620E+01  0.30128723914E+02  0.40445040799E+02  0.51100000000E-03 0. -1.
         22    1    1    0    0    0  0.51339040041E+01  0.13532810772E+02  0.22541630714E+02  0.26788412662E+02  0.00000000000E+00 0.  1.
</event>
<event>
 5    1  0.8907853E-005  0.9118800E+02  0.7818608E-02  0.1130116E+00
         25   -1    0    0    0    0  0.00000000000E+00  0.00000000000E+00  0.99999998245E-14  0.12500000000E+03  0.12500000000E+03 0.  0.
        -11    1    3    3    0    0  0.60135280075E+00 -0.28977416763E+02 -0.39047064633E+02  0.48628443983E+02  0.51100000000E-03 0.  1.
         23    2    1    0    0    0 -0.99942853885E+00  0.14994271221E+02 -0.26754345370E+02  0.94314139689E+02  0.89182593157E+02 0.  0.
         11    1    3    3    0    0 -0.16007813396E+01  0.43971687984E+02  0.12292719263E+02  0.45685695706E+02  0.51100000000E-03 0. -1.
         22    1    1    0    0    0  0.99942853885E+00 -0.14994271221E+02  0.26754345370E+02  0.30685860311E+02  0.00000000000E+00 0. -1.
</event>
<event>
 5    1  0.8907853E-005  0.9118800E+02  0.7818608E-02  0.1130116E+00
         25   -1    0    0    0    0  0.00000000000E+00  0.00000000000E+00  0.99999998245E-14  0.12500000000E+03  0.12500000000E+03 0.  0.
        -11    1    3    3    0    0  0.16408570252E+02 -0.52778227171E+02 -0.25867318903E+02  0.61023771012E+02  0.51100000000E-03 0.  1.
         23    2    1    0    0    0  0.41222959451E+01 -0.29484950508E+02 -0.45975911066E+01  0.94875367649E+02  0.89965781897E+02 0.  0.
         11    1    3    3    0    0 -0.12286274307E+02  0.23293276663E+02  0.21269727797E+02  0.33851596637E+02  0.51100000000E-03 0. -1.
         22    1    1    0    0    0 -0.41222959451E+01  0.29484950508E+02  0.45975911066E+01  0.30124632351E+02  0.00000000000E+00 0.  1.
</event>
<event>
 5    1  0.8907853E-005  0.9118800E+02  0.7818608E-02  0.1130116E+00
         25   -1    0    0    0    0  0.00000000000E+00  0.00000000000E+00  0.99999998245E-14  0.12500000000E+03  0.12500000000E+03 0.  0.
        -11    1    3    3    0    0 -0.42833370644E+02 -0.18727383077E+02  0.39243325319E+02  0.61036473521E+02  0.51100000000E-03 0.  1.
         23    2    1    0    0    0 -0.17343823370E+02 -0.14633467050E+02  0.27353330606E+02  0.89459160642E+02  0.82096225008E+02 0.  0.
         11    1    3    3    0    0  0.25489547273E+02  0.40939160261E+01 -0.11889994713E+02  0.28422687121E+02  0.51100000000E-03 0. -1.
         22    1    1    0    0    0  0.17343823370E+02  0.14633467050E+02 -0.27353330606E+02  0.35540839358E+02  0.00000000000E+00 0.  1.
</event>
<event>
 5    1  0.8907853E-005  0.9118800E+02  0.7818608E-02  0.1130116E+00
         25   -1    0    0    0    0  0.00000000000E+00  0.00000000000E+00  0.99999998245E-14  0.12500000000E+03  0.12500000000E+03 0.  0.
        -11    1    3    3    0    0 -0.18500828746E+02  0.24567087641E+01  0.28286535485E+02  0.33888702723E+02  0.51100000000E-03 0.  1.
         23    2    1    0    0    0  0.30249858926E+02  0.97814626075E+00 -0.68110132273E+01  0.93977417317E+02  0.88709381292E+02 0.  0.
         11    1    3    3    0    0  0.48750687672E+02 -0.14785625034E+01 -0.35097548713E+02  0.60088714593E+02  0.51100000000E-03 0. -1.
         22    1    1    0    0    0 -0.30249858926E+02 -0.97814626075E+00  0.68110132273E+01  0.31022582683E+02  0.00000000000E+00 0. -1.
</event>
<event>
 5    1  0.8907853E-005  0.9118800E+02  0.7818608E-02  0.1130116E+00
         25   -1    0    0    0    0  0.00000000000E+00  0.00000000000E+00  0.99999998245E-14  0.12500000000E+03  0.12500000000E+03 0.  0.
        -11    1    3    3    0    0  0.16528565805E+02 -0.44392129322E+02 -0.21074751752E+02  0.51845923610E+02  0.51100000000E-03 0.  1.
         23    2    1    0    0    0  0.18793624011E+02 -0.25974754475E+02  0.12806777727E+02  0.90476070194E+02  0.83630243026E+02 0.  0.
         11    1    3    3    0    0  0.22650582058E+01  0.18417374848E+02  0.33881529480E+02  0.38630146584E+02  0.51100000000E-03 0. -1.
         22    1    1    0    0    0 -0.18793624011E+02  0.25974754475E+02 -0.12806777727E+02  0.34523929806E+02  0.00000000000E+00 0.  1.
</event>
<event>
 5    1  0.8907853E-005  0.9118800E+02  0.7818608E-02  0.1130116E+00
         25   -1    0    0    0    0  0.00000000000E+00  0.00000000000E+00  0.99999998245E-14  0.12500000000E+03  0.12500000000E+03 0.  0.
        -11    1    3    3    0    0  0.27061911306E+02  0.87861534628E+00 -0.37083563291E+02  0.45916333423E+02  0.51100000000E-03 0.  1.
         23    2    1    0    0    0  0.24471524454E+02 -0.38318614714E+01  0.13503751337E+02  0.96788478035E+02  0.92585741390E+02 0.  0.
         11    1    3    3    0    0 -0.25903868521E+01 -0.47104768177E+01  0.50587314628E+02  0.50872144612E+02  0.51100000000E-03 0. -1.
         22    1    1    0    0    0 -0.24471524454E+02  0.38318614714E+01 -0.13503751337E+02  0.28211521965E+02  0.00000000000E+00 0. -1.
</event>
<event>
 5    1  0.8907853E-005  0.9118800E+02  0.7818608E-02  0.1130116E+00
         25   -1    0    0    0    0  0.00000000000E+00  0.00000000000E+00  0.99999998245E-14  0.12500000000E+03  0.12500000000E+03 0.  0.
        -11    1    3    3    0    0  0.10701151044E+02 -0.60146091376E+02  0.68860019942E+01  0.61477507799E+02  0.51100000000E-03 0. -1.
         23    2    1    0    0    0  0.18639367787E+01 -0.22542823084E+02 -0.48847043503E+01  0.10185883604E+03  0.99195307397E+02 0.  0.
         11    1    3    3    0    0 -0.88372142649E+01  0.37603268293E+02 -0.11770706345E+02  0.40381328239E+02  0.51100000000E-03 0.  1.
         22    1    1    0    0    0 -0.18639367787E+01  0.22542823084E+02  0.48847043503E+01  0.23141163961E+02  0.00000000000E+00 0. -1.
</event>
<event>
 5    1  0.8907853E-005  0.9118800E+02  0.7818608E-02  0.1130116E+00
         25   -1    0    0    0    0  0.00000000000E+00  0.00000000000E+00  0.99999998245E-14  0.12500000000E+03  0.12500000000E+03 0.  0.
        -11    1    3    3    0    0 -0.54510031235E+02  0.12468681431E+02  0.47789298653E+01  0.56121739931E+02  0.51100000000E-03 0.  1.
         23    2    1    0    0    0 -0.26304402444E+02  0.15010298327E+02 -0.15523809649E+02  0.90967378740E+02  0.84361393332E+02 0.  0.
         11    1    3    3    0    0  0.28205628791E+02  0.25416168961E+01 -0.20302739515E+02  0.34845638809E+02  0.51100000000E-03 0. -1.
         22    1    1    0    0    0  0.26304402444E+02 -0.15010298327E+02  0.15523809649E+02  0.34032621260E+02  0.00000000000E+00 0.  1.
</event>
<event>
 5    1  0.8907853E-005  0.9118800E+02  0.7818608E-02  0.1130116E+00
         25   -1    0    0    0    0  0.00000000000E+00  0.00000000000E+00  0.99999998245E-14  0.12500000000E+03  0.12500000000E+03 0.  0.
        -11    1    3    3    0    0 -0.12118920239E+02  0.30963580200E+02 -0.96195962767E+01  0.34614276814E+02  0.51100000000E-03 0.  1.
         23    2    1    0    0    0 -0.19808123845E+01 -0.23709078112E+02  0.16498589961E+02  0.96047496251E+02  0.91579878045E+02 0.  0.
         11    1    3    3    0    0  0.10138107855E+02 -0.54672658312E+02  0.26118186238E+02  0.61433219437E+02  0.51100000000E-03 0. -1.
         22    1    1    0    0    0  0.19808123845E+01  0.23709078112E+02 -0.16498589961E+02  0.28952503749E+02  0.00000000000E+00 0. -1.
</event>
<event>
 5    1  0.8907853E-005  0.9118800E+02  0.7818608E-02  0.1130116E+00
         25   -1    0    0    0    0  0.00000000000E+00  0.00000000000E+00  0.99999998245E-14  0.12500000000E+03  0.12500000000E+03 0.  0.
        -11    1    3    3    0    0 -0.17417417497E+02 -0.11333817672E+02 -0.44280721560E+01  0.21246874560E+02  0.51100000000E-03 0. -1.
         23    2    1    0    0    0  0.24731970129E+02 -0.41407752861E+02 -0.15775452162E+02  0.74254189982E+02  0.54208371083E+02 0.  0.
         11    1    3    3    0    0  0.42149387626E+02 -0.30073935189E+02 -0.11347380006E+02  0.53007315422E+02  0.51100000000E-03 0.  1.
         22    1    1    0    0    0 -0.24731970129E+02  0.41407752861E+02  0.15775452162E+02  0.50745810018E+02  0.00000000000E+00 0.  1.
</event>
<event>
 5    1  0.8907853E-005  0.9118800E+02  0.7818608E-02  0.1130116E+00
         25   -1    0    0    0    0  0.00000000000E+00  0.00000000000E+00  0.99999998245E-14  0.12500000000E+03  0.12500000000E+03 0.  0.
        -11    1    3    3    0    0 -0.37764429895E+02 -0.77874407402E+01  0.32412117309E+02  0.50372033385E+02  0.51100000000E-03 0. -1.
         23    2    1    0    0    0 -0.12670880619E+02  0.23709640168E+02  0.11338630965E+02  0.95823591641E+02  0.91273752582E+02 0.  0.
         11    1    3    3    0    0  0.25093549276E+02  0.31497080908E+02 -0.21073486344E+02  0.45451558257E+02  0.51100000000E-03 0.  1.
         22    1    1    0    0    0  0.12670880619E+02 -0.23709640168E+02 -0.11338630965E+02  0.29176408359E+02  0.00000000000E+00 0. -1.
</event>
<event>
 5    1  0.8907853E-005  0.9118800E+02  0.7818608E-02  0.1130116E+00
         25   -1    0    0    0    0  0.00000000000E+00  0.00000000000E+00  0.99999998245E-14  0.12500000000E+03  0.12500000000E+03 0.  0.
        -11    1    3    3    0    0 -0.27072270660E+02 -0.28063006849E+02 -0.24192174879E+02  0.45887923441E+02  0.51100000000E-03 0.  1.
         23    2    1    0    0    0 -0.14107276149E+02 -0.21342141065E+02  0.20061569889E+02  0.92488943235E+02  0.86586579842E+02 0.  0.
         11    1    3    3    0    0  0.12964994511E+02  0.67208657838E+01  0.44253744768E+02  0.46601019794E+02  0.51100000000E-03 0. -1.
         22    1    1    0    0    0  0.14107276149E+02  0.21342141065E+02 -0.20061569889E+02  0.32511056765E+02  0.00000000000E+00 0.  1.
</event>
<event>
 5    1  0.8907853E-005  0.9118800E+02  0.7818608E-02  0.1130116E+00
         25   -1    0    0    0    0  0.00000000000E+00  0.00000000000E+00  0.99999998245E-14  0.12500000000E+03  0.12500000000E+03 0.  0.
        -11    1    3    3    0    0  0.16168294571E+02  0.39165235551E+02  0.33880284737E+02  0.54251296014E+02  0.51100000000E-03 0.  1.
         23    2    1    0    0    0  0.49717643730E+01 -0.33069437533E+00  0.28979698281E+02  0.95595056331E+02  0.90960233524E+02 0.  0.
         11    1    3    3    0    0 -0.11196530198E+02 -0.39495929926E+02 -0.49005864561E+01  0.41343760316E+02  0.51100000000E-03 0. -1.
         22    1    1    0    0    0 -0.49717643730E+01  0.33069437533E+00 -0.28979698281E+02  0.29404943669E+02  0.00000000000E+00 0.  1.
</event>
<event>
 5    1  0.8907853E-005  0.9118800E+02  0.7818608E-02  0.1130116E+00
         25   -1    0    0    0    0  0.00000000000E+00  0.00000000000E+00  0.99999998245E-14  0.12500000000E+03  0.12500000000E+03 0.  0.
        -11    1    3    3    0    0 -0.55016601082E+01 -0.33605935648E+02 -0.19536620939E+02  0.39259479527E+02  0.51100000000E-03 0.  1.
         23    2    1    0    0    0 -0.22283762297E+02  0.18335133383E+02 -0.54528521336E+01  0.95632045106E+02  0.91011050299E+02 0.  0.
         11    1    3    3    0    0 -0.16782102188E+02  0.51941069031E+02  0.14083768805E+02  0.56372565579E+02  0.51100000000E-03 0. -1.
         22    1    1    0    0    0  0.22283762297E+02 -0.18335133383E+02  0.54528521336E+01  0.29367954894E+02  0.00000000000E+00 0. -1.
</event>
<event>
 5    1  0.8907853E-005  0.9118800E+02  0.7818608E-02  0.1130116E+00
         25   -1    0    0    0    0  0.00000000000E+00  0.00000000000E+00  0.99999998245E-14  0.12500000000E+03  0.12500000000E+03 0.  0.
        -11    1    3    3    0    0  0.28488341896E+02  0.19352775177E+02  0.62032426986E+01  0.34994224542E+02  0.51100000000E-03 0.  1.
         23    2    1    0    0    0 -0.13525737547E+02 -0.73981249032E+01 -0.26332223350E+02  0.94486661690E+02  0.89424076302E+02 0.  0.
         11    1    3    3    0    0 -0.42014079443E+02 -0.26750900080E+02 -0.32535466049E+02  0.59492437148E+02  0.51100000000E-03 0. -1.
         22    1    1    0    0    0  0.13525737547E+02  0.73981249032E+01  0.26332223350E+02  0.30513338310E+02  0.00000000000E+00 0. -1.
</event>
<event>
 5    1  0.8907853E-005  0.9118800E+02  0.7818608E-02  0.1130116E+00
         25   -1    0    0    0    0  0.00000000000E+00  0.00000000000E+00  0.99999998245E-14  0.12500000000E+03  0.12500000000E+03 0.  0.
        -11    1    3    3    0    0  0.22576793620E+02  0.15289493560E+02  0.23339190972E+02  0.35891476132E+02  0.51100000000E-03 0.  1.
         23    2    1    0    0    0 -0.38590616369E+01 -0.15276653650E+02 -0.22837367200E+02  0.97254480649E+02  0.93212768236E+02 0.  0.
         11    1    3    3    0    0 -0.26435855256E+02 -0.30566147210E+02 -0.46176558172E+02  0.61363004516E+02  0.51100000000E-03 0. -1.
         22    1    1    0    0    0  0.38590616369E+01  0.15276653650E+02  0.22837367200E+02  0.27745519351E+02  0.00000000000E+00 0. -1.
</event>
<event>
 5    1  0.8907853E-005  0.9118800E+02  0.7818608E-02  0.1130116E+00
         25   -1    0    0    0    0  0.00000000000E+00  0.00000000000E+00  0.99999998245E-14  0.12500000000E+03  0.12500000000E+03 0.  0.
        -11    1    3    3    0    0 -0.21740267682E+02 -0.14980865063E+02 -0.32581018196E+02  0.41935525558E+02  0.51100000000E-03 0. -1.
         23    2    1    0    0    0  0.23272300778E+02  0.92229129400E+01 -0.14014765524E+02  0.96310703053E+02  0.91938434636E+02 0.  0.
         11    1    3    3    0    0  0.45012568461E+02  0.24203778003E+02  0.18566252672E+02  0.54375177495E+02  0.51100000000E-03 0.  1.
         22    1    1    0    0    0 -0.23272300778E+02 -0.92229129400E+01  0.14014765524E+02  0.28689296947E+02  0.00000000000E+00 0.  1.
</event>
<event>
 5    1  0.8907853E-005  0.9118800E+02  0.7818608E-02  0.1130116E+00
         25   -1    0    0    0    0  0.00000000000E+00  0.00000000000E+00  0.99999998245E-14  0.12500000000E+03  0.12500000000E+03 0.  0.
        -11    1    3    3    0    0 -0.23268178329E+02  0.27057911788E+02  0.23332140293E+01  0.35762866231E+02  0.51100000000E-03 0. -1.
         23    2    1    0    0    0  0.40646585633E+00 -0.23347703213E+02 -0.18487458334E+02  0.95216337105E+02  0.90438289878E+02 0.  0.
         11    1    3    3    0    0  0.23674644186E+02 -0.50405615001E+02 -0.20820672363E+02  0.59453470873E+02  0.51100000000E-03 0.  1.
         22    1    1    0    0    0 -0.40646585633E+00  0.23347703213E+02  0.18487458334E+02  0.29783662895E+02  0.00000000000E+00 0.  1.
</event>
<event>
 5    1  0.8907853E-005  0.9118800E+02  0.7818608E-02  0.1130116E+00
         25   -1    0    0    0    0  0.00000000000E+00  0.00000000000E+00  0.99999998245E-14  0.12500000000E+03  0.12500000000E+03 0.  0.
        -11    1    3    3    0    0  0.81444767614E+01 -0.31265723004E+02 -0.16182570147E+02  0.36135211547E+02  0.51100000000E-03 0.  1.
         23    2    1    0    0    0 -0.21382416351E+02  0.16624546267E+02  0.70630603807E+01  0.97009464286E+02  0.92883615733E+02 0.  0.
         11    1    3    3    0    0 -0.29526893112E+02  0.47890269272E+02  0.23245630528E+02  0.60874252740E+02  0.51100000000E-03 0. -1.
         22    1    1    0    0    0  0.21382416351E+02 -0.16624546267E+02 -0.70630603807E+01  0.27990535714E+02  0.00000000000E+00 0. -1.
</event>
<event>
 5    1  0.8907853E-005  0.9118800E+02  0.7818608E-02  0.1130116E+00
         25   -1    0    0    0    0  0.00000000000E+00  0.00000000000E+00  0.99999998245E-14  0.12500000000E+03  0.12500000000E+03 0.  0.
        -11    1    3    3    0    0 -0.53254754804E+01  0.15283348035E+02 -0.50993261780E+02  0.53500038911E+02  0.51100000000E-03 0.  1.
         23    2    1    0    0    0 -0.36195512119E+01 -0.16908016246E+02 -0.23210578546E+02  0.96056725811E+02  0.91592474869E+02 0.  0.
         11    1    3    3    0    0  0.17059242685E+01 -0.32191364281E+02  0.27782683234E+02  0.42556686899E+02  0.51100000000E-03 0. -1.
         22    1    1    0    0    0  0.36195512119E+01  0.16908016246E+02  0.23210578546E+02  0.28943274189E+02  0.00000000000E+00 0.  1.
</event>
<event>
 5    1  0.8907853E-005  0.9118800E+02  0.7818608E-02  0.1130116E+00
         25   -1    0    0    0    0  0.00000000000E+00  0.00000000000E+00  0.99999998245E-14  0.12500000000E+03  0.12500000000E+03 0.  0.
        -11    1    3    3    0    0 -0.18608332282E+02 -0.18433281989E+02  0.19973481685E+02  0.32939275737E+02  0.51100000000E-03 0.  1.
         23    2    1    0    0    0  0.27844061562E+02  0.79614917907E+01 -0.10197394906E+02  0.94297166602E+02  0.89158800185E+02 0.  0.
         11    1    3    3    0    0  0.46452393845E+02  0.26394773780E+02 -0.30170876591E+02  0.61357890864E+02  0.51100000000E-03 0. -1.
         22    1    1    0    0    0 -0.27844061562E+02 -0.79614917907E+01  0.10197394906E+02  0.30702833398E+02  0.00000000000E+00 0. -1.
</event>
<event>
 5    1  0.8907853E-005  0.9118800E+02  0.7818608E-02  0.1130116E+00
         25   -1    0    0    0    0  0.00000000000E+00  0.00000000000E+00  0.99999998245E-14  0.12500000000E+03  0.12500000000E+03 0.  0.
        -11    1    3    3    0    0  0.16134486374E+02  0.17809421300E+01  0.48994764238E+02  0.51613761038E+02  0.51100000000E-03 0. -1.
         23    2    1    0    0    0 -0.14879065080E+02  0.10192061539E+02  0.32731274184E+02  0.87628874706E+02  0.79260448374E+02 0.  0.
         11    1    3    3    0    0 -0.31013551454E+02  0.84111194091E+01 -0.16263490054E+02  0.36015113668E+02  0.51100000000E-03 0.  1.
         22    1    1    0    0    0  0.14879065080E+02 -0.10192061539E+02 -0.32731274184E+02  0.37371125294E+02  0.00000000000E+00 0. -1.
</event>
<event>
 5    1  0.8907853E-005  0.9118800E+02  0.7818608E-02  0.1130116E+00
         25   -1    0    0    0    0  0.00000000000E+00  0.00000000000E+00  0.99999998245E-14  0.12500000000E+03  0.12500000000E+03 0.  0.
        -11    1    3    3    0    0  0.23891341674E+02 -0.32727055166E+02 -0.14332398510E+01  0.40545166463E+02  0.51100000000E-03 0.  1.
         23    2    1    0    0    0  0.18062390418E+02  0.22505608331E+02 -0.18101365534E+01  0.96085834816E+02  0.91632192509E+02 0.  0.
         11    1    3    3    0    0 -0.58289512564E+01  0.55232663497E+02 -0.37689670243E+00  0.55540668353E+02  0.51100000000E-03 0. -1.
         22    1    1    0    0    0 -0.18062390418E+02 -0.22505608331E+02  0.18101365534E+01  0.28914165184E+02  0.00000000000E+00 0. -1.
</event>
<event>
 5    1  0.8907853E-005  0.9118800E+02  0.7818608E-02  0.1130116E+00
         25   -1    0    0    0    0  0.00000000000E+00  0.00000000000E+00  0.99999998245E-14  0.12500000000E+03  0.12500000000E+03 0.  0.
        -11    1    3    3    0    0 -0.22862109339E+01  0.53781398644E+02  0.27553446630E+02  0.60471960626E+02  0.51100000000E-03 0.  1.
         23    2    1    0    0    0  0.82097449009E+01  0.28415830836E+02  0.74475840214E+01  0.94498756399E+02  0.89440981098E+02 0.  0.
         11    1    3    3    0    0  0.10495955835E+02 -0.25365567808E+02 -0.20105862608E+02  0.34026795773E+02  0.51100000000E-03 0. -1.
         22    1    1    0    0    0 -0.82097449009E+01 -0.28415830836E+02 -0.74475840214E+01  0.30501243601E+02  0.00000000000E+00 0.  1.
</event>
<event>
 5    1  0.8907853E-005  0.9118800E+02  0.7818608E-02  0.1130116E+00
         25   -1    0    0    0    0  0.00000000000E+00  0.00000000000E+00  0.99999998245E-14  0.12500000000E+03  0.12500000000E+03 0.  0.
        -11    1    3    3    0    0  0.10074938215E+02  0.42275779653E+02  0.40210014675E+02  0.59208033287E+02  0.51100000000E-03 0. -1.
         23    2    1    0    0    0  0.17118546054E+02  0.21092760902E+02  0.11688697143E+02  0.95426788771E+02  0.90728701042E+02 0.  0.
         11    1    3    3    0    0  0.70436078392E+01 -0.21183018752E+02 -0.28521317532E+02  0.36218755484E+02  0.51100000000E-03 0.  1.
         22    1    1    0    0    0 -0.17118546054E+02 -0.21092760902E+02 -0.11688697143E+02  0.29573211229E+02  0.00000000000E+00 0. -1.
</event>
<event>
 5    1  0.8907853E-005  0.9118800E+02  0.7818608E-02  0.1130116E+00
         25   -1    0    0    0    0  0.00000000000E+00  0.00000000000E+00  0.99999998245E-14  0.12500000000E+03  0.12500000000E+03 0.  0.
        -11    1    3    3    0    0 -0.13761976913E+02 -0.11173698985E+02 -0.29811376947E+02  0.34683739033E+02  0.51100000000E-03 0.  1.
         23    2    1    0    0    0  0.16574195794E+01  0.90696650752E+01  0.26749915871E+02  0.96705762719E+02  0.92474000020E+02 0.  0.
         11    1    3    3    0    0  0.15419396493E+02  0.20243364060E+02  0.56561292817E+02  0.62022023686E+02  0.51100000000E-03 0. -1.
         22    1    1    0    0    0 -0.16574195794E+01 -0.90696650752E+01 -0.26749915871E+02  0.28294237281E+02  0.00000000000E+00 0. -1.
</event>
<event>
 5    1  0.8907853E-005  0.9118800E+02  0.7818608E-02  0.1130116E+00
         25   -1    0    0    0    0  0.00000000000E+00  0.00000000000E+00  0.99999998245E-14  0.12500000000E+03  0.12500000000E+03 0.  0.
        -11    1    3    3    0    0 -0.25569728030E+02 -0.42666041149E+02 -0.21696559315E+02  0.54267326682E+02  0.51100000000E-03 0.  1.
         23    2    1    0    0    0 -0.16423228209E+02  0.51222855360E+01 -0.12375107869E+02  0.10380793713E+03  0.10162177071E+03 0.  0.
         11    1    3    3    0    0  0.91464998211E+01  0.47788326685E+02  0.93214514461E+01  0.49540610448E+02  0.51100000000E-03 0. -1.
         22    1    1    0    0    0  0.16423228209E+02 -0.51222855360E+01  0.12375107869E+02  0.21192062870E+02  0.00000000000E+00 0.  1.
</event>
<event>
 5    1  0.8907853E-005  0.9118800E+02  0.7818608E-02  0.1130116E+00
         25   -1    0    0    0    0  0.00000000000E+00  0.00000000000E+00  0.99999998245E-14  0.12500000000E+03  0.12500000000E+03 0.  0.
        -11    1    3    3    0    0 -0.33849873221E+01 -0.18887674760E+02 -0.20684498956E+02  0.28214373896E+02  0.51100000000E-03 0. -1.
         23    2    1    0    0    0  0.26089826403E+02  0.27723547401E+02 -0.54047023094E+00  0.86926830572E+02  0.78145426245E+02 0.  0.
         11    1    3    3    0    0  0.29474813725E+02  0.46611222161E+02  0.20144028725E+02  0.58712456676E+02  0.51100000000E-03 0.  1.
         22    1    1    0    0    0 -0.26089826403E+02 -0.27723547401E+02  0.54047023094E+00  0.38073169428E+02  0.00000000000E+00 0.  1.
</event>
<event>
 5    1  0.8907853E-005  0.9118800E+02  0.7818608E-02  0.1130116E+00
         25   -1    0    0    0    0  0.00000000000E+00  0.00000000000E+00  0.99999998245E-14  0.12500000000E+03  0.12500000000E+03 0.  0.
        -11    1    3    3    0    0 -0.32862106544E+02  0.25752907662E+02  0.15770591455E+02  0.44630055508E+02  0.51100000000E-03 0.  1.
         23    2    1    0    0    0 -0.79024265921E+01 -0.13934194301E+01 -0.24491133560E+02  0.99227813697E+02  0.95822510009E+02 0.  0.
         11    1    3    3    0    0  0.24959679952E+02 -0.27146327092E+02 -0.40261725015E+02  0.54597758190E+02  0.51100000000E-03 0. -1.
         22    1    1    0    0    0  0.79024265921E+01  0.13934194301E+01  0.24491133560E+02  0.25772186303E+02  0.00000000000E+00 0. -1.
</event>
<event>
 5    1  0.8907853E-005  0.9118800E+02  0.7818608E-02  0.1130116E+00
         25   -1    0    0    0    0  0.00000000000E+00  0.00000000000E+00  0.99999998245E-14  0.12500000000E+03  0.12500000000E+03 0.  0.
        -11    1    3    3    0    0  0.18686864640E+02  0.51239673769E+02  0.21439966743E+02  0.58603543000E+02  0.51100000000E-03 0.  1.
         23    2    1    0    0    0  0.67974210389E+01  0.25957873588E+02 -0.57160953760E+01  0.97564805808E+02  0.93627995023E+02 0.  0.
         11    1    3    3    0    0 -0.11889443601E+02 -0.25281800180E+02 -0.27156062119E+02  0.38961262808E+02  0.51100000000E-03 0. -1.
         22    1    1    0    0    0 -0.67974210389E+01 -0.25957873588E+02  0.57160953760E+01  0.27435194192E+02  0.00000000000E+00 0.  1.
</event>
<event>
 5    1  0.8907853E-005  0.9118800E+02  0.7818608E-02  0.1130116E+00
         25   -1    0    0    0    0  0.00000000000E+00  0.00000000000E+00  0.99999998245E-14  0.12500000000E+03  0.12500000000E+03 0.  0.
        -11    1    3    3    0    0  0.37840775506E+02  0.33451299842E+01 -0.45926722162E+02  0.59601828784E+02  0.51100000000E-03 0. -1.
         23    2    1    0    0    0  0.78451763520E+01 -0.59854283486E+01 -0.26945612619E+02  0.96304387375E+02  0.91929847405E+02 0.  0.
         11    1    3    3    0    0 -0.29995599154E+02 -0.93305583329E+01  0.18981109544E+02  0.36702558592E+02  0.51100000000E-03 0.  1.
         22    1    1    0    0    0 -0.78451763520E+01  0.59854283486E+01  0.26945612619E+02  0.28695612625E+02  0.00000000000E+00 0. -1.
</event>
<event>
 5    1  0.8907853E-005  0.9118800E+02  0.7818608E-02  0.1130116E+00
         25   -1    0    0    0    0  0.00000000000E+00  0.00000000000E+00  0.99999998245E-14  0.12500000000E+03  0.12500000000E+03 0.  0.
        -11    1    3    3    0    0 -0.38633516672E+02 -0.13650044023E+02  0.31503287778E+02  0.51684905470E+02  0.51100000000E-03 0.  1.
         23    2    1    0    0    0 -0.16823921673E+02  0.18636753650E+02  0.21583944416E+02  0.91890491039E+02  0.85718275530E+02 0.  0.
         11    1    3    3    0    0  0.21809594999E+02  0.32286797673E+02 -0.99193433623E+01  0.40205585569E+02  0.51100000000E-03 0. -1.
         22    1    1    0    0    0  0.16823921673E+02 -0.18636753650E+02 -0.21583944416E+02  0.33109508961E+02  0.00000000000E+00 0.  1.
</event>
<event>
 5    1  0.8907853E-005  0.9118800E+02  0.7818608E-02  0.1130116E+00
         25   -1    0    0    0    0  0.00000000000E+00  0.00000000000E+00  0.99999998245E-14  0.12500000000E+03  0.12500000000E+03 0.  0.
        -11    1    3    3    0    0  0.17513979563E+01  0.28651962792E+02 -0.19578125691E+02  0.34746300126E+02  0.51100000000E-03 0.  1.
         23    2    1    0    0    0 -0.32552829555E+01 -0.15509555627E+02  0.23509298493E+02  0.96648098856E+02  0.92396021094E+02 0.  0.
         11    1    3    3    0    0 -0.50066809118E+01 -0.44161518419E+02  0.43087424184E+02  0.61901798729E+02  0.51100000000E-03 0. -1.
         22    1    1    0    0    0  0.32552829555E+01  0.15509555627E+02 -0.23509298493E+02  0.28351901144E+02  0.00000000000E+00 0. -1.
</event>
<event>
 5    1  0.8907853E-005  0.9118800E+02  0.7818608E-02  0.1130116E+00
         25   -1    0    0    0    0  0.00000000000E+00  0.00000000000E+00  0.99999998245E-14  0.12500000000E+03  0.12500000000E+03 0.  0.
        -11    1    3    3    0    0  0.18307885959E+01 -0.24962006765E+02  0.33887973589E+02  0.42128948751E+02  0.51100000000E-03 0.  1.
         23    2    1    0    0    0 -0.29354391728E+02  0.59274608499E+01  0.50976353147E+01  0.94622360334E+02  0.89613559708E+02 0.  0.
         11    1    3    3    0    0 -0.31185180324E+02  0.30889467615E+02 -0.28790338275E+02  0.52493411583E+02  0.51100000000E-03 0. -1.
         22    1    1    0    0    0  0.29354391728E+02 -0.59274608499E+01 -0.50976353147E+01  0.30377639666E+02  0.00000000000E+00 0. -1.
</event>
<event>
 5    1  0.8907853E-005  0.9118800E+02  0.7818608E-02  0.1130116E+00
         25   -1    0    0    0    0  0.00000000000E+00  0.00000000000E+00  0.99999998245E-14  0.12500000000E+03  0.12500000000E+03 0.  0.
        -11    1    3    3    0    0 -0.15520462016E+01  0.14030209385E+02  0.42828659062E+02  0.45094896165E+02  0.51100000000E-03 0.  1.
         23    2    1    0    0    0  0.31415810955E+01  0.26680800015E+02 -0.74243338871E+01  0.97127874949E+02  0.93042832809E+02 0.  0.
         11    1    3    3    0    0  0.46936272971E+01  0.12650590630E+02 -0.50252992949E+02  0.52032978784E+02  0.51100000000E-03 0. -1.
         22    1    1    0    0    0 -0.31415810955E+01 -0.26680800015E+02  0.74243338871E+01  0.27872125051E+02  0.00000000000E+00 0. -1.
</event>
<event>
 5    1  0.8907853E-005  0.9118800E+02  0.7818608E-02  0.1130116E+00
         25   -1    0    0    0    0  0.00000000000E+00  0.00000000000E+00  0.99999998245E-14  0.12500000000E+03  0.12500000000E+03 0.  0.
        -11    1    3    3    0    0  0.19964659389E+02 -0.29360015739E+02 -0.14466461619E+02  0.38338970523E+02  0.51100000000E-03 0.  1.
         23    2    1    0    0    0 -0.27013631582E+02  0.54941582066E-01 -0.15652668694E+02  0.93779087985E+02  0.88429474703E+02 0.  0.
         11    1    3    3    0    0 -0.46978290971E+02  0.29414957321E+02 -0.11862070751E+01  0.55440117462E+02  0.51100000000E-03 0. -1.
         22    1    1    0    0    0  0.27013631582E+02 -0.54941582066E-01  0.15652668694E+02  0.31220912015E+02  0.00000000000E+00 0. -1.
</event>
<event>
 5    1  0.8907853E-005  0.9118800E+02  0.7818608E-02  0.1130116E+00
         25   -1    0    0    0    0  0.00000000000E+00  0.00000000000E+00  0.99999998245E-14  0.12500000000E+03  0.12500000000E+03 0.  0.
        -11    1    3    3    0    0 -0.24930703179E+02  0.64499213660E+01 -0.32069332495E+02  0.41128864968E+02  0.51100000000E-03 0.  1.
         23    2    1    0    0    0  0.25509530003E+02  0.79207633598E+01 -0.14794676153E+02  0.94465477642E+02  0.89394459619E+02 0.  0.
         11    1    3    3    0    0  0.50440233181E+02  0.14708419938E+01  0.17274656342E+02  0.53336612674E+02  0.51100000000E-03 0. -1.
         22    1    1    0    0    0 -0.25509530003E+02 -0.79207633598E+01  0.14794676153E+02  0.30534522358E+02  0.00000000000E+00 0. -1.
</event>
<event>
 5    1  0.8907853E-005  0.9118800E+02  0.7818608E-02  0.1130116E+00
         25   -1    0    0    0    0  0.00000000000E+00  0.00000000000E+00  0.99999998245E-14  0.12500000000E+03  0.12500000000E+03 0.  0.
        -11    1    3    3    0    0 -0.18761768896E+02  0.19000473773E+02  0.22234690372E+02  0.34747711176E+02  0.51100000000E-03 0. -1.
         23    2    1    0    0    0  0.27667793602E+02 -0.51489018995E+01 -0.87023479932E+01  0.95542422806E+02  0.90887874337E+02 0.  0.
         11    1    3    3    0    0  0.46429562498E+02 -0.24149375673E+02 -0.30937038365E+02  0.60794711630E+02  0.51100000000E-03 0.  1.
         22    1    1    0    0    0 -0.27667793602E+02  0.51489018995E+01  0.87023479932E+01  0.29457577194E+02  0.00000000000E+00 0.  1.
</event>
<event>
 5    1  0.8907853E-005  0.9118800E+02  0.7818608E-02  0.1130116E+00
         25   -1    0    0    0    0  0.00000000000E+00  0.00000000000E+00  0.99999998245E-14  0.12500000000E+03  0.12500000000E+03 0.  0.
        -11    1    3    3    0    0 -0.94333292681E+01 -0.20235865862E+02 -0.26066246663E+02  0.34320943805E+02  0.51100000000E-03 0.  1.
         23    2    1    0    0    0  0.17758153444E+02  0.21377054699E+02  0.97053212909E+01  0.95563224656E+02  0.90916479056E+02 0.  0.
         11    1    3    3    0    0  0.27191482712E+02  0.41612920561E+02  0.35771567954E+02  0.61242280851E+02  0.51100000000E-03 0. -1.
         22    1    1    0    0    0 -0.17758153444E+02 -0.21377054699E+02 -0.97053212909E+01  0.29436775344E+02  0.00000000000E+00 0. -1.
</event>
<event>
 5    1  0.8907853E-005  0.9118800E+02  0.7818608E-02  0.1130116E+00
         25   -1    0    0    0    0  0.00000000000E+00  0.00000000000E+00  0.99999998245E-14  0.12500000000E+03  0.12500000000E+03 0.  0.
        -11    1    3    3    0    0 -0.32180152060E+02  0.21912224810E+02  0.10838159421E+02  0.40412541155E+02  0.51100000000E-03 0. -1.
         23    2    1    0    0    0  0.22206000826E+02  0.75427753441E+01  0.15548525849E+02  0.96861830396E+02  0.92684721497E+02 0.  0.
         11    1    3    3    0    0  0.54386152886E+02 -0.14369449466E+02  0.47103664283E+01  0.56449289241E+02  0.51100000000E-03 0.  1.
         22    1    1    0    0    0 -0.22206000826E+02 -0.75427753441E+01 -0.15548525849E+02  0.28138169604E+02  0.00000000000E+00 0.  1.
</event>
<event>
 5    1  0.8907853E-005  0.9118800E+02  0.7818608E-02  0.1130116E+00
         25   -1    0    0    0    0  0.00000000000E+00  0.00000000000E+00  0.99999998245E-14  0.12500000000E+03  0.12500000000E+03 0.  0.
        -11    1    3    3    0    0  0.14637053027E+02 -0.26765271624E+02 -0.29310412575E+02  0.42305122290E+02  0.51100000000E-03 0.  1.
         23    2    1    0    0    0  0.26661176573E+02  0.63639792515E+01  0.10655837528E+02  0.95591405311E+02  0.90955216055E+02 0.  0.
         11    1    3    3    0    0  0.12024123547E+02  0.33129250875E+02  0.39966250103E+02  0.53286283021E+02  0.51100000000E-03 0. -1.
         22    1    1    0    0    0 -0.26661176573E+02 -0.63639792515E+01 -0.10655837528E+02  0.29408594689E+02  0.00000000000E+00 0. -1.
</event>
<event>
 5    1  0.8907853E-005  0.9118800E+02  0.7818608E-02  0.1130116E+00
         25   -1    0    0    0    0  0.00000000000E+00  0.00000000000E+00  0.99999998245E-14  0.12500000000E+03  0.12500000000E+03 0.  0.
        -11    1    3    3    0    0  0.18410142897E+02  0.35983537114E+02 -0.11410175176E+02  0.41999290500E+02  0.51100000000E-03 0. -1.
         23    2    1    0    0    0  0.22249010044E+02 -0.56509528976E+01  0.20206098338E+02  0.94418336758E+02  0.89328518344E+02 0.  0.
         11    1    3    3    0    0  0.38388671464E+01 -0.41634490011E+02  0.31616273514E+02  0.52419046258E+02  0.51100000000E-03 0.  1.
         22    1    1    0    0    0 -0.22249010044E+02  0.56509528976E+01 -0.20206098338E+02  0.30581663242E+02  0.00000000000E+00 0.  1.
</event>
<event>
 5    1  0.8907853E-005  0.9118800E+02  0.7818608E-02  0.1130116E+00
         25   -1    0    0    0    0  0.00000000000E+00  0.00000000000E+00  0.99999998245E-14  0.12500000000E+03  0.12500000000E+03 0.  0.
        -11    1    3    3    0    0  0.63705441928E+01 -0.17872238234E+02 -0.29347406806E+02  0.34946688245E+02  0.51100000000E-03 0. -1.
         23    2    1    0    0    0 -0.23781557864E+02 -0.11069948684E+02  0.19195358960E+02  0.92495107077E+02  0.86595477765E+02 0.  0.
         11    1    3    3    0    0 -0.30152102057E+02  0.68022895501E+01  0.48542765766E+02  0.57548418832E+02  0.51100000000E-03 0.  1.
         22    1    1    0    0    0  0.23781557864E+02  0.11069948684E+02 -0.19195358960E+02  0.32504892923E+02  0.00000000000E+00 0.  1.
</event>
<event>
 5    1  0.8907853E-005  0.9118800E+02  0.7818608E-02  0.1130116E+00
         25   -1    0    0    0    0  0.00000000000E+00  0.00000000000E+00  0.99999998245E-14  0.12500000000E+03  0.12500000000E+03 0.  0.
        -11    1    3    3    0    0  0.44460498236E+01  0.30279729574E+02  0.44122198244E+02  0.53697278891E+02  0.51100000000E-03 0. -1.
         23    2    1    0    0    0  0.13789565813E+02 -0.64680564327E+01  0.23871650388E+02  0.96683157458E+02  0.92443438731E+02 0.  0.
         11    1    3    3    0    0  0.93435159890E+01 -0.36747786007E+02 -0.20250547856E+02  0.42985878567E+02  0.51100000000E-03 0.  1.
         22    1    1    0    0    0 -0.13789565813E+02  0.64680564327E+01 -0.23871650388E+02  0.28316842542E+02  0.00000000000E+00 0.  1.
</event>
<event>
 5    1  0.8907853E-005  0.9118800E+02  0.7818608E-02  0.1130116E+00
         25   -1    0    0    0    0  0.00000000000E+00  0.00000000000E+00  0.99999998245E-14  0.12500000000E+03  0.12500000000E+03 0.  0.
        -11    1    3    3    0    0 -0.13897077942E+02 -0.12098432434E+02 -0.27564635905E+02  0.33155844062E+02  0.51100000000E-03 0.  1.
         23    2    1    0    0    0  0.16588383970E+02  0.11905501739E+02  0.21261304119E+02  0.95521897835E+02  0.90859641529E+02 0.  0.
         11    1    3    3    0    0  0.30485461911E+02  0.24003934173E+02  0.48825940024E+02  0.62366053773E+02  0.51100000000E-03 0. -1.
         22    1    1    0    0    0 -0.16588383970E+02 -0.11905501739E+02 -0.21261304119E+02  0.29478102165E+02  0.00000000000E+00 0. -1.
</event>
<event>
 5    1  0.8907853E-005  0.9118800E+02  0.7818608E-02  0.1130116E+00
         25   -1    0    0    0    0  0.00000000000E+00  0.00000000000E+00  0.99999998245E-14  0.12500000000E+03  0.12500000000E+03 0.  0.
        -11    1    3    3    0    0  0.35577378020E+02  0.68233148971E+01 -0.38516690804E+00  0.36227831936E+02  0.51100000000E-03 0.  1.
         23    2    1    0    0    0 -0.11080015508E+02  0.15031706598E+02 -0.28210288526E+02  0.91168959141E+02  0.84659552239E+02 0.  0.
         11    1    3    3    0    0 -0.46657393529E+02  0.82083917008E+01 -0.27825121618E+02  0.54941127205E+02  0.51100000000E-03 0. -1.
         22    1    1    0    0    0  0.11080015508E+02 -0.15031706598E+02  0.28210288526E+02  0.33831040859E+02  0.00000000000E+00 0. -1.
</event>
<event>
 5    1  0.8907853E-005  0.9118800E+02  0.7818608E-02  0.1130116E+00
         25   -1    0    0    0    0  0.00000000000E+00  0.00000000000E+00  0.99999998245E-14  0.12500000000E+03  0.12500000000E+03 0.  0.
        -11    1    3    3    0    0 -0.47755119443E+02  0.16729708857E+02 -0.14276626229E+02  0.52576198495E+02  0.51100000000E-03 0.  1.
         23    2    1    0    0    0 -0.18614775995E+02  0.16088788532E+02  0.16818975064E+02  0.95196696089E+02  0.90411138818E+02 0.  0.
         11    1    3    3    0    0  0.29140343448E+02 -0.64092032416E+00  0.31095601294E+02  0.42620497594E+02  0.51100000000E-03 0. -1.
         22    1    1    0    0    0  0.18614775995E+02 -0.16088788532E+02 -0.16818975064E+02  0.29803303911E+02  0.00000000000E+00 0.  1.
</event>
<event>
 5    1  0.8907853E-005  0.9118800E+02  0.7818608E-02  0.1130116E+00
         25   -1    0    0    0    0  0.00000000000E+00  0.00000000000E+00  0.99999998245E-14  0.12500000000E+03  0.12500000000E+03 0.  0.
        -11    1    3    3    0    0 -0.20744387995E+02  0.52942869319E+02  0.15180556862E+02  0.58853431097E+02  0.51100000000E-03 0.  1.
         23    2    1    0    0    0 -0.96851460012E+01  0.26711463570E+02 -0.79080684829E+01  0.95506917994E+02  0.90839030699E+02 0.  0.
         11    1    3    3    0    0  0.11059241993E+02 -0.26231405750E+02 -0.23088625345E+02  0.36653486896E+02  0.51100000000E-03 0. -1.
         22    1    1    0    0    0  0.96851460012E+01 -0.26711463570E+02  0.79080684829E+01  0.29493082006E+02  0.00000000000E+00 0.  1.
</event>
<event>
 5    1  0.8907853E-005  0.9118800E+02  0.7818608E-02  0.1130116E+00
         25   -1    0    0    0    0  0.00000000000E+00  0.00000000000E+00  0.99999998245E-14  0.12500000000E+03  0.12500000000E+03 0.  0.
        -11    1    3    3    0    0 -0.65417684977E+00 -0.50562315788E+02  0.10438455905E+01  0.50577320402E+02  0.51100000000E-03 0. -1.
         23    2    1    0    0    0 -0.14701437869E+02 -0.74468349280E+01  0.19441588390E+02  0.99513474443E+02  0.96194431288E+02 0.  0.
         11    1    3    3    0    0 -0.14047261019E+02  0.43115480860E+02  0.18397742799E+02  0.48936154041E+02  0.51100000000E-03 0.  1.
         22    1    1    0    0    0  0.14701437869E+02  0.74468349280E+01 -0.19441588390E+02  0.25486525557E+02  0.00000000000E+00 0.  1.
</event>
<event>
 5    1  0.8907853E-005  0.9118800E+02  0.7818608E-02  0.1130116E+00
         25   -1    0    0    0    0  0.00000000000E+00  0.00000000000E+00  0.99999998245E-14  0.12500000000E+03  0.12500000000E+03 0.  0.
        -11    1    3    3    0    0  0.10969554318E+02  0.18371849956E+01 -0.41013574703E+02  0.42494937120E+02  0.51100000000E-03 0.  1.
         23    2    1    0    0    0 -0.24094137655E+02  0.16795398933E+02 -0.44903759823E+01  0.95288447177E+02  0.90537902529E+02 0.  0.
         11    1    3    3    0    0 -0.35063691974E+02  0.14958213938E+02  0.36523198721E+02  0.52793510057E+02  0.51100000000E-03 0. -1.
         22    1    1    0    0    0  0.24094137655E+02 -0.16795398933E+02  0.44903759823E+01  0.29711552823E+02  0.00000000000E+00 0. -1.
</event>
<event>
 5    1  0.8907853E-005  0.9118800E+02  0.7818608E-02  0.1130116E+00
         25   -1    0    0    0    0  0.00000000000E+00  0.00000000000E+00  0.99999998245E-14  0.12500000000E+03  0.12500000000E+03 0.  0.
        -11    1    3    3    0    0  0.34238196538E+02  0.64279324557E+00  0.18211411279E+02  0.38785600246E+02  0.51100000000E-03 0.  1.
         23    2    1    0    0    0 -0.14888494610E+02 -0.24320819494E+02  0.11939350049E+01  0.96458889065E+02  0.92139688876E+02 0.  0.
         11    1    3    3    0    0 -0.49126691149E+02 -0.24963612740E+02 -0.17017476275E+02  0.57673288819E+02  0.51100000000E-03 0. -1.
         22    1    1    0    0    0  0.14888494610E+02  0.24320819494E+02 -0.11939350049E+01  0.28541110935E+02  0.00000000000E+00 0. -1.
</event>
<event>
 5    1  0.8907853E-005  0.9118800E+02  0.7818608E-02  0.1130116E+00
         25   -1    0    0    0    0  0.00000000000E+00  0.00000000000E+00  0.99999998245E-14  0.12500000000E+03  0.12500000000E+03 0.  0.
        -11    1    3    3    0    0  0.31384713761E+02 -0.17004844166E+01 -0.82046204739E+01  0.32483960696E+02  0.51100000000E-03 0. -1.
         23    2    1    0    0    0 -0.29420072772E+02 -0.93437765060E+01 -0.27625918337E+01  0.94008408318E+02  0.88753039833E+02 0.  0.
         11    1    3    3    0    0 -0.60804786533E+02 -0.76432920894E+01  0.54420286402E+01  0.61524447623E+02  0.51100000000E-03 0.  1.
         22    1    1    0    0    0  0.29420072772E+02  0.93437765060E+01  0.27625918337E+01  0.30991591682E+02  0.00000000000E+00 0.  1.
</event>
<event>
 5    1  0.8907853E-005  0.9118800E+02  0.7818608E-02  0.1130116E+00
         25   -1    0    0    0    0  0.00000000000E+00  0.00000000000E+00  0.99999998245E-14  0.12500000000E+03  0.12500000000E+03 0.  0.
        -11    1    3    3    0    0 -0.19889027862E+02  0.31940385763E+02  0.52929205345E+01  0.37997061466E+02  0.51100000000E-03 0. -1.
         23    2    1    0    0    0  0.23960662420E+02 -0.29870852216E+01  0.17258952666E+02  0.95319914608E+02  0.90581337217E+02 0.  0.
         11    1    3    3    0    0  0.43849690282E+02 -0.34927470985E+02  0.11966032132E+02  0.57322853143E+02  0.51100000000E-03 0.  1.
         22    1    1    0    0    0 -0.23960662420E+02  0.29870852216E+01 -0.17258952666E+02  0.29680085392E+02  0.00000000000E+00 0.  1.
</event>
<event>
 5    1  0.8907853E-005  0.9118800E+02  0.7818608E-02  0.1130116E+00
         25   -1    0    0    0    0  0.00000000000E+00  0.00000000000E+00  0.99999998245E-14  0.12500000000E+03  0.12500000000E+03 0.  0.
        -11    1    3    3    0    0  0.22472547513E+02  0.29008725281E+02 -0.32007425454E+02  0.48692882628E+02  0.51100000000E-03 0. -1.
         23    2    1    0    0    0  0.41288801533E+02  0.25492827677E+02 -0.15244785414E+02  0.74136920293E+02  0.53937279067E+02 0.  0.
         11    1    3    3    0    0  0.18816254020E+02 -0.35158976043E+01  0.16762640040E+02  0.25444037665E+02  0.51100000000E-03 0.  1.
         22    1    1    0    0    0 -0.41288801533E+02 -0.25492827677E+02  0.15244785414E+02  0.50863079707E+02  0.00000000000E+00 0. -1.
</event>
<event>
 5    1  0.8907853E-005  0.9118800E+02  0.7818608E-02  0.1130116E+00
         25   -1    0    0    0    0  0.00000000000E+00  0.00000000000E+00  0.99999998245E-14  0.12500000000E+03  0.12500000000E+03 0.  0.
        -11    1    3    3    0    0  0.11117727768E+02  0.30260772145E+02 -0.13863654816E+02  0.35093006805E+02  0.51100000000E-03 0. -1.
         23    2    1    0    0    0  0.44925764467E+01 -0.28297176918E+02  0.24584665014E+01  0.96243130869E+02  0.91846517175E+02 0.  0.
         11    1    3    3    0    0 -0.66251513210E+01 -0.58557949063E+02  0.16322121317E+02  0.61150124064E+02  0.51100000000E-03 0.  1.
         22    1    1    0    0    0 -0.44925764467E+01  0.28297176918E+02 -0.24584665014E+01  0.28756869131E+02  0.00000000000E+00 0.  1.
</event>
<event>
 5    1  0.8907853E-005  0.9118800E+02  0.7818608E-02  0.1130116E+00
         25   -1    0    0    0    0  0.00000000000E+00  0.00000000000E+00  0.99999998245E-14  0.12500000000E+03  0.12500000000E+03 0.  0.
        -11    1    3    3    0    0  0.63576989891E-01 -0.29539914573E+02 -0.23290501596E+02  0.37617257474E+02  0.51100000000E-03 0.  1.
         23    2    1    0    0    0 -0.14497518992E+02  0.21894874899E+02  0.52582207326E+01  0.98219176842E+02  0.94497588384E+02 0.  0.
         11    1    3    3    0    0 -0.14561095982E+02  0.51434789472E+02  0.28548722329E+02  0.60601919368E+02  0.51100000000E-03 0. -1.
         22    1    1    0    0    0  0.14497518992E+02 -0.21894874899E+02 -0.52582207326E+01  0.26780823158E+02  0.00000000000E+00 0. -1.
</event>
<event>
 5    1  0.8907853E-005  0.9118800E+02  0.7818608E-02  0.1130116E+00
         25   -1    0    0    0    0  0.00000000000E+00  0.00000000000E+00  0.99999998245E-14  0.12500000000E+03  0.12500000000E+03 0.  0.
        -11    1    3    3    0    0 -0.16262993281E+02  0.16053429140E+02 -0.27372691670E+02  0.35657562832E+02  0.51100000000E-03 0. -1.
         23    2    1    0    0    0  0.50269726226E+00 -0.18447900718E+02  0.20771316870E+02  0.97214655842E+02  0.93159347146E+02 0.  0.
         11    1    3    3    0    0  0.16765690543E+02 -0.34501329858E+02  0.48144008540E+02  0.61557093010E+02  0.51100000000E-03 0.  1.
         22    1    1    0    0    0 -0.50269726226E+00  0.18447900718E+02 -0.20771316870E+02  0.27785344158E+02  0.00000000000E+00 0.  1.
</event>
<event>
 5    1  0.8907853E-005  0.9118800E+02  0.7818608E-02  0.1130116E+00
         25   -1    0    0    0    0  0.00000000000E+00  0.00000000000E+00  0.99999998245E-14  0.12500000000E+03  0.12500000000E+03 0.  0.
        -11    1    3    3    0    0  0.31702172343E+02  0.27899951839E+02 -0.27562238297E+02  0.50429277449E+02  0.51100000000E-03 0. -1.
         23    2    1    0    0    0 -0.10320483505E+02  0.98630349980E+01 -0.24975669200E+02  0.96232381205E+02  0.91831886081E+02 0.  0.
         11    1    3    3    0    0 -0.42022655848E+02 -0.18036916841E+02  0.25865690968E+01  0.45803103755E+02  0.51100000000E-03 0.  1.
         22    1    1    0    0    0  0.10320483505E+02 -0.98630349980E+01  0.24975669200E+02  0.28767618795E+02  0.00000000000E+00 0.  1.
</event>
<event>
 5    1  0.8907853E-005  0.9118800E+02  0.7818608E-02  0.1130116E+00
         25   -1    0    0    0    0  0.00000000000E+00  0.00000000000E+00  0.99999998245E-14  0.12500000000E+03  0.12500000000E+03 0.  0.
        -11    1    3    3    0    0  0.33837368751E+02 -0.32591654814E+02  0.39950524939E+02  0.61670316447E+02  0.51100000000E-03 0. -1.
         23    2    1    0    0    0  0.13007578304E+02 -0.20453060191E+02  0.14368397928E+02  0.96822426940E+02  0.92631564464E+02 0.  0.
         11    1    3    3    0    0 -0.20829790446E+02  0.12138594623E+02 -0.25582127011E+02  0.35152110493E+02  0.51100000000E-03 0.  1.
         22    1    1    0    0    0 -0.13007578304E+02  0.20453060191E+02 -0.14368397928E+02  0.28177573060E+02  0.00000000000E+00 0. -1.
</event>
<event>
 5    1  0.8907853E-005  0.9118800E+02  0.7818608E-02  0.1130116E+00
         25   -1    0    0    0    0  0.00000000000E+00  0.00000000000E+00  0.99999998245E-14  0.12500000000E+03  0.12500000000E+03 0.  0.
        -11    1    3    3    0    0 -0.49724101582E+02 -0.28052578527E+02 -0.84257234062E+01  0.57709845394E+02  0.51100000000E-03 0.  1.
         23    2    1    0    0    0 -0.26153617765E+02  0.52822387423E+00 -0.14250500792E+02  0.95211285434E+02  0.90431307403E+02 0.  0.
         11    1    3    3    0    0  0.23570483817E+02  0.28580802401E+02 -0.58247773857E+01  0.37501440041E+02  0.51100000000E-03 0. -1.
         22    1    1    0    0    0  0.26153617765E+02 -0.52822387423E+00  0.14250500792E+02  0.29788714566E+02  0.00000000000E+00 0.  1.
</event>
<event>
 5    1  0.8907853E-005  0.9118800E+02  0.7818608E-02  0.1130116E+00
         25   -1    0    0    0    0  0.00000000000E+00  0.00000000000E+00  0.99999998245E-14  0.12500000000E+03  0.12500000000E+03 0.  0.
        -11    1    3    3    0    0 -0.51894911890E+02 -0.15435364445E+02  0.17560289837E+02  0.56918328639E+02  0.51100000000E-03 0. -1.
         23    2    1    0    0    0 -0.24921415097E+02  0.11380554325E+02  0.10808859289E+02  0.95547913719E+02  0.90895425791E+02 0.  0.
         11    1    3    3    0    0  0.26973496793E+02  0.26815918770E+02 -0.67514305483E+01  0.38629585080E+02  0.51100000000E-03 0.  1.
         22    1    1    0    0    0  0.24921415097E+02 -0.11380554325E+02 -0.10808859289E+02  0.29452086281E+02  0.00000000000E+00 0. -1.
</event>
<event>
 5    1  0.8907853E-005  0.9118800E+02  0.7818608E-02  0.1130116E+00
         25   -1    0    0    0    0  0.00000000000E+00  0.00000000000E+00  0.99999998245E-14  0.12500000000E+03  0.12500000000E+03 0.  0.
        -11    1    3    3    0    0  0.18974360835E+02 -0.23231078780E+02  0.10138872487E+02  0.31662377137E+02  0.51100000000E-03 0. -1.
         23    2    1    0    0    0 -0.20761708296E+02  0.16481607184E+02 -0.16436125507E+02  0.93809646869E+02  0.88472660846E+02 0.  0.
         11    1    3    3    0    0 -0.39736069131E+02  0.39712685965E+02 -0.26574997994E+02  0.62147269732E+02  0.51100000000E-03 0.  1.
         22    1    1    0    0    0  0.20761708296E+02 -0.16481607184E+02  0.16436125507E+02  0.31190353131E+02  0.00000000000E+00 0.  1.
</event>
<event>
 5    1  0.8907853E-005  0.9118800E+02  0.7818608E-02  0.1130116E+00
         25   -1    0    0    0    0  0.00000000000E+00  0.00000000000E+00  0.99999998245E-14  0.12500000000E+03  0.12500000000E+03 0.  0.
        -11    1    3    3    0    0  0.17667134354E+02 -0.15637275961E+02 -0.22959472246E+02  0.32920956879E+02  0.51100000000E-03 0.  1.
         23    2    1    0    0    0 -0.16220384593E+02 -0.47573304836E+00  0.25992342430E+02  0.94358050595E+02  0.89244118287E+02 0.  0.
         11    1    3    3    0    0 -0.33887518947E+02  0.15161542913E+02  0.48951814677E+02  0.61437093716E+02  0.51100000000E-03 0. -1.
         22    1    1    0    0    0  0.16220384593E+02  0.47573304836E+00 -0.25992342430E+02  0.30641949405E+02  0.00000000000E+00 0. -1.
</event>
<event>
 5    1  0.8907853E-005  0.9118800E+02  0.7818608E-02  0.1130116E+00
         25   -1    0    0    0    0  0.00000000000E+00  0.00000000000E+00  0.99999998245E-14  0.12500000000E+03  0.12500000000E+03 0.  0.
        -11    1    3    3    0    0  0.11102733631E+02 -0.26959184075E+02 -0.21966771817E+02  0.36504895075E+02  0.51100000000E-03 0. -1.
         23    2    1    0    0    0  0.69093911326E+01  0.15888241349E+02  0.21301088596E+02  0.97542537000E+02  0.93598259867E+02 0.  0.
         11    1    3    3    0    0 -0.41933424980E+01  0.42847425425E+02  0.43267860413E+02  0.61037641926E+02  0.51100000000E-03 0.  1.
         22    1    1    0    0    0 -0.69093911326E+01 -0.15888241349E+02 -0.21301088596E+02  0.27457463000E+02  0.00000000000E+00 0.  1.
</event>
<event>
 5    1  0.8907853E-005  0.9118800E+02  0.7818608E-02  0.1130116E+00
         25   -1    0    0    0    0  0.00000000000E+00  0.00000000000E+00  0.99999998245E-14  0.12500000000E+03  0.12500000000E+03 0.  0.
        -11    1    3    3    0    0 -0.25318034390E+02 -0.48823045142E+01  0.36760862668E+02  0.44902124527E+02  0.51100000000E-03 0. -1.
         23    2    1    0    0    0 -0.20593447917E+02  0.21222903134E+02 -0.56172928942E+01  0.94899240973E+02  0.89998945789E+02 0.  0.
         11    1    3    3    0    0  0.47245864724E+01  0.26105207649E+02 -0.42378155562E+02  0.49997116445E+02  0.51100000000E-03 0.  1.
         22    1    1    0    0    0  0.20593447917E+02 -0.21222903134E+02  0.56172928942E+01  0.30100759027E+02  0.00000000000E+00 0.  1.
</event>
<event>
 5    1  0.8907853E-005  0.9118800E+02  0.7818608E-02  0.1130116E+00
         25   -1    0    0    0    0  0.00000000000E+00  0.00000000000E+00  0.99999998245E-14  0.12500000000E+03  0.12500000000E+03 0.  0.
        -11    1    3    3    0    0 -0.31643206063E+02  0.15507026892E+02 -0.11860652656E+02  0.37181116910E+02  0.51100000000E-03 0. -1.
         23    2    1    0    0    0  0.67531310702E+01 -0.12604088725E+02  0.24202303923E+02  0.96889159617E+02  0.92721571947E+02 0.  0.
         11    1    3    3    0    0  0.38396337133E+02 -0.28111115617E+02  0.36062956579E+02  0.59708042707E+02  0.51100000000E-03 0.  1.
         22    1    1    0    0    0 -0.67531310702E+01  0.12604088725E+02 -0.24202303923E+02  0.28110840383E+02  0.00000000000E+00 0.  1.
</event>
<event>
 5    1  0.8907853E-005  0.9118800E+02  0.7818608E-02  0.1130116E+00
         25   -1    0    0    0    0  0.00000000000E+00  0.00000000000E+00  0.99999998245E-14  0.12500000000E+03  0.12500000000E+03 0.  0.
        -11    1    3    3    0    0 -0.33173736208E+02 -0.31527313513E+02 -0.10660943802E+02  0.46990679867E+02  0.51100000000E-03 0. -1.
         23    2    1    0    0    0 -0.19048587573E+02  0.24945807703E+01  0.21695868935E+02  0.96021001560E+02  0.91543707539E+02 0.  0.
         11    1    3    3    0    0  0.14125148635E+02  0.34021894283E+02  0.32356812737E+02  0.49030321693E+02  0.51100000000E-03 0.  1.
         22    1    1    0    0    0  0.19048587573E+02 -0.24945807703E+01 -0.21695868935E+02  0.28978998440E+02  0.00000000000E+00 0. -1.
</event>
<event>
 5    1  0.8907853E-005  0.9118800E+02  0.7818608E-02  0.1130116E+00
         25   -1    0    0    0    0  0.00000000000E+00  0.00000000000E+00  0.99999998245E-14  0.12500000000E+03  0.12500000000E+03 0.  0.
        -11    1    3    3    0    0 -0.88616758991E+01 -0.31989925419E+02 -0.10613507806E+02  0.34850124479E+02  0.51100000000E-03 0.  1.
         23    2    1    0    0    0 -0.49432998036E+01  0.12056036380E+02  0.28357599841E+02  0.93792025140E+02  0.88447760203E+02 0.  0.
         11    1    3    3    0    0  0.39183760956E+01  0.44045961799E+02  0.38971107647E+02  0.58941900660E+02  0.51100000000E-03 0. -1.
         22    1    1    0    0    0  0.49432998036E+01 -0.12056036380E+02 -0.28357599841E+02  0.31207974860E+02  0.00000000000E+00 0. -1.
</event>
<event>
 5    1  0.8907853E-005  0.9118800E+02  0.7818608E-02  0.1130116E+00
         25   -1    0    0    0    0  0.00000000000E+00  0.00000000000E+00  0.99999998245E-14  0.12500000000E+03  0.12500000000E+03 0.  0.
        -11    1    3    3    0    0 -0.40432547055E+02 -0.10165414645E+02  0.77679559520E+01  0.42408344182E+02  0.51100000000E-03 0.  1.
         23    2    1    0    0    0 -0.53818115527E+01  0.12114584817E+02 -0.25920759668E+02  0.95886208721E+02  0.91359466834E+02 0.  0.
         11    1    3    3    0    0  0.35050735502E+02  0.22279999462E+02 -0.33688715620E+02  0.53477864539E+02  0.51100000000E-03 0. -1.
         22    1    1    0    0    0  0.53818115527E+01 -0.12114584817E+02  0.25920759668E+02  0.29113791279E+02  0.00000000000E+00 0. -1.
</event>
<event>
 5    1  0.8907853E-005  0.9118800E+02  0.7818608E-02  0.1130116E+00
         25   -1    0    0    0    0  0.00000000000E+00  0.00000000000E+00  0.99999998245E-14  0.12500000000E+03  0.12500000000E+03 0.  0.
        -11    1    3    3    0    0  0.27940871662E+00  0.34950895896E+02 -0.15679278422E+01  0.34987163233E+02  0.51100000000E-03 0. -1.
         23    2    1    0    0    0  0.21286615123E+02 -0.21188489138E+02 -0.14952417631E+01  0.94928288986E+02  0.90039281686E+02 0.  0.
         11    1    3    3    0    0  0.21007206407E+02 -0.56139385034E+02  0.72686079083E-01  0.59941125753E+02  0.51100000000E-03 0.  1.
         22    1    1    0    0    0 -0.21286615123E+02  0.21188489138E+02  0.14952417631E+01  0.30071711014E+02  0.00000000000E+00 0.  1.
</event>
<event>
 5    1  0.8907853E-005  0.9118800E+02  0.7818608E-02  0.1130116E+00
         25   -1    0    0    0    0  0.00000000000E+00  0.00000000000E+00  0.99999998245E-14  0.12500000000E+03  0.12500000000E+03 0.  0.
        -11    1    3    3    0    0 -0.20374145706E+01 -0.30265215709E+02 -0.25411419111E+02  0.39571132932E+02  0.51100000000E-03 0. -1.
         23    2    1    0    0    0 -0.24333114665E+02  0.50223640109E+01  0.13575088128E+02  0.96687323912E+02  0.92449072348E+02 0.  0.
         11    1    3    3    0    0 -0.22295700095E+02  0.35287579720E+02  0.38986507239E+02  0.57116190980E+02  0.51100000000E-03 0.  1.
         22    1    1    0    0    0  0.24333114665E+02 -0.50223640109E+01 -0.13575088128E+02  0.28312676088E+02  0.00000000000E+00 0.  1.
</event>
<event>
 5    1  0.8907853E-005  0.9118800E+02  0.7818608E-02  0.1130116E+00
         25   -1    0    0    0    0  0.00000000000E+00  0.00000000000E+00  0.99999998245E-14  0.12500000000E+03  0.12500000000E+03 0.  0.
        -11    1    3    3    0    0 -0.20741274166E+02  0.27566331213E+01 -0.36437620109E+02  0.42017849060E+02  0.51100000000E-03 0.  1.
         23    2    1    0    0    0 -0.19636744105E+02  0.17560744326E+02  0.14399313150E+02  0.94977980089E+02  0.90108240591E+02 0.  0.
         11    1    3    3    0    0  0.11045300606E+01  0.14804111205E+02  0.50836933259E+02  0.52960131029E+02  0.51100000000E-03 0. -1.
         22    1    1    0    0    0  0.19636744105E+02 -0.17560744326E+02 -0.14399313150E+02  0.30022019911E+02  0.00000000000E+00 0. -1.
</event>
<event>
 5    1  0.8907853E-005  0.9118800E+02  0.7818608E-02  0.1130116E+00
         25   -1    0    0    0    0  0.00000000000E+00  0.00000000000E+00  0.99999998245E-14  0.12500000000E+03  0.12500000000E+03 0.  0.
        -11    1    3    3    0    0  0.52232142461E+02 -0.34849497231E+00 -0.33922216162E+02  0.62281898690E+02  0.51100000000E-03 0. -1.
         23    2    1    0    0    0  0.25025535938E+02  0.12041362603E+01 -0.12189392075E+02  0.97137683652E+02  0.93056009548E+02 0.  0.
         11    1    3    3    0    0 -0.27206606524E+02  0.15526312326E+01  0.21732824087E+02  0.34855784962E+02  0.51100000000E-03 0.  1.
         22    1    1    0    0    0 -0.25025535938E+02 -0.12041362603E+01  0.12189392075E+02  0.27862316348E+02  0.00000000000E+00 0. -1.
</event>
<event>
 5    1  0.8907853E-005  0.9118800E+02  0.7818608E-02  0.1130116E+00
         25   -1    0    0    0    0  0.00000000000E+00  0.00000000000E+00  0.99999998245E-14  0.12500000000E+03  0.12500000000E+03 0.  0.
        -11    1    3    3    0    0 -0.77781202376E+01 -0.29480807610E+02  0.31760613804E+02  0.44026739162E+02  0.51100000000E-03 0. -1.
         23    2    1    0    0    0  0.28661245914E+02 -0.19627881424E+01  0.14249450040E+02  0.92931847869E+02  0.87223631932E+02 0.  0.
         11    1    3    3    0    0  0.36439366152E+02  0.27518019468E+02 -0.17511163765E+02  0.48905108707E+02  0.51100000000E-03 0.  1.
         22    1    1    0    0    0 -0.28661245914E+02  0.19627881424E+01 -0.14249450040E+02  0.32068152131E+02  0.00000000000E+00 0. -1.
</event>
<event>
 5    1  0.8907853E-005  0.9118800E+02  0.7818608E-02  0.1130116E+00
         25   -1    0    0    0    0  0.00000000000E+00  0.00000000000E+00  0.99999998245E-14  0.12500000000E+03  0.12500000000E+03 0.  0.
        -11    1    3    3    0    0 -0.27592361771E+02  0.11799521760E+02 -0.22652894695E+02  0.37599478456E+02  0.51100000000E-03 0. -1.
         23    2    1    0    0    0 -0.79304962844E+01 -0.22805455912E+02  0.18297668278E+02  0.94705012707E+02  0.89728775634E+02 0.  0.
         11    1    3    3    0    0  0.19661865487E+02 -0.34604977672E+02  0.40950562972E+02  0.57105534251E+02  0.51100000000E-03 0.  1.
         22    1    1    0    0    0  0.79304962844E+01  0.22805455912E+02 -0.18297668278E+02  0.30294987293E+02  0.00000000000E+00 0.  1.
</event>
<event>
 5    1  0.8907853E-005  0.9118800E+02  0.7818608E-02  0.1130116E+00
         25   -1    0    0    0    0  0.00000000000E+00  0.00000000000E+00  0.99999998245E-14  0.12500000000E+03  0.12500000000E+03 0.  0.
        -11    1    3    3    0    0 -0.43297042922E+01  0.16948415306E+02 -0.22836440885E+02  0.28766267627E+02  0.51100000000E-03 0.  1.
         23    2    1    0    0    0 -0.37946143031E+02 -0.78854995208E+01  0.13307914744E+02  0.84022061198E+02  0.73351995880E+02 0.  0.
         11    1    3    3    0    0 -0.33616438738E+02 -0.24833914827E+02  0.36144355629E+02  0.55255793571E+02  0.51100000000E-03 0. -1.
         22    1    1    0    0    0  0.37946143031E+02  0.78854995208E+01 -0.13307914744E+02  0.40977938802E+02  0.00000000000E+00 0. -1.
</event>
<event>
 5    1  0.8907853E-005  0.9118800E+02  0.7818608E-02  0.1130116E+00
         25   -1    0    0    0    0  0.00000000000E+00  0.00000000000E+00  0.99999998245E-14  0.12500000000E+03  0.12500000000E+03 0.  0.
        -11    1    3    3    0    0  0.56679649463E+01 -0.27035390499E+02 -0.27215793208E+02  0.38778055215E+02  0.51100000000E-03 0. -1.
         23    2    1    0    0    0 -0.12319579133E+02  0.24237172639E+02 -0.12525193056E+02  0.95065187012E+02  0.90229134723E+02 0.  0.
         11    1    3    3    0    0 -0.17987544079E+02  0.51272563138E+02  0.14690600152E+02  0.56287131797E+02  0.51100000000E-03 0.  1.
         22    1    1    0    0    0  0.12319579133E+02 -0.24237172639E+02  0.12525193056E+02  0.29934812988E+02  0.00000000000E+00 0.  1.
</event>
<event>
 5    1  0.8907853E-005  0.9118800E+02  0.7818608E-02  0.1130116E+00
         25   -1    0    0    0    0  0.00000000000E+00  0.00000000000E+00  0.99999998245E-14  0.12500000000E+03  0.12500000000E+03 0.  0.
        -11    1    3    3    0    0  0.11718819766E+02 -0.80025156143E+01  0.37599535694E+02  0.40188257956E+02  0.51100000000E-03 0.  1.
         23    2    1    0    0    0  0.25673185437E+02  0.71968716818E+00 -0.14969398834E+02  0.95272684252E+02  0.90516137031E+02 0.  0.
         11    1    3    3    0    0  0.13954365672E+02  0.87222027824E+01 -0.52568934528E+02  0.55084426296E+02  0.51100000000E-03 0. -1.
         22    1    1    0    0    0 -0.25673185437E+02 -0.71968716818E+00  0.14969398834E+02  0.29727315748E+02  0.00000000000E+00 0. -1.
</event>
<event>
 5    1  0.8907853E-005  0.9118800E+02  0.7818608E-02  0.1130116E+00
         25   -1    0    0    0    0  0.00000000000E+00  0.00000000000E+00  0.99999998245E-14  0.12500000000E+03  0.12500000000E+03 0.  0.
        -11    1    3    3    0    0 -0.43300610150E+02 -0.31539914972E+01 -0.43601050707E+02  0.61530009952E+02  0.51100000000E-03 0. -1.
         23    2    1    0    0    0 -0.17100368715E+02  0.44675285135E+01 -0.24298107092E+02  0.94953711886E+02  0.90074568950E+02 0.  0.
         11    1    3    3    0    0  0.26200241435E+02  0.76215200107E+01  0.19302943615E+02  0.33423701934E+02  0.51100000000E-03 0.  1.
         22    1    1    0    0    0  0.17100368715E+02 -0.44675285135E+01  0.24298107092E+02  0.30046288114E+02  0.00000000000E+00 0. -1.
</event>
<event>
 5    1  0.8907853E-005  0.9118800E+02  0.7818608E-02  0.1130116E+00
         25   -1    0    0    0    0  0.00000000000E+00  0.00000000000E+00  0.99999998245E-14  0.12500000000E+03  0.12500000000E+03 0.  0.
        -11    1    3    3    0    0 -0.12069643162E+02  0.25309378223E+02  0.17191405573E+02  0.32890505285E+02  0.51100000000E-03 0.  1.
         23    2    1    0    0    0  0.22673455423E+02 -0.22134320153E+02  0.60953659156E+01  0.92732877490E+02  0.86938020293E+02 0.  0.
         11    1    3    3    0    0  0.34743098584E+02 -0.47443698376E+02 -0.11096039657E+02  0.59842372205E+02  0.51100000000E-03 0. -1.
         22    1    1    0    0    0 -0.22673455423E+02  0.22134320153E+02 -0.60953659156E+01  0.32267122510E+02  0.00000000000E+00 0. -1.
</event>
<event>
 5    1  0.8907853E-005  0.9118800E+02  0.7818608E-02  0.1130116E+00
         25   -1    0    0    0    0  0.00000000000E+00  0.00000000000E+00  0.99999998245E-14  0.12500000000E+03  0.12500000000E+03 0.  0.
        -11    1    3    3    0    0 -0.38147290301E+02 -0.18835681562E+02 -0.35613490308E+02  0.55482604025E+02  0.51100000000E-03 0.  1.
         23    2    1    0    0    0 -0.27472604328E+02  0.73583768407E+01 -0.70143883450E+01  0.95706803825E+02  0.91113670523E+02 0.  0.
         11    1    3    3    0    0  0.10674685973E+02  0.26194058402E+02  0.28599101963E+02  0.40224199800E+02  0.51100000000E-03 0. -1.
         22    1    1    0    0    0  0.27472604328E+02 -0.73583768407E+01  0.70143883450E+01  0.29293196175E+02  0.00000000000E+00 0.  1.
</event>
<event>
 5    1  0.8907853E-005  0.9118800E+02  0.7818608E-02  0.1130116E+00
         25   -1    0    0    0    0  0.00000000000E+00  0.00000000000E+00  0.99999998245E-14  0.12500000000E+03  0.12500000000E+03 0.  0.
        -11    1    3    3    0    0 -0.69469522042E+01 -0.23206396537E+01  0.37416954914E+02  0.38127077368E+02  0.51100000000E-03 0. -1.
         23    2    1    0    0    0  0.27753207778E+02 -0.10689426143E+02 -0.63344105946E+01  0.94592285012E+02  0.89571598473E+02 0.  0.
         11    1    3    3    0    0  0.34700159982E+02 -0.83687864889E+01 -0.43751365509E+02  0.56465207644E+02  0.51100000000E-03 0.  1.
         22    1    1    0    0    0 -0.27753207778E+02  0.10689426143E+02  0.63344105946E+01  0.30407714988E+02  0.00000000000E+00 0.  1.
</event>
<event>
 5    1  0.8907853E-005  0.9118800E+02  0.7818608E-02  0.1130116E+00
         25   -1    0    0    0    0  0.00000000000E+00  0.00000000000E+00  0.99999998245E-14  0.12500000000E+03  0.12500000000E+03 0.  0.
        -11    1    3    3    0    0  0.40652753110E+01  0.30212329551E+02  0.26736087419E+02  0.40547869130E+02  0.51100000000E-03 0. -1.
         23    2    1    0    0    0  0.53505298761E+00  0.22086818320E+02 -0.24190230368E+02  0.92239031296E+02  0.86225041745E+02 0.  0.
         11    1    3    3    0    0 -0.35302223233E+01 -0.81255112310E+01 -0.50926317787E+02  0.51691162166E+02  0.51100000000E-03 0.  1.
         22    1    1    0    0    0 -0.53505298761E+00 -0.22086818320E+02  0.24190230368E+02  0.32760968704E+02  0.00000000000E+00 0. -1.
</event>
<event>
 5    1  0.8907853E-005  0.9118800E+02  0.7818608E-02  0.1130116E+00
         25   -1    0    0    0    0  0.00000000000E+00  0.00000000000E+00  0.99999998245E-14  0.12500000000E+03  0.12500000000E+03 0.  0.
        -11    1    3    3    0    0 -0.16743462628E+02  0.35822408010E+02  0.37495015513E+02  0.54492794432E+02  0.51100000000E-03 0. -1.
         23    2    1    0    0    0 -0.23838454791E+02  0.70401736521E+00  0.16155803739E+02  0.96194140149E+02  0.91779818246E+02 0.  0.
         11    1    3    3    0    0 -0.70949921629E+01 -0.35118390645E+02 -0.21339211774E+02  0.41701345717E+02  0.51100000000E-03 0.  1.
         22    1    1    0    0    0  0.23838454791E+02 -0.70401736521E+00 -0.16155803739E+02  0.28805859851E+02  0.00000000000E+00 0. -1.
</event>
<event>
 5    1  0.8907853E-005  0.9118800E+02  0.7818608E-02  0.1130116E+00
         25   -1    0    0    0    0  0.00000000000E+00  0.00000000000E+00  0.99999998245E-14  0.12500000000E+03  0.12500000000E+03 0.  0.
        -11    1    3    3    0    0 -0.10302666680E+02 -0.27847486519E+02 -0.38971230273E+02  0.48993716285E+02  0.51100000000E-03 0.  1.
         23    2    1    0    0    0 -0.29144489040E+02 -0.94695414205E+01 -0.39109818864E+02  0.75314475069E+02  0.56600519142E+02 0.  0.
         11    1    3    3    0    0 -0.18841822360E+02  0.18377945099E+02 -0.13858859076E+00  0.26320758784E+02  0.51100000000E-03 0. -1.
         22    1    1    0    0    0  0.29144489040E+02  0.94695414205E+01  0.39109818864E+02  0.49685524931E+02  0.00000000000E+00 0.  1.
</event>
<event>
 5    1  0.8907853E-005  0.9118800E+02  0.7818608E-02  0.1130116E+00
         25   -1    0    0    0    0  0.00000000000E+00  0.00000000000E+00  0.99999998245E-14  0.12500000000E+03  0.12500000000E+03 0.  0.
        -11    1    3    3    0    0 -0.15001788235E+02  0.19997120410E+02  0.30087377819E+02  0.39117627474E+02  0.51100000000E-03 0. -1.
         23    2    1    0    0    0 -0.13446341796E+02 -0.15194614092E+02 -0.17418548004E+02  0.98258903918E+02  0.94550124165E+02 0.  0.
         11    1    3    3    0    0  0.15554464397E+01 -0.35191734502E+02 -0.47505925823E+02  0.59141276444E+02  0.51100000000E-03 0.  1.
         22    1    1    0    0    0  0.13446341796E+02  0.15194614092E+02  0.17418548004E+02  0.26741096082E+02  0.00000000000E+00 0.  1.
</event>
<event>
 5    1  0.8907853E-005  0.9118800E+02  0.7818608E-02  0.1130116E+00
         25   -1    0    0    0    0  0.00000000000E+00  0.00000000000E+00  0.99999998245E-14  0.12500000000E+03  0.12500000000E+03 0.  0.
        -11    1    3    3    0    0 -0.45202825041E+02 -0.21589366202E+02  0.11221599398E+02  0.51335371997E+02  0.51100000000E-03 0.  1.
         23    2    1    0    0    0 -0.95387989045E+01 -0.22595591873E+02 -0.15566347354E+02  0.95950720722E+02  0.91447690952E+02 0.  0.
         11    1    3    3    0    0  0.35664026137E+02 -0.10062256709E+01 -0.26787946752E+02  0.44615348725E+02  0.51100000000E-03 0. -1.
         22    1    1    0    0    0  0.95387989045E+01  0.22595591873E+02  0.15566347354E+02  0.29049279278E+02  0.00000000000E+00 0.  1.
</event>
<event>
 5    1  0.8907853E-005  0.9118800E+02  0.7818608E-02  0.1130116E+00
         25   -1    0    0    0    0  0.00000000000E+00  0.00000000000E+00  0.99999998245E-14  0.12500000000E+03  0.12500000000E+03 0.  0.
        -11    1    3    3    0    0  0.29120839816E+02  0.26956020873E+02  0.34076859811E+02  0.52305666497E+02  0.51100000000E-03 0. -1.
         23    2    1    0    0    0 -0.70203141295E+01  0.35286847576E+01  0.28140894433E+02  0.95782772786E+02  0.91217833763E+02 0.  0.
         11    1    3    3    0    0 -0.36141153945E+02 -0.23427336116E+02 -0.59359653776E+01  0.43477106288E+02  0.51100000000E-03 0.  1.
         22    1    1    0    0    0  0.70203141295E+01 -0.35286847576E+01 -0.28140894433E+02  0.29217227214E+02  0.00000000000E+00 0. -1.
</event>
<event>
 5    1  0.8907853E-005  0.9118800E+02  0.7818608E-02  0.1130116E+00
         25   -1    0    0    0    0  0.00000000000E+00  0.00000000000E+00  0.99999998245E-14  0.12500000000E+03  0.12500000000E+03 0.  0.
        -11    1    3    3    0    0 -0.53018320734E+02 -0.10127363561E+02 -0.14826094425E+02  0.55976056509E+02  0.51100000000E-03 0. -1.
         23    2    1    0    0    0 -0.18271240680E+02  0.86416974026E+01 -0.20891773152E+02  0.95931402590E+02  0.91421281152E+02 0.  0.
         11    1    3    3    0    0  0.34747080055E+02  0.18769060963E+02 -0.60656787264E+01  0.39955346081E+02  0.51100000000E-03 0.  1.
         22    1    1    0    0    0  0.18271240680E+02 -0.86416974026E+01  0.20891773152E+02  0.29068597410E+02  0.00000000000E+00 0. -1.
</event>
<event>
 5    1  0.8907853E-005  0.9118800E+02  0.7818608E-02  0.1130116E+00
         25   -1    0    0    0    0  0.00000000000E+00  0.00000000000E+00  0.99999998245E-14  0.12500000000E+03  0.12500000000E+03 0.  0.
        -11    1    3    3    0    0  0.81218725147E+01  0.19985791761E+02  0.24078866144E+02  0.32329374886E+02  0.51100000000E-03 0.  1.
         23    2    1    0    0    0 -0.81677127107E+01  0.49766582733E+01 -0.31457861715E+02  0.92120284031E+02  0.86052722257E+02 0.  0.
         11    1    3    3    0    0 -0.16289585225E+02 -0.15009133488E+02 -0.55536727859E+02  0.59790909145E+02  0.51100000000E-03 0. -1.
         22    1    1    0    0    0  0.81677127107E+01 -0.49766582733E+01  0.31457861715E+02  0.32879715969E+02  0.00000000000E+00 0. -1.
</event>
<event>
 5    1  0.8907853E-005  0.9118800E+02  0.7818608E-02  0.1130116E+00
         25   -1    0    0    0    0  0.00000000000E+00  0.00000000000E+00  0.99999998245E-14  0.12500000000E+03  0.12500000000E+03 0.  0.
        -11    1    3    3    0    0  0.16595068984E+02  0.43966711810E+02 -0.23422277693E+01  0.47052673603E+02  0.51100000000E-03 0.  1.
         23    2    1    0    0    0 -0.23538710693E+02  0.12882995363E+02 -0.41456136264E+01  0.97848046425E+02  0.94005380730E+02 0.  0.
         11    1    3    3    0    0 -0.40133779677E+02 -0.31083716447E+02 -0.18033858571E+01  0.50795372822E+02  0.51100000000E-03 0. -1.
         22    1    1    0    0    0  0.23538710693E+02 -0.12882995363E+02  0.41456136264E+01  0.27151953575E+02  0.00000000000E+00 0. -1.
</event>
<event>
 5    1  0.8907853E-005  0.9118800E+02  0.7818608E-02  0.1130116E+00
         25   -1    0    0    0    0  0.00000000000E+00  0.00000000000E+00  0.99999998245E-14  0.12500000000E+03  0.12500000000E+03 0.  0.
        -11    1    3    3    0    0  0.27456112936E+01  0.28946759974E+02 -0.33339385952E+02  0.44237630478E+02  0.51100000000E-03 0.  1.
         23    2    1    0    0    0 -0.26557024072E+02 -0.67032168263E+01 -0.13389445885E+02  0.94512528730E+02  0.89460226819E+02 0.  0.
         11    1    3    3    0    0 -0.29302635365E+02 -0.35649976801E+02  0.19949940068E+02  0.50274898251E+02  0.51100000000E-03 0. -1.
         22    1    1    0    0    0  0.26557024072E+02  0.67032168263E+01  0.13389445885E+02  0.30487471270E+02  0.00000000000E+00 0. -1.
</event>
<event>
 5    1  0.8907853E-005  0.9118800E+02  0.7818608E-02  0.1130116E+00
         25   -1    0    0    0    0  0.00000000000E+00  0.00000000000E+00  0.99999998245E-14  0.12500000000E+03  0.12500000000E+03 0.  0.
        -11    1    3    3    0    0 -0.36897488609E+02  0.23071741022E+02 -0.25711950332E+02  0.50545368627E+02  0.51100000000E-03 0. -1.
         23    2    1    0    0    0 -0.48380327785E+01 -0.88415317471E+01 -0.27392444610E+02  0.95812241153E+02  0.91258206690E+02 0.  0.
         11    1    3    3    0    0  0.32059455831E+02 -0.31913272770E+02 -0.16804942779E+01  0.45266872526E+02  0.51100000000E-03 0.  1.
         22    1    1    0    0    0  0.48380327785E+01  0.88415317471E+01  0.27392444610E+02  0.29187758847E+02  0.00000000000E+00 0. -1.
</event>
<event>
 5    1  0.8907853E-005  0.9118800E+02  0.7818608E-02  0.1130116E+00
         25   -1    0    0    0    0  0.00000000000E+00  0.00000000000E+00  0.99999998245E-14  0.12500000000E+03  0.12500000000E+03 0.  0.
        -11    1    3    3    0    0 -0.40201979154E+02 -0.10175905531E+02 -0.84166349714E+00  0.41478386890E+02  0.51100000000E-03 0.  1.
         23    2    1    0    0    0  0.22012755365E+01 -0.17262477635E+02 -0.27785160332E+02  0.92215035721E+02  0.86190248463E+02 0.  0.
         11    1    3    3    0    0  0.42403254691E+02 -0.70865721038E+01 -0.26943496835E+02  0.50736648830E+02  0.51100000000E-03 0. -1.
         22    1    1    0    0    0 -0.22012755365E+01  0.17262477635E+02  0.27785160332E+02  0.32784964279E+02  0.00000000000E+00 0. -1.
</event>
<event>
 5    1  0.8907853E-005  0.9118800E+02  0.7818608E-02  0.1130116E+00
         25   -1    0    0    0    0  0.00000000000E+00  0.00000000000E+00  0.99999998245E-14  0.12500000000E+03  0.12500000000E+03 0.  0.
        -11    1    3    3    0    0  0.29612510120E+02  0.11953265787E+02  0.26895038752E+02  0.41750741650E+02  0.51100000000E-03 0. -1.
         23    2    1    0    0    0  0.12464599056E+02  0.10069680911E+02 -0.24366291855E+02  0.95836994633E+02  0.91292106221E+02 0.  0.
         11    1    3    3    0    0 -0.17147911064E+02 -0.18835848768E+01 -0.51261330607E+02  0.54086252983E+02  0.51100000000E-03 0.  1.
         22    1    1    0    0    0 -0.12464599056E+02 -0.10069680911E+02  0.24366291855E+02  0.29163005367E+02  0.00000000000E+00 0.  1.
</event>
<event>
 5    1  0.8907853E-005  0.9118800E+02  0.7818608E-02  0.1130116E+00
         25   -1    0    0    0    0  0.00000000000E+00  0.00000000000E+00  0.99999998245E-14  0.12500000000E+03  0.12500000000E+03 0.  0.
        -11    1    3    3    0    0  0.18473394627E+02  0.26662668410E+02 -0.35116989983E+02  0.47805514133E+02  0.51100000000E-03 0.  1.
         23    2    1    0    0    0 -0.71628681272E+01 -0.51366001283E+01 -0.35263126358E+02  0.88651968125E+02  0.80857850770E+02 0.  0.
         11    1    3    3    0    0 -0.25636262754E+02 -0.31799268538E+02 -0.14613637424E+00  0.40846453992E+02  0.51100000000E-03 0. -1.
         22    1    1    0    0    0  0.71628681272E+01  0.51366001283E+01  0.35263126358E+02  0.36348031875E+02  0.00000000000E+00 0.  1.
</event>
<event>
 5    1  0.8907853E-005  0.9118800E+02  0.7818608E-02  0.1130116E+00
         25   -1    0    0    0    0  0.00000000000E+00  0.00000000000E+00  0.99999998245E-14  0.12500000000E+03  0.12500000000E+03 0.  0.
        -11    1    3    3    0    0 -0.26799105540E+02 -0.45299187601E+02  0.12809015585E+02  0.54168988689E+02  0.51100000000E-03 0. -1.
         23    2    1    0    0    0 -0.68419728300E+01 -0.22733748696E+02 -0.16412761788E+02  0.96138006453E+02  0.91703334799E+02 0.  0.
         11    1    3    3    0    0  0.19957132710E+02  0.22565438904E+02 -0.29221777373E+02  0.41969017764E+02  0.51100000000E-03 0.  1.
         22    1    1    0    0    0  0.68419728300E+01  0.22733748696E+02  0.16412761788E+02  0.28861993547E+02  0.00000000000E+00 0. -1.
</event>
<event>
 5    1  0.8907853E-005  0.9118800E+02  0.7818608E-02  0.1130116E+00
         25   -1    0    0    0    0  0.00000000000E+00  0.00000000000E+00  0.99999998245E-14  0.12500000000E+03  0.12500000000E+03 0.  0.
        -11    1    3    3    0    0 -0.21353457571E+02 -0.34710980911E+02 -0.42233960355E+02  0.58690116320E+02  0.51100000000E-03 0. -1.
         23    2    1    0    0    0 -0.41019146072E+01 -0.26042948430E+02 -0.89685584592E+01  0.97152272854E+02  0.93075604825E+02 0.  0.
         11    1    3    3    0    0  0.17251542964E+02  0.86680324817E+01  0.33265401896E+02  0.38462156535E+02  0.51100000000E-03 0.  1.
         22    1    1    0    0    0  0.41019146072E+01  0.26042948430E+02  0.89685584592E+01  0.27847727146E+02  0.00000000000E+00 0. -1.
</event>
<event>
 5    1  0.8907853E-005  0.9118800E+02  0.7818608E-02  0.1130116E+00
         25   -1    0    0    0    0  0.00000000000E+00  0.00000000000E+00  0.99999998245E-14  0.12500000000E+03  0.12500000000E+03 0.  0.
        -11    1    3    3    0    0 -0.14306497141E+02 -0.26105950346E+02  0.48099369945E+02  0.56566296443E+02  0.51100000000E-03 0.  1.
         23    2    1    0    0    0  0.53633801897E+01 -0.26015047790E+02  0.16680405861E+02  0.93634660877E+02  0.88225082711E+02 0.  0.
         11    1    3    3    0    0  0.19669877331E+02  0.90902555281E-01 -0.31418964084E+02  0.37068364435E+02  0.51100000000E-03 0. -1.
         22    1    1    0    0    0 -0.53633801897E+01  0.26015047790E+02 -0.16680405861E+02  0.31365339123E+02  0.00000000000E+00 0.  1.
</event>
<event>
 5    1  0.8907853E-005  0.9118800E+02  0.7818608E-02  0.1130116E+00
         25   -1    0    0    0    0  0.00000000000E+00  0.00000000000E+00  0.99999998245E-14  0.12500000000E+03  0.12500000000E+03 0.  0.
        -11    1    3    3    0    0  0.36161895766E+02 -0.15353134890E+01  0.87193701817E+01  0.37229924919E+02  0.51100000000E-03 0.  1.
         23    2    1    0    0    0 -0.21413628140E+02  0.57968721051E+01 -0.13100284081E+02  0.99236369834E+02  0.95833670798E+02 0.  0.
         11    1    3    3    0    0 -0.57575523905E+02  0.73321855940E+01 -0.21819654263E+02  0.62006444915E+02  0.51100000000E-03 0. -1.
         22    1    1    0    0    0  0.21413628140E+02 -0.57968721051E+01  0.13100284081E+02  0.25763630166E+02  0.00000000000E+00 0. -1.
</event>
<event>
 5    1  0.8907853E-005  0.9118800E+02  0.7818608E-02  0.1130116E+00
         25   -1    0    0    0    0  0.00000000000E+00  0.00000000000E+00  0.99999998245E-14  0.12500000000E+03  0.12500000000E+03 0.  0.
        -11    1    3    3    0    0 -0.82552521725E+01 -0.35997486070E+01 -0.58736892963E+02  0.59423311703E+02  0.51100000000E-03 0.  1.
         23    2    1    0    0    0  0.36299259941E+01  0.99988727701E+01 -0.27630864185E+02  0.95392256503E+02  0.90681112288E+02 0.  0.
         11    1    3    3    0    0  0.11885178167E+02  0.13598621377E+02  0.31106028779E+02  0.35968944800E+02  0.51100000000E-03 0. -1.
         22    1    1    0    0    0 -0.36299259941E+01 -0.99988727701E+01  0.27630864185E+02  0.29607743497E+02  0.00000000000E+00 0.  1.
</event>
<event>
 5    1  0.8907853E-005  0.9118800E+02  0.7818608E-02  0.1130116E+00
         25   -1    0    0    0    0  0.00000000000E+00  0.00000000000E+00  0.99999998245E-14  0.12500000000E+03  0.12500000000E+03 0.  0.
        -11    1    3    3    0    0  0.80035174149E-02  0.32905531924E+01 -0.38720126484E+02  0.38859696339E+02  0.51100000000E-03 0.  1.
         23    2    1    0    0    0 -0.11460289714E+02  0.23095091539E+02  0.13516497444E+02  0.95889568937E+02  0.91364064239E+02 0.  0.
         11    1    3    3    0    0 -0.11468293232E+02  0.19804538346E+02  0.52236623929E+02  0.57029872597E+02  0.51100000000E-03 0. -1.
         22    1    1    0    0    0  0.11460289714E+02 -0.23095091539E+02 -0.13516497444E+02  0.29110431063E+02  0.00000000000E+00 0. -1.
</event>
<event>
 5    1  0.8907853E-005  0.9118800E+02  0.7818608E-02  0.1130116E+00
         25   -1    0    0    0    0  0.00000000000E+00  0.00000000000E+00  0.99999998245E-14  0.12500000000E+03  0.12500000000E+03 0.  0.
        -11    1    3    3    0    0  0.28214413637E+02 -0.40548507726E+01 -0.17575302298E+02  0.33487105022E+02  0.51100000000E-03 0.  1.
         23    2    1    0    0    0 -0.27320900386E+02 -0.22860267850E+01  0.10377098599E+02  0.95685469615E+02  0.91084397148E+02 0.  0.
         11    1    3    3    0    0 -0.55535314022E+02  0.17688239876E+01  0.27952400897E+02  0.62198364593E+02  0.51100000000E-03 0. -1.
         22    1    1    0    0    0  0.27320900386E+02  0.22860267850E+01 -0.10377098599E+02  0.29314530385E+02  0.00000000000E+00 0. -1.
</event>
<event>
 5    1  0.8907853E-005  0.9118800E+02  0.7818608E-02  0.1130116E+00
         25   -1    0    0    0    0  0.00000000000E+00  0.00000000000E+00  0.99999998245E-14  0.12500000000E+03  0.12500000000E+03 0.  0.
        -11    1    3    3    0    0 -0.31467188635E+02 -0.44427984153E+02 -0.16250768913E+02  0.56816522483E+02  0.51100000000E-03 0. -1.
         23    2    1    0    0    0  0.20587596891E+01 -0.23932040325E+02 -0.16048386022E+02  0.96111736994E+02  0.91667520140E+02 0.  0.
         11    1    3    3    0    0  0.33525948324E+02  0.20495943828E+02  0.20238289098E+00  0.39295214512E+02  0.51100000000E-03 0.  1.
         22    1    1    0    0    0 -0.20587596891E+01  0.23932040325E+02  0.16048386022E+02  0.28888263006E+02  0.00000000000E+00 0. -1.
</event>
<event>
 5    1  0.8907853E-005  0.9118800E+02  0.7818608E-02  0.1130116E+00
         25   -1    0    0    0    0  0.00000000000E+00  0.00000000000E+00  0.99999998245E-14  0.12500000000E+03  0.12500000000E+03 0.  0.
        -11    1    3    3    0    0  0.15898731432E+02 -0.89314047931E+01 -0.32113924172E+02  0.36930255600E+02  0.51100000000E-03 0.  1.
         23    2    1    0    0    0  0.15804132489E+02  0.14026994993E+02  0.21255236634E+02  0.95028141922E+02  0.90177799267E+02 0.  0.
         11    1    3    3    0    0 -0.94598942855E-01  0.22958399786E+02  0.53369160806E+02  0.58097886322E+02  0.51100000000E-03 0. -1.
         22    1    1    0    0    0 -0.15804132489E+02 -0.14026994993E+02 -0.21255236634E+02  0.29971858078E+02  0.00000000000E+00 0. -1.
</event>
<event>
 5    1  0.8907853E-005  0.9118800E+02  0.7818608E-02  0.1130116E+00
         25   -1    0    0    0    0  0.00000000000E+00  0.00000000000E+00  0.99999998245E-14  0.12500000000E+03  0.12500000000E+03 0.  0.
        -11    1    3    3    0    0  0.17432271385E+02 -0.55127529626E+02 -0.28055301973E+00  0.57818745391E+02  0.51100000000E-03 0.  1.
         23    2    1    0    0    0 -0.46334355575E+01 -0.27314619690E+02 -0.11428272691E+02  0.95030639136E+02  0.90181260714E+02 0.  0.
         11    1    3    3    0    0 -0.22065706942E+02  0.27812909936E+02 -0.11147719671E+02  0.37211893745E+02  0.51100000000E-03 0. -1.
         22    1    1    0    0    0  0.46334355575E+01  0.27314619690E+02  0.11428272691E+02  0.29969360864E+02  0.00000000000E+00 0.  1.
</event>
<event>
 5    1  0.8907853E-005  0.9118800E+02  0.7818608E-02  0.1130116E+00
         25   -1    0    0    0    0  0.00000000000E+00  0.00000000000E+00  0.99999998245E-14  0.12500000000E+03  0.12500000000E+03 0.  0.
        -11    1    3    3    0    0 -0.67194430730E+01  0.20200425433E+02 -0.38893010922E+02  0.44338182211E+02  0.51100000000E-03 0.  1.
         23    2    1    0    0    0  0.15617685269E+02  0.24744599135E+02  0.64031694949E+01  0.95046571830E+02  0.90203342275E+02 0.  0.
         11    1    3    3    0    0  0.22337128342E+02  0.45441737026E+01  0.45296180417E+02  0.50708389620E+02  0.51100000000E-03 0. -1.
         22    1    1    0    0    0 -0.15617685269E+02 -0.24744599135E+02 -0.64031694949E+01  0.29953428170E+02  0.00000000000E+00 0. -1.
</event>
<event>
 5    1  0.8907853E-005  0.9118800E+02  0.7818608E-02  0.1130116E+00
         25   -1    0    0    0    0  0.00000000000E+00  0.00000000000E+00  0.99999998245E-14  0.12500000000E+03  0.12500000000E+03 0.  0.
        -11    1    3    3    0    0 -0.52434781994E+01  0.15829192829E+02  0.34657710154E+02  0.38460554892E+02  0.51100000000E-03 0.  1.
         23    2    1    0    0    0 -0.98507544849E+01 -0.27895838107E+02 -0.14885437290E+01  0.95378539705E+02  0.90662202301E+02 0.  0.
         11    1    3    3    0    0 -0.46072762856E+01 -0.43725030936E+02 -0.36146253883E+02  0.56917984813E+02  0.51100000000E-03 0. -1.
         22    1    1    0    0    0  0.98507544849E+01  0.27895838107E+02  0.14885437290E+01  0.29621460295E+02  0.00000000000E+00 0. -1.
</event>
<event>
 5    1  0.8907853E-005  0.9118800E+02  0.7818608E-02  0.1130116E+00
         25   -1    0    0    0    0  0.00000000000E+00  0.00000000000E+00  0.99999998245E-14  0.12500000000E+03  0.12500000000E+03 0.  0.
        -11    1    3    3    0    0 -0.36906967132E+02  0.22942456280E+02 -0.29739513825E+01  0.43558293242E+02  0.51100000000E-03 0. -1.
         23    2    1    0    0    0 -0.10193306936E+02 -0.20716396404E+02 -0.16646750634E+02  0.96536217874E+02  0.92244536253E+02 0.  0.
         11    1    3    3    0    0  0.26713660196E+02 -0.43658852684E+02 -0.13672799251E+02  0.52977924632E+02  0.51100000000E-03 0.  1.
         22    1    1    0    0    0  0.10193306936E+02  0.20716396404E+02  0.16646750634E+02  0.28463782126E+02  0.00000000000E+00 0.  1.
</event>
<event>
 5    1  0.8907853E-005  0.9118800E+02  0.7818608E-02  0.1130116E+00
         25   -1    0    0    0    0  0.00000000000E+00  0.00000000000E+00  0.99999998245E-14  0.12500000000E+03  0.12500000000E+03 0.  0.
        -11    1    3    3    0    0  0.13877972836E+01 -0.28578042935E+02  0.23988321535E+02  0.37337248019E+02  0.51100000000E-03 0.  1.
         23    2    1    0    0    0 -0.19165786169E+02 -0.17985804142E+02 -0.23235886494E+02  0.89918339104E+02  0.82792419797E+02 0.  0.
         11    1    3    3    0    0 -0.20553583452E+02  0.10592238793E+02 -0.47224208029E+02  0.52581091085E+02  0.51100000000E-03 0. -1.
         22    1    1    0    0    0  0.19165786169E+02  0.17985804142E+02  0.23235886494E+02  0.35081660896E+02  0.00000000000E+00 0.  1.
</event>
<event>
 5    1  0.8907853E-005  0.9118800E+02  0.7818608E-02  0.1130116E+00
         25   -1    0    0    0    0  0.00000000000E+00  0.00000000000E+00  0.99999998245E-14  0.12500000000E+03  0.12500000000E+03 0.  0.
        -11    1    3    3    0    0  0.14550665604E+02  0.38487835726E+02 -0.39310296769E+02  0.56906368719E+02  0.51100000000E-03 0. -1.
         23    2    1    0    0    0  0.22071362776E+02  0.90693858494E+01 -0.99424080642E+01  0.99149462431E+02  0.95720246593E+02 0.  0.
         11    1    3    3    0    0  0.75206971726E+01 -0.29418449877E+02  0.29367888705E+02  0.42243093712E+02  0.51100000000E-03 0.  1.
         22    1    1    0    0    0 -0.22071362776E+02 -0.90693858494E+01  0.99424080642E+01  0.25850537569E+02  0.00000000000E+00 0. -1.
</event>
<event>
 5    1  0.8907853E-005  0.9118800E+02  0.7818608E-02  0.1130116E+00
         25   -1    0    0    0    0  0.00000000000E+00  0.00000000000E+00  0.99999998245E-14  0.12500000000E+03  0.12500000000E+03 0.  0.
        -11    1    3    3    0    0 -0.18466077871E+02  0.29462551360E+02 -0.13698676074E+02  0.37372338581E+02  0.51100000000E-03 0.  1.
         23    2    1    0    0    0  0.26877439301E+02 -0.65421942367E+01 -0.10670274226E+02  0.95351192252E+02  0.90624489312E+02 0.  0.
         11    1    3    3    0    0  0.45343517172E+02 -0.36004745596E+02  0.30284018474E+01  0.57978853671E+02  0.51100000000E-03 0. -1.
         22    1    1    0    0    0 -0.26877439301E+02  0.65421942367E+01  0.10670274226E+02  0.29648807748E+02  0.00000000000E+00 0. -1.
</event>
<event>
 5    1  0.8907853E-005  0.9118800E+02  0.7818608E-02  0.1130116E+00
         25   -1    0    0    0    0  0.00000000000E+00  0.00000000000E+00  0.99999998245E-14  0.12500000000E+03  0.12500000000E+03 0.  0.
        -11    1    3    3    0    0  0.34190351776E+01  0.43440308648E+02  0.10369265902E+02  0.44791426552E+02  0.51100000000E-03 0.  1.
         23    2    1    0    0    0  0.41231958078E+01  0.97723766750E+01 -0.27534224898E+02  0.95493498508E+02  0.90820562799E+02 0.  0.
         11    1    3    3    0    0  0.70416063021E+00 -0.33667931973E+02 -0.37903490800E+02  0.50702071956E+02  0.51100000000E-03 0. -1.
         22    1    1    0    0    0 -0.41231958078E+01 -0.97723766750E+01  0.27534224898E+02  0.29506501492E+02  0.00000000000E+00 0. -1.
</event>
<event>
 5    1  0.8907853E-005  0.9118800E+02  0.7818608E-02  0.1130116E+00
         25   -1    0    0    0    0  0.00000000000E+00  0.00000000000E+00  0.99999998245E-14  0.12500000000E+03  0.12500000000E+03 0.  0.
        -11    1    3    3    0    0 -0.45669688234E+02  0.59200697409E+01 -0.40092366666E+02  0.61058705475E+02  0.51100000000E-03 0.  1.
         23    2    1    0    0    0 -0.22104807838E+02  0.11460614665E+02 -0.14965258482E+02  0.95949575227E+02  0.91446125160E+02 0.  0.
         11    1    3    3    0    0  0.23564880396E+02  0.55405449238E+01  0.25127108183E+02  0.34890869752E+02  0.51100000000E-03 0. -1.
         22    1    1    0    0    0  0.22104807838E+02 -0.11460614665E+02  0.14965258482E+02  0.29050424773E+02  0.00000000000E+00 0.  1.
</event>
<event>
 5    1  0.8907853E-005  0.9118800E+02  0.7818608E-02  0.1130116E+00
         25   -1    0    0    0    0  0.00000000000E+00  0.00000000000E+00  0.99999998245E-14  0.12500000000E+03  0.12500000000E+03 0.  0.
        -11    1    3    3    0    0  0.16263604364E+02 -0.30012859142E+02 -0.33600617992E+02  0.47898622845E+02  0.51100000000E-03 0.  1.
         23    2    1    0    0    0  0.31652337117E+02 -0.15809046070E+01 -0.17841720413E+01  0.93258025042E+02  0.87689829858E+02 0.  0.
         11    1    3    3    0    0  0.15388732753E+02  0.28431954535E+02  0.31816445950E+02  0.45359402196E+02  0.51100000000E-03 0. -1.
         22    1    1    0    0    0 -0.31652337117E+02  0.15809046070E+01  0.17841720413E+01  0.31741974958E+02  0.00000000000E+00 0. -1.
</event>
<event>
 5    1  0.8907853E-005  0.9118800E+02  0.7818608E-02  0.1130116E+00
         25   -1    0    0    0    0  0.00000000000E+00  0.00000000000E+00  0.99999998245E-14  0.12500000000E+03  0.12500000000E+03 0.  0.
        -11    1    3    3    0    0 -0.34201353802E+02  0.45323238978E+02  0.89049451168E+01  0.57473703910E+02  0.51100000000E-03 0.  1.
         23    2    1    0    0    0 -0.26575971443E+02  0.99884682084E+01 -0.49396689287E+01  0.96182434447E+02  0.91763874219E+02 0.  0.
         11    1    3    3    0    0  0.76253823585E+01 -0.35334770770E+02 -0.13844614046E+02  0.38708730537E+02  0.51100000000E-03 0. -1.
         22    1    1    0    0    0  0.26575971443E+02 -0.99884682084E+01  0.49396689287E+01  0.28817565553E+02  0.00000000000E+00 0.  1.
</event>
<event>
 5    1  0.8907853E-005  0.9118800E+02  0.7818608E-02  0.1130116E+00
         25   -1    0    0    0    0  0.00000000000E+00  0.00000000000E+00  0.99999998245E-14  0.12500000000E+03  0.12500000000E+03 0.  0.
        -11    1    3    3    0    0 -0.77977813910E+01  0.26810564452E+02  0.46454044369E+02  0.54199538737E+02  0.51100000000E-03 0. -1.
         23    2    1    0    0    0  0.74971013545E+01  0.26971116813E+02  0.75446650805E+01  0.96007420915E+02  0.91525161724E+02 0.  0.
         11    1    3    3    0    0  0.15294882745E+02  0.16055236081E+00 -0.38909379288E+02  0.41807882177E+02  0.51100000000E-03 0.  1.
         22    1    1    0    0    0 -0.74971013545E+01 -0.26971116813E+02 -0.75446650805E+01  0.28992579085E+02  0.00000000000E+00 0. -1.
</event>
<event>
 5    1  0.8907853E-005  0.9118800E+02  0.7818608E-02  0.1130116E+00
         25   -1    0    0    0    0  0.00000000000E+00  0.00000000000E+00  0.99999998245E-14  0.12500000000E+03  0.12500000000E+03 0.  0.
        -11    1    3    3    0    0 -0.41157584424E+01  0.14701405898E+02 -0.45628100890E+02  0.48114388638E+02  0.51100000000E-03 0.  1.
         23    2    1    0    0    0 -0.26101907370E+02  0.13667095259E+02 -0.39161706313E+01  0.95277357897E+02  0.90522590961E+02 0.  0.
         11    1    3    3    0    0 -0.21986148928E+02 -0.10343106387E+01  0.41711930258E+02  0.47162969259E+02  0.51100000000E-03 0. -1.
         22    1    1    0    0    0  0.26101907370E+02 -0.13667095259E+02  0.39161706313E+01  0.29722642103E+02  0.00000000000E+00 0. -1.
</event>
<event>
 5    1  0.8907853E-005  0.9118800E+02  0.7818608E-02  0.1130116E+00
         25   -1    0    0    0    0  0.00000000000E+00  0.00000000000E+00  0.99999998245E-14  0.12500000000E+03  0.12500000000E+03 0.  0.
        -11    1    3    3    0    0 -0.10322012985E+02 -0.39149934625E+02  0.15033879545E+02  0.43188874350E+02  0.51100000000E-03 0.  1.
         23    2    1    0    0    0 -0.28035154714E+02  0.66730322025E+01 -0.40613944767E+01  0.95896835503E+02  0.91374005471E+02 0.  0.
         11    1    3    3    0    0 -0.17713141729E+02  0.45822966827E+02 -0.19095274021E+02  0.52707961154E+02  0.51100000000E-03 0. -1.
         22    1    1    0    0    0  0.28035154714E+02 -0.66730322025E+01  0.40613944767E+01  0.29103164497E+02  0.00000000000E+00 0. -1.
</event>
<event>
 5    1  0.8907853E-005  0.9118800E+02  0.7818608E-02  0.1130116E+00
         25   -1    0    0    0    0  0.00000000000E+00  0.00000000000E+00  0.99999998245E-14  0.12500000000E+03  0.12500000000E+03 0.  0.
        -11    1    3    3    0    0 -0.35093976138E+02  0.33015097171E+02  0.14331077359E+02  0.50268912669E+02  0.51100000000E-03 0.  1.
         23    2    1    0    0    0 -0.21032504838E+02 -0.11431119764E+02  0.14738954810E+02  0.96888195581E+02  0.92720272299E+02 0.  0.
         11    1    3    3    0    0  0.14061471300E+02 -0.44446216935E+02  0.40787745048E+00  0.46619282912E+02  0.51100000000E-03 0. -1.
         22    1    1    0    0    0  0.21032504838E+02  0.11431119764E+02 -0.14738954810E+02  0.28111804419E+02  0.00000000000E+00 0. -1.
</event>
<event>
 5    1  0.8907853E-005  0.9118800E+02  0.7818608E-02  0.1130116E+00
         25   -1    0    0    0    0  0.00000000000E+00  0.00000000000E+00  0.99999998245E-14  0.12500000000E+03  0.12500000000E+03 0.  0.
        -11    1    3    3    0    0  0.10492124628E+02  0.58552337848E+02  0.10362928382E+02  0.60380884654E+02  0.51100000000E-03 0.  1.
         23    2    1    0    0    0 -0.44457831024E+01  0.33161392010E+02  0.20768690989E+00  0.91541278547E+02  0.85207509274E+02 0.  0.
         11    1    3    3    0    0 -0.14937907730E+02 -0.25390945839E+02 -0.10155241472E+02  0.31160393893E+02  0.51100000000E-03 0. -1.
         22    1    1    0    0    0  0.44457831024E+01 -0.33161392010E+02 -0.20768690989E+00  0.33458721453E+02  0.00000000000E+00 0.  1.
</event>
<event>
 5    1  0.8907853E-005  0.9118800E+02  0.7818608E-02  0.1130116E+00
         25   -1    0    0    0    0  0.00000000000E+00  0.00000000000E+00  0.99999998245E-14  0.12500000000E+03  0.12500000000E+03 0.  0.
        -11    1    3    3    0    0  0.15456071724E+02  0.35786276799E+02 -0.20125636567E+01  0.39033295697E+02  0.51100000000E-03 0. -1.
         23    2    1    0    0    0  0.16702747485E+02 -0.19596298066E+02  0.12612880970E+02  0.96328037427E+02  0.91961999526E+02 0.  0.
         11    1    3    3    0    0  0.12466757602E+01 -0.55382574865E+02  0.14625444627E+02  0.57294741730E+02  0.51100000000E-03 0.  1.
         22    1    1    0    0    0 -0.16702747485E+02  0.19596298066E+02 -0.12612880970E+02  0.28671962573E+02  0.00000000000E+00 0.  1.
</event>
<event>
 5    1  0.8907853E-005  0.9118800E+02  0.7818608E-02  0.1130116E+00
         25   -1    0    0    0    0  0.00000000000E+00  0.00000000000E+00  0.99999998245E-14  0.12500000000E+03  0.12500000000E+03 0.  0.
        -11    1    3    3    0    0 -0.36719549874E+02  0.18417862699E+02  0.14254289944E+02  0.43482499830E+02  0.51100000000E-03 0.  1.
         23    2    1    0    0    0 -0.85567296114E+00 -0.21541085834E+02  0.17441428308E+02  0.97269980588E+02  0.93233551617E+02 0.  0.
         11    1    3    3    0    0  0.35863876913E+02 -0.39958948534E+02  0.31871383645E+01  0.53787480759E+02  0.51100000000E-03 0. -1.
         22    1    1    0    0    0  0.85567296114E+00  0.21541085834E+02 -0.17441428308E+02  0.27730019412E+02  0.00000000000E+00 0.  1.
</event>
<event>
 5    1  0.8907853E-005  0.9118800E+02  0.7818608E-02  0.1130116E+00
         25   -1    0    0    0    0  0.00000000000E+00  0.00000000000E+00  0.99999998245E-14  0.12500000000E+03  0.12500000000E+03 0.  0.
        -11    1    3    3    0    0 -0.49595606426E+02  0.13823537836E+02  0.14803886967E+01  0.51507338565E+02  0.51100000000E-03 0. -1.
         23    2    1    0    0    0 -0.18013468177E+02  0.28298478864E+01 -0.24925503181E+02  0.94116771807E+02  0.88905528240E+02 0.  0.
         11    1    3    3    0    0  0.31582138249E+02 -0.10993689949E+02 -0.26405891878E+02  0.42609433242E+02  0.51100000000E-03 0.  1.
         22    1    1    0    0    0  0.18013468177E+02 -0.28298478864E+01  0.24925503181E+02  0.30883228193E+02  0.00000000000E+00 0.  1.
</event>
<event>
 5    1  0.8907853E-005  0.9118800E+02  0.7818608E-02  0.1130116E+00
         25   -1    0    0    0    0  0.00000000000E+00  0.00000000000E+00  0.99999998245E-14  0.12500000000E+03  0.12500000000E+03 0.  0.
        -11    1    3    3    0    0 -0.30337352560E+02 -0.42866830679E+02 -0.51971217481E+01  0.52772437954E+02  0.51100000000E-03 0.  1.
         23    2    1    0    0    0 -0.13606287171E+02 -0.15015024001E+02  0.21961218518E+02  0.95118950568E+02  0.90303585987E+02 0.  0.
         11    1    3    3    0    0  0.16731065389E+02  0.27851806678E+02  0.27158340266E+02  0.42346512614E+02  0.51100000000E-03 0. -1.
         22    1    1    0    0    0  0.13606287171E+02  0.15015024001E+02 -0.21961218518E+02  0.29881049432E+02  0.00000000000E+00 0.  1.
</event>
<event>
 5    1  0.8907853E-005  0.9118800E+02  0.7818608E-02  0.1130116E+00
         25   -1    0    0    0    0  0.00000000000E+00  0.00000000000E+00  0.99999998245E-14  0.12500000000E+03  0.12500000000E+03 0.  0.
        -11    1    3    3    0    0 -0.11911120101E+02 -0.24538281649E+02 -0.22152585412E+02  0.35138854407E+02  0.51100000000E-03 0.  1.
         23    2    1    0    0    0  0.21415120653E+02  0.21237306890E+02 -0.41384006985E+01  0.94557316858E+02  0.89522786008E+02 0.  0.
         11    1    3    3    0    0  0.33326240754E+02  0.45775588539E+02  0.18014184713E+02  0.59418462451E+02  0.51100000000E-03 0. -1.
         22    1    1    0    0    0 -0.21415120653E+02 -0.21237306890E+02  0.41384006985E+01  0.30442683142E+02  0.00000000000E+00 0. -1.
</event>
<event>
 5    1  0.8907853E-005  0.9118800E+02  0.7818608E-02  0.1130116E+00
         25   -1    0    0    0    0  0.00000000000E+00  0.00000000000E+00  0.99999998245E-14  0.12500000000E+03  0.12500000000E+03 0.  0.
        -11    1    3    3    0    0  0.20253665086E+02 -0.34237983550E+02  0.10317924035E+02  0.41096350491E+02  0.51100000000E-03 0. -1.
         23    2    1    0    0    0  0.19677300146E+02  0.20491708981E+02  0.57059179543E+01  0.96023047474E+02  0.91546501126E+02 0.  0.
         11    1    3    3    0    0 -0.57636493986E+00  0.54729692531E+02 -0.46120060808E+01  0.54926696983E+02  0.51100000000E-03 0.  1.
         22    1    1    0    0    0 -0.19677300146E+02 -0.20491708981E+02 -0.57059179543E+01  0.28976952526E+02  0.00000000000E+00 0.  1.
</event>
<event>
 5    1  0.8907853E-005  0.9118800E+02  0.7818608E-02  0.1130116E+00
         25   -1    0    0    0    0  0.00000000000E+00  0.00000000000E+00  0.99999998245E-14  0.12500000000E+03  0.12500000000E+03 0.  0.
        -11    1    3    3    0    0  0.22252521624E+02  0.41408156440E+02  0.40663885949E+02  0.62155947094E+02  0.51100000000E-03 0.  1.
         23    2    1    0    0    0  0.12901032768E+02  0.16069378610E+02  0.14164010738E+02  0.99994385119E+02  0.96817334604E+02 0.  0.
         11    1    3    3    0    0 -0.93514888553E+01 -0.25338777830E+02 -0.26499875211E+02  0.37838438026E+02  0.51100000000E-03 0. -1.
         22    1    1    0    0    0 -0.12901032768E+02 -0.16069378610E+02 -0.14164010738E+02  0.25005614881E+02  0.00000000000E+00 0.  1.
</event>
<event>
 5    1  0.8907853E-005  0.9118800E+02  0.7818608E-02  0.1130116E+00
         25   -1    0    0    0    0  0.00000000000E+00  0.00000000000E+00  0.99999998245E-14  0.12500000000E+03  0.12500000000E+03 0.  0.
        -11    1    3    3    0    0  0.33576037151E+02 -0.34863461719E+02  0.27604013763E+01  0.48481244310E+02  0.51100000000E-03 0. -1.
         23    2    1    0    0    0 -0.96979392402E+01 -0.27225792726E+02 -0.10290593806E+02  0.94321177729E+02  0.89192457261E+02 0.  0.
         11    1    3    3    0    0 -0.43273976391E+02  0.76376689925E+01 -0.13050995182E+02  0.45839933419E+02  0.51100000000E-03 0.  1.
         22    1    1    0    0    0  0.96979392402E+01  0.27225792726E+02  0.10290593806E+02  0.30678822271E+02  0.00000000000E+00 0. -1.
</event>
<event>
 5    1  0.8907853E-005  0.9118800E+02  0.7818608E-02  0.1130116E+00
         25   -1    0    0    0    0  0.00000000000E+00  0.00000000000E+00  0.99999998245E-14  0.12500000000E+03  0.12500000000E+03 0.  0.
        -11    1    3    3    0    0 -0.15238653859E+02  0.52920456304E+02 -0.28238161430E+02  0.61888488655E+02  0.51100000000E-03 0.  1.
         23    2    1    0    0    0 -0.18400455760E+01  0.28646061649E+02 -0.14956250133E+02  0.92632237739E+02  0.86793199242E+02 0.  0.
         11    1    3    3    0    0  0.13398608283E+02 -0.24274394654E+02  0.13281911297E+02  0.30743749084E+02  0.51100000000E-03 0. -1.
         22    1    1    0    0    0  0.18400455760E+01 -0.28646061649E+02  0.14956250133E+02  0.32367762261E+02  0.00000000000E+00 0.  1.
</event>
<event>
 5    1  0.8907853E-005  0.9118800E+02  0.7818608E-02  0.1130116E+00
         25   -1    0    0    0    0  0.00000000000E+00  0.00000000000E+00  0.99999998245E-14  0.12500000000E+03  0.12500000000E+03 0.  0.
        -11    1    3    3    0    0 -0.20439614868E+02  0.35352341571E+02 -0.16266560935E+02  0.43956420639E+02  0.51100000000E-03 0.  1.
         23    2    1    0    0    0 -0.80482025986E+01 -0.14950071182E+02 -0.23227942679E+02  0.96228216695E+02  0.91826217246E+02 0.  0.
         11    1    3    3    0    0  0.12391412269E+02 -0.50302412754E+02 -0.69613817448E+01  0.52271796056E+02  0.51100000000E-03 0. -1.
         22    1    1    0    0    0  0.80482025986E+01  0.14950071182E+02  0.23227942679E+02  0.28771783305E+02  0.00000000000E+00 0. -1.
</event>
<event>
 5    1  0.8907853E-005  0.9118800E+02  0.7818608E-02  0.1130116E+00
         25   -1    0    0    0    0  0.00000000000E+00  0.00000000000E+00  0.99999998245E-14  0.12500000000E+03  0.12500000000E+03 0.  0.
        -11    1    3    3    0    0 -0.52471165156E+02 -0.28909188965E+02  0.42534010561E+01  0.60058769553E+02  0.51100000000E-03 0.  1.
         23    2    1    0    0    0 -0.22528306356E+02 -0.15931548133E+02 -0.99750303910E+01  0.95659924259E+02  0.91049333137E+02 0.  0.
         11    1    3    3    0    0  0.29942858800E+02  0.12977640831E+02 -0.14228431447E+02  0.35601154706E+02  0.51100000000E-03 0. -1.
         22    1    1    0    0    0  0.22528306356E+02  0.15931548133E+02  0.99750303910E+01  0.29340075741E+02  0.00000000000E+00 0.  1.
</event>
<event>
 5    1  0.8907853E-005  0.9118800E+02  0.7818608E-02  0.1130116E+00
         25   -1    0    0    0    0  0.00000000000E+00  0.00000000000E+00  0.99999998245E-14  0.12500000000E+03  0.12500000000E+03 0.  0.
        -11    1    3    3    0    0 -0.99159177334E+01 -0.59618522632E+02 -0.12567739261E+02  0.61730395558E+02  0.51100000000E-03 0.  1.
         23    2    1    0    0    0 -0.97837318704E+01 -0.23102001390E+02 -0.15908905215E+01  0.99861288613E+02  0.96645342119E+02 0.  0.
         11    1    3    3    0    0  0.13218586298E+00  0.36516521242E+02  0.10976848739E+02  0.38130893056E+02  0.51100000000E-03 0. -1.
         22    1    1    0    0    0  0.97837318704E+01  0.23102001390E+02  0.15908905215E+01  0.25138711387E+02  0.00000000000E+00 0.  1.
</event>
<event>
 5    1  0.8907853E-005  0.9118800E+02  0.7818608E-02  0.1130116E+00
         25   -1    0    0    0    0  0.00000000000E+00  0.00000000000E+00  0.99999998245E-14  0.12500000000E+03  0.12500000000E+03 0.  0.
        -11    1    3    3    0    0 -0.21175436242E+02 -0.51153323120E+02 -0.85759227720E+00  0.55369639976E+02  0.51100000000E-03 0.  1.
         23    2    1    0    0    0 -0.18855379735E+02 -0.14501950053E+02  0.16560710188E+02  0.96015710769E+02  0.91536482848E+02 0.  0.
         11    1    3    3    0    0  0.23200565067E+01  0.36651373067E+02  0.17418302465E+02  0.40646070793E+02  0.51100000000E-03 0. -1.
         22    1    1    0    0    0  0.18855379735E+02  0.14501950053E+02 -0.16560710188E+02  0.28984289231E+02  0.00000000000E+00 0.  1.
</event>
<event>
 5    1  0.8907853E-005  0.9118800E+02  0.7818608E-02  0.1130116E+00
         25   -1    0    0    0    0  0.00000000000E+00  0.00000000000E+00  0.99999998245E-14  0.12500000000E+03  0.12500000000E+03 0.  0.
        -11    1    3    3    0    0 -0.90506262376E+01 -0.39443401387E+02 -0.27548666854E+02  0.48955334683E+02  0.51100000000E-03 0.  1.
         23    2    1    0    0    0  0.24448751573E+02 -0.22243826349E+02 -0.10263406713E+02  0.90389787902E+02  0.83501179485E+02 0.  0.
         11    1    3    3    0    0  0.33499377810E+02  0.17199575037E+02  0.17285260141E+02  0.41434453219E+02  0.51100000000E-03 0. -1.
         22    1    1    0    0    0 -0.24448751573E+02  0.22243826349E+02  0.10263406713E+02  0.34610212098E+02  0.00000000000E+00 0. -1.
</event>
<event>
 5    1  0.8907853E-005  0.9118800E+02  0.7818608E-02  0.1130116E+00
         25   -1    0    0    0    0  0.00000000000E+00  0.00000000000E+00  0.99999998245E-14  0.12500000000E+03  0.12500000000E+03 0.  0.
        -11    1    3    3    0    0  0.59291864900E+02 -0.12970114834E+02 -0.49573953019E+01  0.60896017034E+02  0.51100000000E-03 0. -1.
         23    2    1    0    0    0  0.25711575480E+02 -0.15856438258E+02 -0.23980706835E+01  0.94697153749E+02  0.89717826753E+02 0.  0.
         11    1    3    3    0    0 -0.33580289420E+02 -0.28863234240E+01  0.25593246184E+01  0.33801136715E+02  0.51100000000E-03 0.  1.
         22    1    1    0    0    0 -0.25711575480E+02  0.15856438258E+02  0.23980706835E+01  0.30302846251E+02  0.00000000000E+00 0. -1.
</event>
<event>
 5    1  0.8907853E-005  0.9118800E+02  0.7818608E-02  0.1130116E+00
         25   -1    0    0    0    0  0.00000000000E+00  0.00000000000E+00  0.99999998245E-14  0.12500000000E+03  0.12500000000E+03 0.  0.
        -11    1    3    3    0    0  0.26129380373E+01 -0.46332089794E+01  0.32232703742E+02  0.32668658702E+02  0.51100000000E-03 0.  1.
         23    2    1    0    0    0 -0.10603473204E+02 -0.83298701375E+01 -0.27721250938E+02  0.94173256187E+02  0.88984909096E+02 0.  0.
         11    1    3    3    0    0 -0.13216411241E+02 -0.36966611581E+01 -0.59953954680E+02  0.61504597485E+02  0.51100000000E-03 0. -1.
         22    1    1    0    0    0  0.10603473204E+02  0.83298701375E+01  0.27721250938E+02  0.30826743813E+02  0.00000000000E+00 0. -1.
</event>
<event>
 5    1  0.8907853E-005  0.9118800E+02  0.7818608E-02  0.1130116E+00
         25   -1    0    0    0    0  0.00000000000E+00  0.00000000000E+00  0.99999998245E-14  0.12500000000E+03  0.12500000000E+03 0.  0.
        -11    1    3    3    0    0  0.11859191376E+02  0.62183402841E+01 -0.32661243269E+02  0.35299645723E+02  0.51100000000E-03 0.  1.
         23    2    1    0    0    0 -0.27077632575E+02 -0.14802032483E+02  0.54074133886E+01  0.93670485624E+02  0.88275825716E+02 0.  0.
         11    1    3    3    0    0 -0.38936823952E+02 -0.21020372767E+02  0.38068656658E+02  0.58370839901E+02  0.51100000000E-03 0. -1.
         22    1    1    0    0    0  0.27077632575E+02  0.14802032483E+02 -0.54074133886E+01  0.31329514376E+02  0.00000000000E+00 0. -1.
</event>
<event>
 5    1  0.8907853E-005  0.9118800E+02  0.7818608E-02  0.1130116E+00
         25   -1    0    0    0    0  0.00000000000E+00  0.00000000000E+00  0.99999998245E-14  0.12500000000E+03  0.12500000000E+03 0.  0.
        -11    1    3    3    0    0  0.10459059042E+02  0.48500487502E+00  0.56723333027E+02  0.57681571197E+02  0.51100000000E-03 0. -1.
         23    2    1    0    0    0  0.49824809480E+01 -0.16916061244E+02  0.23061149157E+02  0.95969070892E+02  0.91472770392E+02 0.  0.
         11    1    3    3    0    0 -0.54765780940E+01 -0.17401066119E+02 -0.33662183871E+02  0.38287499695E+02  0.51100000000E-03 0.  1.
         22    1    1    0    0    0 -0.49824809480E+01  0.16916061244E+02 -0.23061149157E+02  0.29030929108E+02  0.00000000000E+00 0. -1.
</event>
<event>
 5    1  0.8907853E-005  0.9118800E+02  0.7818608E-02  0.1130116E+00
         25   -1    0    0    0    0  0.00000000000E+00  0.00000000000E+00  0.99999998245E-14  0.12500000000E+03  0.12500000000E+03 0.  0.
        -11    1    3    3    0    0 -0.20145966802E+02 -0.38062580006E+02 -0.43204840339E+02  0.61002280319E+02  0.51100000000E-03 0. -1.
         23    2    1    0    0    0 -0.11593513249E+01 -0.22496444680E+02 -0.18265846034E+02  0.95998702614E+02  0.91513253978E+02 0.  0.
         11    1    3    3    0    0  0.18986615477E+02  0.15566135327E+02  0.24938994305E+02  0.34996422296E+02  0.51100000000E-03 0.  1.
         22    1    1    0    0    0  0.11593513249E+01  0.22496444680E+02  0.18265846034E+02  0.29001297386E+02  0.00000000000E+00 0. -1.
</event>
<event>
 5    1  0.8907853E-005  0.9118800E+02  0.7818608E-02  0.1130116E+00
         25   -1    0    0    0    0  0.00000000000E+00  0.00000000000E+00  0.99999998245E-14  0.12500000000E+03  0.12500000000E+03 0.  0.
        -11    1    3    3    0    0  0.46284136253E+02 -0.34863214550E+02  0.17077393202E+02  0.60409455851E+02  0.51100000000E-03 0.  1.
         23    2    1    0    0    0  0.31267027621E+02 -0.10298392120E+02  0.47071426444E+01  0.91745810965E+02  0.85507033285E+02 0.  0.
         11    1    3    3    0    0 -0.15017108632E+02  0.24564822430E+02 -0.12370250557E+02  0.31336355113E+02  0.51100000000E-03 0. -1.
         22    1    1    0    0    0 -0.31267027621E+02  0.10298392120E+02 -0.47071426444E+01  0.33254189035E+02  0.00000000000E+00 0.  1.
</event>
<event>
 5    1  0.8907853E-005  0.9118800E+02  0.7818608E-02  0.1130116E+00
         25   -1    0    0    0    0  0.00000000000E+00  0.00000000000E+00  0.99999998245E-14  0.12500000000E+03  0.12500000000E+03 0.  0.
        -11    1    3    3    0    0  0.11157174345E+02 -0.34415832083E+02 -0.44822210061E+02  0.57601758240E+02  0.51100000000E-03 0.  1.
         23    2    1    0    0    0 -0.25586888567E+01 -0.29791641097E+02 -0.13328160807E+02  0.92262733187E+02  0.86259395411E+02 0.  0.
         11    1    3    3    0    0 -0.13715863202E+02  0.46241909859E+01  0.31494049254E+02  0.34660974947E+02  0.51100000000E-03 0. -1.
         22    1    1    0    0    0  0.25586888567E+01  0.29791641097E+02  0.13328160807E+02  0.32737266813E+02  0.00000000000E+00 0.  1.
</event>
<event>
 5    1  0.8907853E-005  0.9118800E+02  0.7818608E-02  0.1130116E+00
         25   -1    0    0    0    0  0.00000000000E+00  0.00000000000E+00  0.99999998245E-14  0.12500000000E+03  0.12500000000E+03 0.  0.
        -11    1    3    3    0    0 -0.48290434269E+02  0.13383451646E+02 -0.28028382107E+02  0.57416661551E+02  0.51100000000E-03 0.  1.
         23    2    1    0    0    0 -0.31008393146E+02 -0.64041376426E+01 -0.38809225258E+01  0.93100235360E+02  0.87464614788E+02 0.  0.
         11    1    3    3    0    0  0.17282041124E+02 -0.19787589289E+02  0.24147459582E+02  0.35683573809E+02  0.51100000000E-03 0. -1.
         22    1    1    0    0    0  0.31008393146E+02  0.64041376426E+01  0.38809225258E+01  0.31899764640E+02  0.00000000000E+00 0.  1.
</event>
<event>
 5    1  0.8907853E-005  0.9118800E+02  0.7818608E-02  0.1130116E+00
         25   -1    0    0    0    0  0.00000000000E+00  0.00000000000E+00  0.99999998245E-14  0.12500000000E+03  0.12500000000E+03 0.  0.
        -11    1    3    3    0    0 -0.18520256399E+02 -0.27715428704E+02 -0.12366921947E+02  0.35553982113E+02  0.51100000000E-03 0.  1.
         23    2    1    0    0    0  0.24538607636E+02 -0.75781072313E+00  0.17835177525E+02  0.94655130596E+02  0.89659258579E+02 0.  0.
         11    1    3    3    0    0  0.43058864035E+02  0.26957617981E+02  0.30202099472E+02  0.59101148483E+02  0.51100000000E-03 0. -1.
         22    1    1    0    0    0 -0.24538607636E+02  0.75781072313E+00 -0.17835177525E+02  0.30344869404E+02  0.00000000000E+00 0. -1.
</event>
<event>
 5    1  0.8907853E-005  0.9118800E+02  0.7818608E-02  0.1130116E+00
         25   -1    0    0    0    0  0.00000000000E+00  0.00000000000E+00  0.99999998245E-14  0.12500000000E+03  0.12500000000E+03 0.  0.
        -11    1    3    3    0    0  0.50510236155E+02 -0.11866970696E+02 -0.34296202442E+02  0.62195968135E+02  0.51100000000E-03 0.  1.
         23    2    1    0    0    0  0.28025073393E+02 -0.58468041078E+01 -0.13763760412E+02  0.93234752360E+02  0.87656648864E+02 0.  0.
         11    1    3    3    0    0 -0.22485162763E+02  0.60201665882E+01  0.20532442030E+02  0.31038784225E+02  0.51100000000E-03 0. -1.
         22    1    1    0    0    0 -0.28025073393E+02  0.58468041078E+01  0.13763760412E+02  0.31765247640E+02  0.00000000000E+00 0.  1.
</event>
<event>
 5    1  0.8907853E-005  0.9118800E+02  0.7818608E-02  0.1130116E+00
         25   -1    0    0    0    0  0.00000000000E+00  0.00000000000E+00  0.99999998245E-14  0.12500000000E+03  0.12500000000E+03 0.  0.
        -11    1    3    3    0    0  0.71736203489E+01 -0.13977976707E+02  0.32080523634E+02  0.35721207407E+02  0.51100000000E-03 0. -1.
         23    2    1    0    0    0  0.80290919138E+01  0.83465822409E+01 -0.25233530160E+02  0.97235583989E+02  0.93187424030E+02 0.  0.
         11    1    3    3    0    0  0.85547156495E+00  0.22324558948E+02 -0.57314053794E+02  0.61514376583E+02  0.51100000000E-03 0.  1.
         22    1    1    0    0    0 -0.80290919138E+01 -0.83465822409E+01  0.25233530160E+02  0.27764416011E+02  0.00000000000E+00 0.  1.
</event>
<event>
 5    1  0.8907853E-005  0.9118800E+02  0.7818608E-02  0.1130116E+00
         25   -1    0    0    0    0  0.00000000000E+00  0.00000000000E+00  0.99999998245E-14  0.12500000000E+03  0.12500000000E+03 0.  0.
        -11    1    3    3    0    0 -0.45445685088E+01  0.47119110341E+02 -0.13798000862E+02  0.49307692000E+02  0.51100000000E-03 0. -1.
         23    2    1    0    0    0 -0.26349995880E+02  0.60615087368E+01  0.53726119793E+00  0.97956464347E+02  0.94149434872E+02 0.  0.
         11    1    3    3    0    0 -0.21805427371E+02 -0.41057601604E+02  0.14335262060E+02  0.48648772347E+02  0.51100000000E-03 0.  1.
         22    1    1    0    0    0  0.26349995880E+02 -0.60615087368E+01 -0.53726119793E+00  0.27043535653E+02  0.00000000000E+00 0. -1.
</event>
<event>
 5    1  0.8907853E-005  0.9118800E+02  0.7818608E-02  0.1130116E+00
         25   -1    0    0    0    0  0.00000000000E+00  0.00000000000E+00  0.99999998245E-14  0.12500000000E+03  0.12500000000E+03 0.  0.
        -11    1    3    3    0    0  0.31299276089E+02  0.20901132222E+02 -0.25895264141E+02  0.45684425322E+02  0.51100000000E-03 0. -1.
         23    2    1    0    0    0  0.59047810274E+01  0.23314051972E+02  0.16969887102E+02  0.95565521466E+02  0.90919636858E+02 0.  0.
         11    1    3    3    0    0 -0.25394495062E+02  0.24129197495E+01  0.42865151243E+02  0.49881096143E+02  0.51100000000E-03 0.  1.
         22    1    1    0    0    0 -0.59047810274E+01 -0.23314051972E+02 -0.16969887102E+02  0.29434478534E+02  0.00000000000E+00 0.  1.
</event>
<event>
 5    1  0.8907853E-005  0.9118800E+02  0.7818608E-02  0.1130116E+00
         25   -1    0    0    0    0  0.00000000000E+00  0.00000000000E+00  0.99999998245E-14  0.12500000000E+03  0.12500000000E+03 0.  0.
        -11    1    3    3    0    0 -0.37627432890E+01  0.18528057527E+01  0.51478997230E+02  0.51649571947E+02  0.51100000000E-03 0. -1.
         23    2    1    0    0    0  0.14077880120E+02  0.19792216966E+02  0.13710219325E+02  0.97109344306E+02  0.93017934166E+02 0.  0.
         11    1    3    3    0    0  0.17840623409E+02  0.17939411213E+02 -0.37768777904E+02  0.45459772359E+02  0.51100000000E-03 0.  1.
         22    1    1    0    0    0 -0.14077880120E+02 -0.19792216966E+02 -0.13710219325E+02  0.27890655694E+02  0.00000000000E+00 0. -1.
</event>
<event>
 5    1  0.8907853E-005  0.9118800E+02  0.7818608E-02  0.1130116E+00
         25   -1    0    0    0    0  0.00000000000E+00  0.00000000000E+00  0.99999998245E-14  0.12500000000E+03  0.12500000000E+03 0.  0.
        -11    1    3    3    0    0  0.38744959676E+02 -0.14968270747E+02 -0.11649751802E+02  0.43138587677E+02  0.51100000000E-03 0. -1.
         23    2    1    0    0    0  0.45802168016E+01  0.25787758730E+02 -0.11685183934E+02  0.96320209034E+02  0.91951358111E+02 0.  0.
         11    1    3    3    0    0 -0.34164742874E+02  0.40756029478E+02 -0.35432132045E-01  0.53181621357E+02  0.51100000000E-03 0.  1.
         22    1    1    0    0    0 -0.45802168016E+01 -0.25787758730E+02  0.11685183934E+02  0.28679790966E+02  0.00000000000E+00 0.  1.
</event>
<event>
 5    1  0.8907853E-005  0.9118800E+02  0.7818608E-02  0.1130116E+00
         25   -1    0    0    0    0  0.00000000000E+00  0.00000000000E+00  0.99999998245E-14  0.12500000000E+03  0.12500000000E+03 0.  0.
        -11    1    3    3    0    0  0.18198653497E+02  0.42360772698E+02  0.12074344072E+00  0.46104670392E+02  0.51100000000E-03 0.  1.
         23    2    1    0    0    0  0.12612410509E+02  0.16469872310E+01 -0.26870424828E+02  0.95271138666E+02  0.90514002599E+02 0.  0.
         11    1    3    3    0    0 -0.55862429881E+01 -0.40713785467E+02 -0.26991168269E+02  0.49166468274E+02  0.51100000000E-03 0. -1.
         22    1    1    0    0    0 -0.12612410509E+02 -0.16469872310E+01  0.26870424828E+02  0.29728861334E+02  0.00000000000E+00 0.  1.
</event>
<event>
 5    1  0.8907853E-005  0.9118800E+02  0.7818608E-02  0.1130116E+00
         25   -1    0    0    0    0  0.00000000000E+00  0.00000000000E+00  0.99999998245E-14  0.12500000000E+03  0.12500000000E+03 0.  0.
        -11    1    3    3    0    0 -0.14479159149E+01  0.18090677135E+02  0.42870452668E+02  0.46553676245E+02  0.51100000000E-03 0.  1.
         23    2    1    0    0    0 -0.20745113495E+02 -0.16127910483E+02  0.19657053013E+02  0.92184318328E+02  0.86145688122E+02 0.  0.
         11    1    3    3    0    0 -0.19297197580E+02 -0.34218587618E+02 -0.23213399656E+02  0.45630642082E+02  0.51100000000E-03 0. -1.
         22    1    1    0    0    0  0.20745113495E+02  0.16127910483E+02 -0.19657053013E+02  0.32815681672E+02  0.00000000000E+00 0. -1.
</event>
<event>
 5    1  0.8907853E-005  0.9118800E+02  0.7818608E-02  0.1130116E+00
         25   -1    0    0    0    0  0.00000000000E+00  0.00000000000E+00  0.99999998245E-14  0.12500000000E+03  0.12500000000E+03 0.  0.
        -11    1    3    3    0    0 -0.48151462248E+02 -0.59750179696E+01  0.15842321217E+02  0.51041584010E+02  0.51100000000E-03 0. -1.
         23    2    1    0    0    0 -0.22311572425E+01  0.19567140619E+02  0.45551273779E+01  0.10478613743E+03  0.10281796709E+03 0.  0.
         11    1    3    3    0    0  0.45920305006E+02  0.25542158588E+02 -0.11287193839E+02  0.53744553419E+02  0.51100000000E-03 0.  1.
         22    1    1    0    0    0  0.22311572425E+01 -0.19567140619E+02 -0.45551273779E+01  0.20213862572E+02  0.00000000000E+00 0.  1.
</event>
<event>
 5    1  0.8907853E-005  0.9118800E+02  0.7818608E-02  0.1130116E+00
         25   -1    0    0    0    0  0.00000000000E+00  0.00000000000E+00  0.99999998245E-14  0.12500000000E+03  0.12500000000E+03 0.  0.
        -11    1    3    3    0    0 -0.42998288668E+01  0.49518962043E+02 -0.30365300532E+02  0.58246610260E+02  0.51100000000E-03 0.  1.
         23    2    1    0    0    0 -0.18211806775E+02  0.32519610523E+02 -0.21779174211E+02  0.81831407205E+02  0.69518715475E+02 0.  0.
         11    1    3    3    0    0 -0.13911977909E+02 -0.16999351521E+02  0.85861263213E+01  0.23584796945E+02  0.51100000000E-03 0. -1.
         22    1    1    0    0    0  0.18211806775E+02 -0.32519610523E+02  0.21779174211E+02  0.43168592795E+02  0.00000000000E+00 0.  1.
</event>
<event>
 5    1  0.8907853E-005  0.9118800E+02  0.7818608E-02  0.1130116E+00
         25   -1    0    0    0    0  0.00000000000E+00  0.00000000000E+00  0.99999998245E-14  0.12500000000E+03  0.12500000000E+03 0.  0.
        -11    1    3    3    0    0 -0.21741755574E+02 -0.25843709299E+02 -0.55534073203E-01  0.33772834203E+02  0.51100000000E-03 0.  1.
         23    2    1    0    0    0  0.18547112340E+02  0.18180723165E+02  0.14576321792E+02  0.95217400585E+02  0.90439759764E+02 0.  0.
         11    1    3    3    0    0  0.40288867914E+02  0.44024432464E+02  0.14631855865E+02  0.61444566382E+02  0.51100000000E-03 0. -1.
         22    1    1    0    0    0 -0.18547112340E+02 -0.18180723165E+02 -0.14576321792E+02  0.29782599415E+02  0.00000000000E+00 0. -1.
</event>
<event>
 5    1  0.8907853E-005  0.9118800E+02  0.7818608E-02  0.1130116E+00
         25   -1    0    0    0    0  0.00000000000E+00  0.00000000000E+00  0.99999998245E-14  0.12500000000E+03  0.12500000000E+03 0.  0.
        -11    1    3    3    0    0  0.86482702182E+01 -0.11375038629E+02 -0.38931150036E+02  0.41470694774E+02  0.51100000000E-03 0.  1.
         23    2    1    0    0    0  0.13649618424E+02  0.14268677272E+02  0.14200014513E+02  0.10067824746E+03  0.97696273553E+02 0.  0.
         11    1    3    3    0    0  0.50013482061E+01  0.25643715901E+02  0.53131164549E+02  0.59207552691E+02  0.51100000000E-03 0. -1.
         22    1    1    0    0    0 -0.13649618424E+02 -0.14268677272E+02 -0.14200014513E+02  0.24321752535E+02  0.00000000000E+00 0. -1.
</event>
<event>
 5    1  0.8907853E-005  0.9118800E+02  0.7818608E-02  0.1130116E+00
         25   -1    0    0    0    0  0.00000000000E+00  0.00000000000E+00  0.99999998245E-14  0.12500000000E+03  0.12500000000E+03 0.  0.
        -11    1    3    3    0    0 -0.23033098730E+01 -0.47103156223E+02  0.10809077131E+02  0.48382318167E+02  0.51100000000E-03 0. -1.
         23    2    1    0    0    0 -0.43233507709E+01  0.95863394994E+00  0.25842418321E+02  0.98780905324E+02  0.95237735856E+02 0.  0.
         11    1    3    3    0    0 -0.20200408979E+01  0.48061790173E+02  0.15033341190E+02  0.50398587157E+02  0.51100000000E-03 0.  1.
         22    1    1    0    0    0  0.43233507709E+01 -0.95863394994E+00 -0.25842418321E+02  0.26219094676E+02  0.00000000000E+00 0.  1.
</event>
<event>
 5    1  0.8907853E-005  0.9118800E+02  0.7818608E-02  0.1130116E+00
         25   -1    0    0    0    0  0.00000000000E+00  0.00000000000E+00  0.99999998245E-14  0.12500000000E+03  0.12500000000E+03 0.  0.
        -11    1    3    3    0    0  0.38281384539E+02  0.21915063673E+02  0.29367648638E+02  0.52992388177E+02  0.51100000000E-03 0. -1.
         23    2    1    0    0    0  0.26387077222E+02  0.52946423399E+01 -0.91313483920E+01  0.96580066761E+02  0.92303936484E+02 0.  0.
         11    1    3    3    0    0 -0.11894307317E+02 -0.16620421333E+02 -0.38498997030E+02  0.43587678584E+02  0.51100000000E-03 0.  1.
         22    1    1    0    0    0 -0.26387077222E+02 -0.52946423399E+01  0.91313483920E+01  0.28419933239E+02  0.00000000000E+00 0. -1.
</event>
<event>
 5    1  0.8907853E-005  0.9118800E+02  0.7818608E-02  0.1130116E+00
         25   -1    0    0    0    0  0.00000000000E+00  0.00000000000E+00  0.99999998245E-14  0.12500000000E+03  0.12500000000E+03 0.  0.
        -11    1    3    3    0    0  0.93055739991E+01  0.40564448796E+02  0.24293928880E+02  0.48189866095E+02  0.51100000000E-03 0.  1.
         23    2    1    0    0    0 -0.19736178890E+02  0.21747577073E+02 -0.69592251997E+01  0.94818802524E+02  0.89887154983E+02 0.  0.
         11    1    3    3    0    0 -0.29041752889E+02 -0.18816871722E+02 -0.31253154080E+02  0.46628936429E+02  0.51100000000E-03 0. -1.
         22    1    1    0    0    0  0.19736178890E+02 -0.21747577073E+02  0.69592251997E+01  0.30181197476E+02  0.00000000000E+00 0. -1.
</event>
<event>
 5    1  0.8907853E-005  0.9118800E+02  0.7818608E-02  0.1130116E+00
         25   -1    0    0    0    0  0.00000000000E+00  0.00000000000E+00  0.99999998245E-14  0.12500000000E+03  0.12500000000E+03 0.  0.
        -11    1    3    3    0    0  0.22909378161E+02  0.39628807742E+02  0.17118265200E+02  0.48870410418E+02  0.51100000000E-03 0.  1.
         23    2    1    0    0    0  0.35302797145E+02  0.20458180086E+02 -0.86448086084E+01  0.83291999154E+02  0.72097155204E+02 0.  0.
         11    1    3    3    0    0  0.12393418984E+02 -0.19170627655E+02 -0.25763073808E+02  0.34421588736E+02  0.51100000000E-03 0. -1.
         22    1    1    0    0    0 -0.35302797145E+02 -0.20458180086E+02  0.86448086084E+01  0.41708000846E+02  0.00000000000E+00 0.  1.
</event>
<event>
 5    1  0.8907853E-005  0.9118800E+02  0.7818608E-02  0.1130116E+00
         25   -1    0    0    0    0  0.00000000000E+00  0.00000000000E+00  0.99999998245E-14  0.12500000000E+03  0.12500000000E+03 0.  0.
        -11    1    3    3    0    0  0.32777877332E+02 -0.23178517724E+02  0.26386521047E+02  0.48040414439E+02  0.51100000000E-03 0. -1.
         23    2    1    0    0    0 -0.99866341076E+01 -0.26955716175E+01  0.27654563283E+02  0.95474183542E+02  0.90793974940E+02 0.  0.
         11    1    3    3    0    0 -0.42764511440E+02  0.20482946107E+02  0.12680422363E+01  0.47433769102E+02  0.51100000000E-03 0.  1.
         22    1    1    0    0    0  0.99866341076E+01  0.26955716175E+01 -0.27654563283E+02  0.29525816458E+02  0.00000000000E+00 0. -1.
</event>
<event>
 5    1  0.8907853E-005  0.9118800E+02  0.7818608E-02  0.1130116E+00
         25   -1    0    0    0    0  0.00000000000E+00  0.00000000000E+00  0.99999998245E-14  0.12500000000E+03  0.12500000000E+03 0.  0.
        -11    1    3    3    0    0 -0.25608584835E+02 -0.88276488766E+01  0.21664340018E+02  0.34685308570E+02  0.51100000000E-03 0. -1.
         23    2    1    0    0    0  0.21759792110E+02 -0.63118222364E+01 -0.17638147059E+02  0.96287078096E+02  0.91906308402E+02 0.  0.
         11    1    3    3    0    0  0.47368376944E+02  0.25158266401E+01 -0.39302487077E+02  0.61601769526E+02  0.51100000000E-03 0.  1.
         22    1    1    0    0    0 -0.21759792110E+02  0.63118222364E+01  0.17638147059E+02  0.28712921904E+02  0.00000000000E+00 0.  1.
</event>
<event>
 5    1  0.8907853E-005  0.9118800E+02  0.7818608E-02  0.1130116E+00
         25   -1    0    0    0    0  0.00000000000E+00  0.00000000000E+00  0.99999998245E-14  0.12500000000E+03  0.12500000000E+03 0.  0.
        -11    1    3    3    0    0 -0.30868897394E+02  0.98846408933E+01 -0.21427670040E+02  0.38855372801E+02  0.51100000000E-03 0. -1.
         23    2    1    0    0    0  0.32864939842E+01 -0.27108330293E+02  0.71806448909E+01  0.96764839738E+02  0.92553821825E+02 0.  0.
         11    1    3    3    0    0  0.34155391378E+02 -0.36992971186E+02  0.28608314931E+02  0.57909466936E+02  0.51100000000E-03 0.  1.
         22    1    1    0    0    0 -0.32864939842E+01  0.27108330293E+02 -0.71806448909E+01  0.28235160262E+02  0.00000000000E+00 0.  1.
</event>
<event>
 5    1  0.8907853E-005  0.9118800E+02  0.7818608E-02  0.1130116E+00
         25   -1    0    0    0    0  0.00000000000E+00  0.00000000000E+00  0.99999998245E-14  0.12500000000E+03  0.12500000000E+03 0.  0.
        -11    1    3    3    0    0 -0.43450466544E+02 -0.31476797914E+02  0.30879507445E+02  0.61905378039E+02  0.51100000000E-03 0.  1.
         23    2    1    0    0    0 -0.16401306854E+02 -0.14605614574E+02  0.19109586365E+02  0.95888092907E+02  0.91362044781E+02 0.  0.
         11    1    3    3    0    0  0.27049159691E+02  0.16871183340E+02 -0.11769921081E+02  0.33982714868E+02  0.51100000000E-03 0. -1.
         22    1    1    0    0    0  0.16401306854E+02  0.14605614574E+02 -0.19109586365E+02  0.29111907093E+02  0.00000000000E+00 0.  1.
</event>
<event>
 5    1  0.8907853E-005  0.9118800E+02  0.7818608E-02  0.1130116E+00
         25   -1    0    0    0    0  0.00000000000E+00  0.00000000000E+00  0.99999998245E-14  0.12500000000E+03  0.12500000000E+03 0.  0.
        -11    1    3    3    0    0  0.52623840881E+02  0.19576742930E+00  0.19386054706E+02  0.56081423585E+02  0.51100000000E-03 0.  1.
         23    2    1    0    0    0  0.24047803353E+02 -0.98589667436E+01 -0.89004472757E+01  0.97527940866E+02  0.93578764773E+02 0.  0.
         11    1    3    3    0    0 -0.28576037528E+02 -0.10054734173E+02 -0.28286501981E+02  0.41446517281E+02  0.51100000000E-03 0. -1.
         22    1    1    0    0    0 -0.24047803353E+02  0.98589667436E+01  0.89004472757E+01  0.27472059134E+02  0.00000000000E+00 0.  1.
</event>
<event>
 5    1  0.8907853E-005  0.9118800E+02  0.7818608E-02  0.1130116E+00
         25   -1    0    0    0    0  0.00000000000E+00  0.00000000000E+00  0.99999998245E-14  0.12500000000E+03  0.12500000000E+03 0.  0.
        -11    1    3    3    0    0 -0.40876494572E+02 -0.44294579100E+02  0.31964069590E+01  0.60358218694E+02  0.51100000000E-03 0.  1.
         23    2    1    0    0    0 -0.15292830463E+02 -0.26634114615E+02 -0.77648534068E+01  0.93321305688E+02  0.87779988734E+02 0.  0.
         11    1    3    3    0    0  0.25583664110E+02  0.17660464486E+02 -0.10961260366E+02  0.32963086994E+02  0.51100000000E-03 0. -1.
         22    1    1    0    0    0  0.15292830463E+02  0.26634114615E+02  0.77648534068E+01  0.31678694312E+02  0.00000000000E+00 0.  1.
</event>
<event>
 5    1  0.8907853E-005  0.9118800E+02  0.7818608E-02  0.1130116E+00
         25   -1    0    0    0    0  0.00000000000E+00  0.00000000000E+00  0.99999998245E-14  0.12500000000E+03  0.12500000000E+03 0.  0.
        -11    1    3    3    0    0  0.20392821233E+02 -0.37911645882E+02 -0.66052130844E+01  0.43552139919E+02  0.51100000000E-03 0.  1.
         23    2    1    0    0    0 -0.24727269235E+01 -0.21162858389E+01  0.27056428491E+02  0.97748516245E+02  0.93872941049E+02 0.  0.
         11    1    3    3    0    0 -0.22865548156E+02  0.35795360043E+02  0.33661641575E+02  0.54196376326E+02  0.51100000000E-03 0. -1.
         22    1    1    0    0    0  0.24727269235E+01  0.21162858389E+01 -0.27056428491E+02  0.27251483755E+02  0.00000000000E+00 0. -1.
</event>
<event>
 5    1  0.8907853E-005  0.9118800E+02  0.7818608E-02  0.1130116E+00
         25   -1    0    0    0    0  0.00000000000E+00  0.00000000000E+00  0.99999998245E-14  0.12500000000E+03  0.12500000000E+03 0.  0.
        -11    1    3    3    0    0  0.12696876181E+02 -0.39112541783E+02  0.30481752728E+01  0.41234608792E+02  0.51100000000E-03 0.  1.
         23    2    1    0    0    0 -0.24732485955E+02  0.17828515052E+01 -0.10124140550E+02  0.98216186924E+02  0.94493633283E+02 0.  0.
         11    1    3    3    0    0 -0.37429362135E+02  0.40895393288E+02 -0.13172315823E+02  0.56981578132E+02  0.51100000000E-03 0. -1.
         22    1    1    0    0    0  0.24732485955E+02 -0.17828515052E+01  0.10124140550E+02  0.26783813076E+02  0.00000000000E+00 0. -1.
</event>
<event>
 5    1  0.8907853E-005  0.9118800E+02  0.7818608E-02  0.1130116E+00
         25   -1    0    0    0    0  0.00000000000E+00  0.00000000000E+00  0.99999998245E-14  0.12500000000E+03  0.12500000000E+03 0.  0.
        -11    1    3    3    0    0  0.22629737242E+00  0.14373388216E+02  0.42288181314E+02  0.44664703944E+02  0.51100000000E-03 0. -1.
         23    2    1    0    0    0 -0.26799437675E+02 -0.99326824887E+01  0.64686202014E+01  0.95696227402E+02  0.91099159440E+02 0.  0.
         11    1    3    3    0    0 -0.27025735048E+02 -0.24306070704E+02 -0.35819561112E+02  0.51031523459E+02  0.51100000000E-03 0.  1.
         22    1    1    0    0    0  0.26799437675E+02  0.99326824887E+01 -0.64686202014E+01  0.29303772598E+02  0.00000000000E+00 0. -1.
</event>
<event>
 5    1  0.8907853E-005  0.9118800E+02  0.7818608E-02  0.1130116E+00
         25   -1    0    0    0    0  0.00000000000E+00  0.00000000000E+00  0.99999998245E-14  0.12500000000E+03  0.12500000000E+03 0.  0.
        -11    1    3    3    0    0 -0.38869179210E+02 -0.60253977225E+01 -0.31196307106E+02  0.50202869315E+02  0.51100000000E-03 0. -1.
         23    2    1    0    0    0 -0.13789831500E+02 -0.26739429860E+02 -0.52637409744E+00  0.94909575747E+02  0.90013298667E+02 0.  0.
         11    1    3    3    0    0  0.25079347711E+02 -0.20714032137E+02  0.30669933008E+02  0.44706706432E+02  0.51100000000E-03 0.  1.
         22    1    1    0    0    0  0.13789831500E+02  0.26739429860E+02  0.52637409744E+00  0.30090424253E+02  0.00000000000E+00 0. -1.
</event>
<event>
 5    1  0.8907853E-005  0.9118800E+02  0.7818608E-02  0.1130116E+00
         25   -1    0    0    0    0  0.00000000000E+00  0.00000000000E+00  0.99999998245E-14  0.12500000000E+03  0.12500000000E+03 0.  0.
        -11    1    3    3    0    0 -0.39781427617E+02 -0.16244480531E+02 -0.43799046323E+02  0.61357979025E+02  0.51100000000E-03 0.  1.
         23    2    1    0    0    0 -0.29103678972E+02 -0.38885529984E+01 -0.32407859003E+02  0.81268840637E+02  0.68499709190E+02 0.  0.
         11    1    3    3    0    0  0.10677748645E+02  0.12355927533E+02  0.11391187320E+02  0.19910861612E+02  0.51100000000E-03 0. -1.
         22    1    1    0    0    0  0.29103678972E+02  0.38885529984E+01  0.32407859003E+02  0.43731159363E+02  0.00000000000E+00 0.  1.
</event>
<event>
 5    1  0.8907853E-005  0.9118800E+02  0.7818608E-02  0.1130116E+00
         25   -1    0    0    0    0  0.00000000000E+00  0.00000000000E+00  0.99999998245E-14  0.12500000000E+03  0.12500000000E+03 0.  0.
        -11    1    3    3    0    0  0.43768531543E+02  0.12013434171E+02  0.38471684462E+02  0.59498550063E+02  0.51100000000E-03 0.  1.
         23    2    1    0    0    0  0.17365335901E+02  0.18721867189E+02  0.15538711171E+02  0.95108282973E+02  0.90288818484E+02 0.  0.
         11    1    3    3    0    0 -0.26403195643E+02  0.67084330175E+01 -0.22932973291E+02  0.35609732910E+02  0.51100000000E-03 0. -1.
         22    1    1    0    0    0 -0.17365335901E+02 -0.18721867189E+02 -0.15538711171E+02  0.29891717027E+02  0.00000000000E+00 0.  1.
</event>
<event>
 5    1  0.8907853E-005  0.9118800E+02  0.7818608E-02  0.1130116E+00
         25   -1    0    0    0    0  0.00000000000E+00  0.00000000000E+00  0.99999998245E-14  0.12500000000E+03  0.12500000000E+03 0.  0.
        -11    1    3    3    0    0 -0.16257912253E+00 -0.40401238786E+02  0.43003898722E+02  0.59005269535E+02  0.51100000000E-03 0. -1.
         23    2    1    0    0    0 -0.79080898950E+01 -0.26207452693E+02  0.98230499312E+01  0.95916314326E+02  0.91400648693E+02 0.  0.
         11    1    3    3    0    0 -0.77455107725E+01  0.14193786093E+02 -0.33180848791E+02  0.36911044790E+02  0.51100000000E-03 0.  1.
         22    1    1    0    0    0  0.79080898950E+01  0.26207452693E+02 -0.98230499312E+01  0.29083685674E+02  0.00000000000E+00 0. -1.
</event>
<event>
 5    1  0.8907853E-005  0.9118800E+02  0.7818608E-02  0.1130116E+00
         25   -1    0    0    0    0  0.00000000000E+00  0.00000000000E+00  0.99999998245E-14  0.12500000000E+03  0.12500000000E+03 0.  0.
        -11    1    3    3    0    0  0.23131804668E+02  0.18306943691E+02  0.24998922054E+02  0.38667436929E+02  0.51100000000E-03 0. -1.
         23    2    1    0    0    0 -0.67889990594E+00 -0.28945486024E+02  0.32901123277E+01  0.95860217822E+02  0.91323898600E+02 0.  0.
         11    1    3    3    0    0 -0.23810704574E+02 -0.47252429715E+02 -0.21708809727E+02  0.57192780893E+02  0.51100000000E-03 0.  1.
         22    1    1    0    0    0  0.67889990594E+00  0.28945486024E+02 -0.32901123277E+01  0.29139782178E+02  0.00000000000E+00 0.  1.
</event>
<event>
 5    1  0.8907853E-005  0.9118800E+02  0.7818608E-02  0.1130116E+00
         25   -1    0    0    0    0  0.00000000000E+00  0.00000000000E+00  0.99999998245E-14  0.12500000000E+03  0.12500000000E+03 0.  0.
        -11    1    3    3    0    0  0.32882754967E+02 -0.68932210570E+01  0.22978059677E+02  0.40703603004E+02  0.51100000000E-03 0.  1.
         23    2    1    0    0    0 -0.19947877741E+02 -0.18198529284E+02  0.93792688066E+01  0.96415476603E+02  0.92080775142E+02 0.  0.
         11    1    3    3    0    0 -0.52830632709E+02 -0.11305308227E+02 -0.13598790870E+02  0.55711873599E+02  0.51100000000E-03 0. -1.
         22    1    1    0    0    0  0.19947877741E+02  0.18198529284E+02 -0.93792688066E+01  0.28584523397E+02  0.00000000000E+00 0. -1.
</event>
<event>
 5    1  0.8907853E-005  0.9118800E+02  0.7818608E-02  0.1130116E+00
         25   -1    0    0    0    0  0.00000000000E+00  0.00000000000E+00  0.99999998245E-14  0.12500000000E+03  0.12500000000E+03 0.  0.
        -11    1    3    3    0    0  0.28596871664E+02  0.15687093290E+02  0.13559138868E+02  0.35323026653E+02  0.51100000000E-03 0.  1.
         23    2    1    0    0    0 -0.19947948188E+02 -0.17149404176E+02  0.16401687373E+02  0.93999386310E+02  0.88740332304E+02 0.  0.
         11    1    3    3    0    0 -0.48544819852E+02 -0.32836497466E+02  0.28425485058E+01  0.58676359656E+02  0.51100000000E-03 0. -1.
         22    1    1    0    0    0  0.19947948188E+02  0.17149404176E+02 -0.16401687373E+02  0.31000613690E+02  0.00000000000E+00 0. -1.
</event>
<event>
 5    1  0.8907853E-005  0.9118800E+02  0.7818608E-02  0.1130116E+00
         25   -1    0    0    0    0  0.00000000000E+00  0.00000000000E+00  0.99999998245E-14  0.12500000000E+03  0.12500000000E+03 0.  0.
        -11    1    3    3    0    0 -0.31213850310E+02  0.15176576666E+02  0.33127880860E+02  0.47980094008E+02  0.51100000000E-03 0. -1.
         23    2    1    0    0    0 -0.27737512174E+02  0.84079806090E+01 -0.11916072590E+02  0.93662219199E+02  0.88264119549E+02 0.  0.
         11    1    3    3    0    0  0.34763381360E+01 -0.67685960567E+01 -0.45043953449E+02  0.45682125192E+02  0.51100000000E-03 0.  1.
         22    1    1    0    0    0  0.27737512174E+02 -0.84079806090E+01  0.11916072590E+02  0.31337780801E+02  0.00000000000E+00 0. -1.
</event>
<event>
 5    1  0.8907853E-005  0.9118800E+02  0.7818608E-02  0.1130116E+00
         25   -1    0    0    0    0  0.00000000000E+00  0.00000000000E+00  0.99999998245E-14  0.12500000000E+03  0.12500000000E+03 0.  0.
        -11    1    3    3    0    0  0.37822566976E+02 -0.13476373619E+02  0.71739429606E+01  0.40787555412E+02  0.51100000000E-03 0.  1.
         23    2    1    0    0    0 -0.30445522499E+01  0.21219008315E+02  0.19750976068E+02  0.95851815358E+02  0.91312396965E+02 0.  0.
         11    1    3    3    0    0 -0.40867119226E+02  0.34695381934E+02  0.12577033107E+02  0.55064259946E+02  0.51100000000E-03 0. -1.
         22    1    1    0    0    0  0.30445522499E+01 -0.21219008315E+02 -0.19750976068E+02  0.29148184642E+02  0.00000000000E+00 0. -1.
</event>
<event>
 5    1  0.8907853E-005  0.9118800E+02  0.7818608E-02  0.1130116E+00
         25   -1    0    0    0    0  0.00000000000E+00  0.00000000000E+00  0.99999998245E-14  0.12500000000E+03  0.12500000000E+03 0.  0.
        -11    1    3    3    0    0 -0.32539056081E+00  0.29474090733E+02 -0.13979298732E+02  0.32622824783E+02  0.51100000000E-03 0.  1.
         23    2    1    0    0    0  0.55625876466E+01 -0.28618000804E+02  0.75992305309E+01  0.94872261021E+02  0.89961465391E+02 0.  0.
         11    1    3    3    0    0  0.58879782074E+01 -0.58092091537E+02  0.21578529263E+02  0.62249436238E+02  0.51100000000E-03 0. -1.
         22    1    1    0    0    0 -0.55625876466E+01  0.28618000804E+02 -0.75992305309E+01  0.30127738979E+02  0.00000000000E+00 0. -1.
</event>
<event>
 5    1  0.8907853E-005  0.9118800E+02  0.7818608E-02  0.1130116E+00
         25   -1    0    0    0    0  0.00000000000E+00  0.00000000000E+00  0.99999998245E-14  0.12500000000E+03  0.12500000000E+03 0.  0.
        -11    1    3    3    0    0 -0.20645581192E+02  0.68787978967E-01 -0.34034538133E+02  0.39806965982E+02  0.51100000000E-03 0.  1.
         23    2    1    0    0    0  0.15612104488E+02 -0.23567429421E+02  0.27349495529E+01  0.96598565439E+02  0.92328984397E+02 0.  0.
         11    1    3    3    0    0  0.36257685680E+02 -0.23636217400E+02  0.36769487686E+02  0.56791599456E+02  0.51100000000E-03 0. -1.
         22    1    1    0    0    0 -0.15612104488E+02  0.23567429421E+02 -0.27349495529E+01  0.28401434561E+02  0.00000000000E+00 0. -1.
</event>
<event>
 4    1  0.8907853E-005  0.9118800E+02  0.7818608E-02  0.1130116E+00
         25   -1    0    0    0    0  0.00000000000E+00  0.00000000000E+00  0.99999998245E-14  0.12500000000E+03  0.12500000000E+03 0.  0.
        -11    1    1    0    0    0 -0.23568747238E+02 -0.15401100175E+01 -0.63767600961E+01  0.24464685873E+02  0.51100000000E-03 0. -1.
         11    1    1    0    0    0 -0.33552389351E+01  0.46801055624E+02 -0.31097805776E+01  0.47024112659E+02  0.51100000000E-03 0.  1.
         22    1    1    0    0    0  0.26923986174E+02 -0.45260945607E+02  0.94865406737E+01  0.53511201469E+02  0.00000000000E+00 0.  1.
</event>
<event>
 5    1  0.8907853E-005  0.9118800E+02  0.7818608E-02  0.1130116E+00
         25   -1    0    0    0    0  0.00000000000E+00  0.00000000000E+00  0.99999998245E-14  0.12500000000E+03  0.12500000000E+03 0.  0.
        -11    1    3    3    0    0 -0.34262877261E+01  0.20837674299E+02  0.28004159752E+02  0.35073937353E+02  0.51100000000E-03 0.  1.
         23    2    1    0    0    0  0.67081979495E+01 -0.61719506436E+01 -0.26627974515E+02  0.96854984078E+02  0.92675487695E+02 0.  0.
         11    1    3    3    0    0  0.10134485676E+02 -0.27009624943E+02 -0.54632134267E+02  0.61781046724E+02  0.51100000000E-03 0. -1.
         22    1    1    0    0    0 -0.67081979495E+01  0.61719506436E+01  0.26627974515E+02  0.28145015922E+02  0.00000000000E+00 0. -1.
</event>
<event>
 5    1  0.8907853E-005  0.9118800E+02  0.7818608E-02  0.1130116E+00
         25   -1    0    0    0    0  0.00000000000E+00  0.00000000000E+00  0.99999998245E-14  0.12500000000E+03  0.12500000000E+03 0.  0.
        -11    1    3    3    0    0 -0.37492058623E+02 -0.41374884179E+02 -0.16361176710E+02  0.58182674434E+02  0.51100000000E-03 0. -1.
         23    2    1    0    0    0 -0.50001611991E+01 -0.23157856271E+02 -0.17652197940E+02  0.95455321779E+02  0.90768003419E+02 0.  0.
         11    1    3    3    0    0  0.32491897424E+02  0.18217027908E+02 -0.12910212296E+01  0.37272647345E+02  0.51100000000E-03 0.  1.
         22    1    1    0    0    0  0.50001611991E+01  0.23157856271E+02  0.17652197940E+02  0.29544678221E+02  0.00000000000E+00 0. -1.
</event>
<event>
 5    1  0.8907853E-005  0.9118800E+02  0.7818608E-02  0.1130116E+00
         25   -1    0    0    0    0  0.00000000000E+00  0.00000000000E+00  0.99999998245E-14  0.12500000000E+03  0.12500000000E+03 0.  0.
        -11    1    3    3    0    0  0.22068059462E+02  0.20415839188E+02 -0.43475880331E+02  0.52857902995E+02  0.51100000000E-03 0.  1.
         23    2    1    0    0    0 -0.11184197943E+02 -0.35566217481E+00 -0.27710235879E+02  0.95115724006E+02  0.90299119605E+02 0.  0.
         11    1    3    3    0    0 -0.33252257405E+02 -0.20771501363E+02  0.15765644452E+02  0.42257821011E+02  0.51100000000E-03 0. -1.
         22    1    1    0    0    0  0.11184197943E+02  0.35566217481E+00  0.27710235879E+02  0.29884275994E+02  0.00000000000E+00 0.  1.
</event>
<event>
 5    1  0.8907853E-005  0.9118800E+02  0.7818608E-02  0.1130116E+00
         25   -1    0    0    0    0  0.00000000000E+00  0.00000000000E+00  0.99999998245E-14  0.12500000000E+03  0.12500000000E+03 0.  0.
        -11    1    3    3    0    0 -0.25470299077E+02  0.25199791407E+02 -0.10807421267E+02  0.37424136286E+02  0.51100000000E-03 0.  1.
         23    2    1    0    0    0 -0.64523316152E+01 -0.23344183252E+02 -0.23681782527E+02  0.91126554669E+02  0.84596918780E+02 0.  0.
         11    1    3    3    0    0  0.19017967462E+02 -0.48543974659E+02 -0.12874361260E+02  0.53702418383E+02  0.51100000000E-03 0. -1.
         22    1    1    0    0    0  0.64523316152E+01  0.23344183252E+02  0.23681782527E+02  0.33873445331E+02  0.00000000000E+00 0. -1.
</event>
<event>
 5    1  0.8907853E-005  0.9118800E+02  0.7818608E-02  0.1130116E+00
         25   -1    0    0    0    0  0.00000000000E+00  0.00000000000E+00  0.99999998245E-14  0.12500000000E+03  0.12500000000E+03 0.  0.
        -11    1    3    3    0    0 -0.59225182489E+02 -0.15550525922E+02 -0.65139102770E+01  0.61578178965E+02  0.51100000000E-03 0. -1.
         23    2    1    0    0    0 -0.31158478958E+02 -0.35931557354E+01  0.28895433391E+01  0.93502205794E+02  0.88037216270E+02 0.  0.
         11    1    3    3    0    0  0.28066703530E+02  0.11957370186E+02  0.94034536161E+01  0.31924026829E+02  0.51100000000E-03 0.  1.
         22    1    1    0    0    0  0.31158478958E+02  0.35931557354E+01 -0.28895433391E+01  0.31497794206E+02  0.00000000000E+00 0. -1.
</event>
<event>
 5    1  0.8907853E-005  0.9118800E+02  0.7818608E-02  0.1130116E+00
         25   -1    0    0    0    0  0.00000000000E+00  0.00000000000E+00  0.99999998245E-14  0.12500000000E+03  0.12500000000E+03 0.  0.
        -11    1    3    3    0    0  0.35224893669E+02  0.16006659331E+02  0.32684961895E+02  0.50648919152E+02  0.51100000000E-03 0.  1.
         23    2    1    0    0    0  0.26252837630E+02 -0.12753546533E+02 -0.94239114248E+00  0.95798073114E+02  0.91238798098E+02 0.  0.
         11    1    3    3    0    0 -0.89720560389E+01 -0.28760205864E+02 -0.33627353037E+02  0.45149153962E+02  0.51100000000E-03 0. -1.
         22    1    1    0    0    0 -0.26252837630E+02  0.12753546533E+02  0.94239114248E+00  0.29201926886E+02  0.00000000000E+00 0. -1.
</event>
<event>
 5    1  0.8907853E-005  0.9118800E+02  0.7818608E-02  0.1130116E+00
         25   -1    0    0    0    0  0.00000000000E+00  0.00000000000E+00  0.99999998245E-14  0.12500000000E+03  0.12500000000E+03 0.  0.
        -11    1    3    3    0    0 -0.18348049269E+02 -0.53592216745E+02  0.10714561533E+02  0.57650485139E+02  0.51100000000E-03 0. -1.
         23    2    1    0    0    0 -0.23969168521E+02 -0.16795844010E+02  0.48362219564E+01  0.95335029776E+02  0.90602193373E+02 0.  0.
         11    1    3    3    0    0 -0.56211192517E+01  0.36796372735E+02 -0.58783395762E+01  0.37684544637E+02  0.51100000000E-03 0.  1.
         22    1    1    0    0    0  0.23969168521E+02  0.16795844010E+02 -0.48362219564E+01  0.29664970224E+02  0.00000000000E+00 0. -1.
</event>
<event>
 5    1  0.8907853E-005  0.9118800E+02  0.7818608E-02  0.1130116E+00
         25   -1    0    0    0    0  0.00000000000E+00  0.00000000000E+00  0.99999998245E-14  0.12500000000E+03  0.12500000000E+03 0.  0.
        -11    1    3    3    0    0 -0.36791765667E+02  0.13484698015E+02 -0.84563394425E+00  0.39194211288E+02  0.51100000000E-03 0.  1.
         23    2    1    0    0    0  0.16634664217E+01 -0.22809335199E+02 -0.19171335642E+02  0.95157530212E+02  0.90356972908E+02 0.  0.
         11    1    3    3    0    0  0.38455232089E+02 -0.36294033214E+02 -0.18325701697E+02  0.55963318924E+02  0.51100000000E-03 0. -1.
         22    1    1    0    0    0 -0.16634664217E+01  0.22809335199E+02  0.19171335642E+02  0.29842469788E+02  0.00000000000E+00 0. -1.
</event>
<event>
 5    1  0.8907853E-005  0.9118800E+02  0.7818608E-02  0.1130116E+00
         25   -1    0    0    0    0  0.00000000000E+00  0.00000000000E+00  0.99999998245E-14  0.12500000000E+03  0.12500000000E+03 0.  0.
        -11    1    3    3    0    0  0.32336258775E+02  0.32299381072E+02 -0.18102778458E+02  0.49158867332E+02  0.51100000000E-03 0.  1.
         23    2    1    0    0    0 -0.14789999040E+02  0.18836531344E+02 -0.11364838628E+01  0.10102395820E+03  0.98137605181E+02 0.  0.
         11    1    3    3    0    0 -0.47126257816E+02 -0.13462849727E+02  0.16966294595E+02  0.51865090871E+02  0.51100000000E-03 0. -1.
         22    1    1    0    0    0  0.14789999040E+02 -0.18836531344E+02  0.11364838628E+01  0.23976041797E+02  0.00000000000E+00 0. -1.
</event>
<event>
 5    1  0.8907853E-005  0.9118800E+02  0.7818608E-02  0.1130116E+00
         25   -1    0    0    0    0  0.00000000000E+00  0.00000000000E+00  0.99999998245E-14  0.12500000000E+03  0.12500000000E+03 0.  0.
        -11    1    3    3    0    0 -0.37417448404E+02 -0.98062450720E+01  0.16361339419E+02  0.41999063267E+02  0.51100000000E-03 0.  1.
         23    2    1    0    0    0 -0.97980780175E+01  0.20673089471E+02 -0.18233734227E+02  0.95745119638E+02  0.91166221319E+02 0.  0.
         11    1    3    3    0    0  0.27619370386E+02  0.30479334543E+02 -0.34595073646E+02  0.53746056372E+02  0.51100000000E-03 0. -1.
         22    1    1    0    0    0  0.97980780175E+01 -0.20673089471E+02  0.18233734227E+02  0.29254880362E+02  0.00000000000E+00 0.  1.
</event>
<event>
 5    1  0.8907853E-005  0.9118800E+02  0.7818608E-02  0.1130116E+00
         25   -1    0    0    0    0  0.00000000000E+00  0.00000000000E+00  0.99999998245E-14  0.12500000000E+03  0.12500000000E+03 0.  0.
        -11    1    3    3    0    0  0.37432396398E+02  0.33885726499E+02 -0.28482799923E+02  0.57971515869E+02  0.51100000000E-03 0. -1.
         23    2    1    0    0    0  0.65712655389E+01  0.11850508363E+02 -0.25641465020E+02  0.95998261990E+02  0.91512652117E+02 0.  0.
         11    1    3    3    0    0 -0.30861130859E+02 -0.22035218136E+02  0.28413349028E+01  0.38026746121E+02  0.51100000000E-03 0.  1.
         22    1    1    0    0    0 -0.65712655389E+01 -0.11850508363E+02  0.25641465020E+02  0.29001738010E+02  0.00000000000E+00 0.  1.
</event>
<event>
 5    1  0.8907853E-005  0.9118800E+02  0.7818608E-02  0.1130116E+00
         25   -1    0    0    0    0  0.00000000000E+00  0.00000000000E+00  0.99999998245E-14  0.12500000000E+03  0.12500000000E+03 0.  0.
        -11    1    3    3    0    0  0.93725789248E+01  0.20721151437E+02 -0.31999993926E+02  0.39258259820E+02  0.51100000000E-03 0. -1.
         23    2    1    0    0    0 -0.10755886225E+02  0.11889819501E+02  0.22125151353E+02  0.97676398139E+02  0.93776860338E+02 0.  0.
         11    1    3    3    0    0 -0.20128465149E+02 -0.88313319352E+01  0.54125145279E+02  0.58418138320E+02  0.51100000000E-03 0.  1.
         22    1    1    0    0    0  0.10755886225E+02 -0.11889819501E+02 -0.22125151353E+02  0.27323601861E+02  0.00000000000E+00 0.  1.
</event>
<event>
 4    1  0.8907853E-005  0.9118800E+02  0.7818608E-02  0.1130116E+00
         25   -1    0    0    0    0  0.00000000000E+00  0.00000000000E+00  0.99999998245E-14  0.12500000000E+03  0.12500000000E+03 0.  0.
        -11    1    1    0    0    0  0.17973931468E+02  0.83239848403E+01 -0.32829345475E+02  0.38342102976E+02  0.51100000000E-03 0. -1.
         11    1    1    0    0    0 -0.53148625130E+01 -0.29561336492E+02 -0.14430083143E+02  0.33321879876E+02  0.51100000000E-03 0.  1.
         22    1    1    0    0    0 -0.12659068955E+02  0.21237351652E+02  0.47259428617E+02  0.53336017148E+02  0.00000000000E+00 0. -1.
</event>
<event>
 5    1  0.8907853E-005  0.9118800E+02  0.7818608E-02  0.1130116E+00
         25   -1    0    0    0    0  0.00000000000E+00  0.00000000000E+00  0.99999998245E-14  0.12500000000E+03  0.12500000000E+03 0.  0.
        -11    1    3    3    0    0 -0.82651091959E+00  0.29167452579E+01 -0.47417108470E+02  0.47513921109E+02  0.51100000000E-03 0. -1.
         23    2    1    0    0    0 -0.97407859513E+01 -0.25822874122E+02 -0.97385693070E+01  0.95733236069E+02  0.91149926040E+02 0.  0.
         11    1    3    3    0    0 -0.89142750318E+01 -0.28739619380E+02  0.37678539163E+02  0.48219314960E+02  0.51100000000E-03 0.  1.
         22    1    1    0    0    0  0.97407859513E+01  0.25822874122E+02  0.97385693070E+01  0.29266763931E+02  0.00000000000E+00 0.  1.
</event>
<event>
 5    1  0.8907853E-005  0.9118800E+02  0.7818608E-02  0.1130116E+00
         25   -1    0    0    0    0  0.00000000000E+00  0.00000000000E+00  0.99999998245E-14  0.12500000000E+03  0.12500000000E+03 0.  0.
        -11    1    3    3    0    0  0.49043941572E+02  0.43126959358E+00  0.16093926327E+02  0.51618878942E+02  0.51100000000E-03 0. -1.
         23    2    1    0    0    0  0.78060084589E+01  0.15960494930E+02  0.22697112703E+02  0.96175876570E+02  0.91754940698E+02 0.  0.
         11    1    3    3    0    0 -0.41237933113E+02  0.15529225336E+02  0.66031863759E+01  0.44556997627E+02  0.51100000000E-03 0.  1.
         22    1    1    0    0    0 -0.78060084589E+01 -0.15960494930E+02 -0.22697112703E+02  0.28824123430E+02  0.00000000000E+00 0. -1.
</event>
<event>
 5    1  0.8907853E-005  0.9118800E+02  0.7818608E-02  0.1130116E+00
         25   -1    0    0    0    0  0.00000000000E+00  0.00000000000E+00  0.99999998245E-14  0.12500000000E+03  0.12500000000E+03 0.  0.
        -11    1    3    3    0    0 -0.25483247547E+02  0.19549539501E+02  0.11302532957E+02  0.34048900889E+02  0.51100000000E-03 0.  1.
         23    2    1    0    0    0  0.16175847049E+02 -0.24650031794E+02  0.26970899912E+01  0.95393304987E+02  0.90682557566E+02 0.  0.
         11    1    3    3    0    0  0.41659094596E+02 -0.44199571295E+02 -0.86054429653E+01  0.61344404098E+02  0.51100000000E-03 0. -1.
         22    1    1    0    0    0 -0.16175847049E+02  0.24650031794E+02 -0.26970899912E+01  0.29606695013E+02  0.00000000000E+00 0. -1.
</event>
<event>
 5    1  0.8907853E-005  0.9118800E+02  0.7818608E-02  0.1130116E+00
         25   -1    0    0    0    0  0.00000000000E+00  0.00000000000E+00  0.99999998245E-14  0.12500000000E+03  0.12500000000E+03 0.  0.
        -11    1    3    3    0    0  0.53811452438E+01 -0.35146144357E+02 -0.38646191668E+02  0.52514153501E+02  0.51100000000E-03 0.  1.
         23    2    1    0    0    0  0.22955975500E+02 -0.17176179779E+02 -0.29415159140E+01  0.96178992404E+02  0.91759185377E+02 0.  0.
         11    1    3    3    0    0  0.17574830256E+02  0.17969964578E+02  0.35704675754E+02  0.43664838903E+02  0.51100000000E-03 0. -1.
         22    1    1    0    0    0 -0.22955975500E+02  0.17176179779E+02  0.29415159140E+01  0.28821007596E+02  0.00000000000E+00 0.  1.
</event>
<event>
 5    1  0.8907853E-005  0.9118800E+02  0.7818608E-02  0.1130116E+00
         25   -1    0    0    0    0  0.00000000000E+00  0.00000000000E+00  0.99999998245E-14  0.12500000000E+03  0.12500000000E+03 0.  0.
        -11    1    3    3    0    0 -0.16919789910E+02 -0.20616707288E+02 -0.26007009385E+02  0.37251744220E+02  0.51100000000E-03 0.  1.
         23    2    1    0    0    0  0.75970838581E+01 -0.10578148350E+01  0.25949639808E+02  0.97940464499E+02  0.94128189851E+02 0.  0.
         11    1    3    3    0    0  0.24516873768E+02  0.19558892453E+02  0.51956649193E+02  0.60688720279E+02  0.51100000000E-03 0. -1.
         22    1    1    0    0    0 -0.75970838581E+01  0.10578148350E+01 -0.25949639808E+02  0.27059535501E+02  0.00000000000E+00 0. -1.
</event>
<event>
 5    1  0.8907853E-005  0.9118800E+02  0.7818608E-02  0.1130116E+00
         25   -1    0    0    0    0  0.00000000000E+00  0.00000000000E+00  0.99999998245E-14  0.12500000000E+03  0.12500000000E+03 0.  0.
        -11    1    3    3    0    0 -0.25841931592E+02  0.35558223242E+02 -0.36820315321E+02  0.57340459443E+02  0.51100000000E-03 0.  1.
         23    2    1    0    0    0 -0.17387942028E+01  0.96513910874E+01 -0.30079563847E+02  0.93362160054E+02  0.87838146688E+02 0.  0.
         11    1    3    3    0    0  0.24103137389E+02 -0.25906832154E+02  0.67407514739E+01  0.36021700612E+02  0.51100000000E-03 0. -1.
         22    1    1    0    0    0  0.17387942028E+01 -0.96513910874E+01  0.30079563847E+02  0.31637839946E+02  0.00000000000E+00 0.  1.
</event>
<event>
 5    1  0.8907853E-005  0.9118800E+02  0.7818608E-02  0.1130116E+00
         25   -1    0    0    0    0  0.00000000000E+00  0.00000000000E+00  0.99999998245E-14  0.12500000000E+03  0.12500000000E+03 0.  0.
        -11    1    3    3    0    0  0.43147617777E+01  0.40896134142E+02  0.37904748181E+02  0.55927460982E+02  0.51100000000E-03 0.  1.
         23    2    1    0    0    0 -0.31562914683E-01  0.31315516478E+02  0.16905005119E+01  0.93638871824E+02  0.88231048707E+02 0.  0.
         11    1    3    3    0    0 -0.43463246924E+01 -0.95806176639E+01 -0.36214247669E+02  0.37711410842E+02  0.51100000000E-03 0. -1.
         22    1    1    0    0    0  0.31562914683E-01 -0.31315516478E+02 -0.16905005119E+01  0.31361128176E+02  0.00000000000E+00 0.  1.
</event>
<event>
 5    1  0.8907853E-005  0.9118800E+02  0.7818608E-02  0.1130116E+00
         25   -1    0    0    0    0  0.00000000000E+00  0.00000000000E+00  0.99999998245E-14  0.12500000000E+03  0.12500000000E+03 0.  0.
        -11    1    3    3    0    0  0.81275470705E+01  0.54756010335E+01  0.54798701908E+02  0.55668096421E+02  0.51100000000E-03 0.  1.
         23    2    1    0    0    0 -0.12995355653E+02  0.14528569152E+02  0.25184638562E+02  0.93153106750E+02  0.87540143292E+02 0.  0.
         11    1    3    3    0    0 -0.21122902724E+02  0.90529681183E+01 -0.29614063346E+02  0.37485010329E+02  0.51100000000E-03 0. -1.
         22    1    1    0    0    0  0.12995355653E+02 -0.14528569152E+02 -0.25184638562E+02  0.31846893250E+02  0.00000000000E+00 0.  1.
</event>
<event>
 5    1  0.8907853E-005  0.9118800E+02  0.7818608E-02  0.1130116E+00
         25   -1    0    0    0    0  0.00000000000E+00  0.00000000000E+00  0.99999998245E-14  0.12500000000E+03  0.12500000000E+03 0.  0.
        -11    1    3    3    0    0 -0.21983649657E+02 -0.41861630809E+02  0.21290605542E+02  0.51855249212E+02  0.51100000000E-03 0.  1.
         23    2    1    0    0    0  0.59750849749E+00 -0.25616766921E+02 -0.13208521259E+02  0.96172221769E+02  0.91749961538E+02 0.  0.
         11    1    3    3    0    0  0.22581158155E+02  0.16244863888E+02 -0.34499126801E+02  0.44316972557E+02  0.51100000000E-03 0. -1.
         22    1    1    0    0    0 -0.59750849749E+00  0.25616766921E+02  0.13208521259E+02  0.28827778231E+02  0.00000000000E+00 0.  1.
</event>
<event>
 5    1  0.8907853E-005  0.9118800E+02  0.7818608E-02  0.1130116E+00
         25   -1    0    0    0    0  0.00000000000E+00  0.00000000000E+00  0.99999998245E-14  0.12500000000E+03  0.12500000000E+03 0.  0.
        -11    1    3    3    0    0  0.22768444415E+02  0.17649599883E+02 -0.16300171659E+02  0.33099940083E+02  0.51100000000E-03 0.  1.
         23    2    1    0    0    0 -0.24677138333E+02 -0.16391366280E+02  0.43907903226E+01  0.95051426002E+02  0.90210068732E+02 0.  0.
         11    1    3    3    0    0 -0.47445582748E+02 -0.34040966163E+02  0.20690961981E+02  0.61951485919E+02  0.51100000000E-03 0. -1.
         22    1    1    0    0    0  0.24677138333E+02  0.16391366280E+02 -0.43907903226E+01  0.29948573998E+02  0.00000000000E+00 0. -1.
</event>
<event>
 5    1  0.8907853E-005  0.9118800E+02  0.7818608E-02  0.1130116E+00
         25   -1    0    0    0    0  0.00000000000E+00  0.00000000000E+00  0.99999998245E-14  0.12500000000E+03  0.12500000000E+03 0.  0.
        -11    1    3    3    0    0 -0.45277181408E+02  0.27563391270E+02 -0.18053879228E+02  0.55997377170E+02  0.51100000000E-03 0.  1.
         23    2    1    0    0    0 -0.15536647332E+02  0.27257174343E+02  0.44742481363E+01  0.93308362935E+02  0.87761556126E+02 0.  0.
         11    1    3    3    0    0  0.29740534075E+02 -0.30621692686E+00  0.22528127365E+02  0.37310985764E+02  0.51100000000E-03 0. -1.
         22    1    1    0    0    0  0.15536647332E+02 -0.27257174343E+02 -0.44742481363E+01  0.31691637065E+02  0.00000000000E+00 0.  1.
</event>
<event>
 5    1  0.8907853E-005  0.9118800E+02  0.7818608E-02  0.1130116E+00
         25   -1    0    0    0    0  0.00000000000E+00  0.00000000000E+00  0.99999998245E-14  0.12500000000E+03  0.12500000000E+03 0.  0.
        -11    1    3    3    0    0 -0.36559507612E+01  0.31600503265E+02  0.40160379221E+02  0.51232937081E+02  0.51100000000E-03 0.  1.
         23    2    1    0    0    0 -0.99659146829E+01 -0.41136945657E+01  0.35620818336E+02  0.87783274763E+02  0.79503576591E+02 0.  0.
         11    1    3    3    0    0 -0.63099639217E+01 -0.35714197831E+02 -0.45395608848E+01  0.36550337682E+02  0.51100000000E-03 0. -1.
         22    1    1    0    0    0  0.99659146829E+01  0.41136945657E+01 -0.35620818336E+02  0.37216725237E+02  0.00000000000E+00 0.  1.
</event>
<event>
 5    1  0.8907853E-005  0.9118800E+02  0.7818608E-02  0.1130116E+00
         25   -1    0    0    0    0  0.00000000000E+00  0.00000000000E+00  0.99999998245E-14  0.12500000000E+03  0.12500000000E+03 0.  0.
        -11    1    3    3    0    0 -0.78303725579E+01  0.34460982798E+02 -0.49257087946E+02  0.60622889926E+02  0.51100000000E-03 0. -1.
         23    2    1    0    0    0  0.11798512484E+01  0.85903783525E+01 -0.29103380300E+02  0.94632362718E+02  0.89627510729E+02 0.  0.
         11    1    3    3    0    0  0.90102238063E+01 -0.25870604446E+02  0.20153707646E+02  0.34009472792E+02  0.51100000000E-03 0.  1.
         22    1    1    0    0    0 -0.11798512484E+01 -0.85903783525E+01  0.29103380300E+02  0.30367637282E+02  0.00000000000E+00 0. -1.
</event>
<event>
 5    1  0.8907853E-005  0.9118800E+02  0.7818608E-02  0.1130116E+00
         25   -1    0    0    0    0  0.00000000000E+00  0.00000000000E+00  0.99999998245E-14  0.12500000000E+03  0.12500000000E+03 0.  0.
        -11    1    3    3    0    0  0.26960142524E+02 -0.48049474436E+02  0.29444515364E+01  0.55174913445E+02  0.51100000000E-03 0. -1.
         23    2    1    0    0    0 -0.84527912512E+01 -0.24383493913E+02  0.77907295626E+01  0.98042627679E+02  0.94263762495E+02 0.  0.
         11    1    3    3    0    0 -0.35412933775E+02  0.23665980523E+02  0.48462780262E+01  0.42867714234E+02  0.51100000000E-03 0.  1.
         22    1    1    0    0    0  0.84527912512E+01  0.24383493913E+02 -0.77907295626E+01  0.26957372321E+02  0.00000000000E+00 0. -1.
</event>
<event>
 5    1  0.8907853E-005  0.9118800E+02  0.7818608E-02  0.1130116E+00
         25   -1    0    0    0    0  0.00000000000E+00  0.00000000000E+00  0.99999998245E-14  0.12500000000E+03  0.12500000000E+03 0.  0.
        -11    1    3    3    0    0 -0.21516092698E+02  0.25944612875E+02  0.74078993939E+01  0.34510029787E+02  0.51100000000E-03 0. -1.
         23    2    1    0    0    0  0.28487557146E+00 -0.26701273276E+02 -0.13339116873E+02  0.95150859517E+02  0.90347744184E+02 0.  0.
         11    1    3    3    0    0  0.21800968269E+02 -0.52645886151E+02 -0.20747016267E+02  0.60640829730E+02  0.51100000000E-03 0.  1.
         22    1    1    0    0    0 -0.28487557146E+00  0.26701273276E+02  0.13339116873E+02  0.29849140483E+02  0.00000000000E+00 0.  1.
</event>
<event>
 5    1  0.8907853E-005  0.9118800E+02  0.7818608E-02  0.1130116E+00
         25   -1    0    0    0    0  0.00000000000E+00  0.00000000000E+00  0.99999998245E-14  0.12500000000E+03  0.12500000000E+03 0.  0.
        -11    1    3    3    0    0 -0.16426503828E+01 -0.34632796390E+02 -0.88074044787E+01  0.35772884424E+02  0.51100000000E-03 0.  1.
         23    2    1    0    0    0 -0.21101885688E+02  0.21050097365E+02 -0.30582563612E+01  0.95037538308E+02  0.90190823130E+02 0.  0.
         11    1    3    3    0    0 -0.19459235306E+02  0.55682893755E+02  0.57491481174E+01  0.59264653884E+02  0.51100000000E-03 0. -1.
         22    1    1    0    0    0  0.21101885688E+02 -0.21050097365E+02  0.30582563612E+01  0.29962461692E+02  0.00000000000E+00 0. -1.
</event>
<event>
 5    1  0.8907853E-005  0.9118800E+02  0.7818608E-02  0.1130116E+00
         25   -1    0    0    0    0  0.00000000000E+00  0.00000000000E+00  0.99999998245E-14  0.12500000000E+03  0.12500000000E+03 0.  0.
        -11    1    3    3    0    0 -0.41457278673E+01 -0.33319238391E+02 -0.43850551265E+02  0.55228883322E+02  0.51100000000E-03 0.  1.
         23    2    1    0    0    0 -0.18977136732E+02 -0.26590780203E+01 -0.22582507305E+02  0.95382909484E+02  0.90668226910E+02 0.  0.
         11    1    3    3    0    0 -0.14831408865E+02  0.30660160371E+02  0.21268043960E+02  0.40154026162E+02  0.51100000000E-03 0. -1.
         22    1    1    0    0    0  0.18977136732E+02  0.26590780203E+01  0.22582507305E+02  0.29617090516E+02  0.00000000000E+00 0.  1.
</event>
<event>
 5    1  0.8907853E-005  0.9118800E+02  0.7818608E-02  0.1130116E+00
         25   -1    0    0    0    0  0.00000000000E+00  0.00000000000E+00  0.99999998245E-14  0.12500000000E+03  0.12500000000E+03 0.  0.
        -11    1    3    3    0    0 -0.22900336044E+02  0.55845489026E+02 -0.28246507305E+01  0.60424520582E+02  0.51100000000E-03 0. -1.
         23    2    1    0    0    0 -0.18362058437E+02  0.20578663256E+02  0.53411776517E+01  0.96907745727E+02  0.92746624907E+02 0.  0.
         11    1    3    3    0    0  0.45382776072E+01 -0.35266825770E+02  0.81658283822E+01  0.36483225145E+02  0.51100000000E-03 0.  1.
         22    1    1    0    0    0  0.18362058437E+02 -0.20578663256E+02 -0.53411776517E+01  0.28092254273E+02  0.00000000000E+00 0. -1.
</event>
<event>
 5    1  0.8907853E-005  0.9118800E+02  0.7818608E-02  0.1130116E+00
         25   -1    0    0    0    0  0.00000000000E+00  0.00000000000E+00  0.99999998245E-14  0.12500000000E+03  0.12500000000E+03 0.  0.
        -11    1    3    3    0    0 -0.49633913121E+02 -0.20080427066E+02 -0.63512666525E+01  0.53917413433E+02  0.51100000000E-03 0.  1.
         23    2    1    0    0    0 -0.23849578640E+02  0.45182688735E+01  0.15948605262E+02  0.95955634544E+02  0.91454407418E+02 0.  0.
         11    1    3    3    0    0  0.25784334482E+02  0.24598695940E+02  0.22299871914E+02  0.42038221112E+02  0.51100000000E-03 0. -1.
         22    1    1    0    0    0  0.23849578640E+02 -0.45182688735E+01 -0.15948605262E+02  0.29044365456E+02  0.00000000000E+00 0.  1.
</event>
<event>
 5    1  0.8907853E-005  0.9118800E+02  0.7818608E-02  0.1130116E+00
         25   -1    0    0    0    0  0.00000000000E+00  0.00000000000E+00  0.99999998245E-14  0.12500000000E+03  0.12500000000E+03 0.  0.
        -11    1    3    3    0    0 -0.46376442659E+02 -0.53415510177E+01 -0.30399668036E+02  0.55708584778E+02  0.51100000000E-03 0.  1.
         23    2    1    0    0    0 -0.25355912159E+02 -0.15024020795E+02  0.19254468195E+01  0.95464414214E+02  0.90780524087E+02 0.  0.
         11    1    3    3    0    0  0.21020530500E+02 -0.96824697774E+01  0.32325114855E+02  0.39755829436E+02  0.51100000000E-03 0. -1.
         22    1    1    0    0    0  0.25355912159E+02  0.15024020795E+02 -0.19254468195E+01  0.29535585786E+02  0.00000000000E+00 0.  1.
</event>
<event>
 5    1  0.8907853E-005  0.9118800E+02  0.7818608E-02  0.1130116E+00
         25   -1    0    0    0    0  0.00000000000E+00  0.00000000000E+00  0.99999998245E-14  0.12500000000E+03  0.12500000000E+03 0.  0.
        -11    1    3    3    0    0  0.19003571209E+02 -0.45340907696E+02  0.28769502426E+02  0.56961547551E+02  0.51100000000E-03 0.  1.
         23    2    1    0    0    0  0.25281151518E+02 -0.13990051333E+02  0.82553653238E+01  0.94949888269E+02  0.90069262611E+02 0.  0.
         11    1    3    3    0    0  0.62775803099E+01  0.31350856363E+02 -0.20514137102E+02  0.37988340718E+02  0.51100000000E-03 0. -1.
         22    1    1    0    0    0 -0.25281151518E+02  0.13990051333E+02 -0.82553653238E+01  0.30050111731E+02  0.00000000000E+00 0.  1.
</event>
<event>
 5    1  0.8907853E-005  0.9118800E+02  0.7818608E-02  0.1130116E+00
         25   -1    0    0    0    0  0.00000000000E+00  0.00000000000E+00  0.99999998245E-14  0.12500000000E+03  0.12500000000E+03 0.  0.
        -11    1    3    3    0    0 -0.32021789380E+02 -0.26266353348E+02  0.99818786997E+01  0.42602279469E+02  0.51100000000E-03 0.  1.
         23    2    1    0    0    0 -0.11084334791E+01  0.12241926161E+02  0.27402856861E+02  0.94966519598E+02  0.90092340959E+02 0.  0.
         11    1    3    3    0    0  0.30913355901E+02  0.38508279509E+02  0.17420978162E+02  0.52364240128E+02  0.51100000000E-03 0. -1.
         22    1    1    0    0    0  0.11084334791E+01 -0.12241926161E+02 -0.27402856861E+02  0.30033480402E+02  0.00000000000E+00 0. -1.
</event>
<event>
 5    1  0.8907853E-005  0.9118800E+02  0.7818608E-02  0.1130116E+00
         25   -1    0    0    0    0  0.00000000000E+00  0.00000000000E+00  0.99999998245E-14  0.12500000000E+03  0.12500000000E+03 0.  0.
        -11    1    3    3    0    0  0.14849209097E+01 -0.90091814532E+01  0.47994616641E+02  0.48855435392E+02  0.51100000000E-03 0. -1.
         23    2    1    0    0    0 -0.14559783256E+02 -0.23353203236E+02  0.48697459548E+01  0.97052302144E+02  0.92941247764E+02 0.  0.
         11    1    3    3    0    0 -0.16044704165E+02 -0.14344021782E+02 -0.43124870686E+02  0.48196866751E+02  0.51100000000E-03 0.  1.
         22    1    1    0    0    0  0.14559783256E+02  0.23353203236E+02 -0.48697459548E+01  0.27947697856E+02  0.00000000000E+00 0.  1.
</event>
<event>
 5    1  0.8907853E-005  0.9118800E+02  0.7818608E-02  0.1130116E+00
         25   -1    0    0    0    0  0.00000000000E+00  0.00000000000E+00  0.99999998245E-14  0.12500000000E+03  0.12500000000E+03 0.  0.
        -11    1    3    3    0    0  0.14782011725E+01  0.33428629853E+02 -0.76048325595E+01  0.34314601136E+02  0.51100000000E-03 0.  1.
         23    2    1    0    0    0 -0.22467954933E+02 -0.19771652867E+02  0.65824468383E+01  0.94355981622E+02  0.89241220327E+02 0.  0.
         11    1    3    3    0    0 -0.23946156106E+02 -0.53200282720E+02  0.14187279398E+02  0.60041380486E+02  0.51100000000E-03 0. -1.
         22    1    1    0    0    0  0.22467954933E+02  0.19771652867E+02 -0.65824468383E+01  0.30644018378E+02  0.00000000000E+00 0. -1.
</event>
<event>
 5    1  0.8907853E-005  0.9118800E+02  0.7818608E-02  0.1130116E+00
         25   -1    0    0    0    0  0.00000000000E+00  0.00000000000E+00  0.99999998245E-14  0.12500000000E+03  0.12500000000E+03 0.  0.
        -11    1    3    3    0    0  0.30229301472E+02  0.39972769162E+02  0.16968587303E+02  0.52910924177E+02  0.51100000000E-03 0. -1.
         23    2    1    0    0    0  0.17018863070E+02  0.16361540125E+02 -0.16684558129E+02  0.96091243966E+02  0.91639571101E+02 0.  0.
         11    1    3    3    0    0 -0.13210438401E+02 -0.23611229037E+02 -0.33653145431E+02  0.43180319789E+02  0.51100000000E-03 0.  1.
         22    1    1    0    0    0 -0.17018863070E+02 -0.16361540125E+02  0.16684558129E+02  0.28908756034E+02  0.00000000000E+00 0. -1.
</event>
<event>
 5    1  0.8907853E-005  0.9118800E+02  0.7818608E-02  0.1130116E+00
         25   -1    0    0    0    0  0.00000000000E+00  0.00000000000E+00  0.99999998245E-14  0.12500000000E+03  0.12500000000E+03 0.  0.
        -11    1    3    3    0    0 -0.26230432175E+00 -0.23463928826E+02 -0.46918545908E+02  0.52459267150E+02  0.51100000000E-03 0. -1.
         23    2    1    0    0    0  0.40131905428E+01 -0.29046219903E+02 -0.46466789043E+01  0.95311951667E+02  0.90570347889E+02 0.  0.
         11    1    3    3    0    0  0.42754948645E+01 -0.55822910770E+01  0.42271867004E+02  0.42852684517E+02  0.51100000000E-03 0.  1.
         22    1    1    0    0    0 -0.40131905428E+01  0.29046219903E+02  0.46466789043E+01  0.29688048333E+02  0.00000000000E+00 0.  1.
</event>
<event>
 5    1  0.8907853E-005  0.9118800E+02  0.7818608E-02  0.1130116E+00
         25   -1    0    0    0    0  0.00000000000E+00  0.00000000000E+00  0.99999998245E-14  0.12500000000E+03  0.12500000000E+03 0.  0.
        -11    1    3    3    0    0  0.31996820113E+02 -0.41825092451E+00 -0.91741271608E+01  0.33288677363E+02  0.51100000000E-03 0. -1.
         23    2    1    0    0    0 -0.26180047740E+02  0.12577330903E+02  0.71385718754E+01  0.95091082254E+02  0.90265001875E+02 0.  0.
         11    1    3    3    0    0 -0.58176867853E+02  0.12995581827E+02  0.16312699036E+02  0.61802404891E+02  0.51100000000E-03 0.  1.
         22    1    1    0    0    0  0.26180047740E+02 -0.12577330903E+02 -0.71385718754E+01  0.29908917746E+02  0.00000000000E+00 0.  1.
</event>
<event>
 5    1  0.8907853E-005  0.9118800E+02  0.7818608E-02  0.1130116E+00
         25   -1    0    0    0    0  0.00000000000E+00  0.00000000000E+00  0.99999998245E-14  0.12500000000E+03  0.12500000000E+03 0.  0.
        -11    1    3    3    0    0  0.14083267336E+02  0.41657870809E+02  0.72568019955E+01  0.44568798443E+02  0.51100000000E-03 0. -1.
         23    2    1    0    0    0 -0.24658404573E+02  0.10174607117E+02  0.13884279429E+02  0.94927874014E+02  0.90038705585E+02 0.  0.
         11    1    3    3    0    0 -0.38741671909E+02 -0.31483263692E+02  0.66274774334E+01  0.50359075571E+02  0.51100000000E-03 0.  1.
         22    1    1    0    0    0  0.24658404573E+02 -0.10174607117E+02 -0.13884279429E+02  0.30072125986E+02  0.00000000000E+00 0.  1.
</event>
<event>
 5    1  0.8907853E-005  0.9118800E+02  0.7818608E-02  0.1130116E+00
         25   -1    0    0    0    0  0.00000000000E+00  0.00000000000E+00  0.99999998245E-14  0.12500000000E+03  0.12500000000E+03 0.  0.
        -11    1    3    3    0    0  0.26801816801E+02 -0.11968105774E+02  0.14521646647E+02  0.32748300128E+02  0.51100000000E-03 0. -1.
         23    2    1    0    0    0 -0.33004449213E+01  0.16829497372E+02 -0.27929306029E+02  0.92225451129E+02  0.86205352398E+02 0.  0.
         11    1    3    3    0    0 -0.30102261723E+02  0.28797603146E+02 -0.42450952676E+02  0.59477151001E+02  0.51100000000E-03 0.  1.
         22    1    1    0    0    0  0.33004449213E+01 -0.16829497372E+02  0.27929306029E+02  0.32774548871E+02  0.00000000000E+00 0.  1.
</event>
<event>
 5    1  0.8907853E-005  0.9118800E+02  0.7818608E-02  0.1130116E+00
         25   -1    0    0    0    0  0.00000000000E+00  0.00000000000E+00  0.99999998245E-14  0.12500000000E+03  0.12500000000E+03 0.  0.
        -11    1    3    3    0    0 -0.30348980825E+02  0.48737223323E+02 -0.15055088388E+02  0.59355145193E+02  0.51100000000E-03 0. -1.
         23    2    1    0    0    0 -0.12254125655E+02  0.24741513460E+02  0.68602652291E+01  0.96550583084E+02  0.92264000406E+02 0.  0.
         11    1    3    3    0    0  0.18094855169E+02 -0.23995709863E+02  0.21915353618E+02  0.37195437891E+02  0.51100000000E-03 0.  1.
         22    1    1    0    0    0  0.12254125655E+02 -0.24741513460E+02 -0.68602652291E+01  0.28449416916E+02  0.00000000000E+00 0. -1.
</event>
<event>
 5    1  0.8907853E-005  0.9118800E+02  0.7818608E-02  0.1130116E+00
         25   -1    0    0    0    0  0.00000000000E+00  0.00000000000E+00  0.99999998245E-14  0.12500000000E+03  0.12500000000E+03 0.  0.
        -11    1    3    3    0    0 -0.60608412807E+01  0.61820525571E+02  0.48693648567E+01  0.62307478631E+02  0.51100000000E-03 0.  1.
         23    2    1    0    0    0 -0.11654049259E+01  0.31439092713E+02 -0.44428640184E+00  0.93536177764E+02  0.88085438303E+02 0.  0.
         11    1    3    3    0    0  0.48954363548E+01 -0.30381432858E+02 -0.53136512585E+01  0.31228699134E+02  0.51100000000E-03 0. -1.
         22    1    1    0    0    0  0.11654049259E+01 -0.31439092713E+02  0.44428640184E+00  0.31463822236E+02  0.00000000000E+00 0.  1.
</event>
<event>
 5    1  0.8907853E-005  0.9118800E+02  0.7818608E-02  0.1130116E+00
         25   -1    0    0    0    0  0.00000000000E+00  0.00000000000E+00  0.99999998245E-14  0.12500000000E+03  0.12500000000E+03 0.  0.
        -11    1    3    3    0    0  0.46911397607E+02  0.78302523863E+01 -0.23726776472E+02  0.53150277514E+02  0.51100000000E-03 0. -1.
         23    2    1    0    0    0  0.24038999882E+02  0.18811938000E+02  0.76787846293E+01  0.93524195641E+02  0.88068433109E+02 0.  0.
         11    1    3    3    0    0 -0.22872397724E+02  0.10981685613E+02  0.31405561101E+02  0.40373918127E+02  0.51100000000E-03 0.  1.
         22    1    1    0    0    0 -0.24038999882E+02 -0.18811938000E+02 -0.76787846293E+01  0.31475804359E+02  0.00000000000E+00 0.  1.
</event>
<event>
 5    1  0.8907853E-005  0.9118800E+02  0.7818608E-02  0.1130116E+00
         25   -1    0    0    0    0  0.00000000000E+00  0.00000000000E+00  0.99999998245E-14  0.12500000000E+03  0.12500000000E+03 0.  0.
        -11    1    3    3    0    0  0.17780662739E+02  0.15398246168E+02 -0.54651534975E+02  0.59498304412E+02  0.51100000000E-03 0. -1.
         23    2    1    0    0    0 -0.48455669477E+00  0.17292821466E+02 -0.21414272711E+02  0.97470969048E+02  0.93502632379E+02 0.  0.
         11    1    3    3    0    0 -0.18265219434E+02  0.18945752973E+01  0.33237262264E+02  0.37972664636E+02  0.51100000000E-03 0.  1.
         22    1    1    0    0    0  0.48455669477E+00 -0.17292821466E+02  0.21414272711E+02  0.27529030952E+02  0.00000000000E+00 0. -1.
</event>
<event>
 5    1  0.8907853E-005  0.9118800E+02  0.7818608E-02  0.1130116E+00
         25   -1    0    0    0    0  0.00000000000E+00  0.00000000000E+00  0.99999998245E-14  0.12500000000E+03  0.12500000000E+03 0.  0.
        -11    1    3    3    0    0  0.12466332244E+02 -0.62905615738E+01  0.51446001656E+02  0.53307332433E+02  0.51100000000E-03 0.  1.
         23    2    1    0    0    0  0.16302721467E+02  0.17401131871E+02  0.15392832397E+02  0.96618361449E+02  0.92355781423E+02 0.  0.
         11    1    3    3    0    0  0.38363892229E+01  0.23691693445E+02 -0.36053169259E+02  0.43311029016E+02  0.51100000000E-03 0. -1.
         22    1    1    0    0    0 -0.16302721467E+02 -0.17401131871E+02 -0.15392832397E+02  0.28381638551E+02  0.00000000000E+00 0.  1.
</event>
<event>
 5    1  0.8907853E-005  0.9118800E+02  0.7818608E-02  0.1130116E+00
         25   -1    0    0    0    0  0.00000000000E+00  0.00000000000E+00  0.99999998245E-14  0.12500000000E+03  0.12500000000E+03 0.  0.
        -11    1    3    3    0    0  0.16473553755E+02 -0.50512214507E+02 -0.27934044330E+02  0.60026432682E+02  0.51100000000E-03 0. -1.
         23    2    1    0    0    0 -0.38789432956E+01 -0.24100189543E+02 -0.17499928954E+02  0.94964806468E+02  0.90089964020E+02 0.  0.
         11    1    3    3    0    0 -0.20352497050E+02  0.26412024964E+02  0.10434115376E+02  0.34938373786E+02  0.51100000000E-03 0.  1.
         22    1    1    0    0    0  0.38789432956E+01  0.24100189543E+02  0.17499928954E+02  0.30035193532E+02  0.00000000000E+00 0. -1.
</event>
<event>
 5    1  0.8907853E-005  0.9118800E+02  0.7818608E-02  0.1130116E+00
         25   -1    0    0    0    0  0.00000000000E+00  0.00000000000E+00  0.99999998245E-14  0.12500000000E+03  0.12500000000E+03 0.  0.
        -11    1    3    3    0    0  0.56457874963E+02  0.11803713103E+02 -0.43649299250E+01  0.57843512184E+02  0.51100000000E-03 0.  1.
         23    2    1    0    0    0  0.38875234825E+02 -0.50590964323E+01  0.77292507932E+01  0.85042276626E+02  0.75070427976E+02 0.  0.
         11    1    3    3    0    0 -0.17582640138E+02 -0.16862809536E+02  0.12094180718E+02  0.27198764442E+02  0.51100000000E-03 0. -1.
         22    1    1    0    0    0 -0.38875234825E+02  0.50590964323E+01 -0.77292507932E+01  0.39957723374E+02  0.00000000000E+00 0.  1.
</event>
<event>
 5    1  0.8907853E-005  0.9118800E+02  0.7818608E-02  0.1130116E+00
         25   -1    0    0    0    0  0.00000000000E+00  0.00000000000E+00  0.99999998245E-14  0.12500000000E+03  0.12500000000E+03 0.  0.
        -11    1    3    3    0    0  0.39871935619E+02 -0.25857349558E+02 -0.11259726939E+02  0.48838051017E+02  0.51100000000E-03 0. -1.
         23    2    1    0    0    0 -0.93629009633E+01 -0.16525166032E+02 -0.17295729779E+02  0.99311728446E+02  0.95931913936E+02 0.  0.
         11    1    3    3    0    0 -0.49234836582E+02  0.93321835255E+01 -0.60360028409E+01  0.50473677429E+02  0.51100000000E-03 0.  1.
         22    1    1    0    0    0  0.93629009633E+01  0.16525166032E+02  0.17295729779E+02  0.25688271554E+02  0.00000000000E+00 0. -1.
</event>
<event>
 5    1  0.8907853E-005  0.9118800E+02  0.7818608E-02  0.1130116E+00
         25   -1    0    0    0    0  0.00000000000E+00  0.00000000000E+00  0.99999998245E-14  0.12500000000E+03  0.12500000000E+03 0.  0.
        -11    1    3    3    0    0 -0.42326018714E+02  0.32918920841E+02 -0.30965639314E+02  0.61919447897E+02  0.51100000000E-03 0.  1.
         23    2    1    0    0    0 -0.16244816985E+02  0.20218137660E+02 -0.13959018658E+02  0.95546284255E+02  0.90893184913E+02 0.  0.
         11    1    3    3    0    0  0.26081201728E+02 -0.12700783181E+02  0.17006620656E+02  0.33626836357E+02  0.51100000000E-03 0. -1.
         22    1    1    0    0    0  0.16244816985E+02 -0.20218137660E+02  0.13959018658E+02  0.29453715745E+02  0.00000000000E+00 0.  1.
</event>
<event>
 5    1  0.8907853E-005  0.9118800E+02  0.7818608E-02  0.1130116E+00
         25   -1    0    0    0    0  0.00000000000E+00  0.00000000000E+00  0.99999998245E-14  0.12500000000E+03  0.12500000000E+03 0.  0.
        -11    1    3    3    0    0 -0.19717885545E+02  0.66614879849E+01 -0.52461158839E+02  0.56438848496E+02  0.51100000000E-03 0. -1.
         23    2    1    0    0    0 -0.23232520703E+02  0.12385650702E+02 -0.14592577691E+02  0.94898543470E+02  0.89997977020E+02 0.  0.
         11    1    3    3    0    0 -0.35146351583E+01  0.57241627174E+01  0.37868581148E+02  0.38459694975E+02  0.51100000000E-03 0.  1.
         22    1    1    0    0    0  0.23232520703E+02 -0.12385650702E+02  0.14592577691E+02  0.30101456530E+02  0.00000000000E+00 0. -1.
</event>
<event>
 5    1  0.8907853E-005  0.9118800E+02  0.7818608E-02  0.1130116E+00
         25   -1    0    0    0    0  0.00000000000E+00  0.00000000000E+00  0.99999998245E-14  0.12500000000E+03  0.12500000000E+03 0.  0.
        -11    1    3    3    0    0 -0.14201448447E+02 -0.30162460347E+02  0.45577923562E+02  0.56469480860E+02  0.51100000000E-03 0.  1.
         23    2    1    0    0    0 -0.53585233729E+00  0.75345142433E+01  0.18941526067E+02  0.10460790711E+03  0.10260105642E+03 0.  0.
         11    1    3    3    0    0  0.13665596110E+02  0.37696974590E+02 -0.26636397495E+02  0.48138426252E+02  0.51100000000E-03 0. -1.
         22    1    1    0    0    0  0.53585233729E+00 -0.75345142433E+01 -0.18941526067E+02  0.20392092888E+02  0.00000000000E+00 0.  1.
</event>
<event>
 5    1  0.8907853E-005  0.9118800E+02  0.7818608E-02  0.1130116E+00
         25   -1    0    0    0    0  0.00000000000E+00  0.00000000000E+00  0.99999998245E-14  0.12500000000E+03  0.12500000000E+03 0.  0.
        -11    1    3    3    0    0 -0.13326151442E+02  0.44404090934E+02 -0.17344817801E+01  0.46393081717E+02  0.51100000000E-03 0.  1.
         23    2    1    0    0    0  0.21890435184E+02  0.14821353111E+02 -0.15440916685E+02  0.94384880065E+02  0.89281689143E+02 0.  0.
         11    1    3    3    0    0  0.35216586625E+02 -0.29582737822E+02 -0.13706434905E+02  0.47991798348E+02  0.51100000000E-03 0. -1.
         22    1    1    0    0    0 -0.21890435184E+02 -0.14821353111E+02  0.15440916685E+02  0.30615119935E+02  0.00000000000E+00 0.  1.
</event>
<event>
 5    1  0.8907853E-005  0.9118800E+02  0.7818608E-02  0.1130116E+00
         25   -1    0    0    0    0  0.00000000000E+00  0.00000000000E+00  0.99999998245E-14  0.12500000000E+03  0.12500000000E+03 0.  0.
        -11    1    3    3    0    0 -0.28901308382E+02  0.24107446451E+01 -0.51221017708E+02  0.58861617130E+02  0.51100000000E-03 0.  1.
         23    2    1    0    0    0 -0.17314251531E+01  0.99726376547E+01 -0.27441381967E+02  0.95751396972E+02  0.91174827902E+02 0.  0.
         11    1    3    3    0    0  0.27169883229E+02  0.75618930096E+01  0.23779635741E+02  0.36889779842E+02  0.51100000000E-03 0. -1.
         22    1    1    0    0    0  0.17314251531E+01 -0.99726376547E+01  0.27441381967E+02  0.29248603028E+02  0.00000000000E+00 0.  1.
</event>
<event>
 5    1  0.8907853E-005  0.9118800E+02  0.7818608E-02  0.1130116E+00
         25   -1    0    0    0    0  0.00000000000E+00  0.00000000000E+00  0.99999998245E-14  0.12500000000E+03  0.12500000000E+03 0.  0.
        -11    1    3    3    0    0 -0.19109539702E+02 -0.21996513917E+02 -0.53163972017E+02  0.60625316931E+02  0.51100000000E-03 0. -1.
         23    2    1    0    0    0 -0.15276466789E+01 -0.32534165782E+01 -0.28598473115E+02  0.96176553150E+02  0.91755862415E+02 0.  0.
         11    1    3    3    0    0  0.17581893024E+02  0.18743097339E+02  0.24565498901E+02  0.35551236219E+02  0.51100000000E-03 0.  1.
         22    1    1    0    0    0  0.15276466789E+01  0.32534165782E+01  0.28598473115E+02  0.28823446850E+02  0.00000000000E+00 0. -1.
</event>
<event>
 5    1  0.8907853E-005  0.9118800E+02  0.7818608E-02  0.1130116E+00
         25   -1    0    0    0    0  0.00000000000E+00  0.00000000000E+00  0.99999998245E-14  0.12500000000E+03  0.12500000000E+03 0.  0.
        -11    1    3    3    0    0  0.37667610275E+01  0.21739442154E+02 -0.27592102319E+02  0.35328684443E+02  0.51100000000E-03 0.  1.
         23    2    1    0    0    0 -0.65542498044E+01 -0.76240540685E+01  0.25900098806E+02  0.97216920453E+02  0.93162385721E+02 0.  0.
         11    1    3    3    0    0 -0.10321010832E+02 -0.29363496222E+02  0.53492201125E+02  0.61888236010E+02  0.51100000000E-03 0. -1.
         22    1    1    0    0    0  0.65542498044E+01  0.76240540685E+01 -0.25900098806E+02  0.27783079547E+02  0.00000000000E+00 0. -1.
</event>
<event>
 5    1  0.8907853E-005  0.9118800E+02  0.7818608E-02  0.1130116E+00
         25   -1    0    0    0    0  0.00000000000E+00  0.00000000000E+00  0.99999998245E-14  0.12500000000E+03  0.12500000000E+03 0.  0.
        -11    1    3    3    0    0  0.26459063780E+02  0.11871694815E+02  0.53675066434E+02  0.61008458027E+02  0.51100000000E-03 0.  1.
         23    2    1    0    0    0  0.19739161996E+02  0.14661982664E+02  0.27805142972E+02  0.87882157557E+02  0.79658893974E+02 0.  0.
         11    1    3    3    0    0 -0.67199017843E+01  0.27902878496E+01 -0.25869923461E+02  0.26873699530E+02  0.51100000000E-03 0. -1.
         22    1    1    0    0    0 -0.19739161996E+02 -0.14661982664E+02 -0.27805142972E+02  0.37117842443E+02  0.00000000000E+00 0.  1.
</event>
<event>
 5    1  0.8907853E-005  0.9118800E+02  0.7818608E-02  0.1130116E+00
         25   -1    0    0    0    0  0.00000000000E+00  0.00000000000E+00  0.99999998245E-14  0.12500000000E+03  0.12500000000E+03 0.  0.
        -11    1    3    3    0    0 -0.48220527207E+02 -0.27747304602E+02  0.24812176427E+02  0.60916141178E+02  0.51100000000E-03 0.  1.
         23    2    1    0    0    0 -0.30563053579E+02 -0.14128043050E+02  0.45924614457E+01  0.91017761306E+02  0.84436013208E+02 0.  0.
         11    1    3    3    0    0  0.17657473628E+02  0.13619261551E+02 -0.20219714982E+02  0.30101620128E+02  0.51100000000E-03 0. -1.
         22    1    1    0    0    0  0.30563053579E+02  0.14128043050E+02 -0.45924614457E+01  0.33982238694E+02  0.00000000000E+00 0.  1.
</event>
<event>
 5    1  0.8907853E-005  0.9118800E+02  0.7818608E-02  0.1130116E+00
         25   -1    0    0    0    0  0.00000000000E+00  0.00000000000E+00  0.99999998245E-14  0.12500000000E+03  0.12500000000E+03 0.  0.
        -11    1    3    3    0    0  0.83932573958E+01 -0.52575799533E+02 -0.25970356011E+02  0.59237832994E+02  0.51100000000E-03 0. -1.
         23    2    1    0    0    0  0.14854630431E+02 -0.27412431490E+02 -0.34289368593E+01  0.93633472404E+02  0.88223398829E+02 0.  0.
         11    1    3    3    0    0  0.64613730350E+01  0.25163368043E+02  0.22541419151E+02  0.34395639409E+02  0.51100000000E-03 0.  1.
         22    1    1    0    0    0 -0.14854630431E+02  0.27412431490E+02  0.34289368593E+01  0.31366527596E+02  0.00000000000E+00 0. -1.
</event>
<event>
 5    1  0.8907853E-005  0.9118800E+02  0.7818608E-02  0.1130116E+00
         25   -1    0    0    0    0  0.00000000000E+00  0.00000000000E+00  0.99999998245E-14  0.12500000000E+03  0.12500000000E+03 0.  0.
        -11    1    3    3    0    0 -0.40644264891E+01  0.99378645381E+01  0.34916680342E+02  0.36530196833E+02  0.51100000000E-03 0. -1.
         23    2    1    0    0    0 -0.16045282936E+02  0.14899583711E+01 -0.23359256785E+02  0.96621734408E+02  0.92360346481E+02 0.  0.
         11    1    3    3    0    0 -0.11980856447E+02 -0.84479061670E+01 -0.58275937128E+02  0.60091537575E+02  0.51100000000E-03 0.  1.
         22    1    1    0    0    0  0.16045282936E+02 -0.14899583711E+01  0.23359256785E+02  0.28378265592E+02  0.00000000000E+00 0.  1.
</event>
<event>
 5    1  0.8907853E-005  0.9118800E+02  0.7818608E-02  0.1130116E+00
         25   -1    0    0    0    0  0.00000000000E+00  0.00000000000E+00  0.99999998245E-14  0.12500000000E+03  0.12500000000E+03 0.  0.
        -11    1    3    3    0    0 -0.11978133095E+02  0.55876919083E+02 -0.27728318437E+01  0.57213585409E+02  0.51100000000E-03 0. -1.
         23    2    1    0    0    0 -0.11133048865E+02  0.19597648453E+02 -0.17588280323E+02  0.96410487821E+02  0.92074002603E+02 0.  0.
         11    1    3    3    0    0  0.84508423010E+00 -0.36279270630E+02 -0.14815448479E+02  0.39196902412E+02  0.51100000000E-03 0.  1.
         22    1    1    0    0    0  0.11133048865E+02 -0.19597648453E+02  0.17588280323E+02  0.28589512179E+02  0.00000000000E+00 0. -1.
</event>
<event>
 5    1  0.8907853E-005  0.9118800E+02  0.7818608E-02  0.1130116E+00
         25   -1    0    0    0    0  0.00000000000E+00  0.00000000000E+00  0.99999998245E-14  0.12500000000E+03  0.12500000000E+03 0.  0.
        -11    1    3    3    0    0  0.33052426726E+02 -0.15218934703E+02  0.30775707233E+02  0.47657350345E+02  0.51100000000E-03 0.  1.
         23    2    1    0    0    0 -0.14714159255E+02 -0.69948939477E+01  0.23102830583E+02  0.96730302356E+02  0.92507165068E+02 0.  0.
         11    1    3    3    0    0 -0.47766585982E+02  0.82240407554E+01 -0.76728766497E+01  0.49072952011E+02  0.51100000000E-03 0. -1.
         22    1    1    0    0    0  0.14714159255E+02  0.69948939477E+01 -0.23102830583E+02  0.28269697644E+02  0.00000000000E+00 0. -1.
</event>
<event>
 5    1  0.8907853E-005  0.9118800E+02  0.7818608E-02  0.1130116E+00
         25   -1    0    0    0    0  0.00000000000E+00  0.00000000000E+00  0.99999998245E-14  0.12500000000E+03  0.12500000000E+03 0.  0.
        -11    1    3    3    0    0  0.21175494900E+02 -0.29519668590E+02  0.40390592597E+02  0.54325062250E+02  0.51100000000E-03 0.  1.
         23    2    1    0    0    0  0.24370528271E+02 -0.24060728973E+02  0.48649425280E+01  0.90409408899E+02  0.83530546657E+02 0.  0.
         11    1    3    3    0    0  0.31950333709E+01  0.54589396166E+01 -0.35525650069E+02  0.36084346649E+02  0.51100000000E-03 0. -1.
         22    1    1    0    0    0 -0.24370528271E+02  0.24060728973E+02 -0.48649425280E+01  0.34590591101E+02  0.00000000000E+00 0.  1.
</event>
<event>
 5    1  0.8907853E-005  0.9118800E+02  0.7818608E-02  0.1130116E+00
         25   -1    0    0    0    0  0.00000000000E+00  0.00000000000E+00  0.99999998245E-14  0.12500000000E+03  0.12500000000E+03 0.  0.
        -11    1    3    3    0    0 -0.58197509415E+01 -0.32496211127E+02 -0.30454841502E+02  0.44915149001E+02  0.51100000000E-03 0. -1.
         23    2    1    0    0    0 -0.27119605180E+02  0.69369880338E+01 -0.46725961543E+01  0.96619937581E+02  0.92357914632E+02 0.  0.
         11    1    3    3    0    0 -0.21299854238E+02  0.39433199161E+02  0.25782245347E+02  0.51704788580E+02  0.51100000000E-03 0.  1.
         22    1    1    0    0    0  0.27119605180E+02 -0.69369880338E+01  0.46725961543E+01  0.28380062419E+02  0.00000000000E+00 0.  1.
</event>
<event>
 5    1  0.8907853E-005  0.9118800E+02  0.7818608E-02  0.1130116E+00
         25   -1    0    0    0    0  0.00000000000E+00  0.00000000000E+00  0.99999998245E-14  0.12500000000E+03  0.12500000000E+03 0.  0.
        -11    1    3    3    0    0 -0.41405506673E+02 -0.49326218904E+01 -0.22116922590E+02  0.47200688625E+02  0.51100000000E-03 0.  1.
         23    2    1    0    0    0  0.15387404100E+01 -0.25007527836E+02 -0.16644770174E+02  0.94920230309E+02  0.90028093267E+02 0.  0.
         11    1    3    3    0    0  0.42944247083E+02 -0.20074905945E+02  0.54721524154E+01  0.47719541684E+02  0.51100000000E-03 0. -1.
         22    1    1    0    0    0 -0.15387404100E+01  0.25007527836E+02  0.16644770174E+02  0.30079769691E+02  0.00000000000E+00 0.  1.
</event>
<event>
 5    1  0.8907853E-005  0.9118800E+02  0.7818608E-02  0.1130116E+00
         25   -1    0    0    0    0  0.00000000000E+00  0.00000000000E+00  0.99999998245E-14  0.12500000000E+03  0.12500000000E+03 0.  0.
        -11    1    3    3    0    0 -0.20252113145E+02 -0.16157666979E+02  0.18186092672E+02  0.31653629428E+02  0.51100000000E-03 0.  1.
         23    2    1    0    0    0  0.10864145684E+01  0.33065836932E+02  0.21726648249E+02  0.85419990996E+02  0.75696748603E+02 0.  0.
         11    1    3    3    0    0  0.21338527713E+02  0.49223503911E+02  0.35405555762E+01  0.53766361568E+02  0.51100000000E-03 0. -1.
         22    1    1    0    0    0 -0.10864145684E+01 -0.33065836932E+02 -0.21726648249E+02  0.39580009004E+02  0.00000000000E+00 0. -1.
</event>
<event>
 5    1  0.8907853E-005  0.9118800E+02  0.7818608E-02  0.1130116E+00
         25   -1    0    0    0    0  0.00000000000E+00  0.00000000000E+00  0.99999998245E-14  0.12500000000E+03  0.12500000000E+03 0.  0.
        -11    1    3    3    0    0 -0.41818715939E+02 -0.72407948045E+01  0.43493699655E+02  0.60769532022E+02  0.51100000000E-03 0.  1.
         23    2    1    0    0    0 -0.11366414227E+02 -0.10059322629E+02  0.22479706214E+02  0.97875794286E+02  0.94042270132E+02 0.  0.
         11    1    3    3    0    0  0.30452301712E+02 -0.28185278244E+01 -0.21013993441E+02  0.37106262265E+02  0.51100000000E-03 0. -1.
         22    1    1    0    0    0  0.11366414227E+02  0.10059322629E+02 -0.22479706214E+02  0.27124205714E+02  0.00000000000E+00 0.  1.
</event>
<event>
 5    1  0.8907853E-005  0.9118800E+02  0.7818608E-02  0.1130116E+00
         25   -1    0    0    0    0  0.00000000000E+00  0.00000000000E+00  0.99999998245E-14  0.12500000000E+03  0.12500000000E+03 0.  0.
        -11    1    3    3    0    0  0.53082933235E+01 -0.32501711684E+02 -0.34401736780E+02  0.47623720289E+02  0.51100000000E-03 0. -1.
         23    2    1    0    0    0 -0.24951907566E+02 -0.32588834997E+00 -0.15153797112E+02  0.95805112412E+02  0.91248441646E+02 0.  0.
         11    1    3    3    0    0 -0.30260200889E+02  0.32175823334E+02  0.19247939668E+02  0.48181392122E+02  0.51100000000E-03 0.  1.
         22    1    1    0    0    0  0.24951907566E+02  0.32588834997E+00  0.15153797112E+02  0.29194887588E+02  0.00000000000E+00 0. -1.
</event>
<event>
 5    1  0.8907853E-005  0.9118800E+02  0.7818608E-02  0.1130116E+00
         25   -1    0    0    0    0  0.00000000000E+00  0.00000000000E+00  0.99999998245E-14  0.12500000000E+03  0.12500000000E+03 0.  0.
        -11    1    3    3    0    0  0.19526257635E+01  0.61034582593E+00  0.50202561721E+02  0.50244228256E+02  0.51100000000E-03 0.  1.
         23    2    1    0    0    0 -0.95206607830E+00  0.24449386327E+02  0.72059419374E+01  0.99493049559E+02  0.96167886479E+02 0.  0.
         11    1    3    3    0    0 -0.29046918418E+01  0.23839040501E+02 -0.42996619783E+02  0.49248821303E+02  0.51100000000E-03 0. -1.
         22    1    1    0    0    0  0.95206607830E+00 -0.24449386327E+02 -0.72059419374E+01  0.25506950441E+02  0.00000000000E+00 0. -1.
</event>
<event>
 5    1  0.8907853E-005  0.9118800E+02  0.7818608E-02  0.1130116E+00
         25   -1    0    0    0    0  0.00000000000E+00  0.00000000000E+00  0.99999998245E-14  0.12500000000E+03  0.12500000000E+03 0.  0.
        -11    1    3    3    0    0  0.55191226959E+02  0.13340712948E+02  0.17414989921E+02  0.59391312744E+02  0.51100000000E-03 0. -1.
         23    2    1    0    0    0  0.23860957610E+02  0.91394583187E+01  0.21936593103E+02  0.91323760403E+02  0.84887808905E+02 0.  0.
         11    1    3    3    0    0 -0.31330269349E+02 -0.42012546297E+01  0.45216031821E+01  0.31932447659E+02  0.51100000000E-03 0.  1.
         22    1    1    0    0    0 -0.23860957610E+02 -0.91394583187E+01 -0.21936593103E+02  0.33676239597E+02  0.00000000000E+00 0. -1.
</event>
<event>
 5    1  0.8907853E-005  0.9118800E+02  0.7818608E-02  0.1130116E+00
         25   -1    0    0    0    0  0.00000000000E+00  0.00000000000E+00  0.99999998245E-14  0.12500000000E+03  0.12500000000E+03 0.  0.
        -11    1    3    3    0    0 -0.26145964818E+02 -0.20151793926E+02 -0.34851009343E+02  0.48003115807E+02  0.51100000000E-03 0.  1.
         23    2    1    0    0    0 -0.27402883547E+02 -0.27694763671E+02  0.23372843418E+01  0.85969488095E+02  0.76598772992E+02 0.  0.
         11    1    3    3    0    0 -0.12569187284E+01 -0.75429697446E+01  0.37188293685E+02  0.37966372288E+02  0.51100000000E-03 0. -1.
         22    1    1    0    0    0  0.27402883547E+02  0.27694763671E+02 -0.23372843418E+01  0.39030511905E+02  0.00000000000E+00 0.  1.
</event>
<event>
 5    1  0.8907853E-005  0.9118800E+02  0.7818608E-02  0.1130116E+00
         25   -1    0    0    0    0  0.00000000000E+00  0.00000000000E+00  0.99999998245E-14  0.12500000000E+03  0.12500000000E+03 0.  0.
        -11    1    3    3    0    0  0.52951204395E+02  0.54863096818E+01 -0.19664165316E+02  0.56750410030E+02  0.51100000000E-03 0.  1.
         23    2    1    0    0    0  0.14205123071E+02  0.16311254787E+02 -0.17739462099E+02  0.97026243196E+02  0.92906193545E+02 0.  0.
         11    1    3    3    0    0 -0.38746081323E+02  0.10824945105E+02  0.19247032175E+01  0.40275833165E+02  0.51100000000E-03 0. -1.
         22    1    1    0    0    0 -0.14205123071E+02 -0.16311254787E+02  0.17739462099E+02  0.27973756804E+02  0.00000000000E+00 0.  1.
</event>
<event>
 5    1  0.8907853E-005  0.9118800E+02  0.7818608E-02  0.1130116E+00
         25   -1    0    0    0    0  0.00000000000E+00  0.00000000000E+00  0.99999998245E-14  0.12500000000E+03  0.12500000000E+03 0.  0.
        -11    1    3    3    0    0 -0.56458696308E+02  0.14616317000E+02  0.48014579648E+01  0.58517306075E+02  0.51100000000E-03 0.  1.
         23    2    1    0    0    0 -0.38896920908E+02  0.21548102026E+02 -0.57776682974E+01  0.80159475828E+02  0.66444480259E+02 0.  0.
         11    1    3    3    0    0  0.17561775400E+02  0.69317850264E+01 -0.10579126262E+02  0.21642169752E+02  0.51100000000E-03 0. -1.
         22    1    1    0    0    0  0.38896920908E+02 -0.21548102026E+02  0.57776682974E+01  0.44840524172E+02  0.00000000000E+00 0.  1.
</event>
<event>
 5    1  0.8907853E-005  0.9118800E+02  0.7818608E-02  0.1130116E+00
         25   -1    0    0    0    0  0.00000000000E+00  0.00000000000E+00  0.99999998245E-14  0.12500000000E+03  0.12500000000E+03 0.  0.
        -11    1    3    3    0    0  0.40426805918E+02  0.12583756133E+02 -0.43086595800E+02  0.60408048247E+02  0.51100000000E-03 0. -1.
         23    2    1    0    0    0  0.12979735708E+02 -0.13825048479E+01 -0.26671161547E+02  0.95305964960E+02  0.90562085003E+02 0.  0.
         11    1    3    3    0    0 -0.27447070210E+02 -0.13966260981E+02  0.16415434253E+02  0.34897916713E+02  0.51100000000E-03 0.  1.
         22    1    1    0    0    0 -0.12979735708E+02  0.13825048479E+01  0.26671161547E+02  0.29694035040E+02  0.00000000000E+00 0. -1.
</event>
<event>
 5    1  0.8907853E-005  0.9118800E+02  0.7818608E-02  0.1130116E+00
         25   -1    0    0    0    0  0.00000000000E+00  0.00000000000E+00  0.99999998245E-14  0.12500000000E+03  0.12500000000E+03 0.  0.
        -11    1    3    3    0    0 -0.22282522656E+02 -0.10974288130E+02 -0.27633584144E+02  0.37155898439E+02  0.51100000000E-03 0. -1.
         23    2    1    0    0    0  0.77647178532E+01  0.28725926469E+02  0.21370141270E+01  0.95166520079E+02  0.90369408650E+02 0.  0.
         11    1    3    3    0    0  0.30047240510E+02  0.39700214599E+02  0.29770598271E+02  0.58010621640E+02  0.51100000000E-03 0.  1.
         22    1    1    0    0    0 -0.77647178532E+01 -0.28725926469E+02 -0.21370141270E+01  0.29833479921E+02  0.00000000000E+00 0.  1.
</event>
<event>
 5    1  0.8907853E-005  0.9118800E+02  0.7818608E-02  0.1130116E+00
         25   -1    0    0    0    0  0.00000000000E+00  0.00000000000E+00  0.99999998245E-14  0.12500000000E+03  0.12500000000E+03 0.  0.
        -11    1    3    3    0    0 -0.27217834738E+01 -0.27118577249E+02  0.38190360158E+02  0.46918322077E+02  0.51100000000E-03 0. -1.
         23    2    1    0    0    0  0.20901304600E+02  0.70893147019E+01  0.27302246077E+02  0.89892514220E+02  0.82753420201E+02 0.  0.
         11    1    3    3    0    0  0.23623088074E+02  0.34207891951E+02 -0.10888114080E+02  0.42974192143E+02  0.51100000000E-03 0.  1.
         22    1    1    0    0    0 -0.20901304600E+02 -0.70893147019E+01 -0.27302246077E+02  0.35107485780E+02  0.00000000000E+00 0. -1.
</event>
<event>
 5    1  0.8907853E-005  0.9118800E+02  0.7818608E-02  0.1130116E+00
         25   -1    0    0    0    0  0.00000000000E+00  0.00000000000E+00  0.99999998245E-14  0.12500000000E+03  0.12500000000E+03 0.  0.
        -11    1    3    3    0    0  0.39110563482E+02  0.12444606272E+02 -0.47495294087E+01  0.41316612046E+02  0.51100000000E-03 0.  1.
         23    2    1    0    0    0 -0.25842335316E+01  0.27419615890E+02  0.18959113674E+02  0.91564067386E+02  0.85240934101E+02 0.  0.
         11    1    3    3    0    0 -0.41694797013E+02  0.14975009618E+02  0.23708643083E+02  0.50247455340E+02  0.51100000000E-03 0. -1.
         22    1    1    0    0    0  0.25842335316E+01 -0.27419615890E+02 -0.18959113674E+02  0.33435932614E+02  0.00000000000E+00 0.  1.
</event>
<event>
 5    1  0.8907853E-005  0.9118800E+02  0.7818608E-02  0.1130116E+00
         25   -1    0    0    0    0  0.00000000000E+00  0.00000000000E+00  0.99999998245E-14  0.12500000000E+03  0.12500000000E+03 0.  0.
        -11    1    3    3    0    0 -0.18016447780E+02 -0.10258810630E+02  0.50475995370E+02  0.54567954836E+02  0.51100000000E-03 0.  1.
         23    2    1    0    0    0 -0.17525126751E+02 -0.19600501210E+02  0.88110210702E+01  0.97270163946E+02  0.93233797447E+02 0.  0.
         11    1    3    3    0    0  0.49132102968E+00 -0.93416905791E+01 -0.41664974299E+02  0.42702209110E+02  0.51100000000E-03 0. -1.
         22    1    1    0    0    0  0.17525126751E+02  0.19600501210E+02 -0.88110210702E+01  0.27729836054E+02  0.00000000000E+00 0.  1.
</event>
<event>
 5    1  0.8907853E-005  0.9118800E+02  0.7818608E-02  0.1130116E+00
         25   -1    0    0    0    0  0.00000000000E+00  0.00000000000E+00  0.99999998245E-14  0.12500000000E+03  0.12500000000E+03 0.  0.
        -11    1    3    3    0    0  0.25482358183E+02 -0.59018897509E+00 -0.32727093851E+02  0.41482063278E+02  0.51100000000E-03 0.  1.
         23    2    1    0    0    0 -0.24234009597E+02  0.28014730537E+01 -0.21316190715E+02  0.92603774000E+02  0.86752195938E+02 0.  0.
         11    1    3    3    0    0 -0.49716367780E+02  0.33916620288E+01  0.11410903136E+02  0.51121710722E+02  0.51100000000E-03 0. -1.
         22    1    1    0    0    0  0.24234009597E+02 -0.28014730537E+01  0.21316190715E+02  0.32396226000E+02  0.00000000000E+00 0.  1.
</event>
<event>
 5    1  0.8907853E-005  0.9118800E+02  0.7818608E-02  0.1130116E+00
         25   -1    0    0    0    0  0.00000000000E+00  0.00000000000E+00  0.99999998245E-14  0.12500000000E+03  0.12500000000E+03 0.  0.
        -11    1    3    3    0    0 -0.41445303970E+02 -0.61408364748E+00  0.19933688424E+02  0.45993937147E+02  0.51100000000E-03 0. -1.
         23    2    1    0    0    0  0.72102561860E+01  0.69761121160E+01  0.27418577374E+02  0.95803556386E+02  0.91246310043E+02 0.  0.
         11    1    3    3    0    0  0.48655560156E+02  0.75901957634E+01  0.74848889497E+01  0.49809619238E+02  0.51100000000E-03 0.  1.
         22    1    1    0    0    0 -0.72102561860E+01 -0.69761121160E+01 -0.27418577374E+02  0.29196443614E+02  0.00000000000E+00 0.  1.
</event>
<event>
 5    1  0.8907853E-005  0.9118800E+02  0.7818608E-02  0.1130116E+00
         25   -1    0    0    0    0  0.00000000000E+00  0.00000000000E+00  0.99999998245E-14  0.12500000000E+03  0.12500000000E+03 0.  0.
        -11    1    3    3    0    0  0.29557477009E+02 -0.15171731361E+02 -0.25441415688E+02  0.41846045358E+02  0.51100000000E-03 0. -1.
         23    2    1    0    0    0  0.20510383506E+02  0.45024008049E+01  0.22361219921E+02  0.94324739595E+02  0.89197448947E+02 0.  0.
         11    1    3    3    0    0 -0.90470935030E+01  0.19674132166E+02  0.47802635609E+02  0.52478694237E+02  0.51100000000E-03 0.  1.
         22    1    1    0    0    0 -0.20510383506E+02 -0.45024008049E+01 -0.22361219921E+02  0.30675260405E+02  0.00000000000E+00 0.  1.
</event>
<event>
 5    1  0.8907853E-005  0.9118800E+02  0.7818608E-02  0.1130116E+00
         25   -1    0    0    0    0  0.00000000000E+00  0.00000000000E+00  0.99999998245E-14  0.12500000000E+03  0.12500000000E+03 0.  0.
        -11    1    3    3    0    0  0.21400529410E+02 -0.34369134519E+00  0.33026746019E+02  0.39355644266E+02  0.51100000000E-03 0.  1.
         23    2    1    0    0    0 -0.14259802223E+02 -0.25510641191E+02 -0.25477961375E+01  0.95663571476E+02  0.91054340198E+02 0.  0.
         11    1    3    3    0    0 -0.35660331633E+02 -0.25166949846E+02 -0.35574542156E+02  0.56307927209E+02  0.51100000000E-03 0. -1.
         22    1    1    0    0    0  0.14259802223E+02  0.25510641191E+02  0.25477961375E+01  0.29336428524E+02  0.00000000000E+00 0. -1.
</event>
<event>
 5    1  0.8907853E-005  0.9118800E+02  0.7818608E-02  0.1130116E+00
         25   -1    0    0    0    0  0.00000000000E+00  0.00000000000E+00  0.99999998245E-14  0.12500000000E+03  0.12500000000E+03 0.  0.
        -11    1    3    3    0    0  0.58807176130E+02  0.79587408168E+01 -0.10380049005E+02  0.60244260618E+02  0.51100000000E-03 0. -1.
         23    2    1    0    0    0  0.29011437620E+02 -0.19752747800E+01  0.54483213861E+01  0.95415385263E+02  0.90712988682E+02 0.  0.
         11    1    3    3    0    0 -0.29795738511E+02 -0.99340155969E+01  0.15828370391E+02  0.35171124644E+02  0.51100000000E-03 0.  1.
         22    1    1    0    0    0 -0.29011437620E+02  0.19752747800E+01 -0.54483213861E+01  0.29584614737E+02  0.00000000000E+00 0. -1.
</event>
<event>
 5    1  0.8907853E-005  0.9118800E+02  0.7818608E-02  0.1130116E+00
         25   -1    0    0    0    0  0.00000000000E+00  0.00000000000E+00  0.99999998245E-14  0.12500000000E+03  0.12500000000E+03 0.  0.
        -11    1    3    3    0    0  0.21196453949E+02 -0.16426541221E+02  0.28356824390E+02  0.39028584476E+02  0.51100000000E-03 0.  1.
         23    2    1    0    0    0 -0.16485630717E+02  0.20284633080E+02 -0.14287309011E+00  0.98860704446E+02  0.95342415071E+02 0.  0.
         11    1    3    3    0    0 -0.37682084666E+02  0.36711174301E+02 -0.28499697480E+02  0.59832119970E+02  0.51100000000E-03 0. -1.
         22    1    1    0    0    0  0.16485630717E+02 -0.20284633080E+02  0.14287309011E+00  0.26139295554E+02  0.00000000000E+00 0. -1.
</event>
<event>
 5    1  0.8907853E-005  0.9118800E+02  0.7818608E-02  0.1130116E+00
         25   -1    0    0    0    0  0.00000000000E+00  0.00000000000E+00  0.99999998245E-14  0.12500000000E+03  0.12500000000E+03 0.  0.
        -11    1    3    3    0    0 -0.49873997363E+02 -0.31491981410E+02  0.93989567982E+01  0.59728560131E+02  0.51100000000E-03 0.  1.
         23    2    1    0    0    0 -0.16031339030E+02 -0.20865094637E+02  0.13481626699E+02  0.95434644197E+02  0.90739523083E+02 0.  0.
         11    1    3    3    0    0  0.33842658334E+02  0.10626886773E+02  0.40826699013E+01  0.35706084066E+02  0.51100000000E-03 0. -1.
         22    1    1    0    0    0  0.16031339030E+02  0.20865094637E+02 -0.13481626699E+02  0.29565355803E+02  0.00000000000E+00 0.  1.
</event>
<event>
 5    1  0.8907853E-005  0.9118800E+02  0.7818608E-02  0.1130116E+00
         25   -1    0    0    0    0  0.00000000000E+00  0.00000000000E+00  0.99999998245E-14  0.12500000000E+03  0.12500000000E+03 0.  0.
        -11    1    3    3    0    0  0.16216516304E+02 -0.29964274743E+02 -0.46962760078E+02  0.58020117169E+02  0.51100000000E-03 0.  1.
         23    2    1    0    0    0 -0.96641755149E+01 -0.14901850620E+02 -0.15989764236E+02  0.10110159000E+03  0.98236436721E+02 0.  0.
         11    1    3    3    0    0 -0.25880691818E+02  0.15062424123E+02  0.30972995841E+02  0.43081472829E+02  0.51100000000E-03 0. -1.
         22    1    1    0    0    0  0.96641755149E+01  0.14901850620E+02  0.15989764236E+02  0.23898410002E+02  0.00000000000E+00 0.  1.
</event>
<event>
 5    1  0.8907853E-005  0.9118800E+02  0.7818608E-02  0.1130116E+00
         25   -1    0    0    0    0  0.00000000000E+00  0.00000000000E+00  0.99999998245E-14  0.12500000000E+03  0.12500000000E+03 0.  0.
        -11    1    3    3    0    0  0.12366914883E+02  0.37402943604E+02  0.19420653849E+02  0.43921322500E+02  0.51100000000E-03 0.  1.
         23    2    1    0    0    0 -0.23722932352E+02 -0.33966047988E+01  0.91248780519E+01  0.99356719340E+02  0.95990519506E+02 0.  0.
         11    1    3    3    0    0 -0.36089847235E+02 -0.40799548403E+02 -0.10295775797E+02  0.55435396840E+02  0.51100000000E-03 0. -1.
         22    1    1    0    0    0  0.23722932352E+02  0.33966047988E+01 -0.91248780519E+01  0.25643280660E+02  0.00000000000E+00 0. -1.
</event>
<event>
 5    1  0.8907853E-005  0.9118800E+02  0.7818608E-02  0.1130116E+00
         25   -1    0    0    0    0  0.00000000000E+00  0.00000000000E+00  0.99999998245E-14  0.12500000000E+03  0.12500000000E+03 0.  0.
        -11    1    3    3    0    0 -0.42207465809E+02 -0.29118106852E+02  0.27770800197E+02  0.58314249206E+02  0.51100000000E-03 0.  1.
         23    2    1    0    0    0 -0.21990561567E+02  0.10547545213E+01  0.19559206324E+02  0.95550723996E+02  0.90899290421E+02 0.  0.
         11    1    3    3    0    0  0.20216904242E+02  0.30172861373E+02 -0.82115938734E+01  0.37236474790E+02  0.51100000000E-03 0. -1.
         22    1    1    0    0    0  0.21990561567E+02 -0.10547545213E+01 -0.19559206324E+02  0.29449276004E+02  0.00000000000E+00 0.  1.
</event>
<event>
 5    1  0.8907853E-005  0.9118800E+02  0.7818608E-02  0.1130116E+00
         25   -1    0    0    0    0  0.00000000000E+00  0.00000000000E+00  0.99999998245E-14  0.12500000000E+03  0.12500000000E+03 0.  0.
        -11    1    3    3    0    0 -0.18404577785E+02 -0.83365002187E+01 -0.27927856976E+02  0.34470145269E+02  0.51100000000E-03 0.  1.
         23    2    1    0    0    0  0.11285209377E+02 -0.19586688425E+01  0.26127978095E+02  0.96471705736E+02  0.92157074790E+02 0.  0.
         11    1    3    3    0    0  0.29689787163E+02  0.63778313762E+01  0.54055835071E+02  0.62001560466E+02  0.51100000000E-03 0. -1.
         22    1    1    0    0    0 -0.11285209377E+02  0.19586688425E+01 -0.26127978095E+02  0.28528294264E+02  0.00000000000E+00 0. -1.
</event>
<event>
 5    1  0.8907853E-005  0.9118800E+02  0.7818608E-02  0.1130116E+00
         25   -1    0    0    0    0  0.00000000000E+00  0.00000000000E+00  0.99999998245E-14  0.12500000000E+03  0.12500000000E+03 0.  0.
        -11    1    3    3    0    0 -0.12309588052E+02  0.47480773643E+00  0.12856735526E+02  0.17805815034E+02  0.51100000000E-03 0.  1.
         23    2    1    0    0    0  0.35673887068E+02  0.99643195857E+01 -0.25556555095E+02  0.79999428985E+02  0.66142703651E+02 0.  0.
         11    1    3    3    0    0  0.47983475120E+02  0.94895118492E+01 -0.38413290621E+02  0.62193613951E+02  0.51100000000E-03 0. -1.
         22    1    1    0    0    0 -0.35673887068E+02 -0.99643195857E+01  0.25556555095E+02  0.45000571015E+02  0.00000000000E+00 0. -1.
</event>
<event>
 5    1  0.8907853E-005  0.9118800E+02  0.7818608E-02  0.1130116E+00
         25   -1    0    0    0    0  0.00000000000E+00  0.00000000000E+00  0.99999998245E-14  0.12500000000E+03  0.12500000000E+03 0.  0.
        -11    1    3    3    0    0 -0.11969189678E+02  0.88375500727E+01  0.53436824360E+02  0.55469432941E+02  0.51100000000E-03 0.  1.
         23    2    1    0    0    0 -0.31392661744E+00  0.23386127158E+02  0.18084737789E+02  0.95435371907E+02  0.90740525548E+02 0.  0.
         11    1    3    3    0    0  0.11655263060E+02  0.14548577085E+02 -0.35352086571E+02  0.39965938966E+02  0.51100000000E-03 0. -1.
         22    1    1    0    0    0  0.31392661744E+00 -0.23386127158E+02 -0.18084737789E+02  0.29564628093E+02  0.00000000000E+00 0.  1.
</event>
<event>
 5    1  0.8907853E-005  0.9118800E+02  0.7818608E-02  0.1130116E+00
         25   -1    0    0    0    0  0.00000000000E+00  0.00000000000E+00  0.99999998245E-14  0.12500000000E+03  0.12500000000E+03 0.  0.
        -11    1    3    3    0    0 -0.11118638132E+02 -0.10781515460E+02  0.45833542404E+02  0.48379528719E+02  0.51100000000E-03 0. -1.
         23    2    1    0    0    0 -0.11836888733E+01 -0.29245265398E+02  0.36271996304E+01  0.95506894963E+02  0.90838999008E+02 0.  0.
         11    1    3    3    0    0  0.99349492587E+01 -0.18463749938E+02 -0.42206342773E+02  0.47127366244E+02  0.51100000000E-03 0.  1.
         22    1    1    0    0    0  0.11836888733E+01  0.29245265398E+02 -0.36271996304E+01  0.29493105037E+02  0.00000000000E+00 0.  1.
</event>
<event>
 5    1  0.8907853E-005  0.9118800E+02  0.7818608E-02  0.1130116E+00
         25   -1    0    0    0    0  0.00000000000E+00  0.00000000000E+00  0.99999998245E-14  0.12500000000E+03  0.12500000000E+03 0.  0.
        -11    1    3    3    0    0  0.16111698523E+02 -0.72298445149E+01 -0.36140450618E+02  0.40224242095E+02  0.51100000000E-03 0. -1.
         23    2    1    0    0    0  0.14988414524E+02 -0.21574738824E+02  0.15950962878E+02  0.94266384170E+02  0.89115632986E+02 0.  0.
         11    1    3    3    0    0 -0.11232839993E+01 -0.14344894309E+02  0.52091413497E+02  0.54042142075E+02  0.51100000000E-03 0.  1.
         22    1    1    0    0    0 -0.14988414524E+02  0.21574738824E+02 -0.15950962878E+02  0.30733615830E+02  0.00000000000E+00 0.  1.
</event>
<event>
 5    1  0.8907853E-005  0.9118800E+02  0.7818608E-02  0.1130116E+00
         25   -1    0    0    0    0  0.00000000000E+00  0.00000000000E+00  0.99999998245E-14  0.12500000000E+03  0.12500000000E+03 0.  0.
        -11    1    3    3    0    0 -0.32075067906E+02  0.45195330221E+02  0.11366645911E+02  0.56574097381E+02  0.51100000000E-03 0. -1.
         23    2    1    0    0    0 -0.27412333302E+02  0.84589153099E+01 -0.26966838881E+01  0.96185743645E+02  0.91768381871E+02 0.  0.
         11    1    3    3    0    0  0.46627346035E+01 -0.36736414911E+02 -0.14063329799E+02  0.39611646264E+02  0.51100000000E-03 0.  1.
         22    1    1    0    0    0  0.27412333302E+02 -0.84589153099E+01  0.26966838881E+01  0.28814256355E+02  0.00000000000E+00 0. -1.
</event>
<event>
 5    1  0.8907853E-005  0.9118800E+02  0.7818608E-02  0.1130116E+00
         25   -1    0    0    0    0  0.00000000000E+00  0.00000000000E+00  0.99999998245E-14  0.12500000000E+03  0.12500000000E+03 0.  0.
        -11    1    3    3    0    0  0.13339353994E+02  0.43936855646E+02  0.42127031166E+02  0.62314303367E+02  0.51100000000E-03 0.  1.
         23    2    1    0    0    0  0.12107233917E+02  0.28981446423E+02  0.28070766971E+02  0.82875454801E+02  0.71371308663E+02 0.  0.
         11    1    3    3    0    0 -0.12321200773E+01 -0.14955409222E+02 -0.14056264195E+02  0.20561151434E+02  0.51100000000E-03 0. -1.
         22    1    1    0    0    0 -0.12107233917E+02 -0.28981446423E+02 -0.28070766971E+02  0.42124545199E+02  0.00000000000E+00 0.  1.
</event>
<event>
 5    1  0.8907853E-005  0.9118800E+02  0.7818608E-02  0.1130116E+00
         25   -1    0    0    0    0  0.00000000000E+00  0.00000000000E+00  0.99999998245E-14  0.12500000000E+03  0.12500000000E+03 0.  0.
        -11    1    3    3    0    0  0.31332789292E+02 -0.23229240295E+02 -0.85796477859E+01  0.39936845718E+02  0.51100000000E-03 0.  1.
         23    2    1    0    0    0  0.24898488402E+01  0.30020964010E+01  0.29977530272E+02  0.94769812252E+02  0.89819001681E+02 0.  0.
         11    1    3    3    0    0 -0.28842940452E+02  0.26231336696E+02  0.38557178058E+02  0.54832966534E+02  0.51100000000E-03 0. -1.
         22    1    1    0    0    0 -0.24898488402E+01 -0.30020964010E+01 -0.29977530272E+02  0.30230187748E+02  0.00000000000E+00 0.  1.
</event>
<event>
 5    1  0.8907853E-005  0.9118800E+02  0.7818608E-02  0.1130116E+00
         25   -1    0    0    0    0  0.00000000000E+00  0.00000000000E+00  0.99999998245E-14  0.12500000000E+03  0.12500000000E+03 0.  0.
        -11    1    3    3    0    0 -0.17901529500E+02 -0.36019134768E+02  0.33112545143E+02  0.52098785725E+02  0.51100000000E-03 0.  1.
         23    2    1    0    0    0 -0.82381496756E+01 -0.10949880730E+02  0.42333264495E+02  0.80504244237E+02  0.67089947528E+02 0.  0.
         11    1    3    3    0    0  0.96633798243E+01  0.25069254038E+02  0.92207193523E+01  0.28405458513E+02  0.51100000000E-03 0. -1.
         22    1    1    0    0    0  0.82381496756E+01  0.10949880730E+02 -0.42333264495E+02  0.44495755763E+02  0.00000000000E+00 0.  1.
</event>
<event>
 5    1  0.8907853E-005  0.9118800E+02  0.7818608E-02  0.1130116E+00
         25   -1    0    0    0    0  0.00000000000E+00  0.00000000000E+00  0.99999998245E-14  0.12500000000E+03  0.12500000000E+03 0.  0.
        -11    1    3    3    0    0 -0.44440847232E+02 -0.56988017967E+01  0.38112137159E+02  0.58821766751E+02  0.51100000000E-03 0.  1.
         23    2    1    0    0    0 -0.22600094595E+02  0.12350012128E+02  0.18907086615E+02  0.93050586867E+02  0.87393630871E+02 0.  0.
         11    1    3    3    0    0  0.21840752637E+02  0.18048813925E+02 -0.19205050544E+02  0.34228820116E+02  0.51100000000E-03 0. -1.
         22    1    1    0    0    0  0.22600094595E+02 -0.12350012128E+02 -0.18907086615E+02  0.31949413133E+02  0.00000000000E+00 0.  1.
</event>
<event>
 5    1  0.8907853E-005  0.9118800E+02  0.7818608E-02  0.1130116E+00
         25   -1    0    0    0    0  0.00000000000E+00  0.00000000000E+00  0.99999998245E-14  0.12500000000E+03  0.12500000000E+03 0.  0.
        -11    1    3    3    0    0  0.90880473613E+01  0.42925311856E+02 -0.15198870111E+02  0.46434692372E+02  0.51100000000E-03 0. -1.
         23    2    1    0    0    0  0.15174627984E+02 -0.21223865857E+01 -0.27493606208E+02  0.93525053748E+02  0.88069651055E+02 0.  0.
         11    1    3    3    0    0  0.60865806225E+01 -0.45047698442E+02 -0.12294736097E+02  0.47090361376E+02  0.51100000000E-03 0.  1.
         22    1    1    0    0    0 -0.15174627984E+02  0.21223865857E+01  0.27493606208E+02  0.31474946252E+02  0.00000000000E+00 0. -1.
</event>
<event>
 5    1  0.8907853E-005  0.9118800E+02  0.7818608E-02  0.1130116E+00
         25   -1    0    0    0    0  0.00000000000E+00  0.00000000000E+00  0.99999998245E-14  0.12500000000E+03  0.12500000000E+03 0.  0.
        -11    1    3    3    0    0  0.31178697610E+02 -0.16000293951E+02 -0.38832263045E+02  0.52307410992E+02  0.51100000000E-03 0.  1.
         23    2    1    0    0    0  0.29796706148E+02 -0.16335488477E-01  0.93459036158E+00  0.95188636005E+02  0.90399994476E+02 0.  0.
         11    1    3    3    0    0 -0.13819914625E+01  0.15983958463E+02  0.39766853406E+02  0.42881225013E+02  0.51100000000E-03 0. -1.
         22    1    1    0    0    0 -0.29796706148E+02  0.16335488477E-01 -0.93459036158E+00  0.29811363995E+02  0.00000000000E+00 0.  1.
</event>
<event>
 5    1  0.8907853E-005  0.9118800E+02  0.7818608E-02  0.1130116E+00
         25   -1    0    0    0    0  0.00000000000E+00  0.00000000000E+00  0.99999998245E-14  0.12500000000E+03  0.12500000000E+03 0.  0.
        -11    1    3    3    0    0  0.22455621963E+02 -0.34949605601E+02 -0.40356262361E+02  0.57916817949E+02  0.51100000000E-03 0.  1.
         23    2    1    0    0    0  0.22624583816E+01 -0.57680741472E+01 -0.29249734631E+02  0.95101231241E+02  0.90279055214E+02 0.  0.
         11    1    3    3    0    0 -0.20193163581E+02  0.29181531453E+02  0.11106527730E+02  0.37184413292E+02  0.51100000000E-03 0. -1.
         22    1    1    0    0    0 -0.22624583816E+01  0.57680741472E+01  0.29249734631E+02  0.29898768759E+02  0.00000000000E+00 0.  1.
</event>
<event>
 5    1  0.8907853E-005  0.9118800E+02  0.7818608E-02  0.1130116E+00
         25   -1    0    0    0    0  0.00000000000E+00  0.00000000000E+00  0.99999998245E-14  0.12500000000E+03  0.12500000000E+03 0.  0.
        -11    1    3    3    0    0 -0.34976404147E+02  0.77039030204E+01  0.86987143378E+01  0.36856025290E+02  0.51100000000E-03 0.  1.
         23    2    1    0    0    0 -0.61020663986E+01 -0.15302092136E+02 -0.30270810441E+02  0.90536813803E+02  0.83720985725E+02 0.  0.
         11    1    3    3    0    0  0.28874337748E+02 -0.23005995157E+02 -0.38969524779E+02  0.53680788513E+02  0.51100000000E-03 0. -1.
         22    1    1    0    0    0  0.61020663986E+01  0.15302092136E+02  0.30270810441E+02  0.34463186197E+02  0.00000000000E+00 0. -1.
</event>
<event>
 5    1  0.8907853E-005  0.9118800E+02  0.7818608E-02  0.1130116E+00
         25   -1    0    0    0    0  0.00000000000E+00  0.00000000000E+00  0.99999998245E-14  0.12500000000E+03  0.12500000000E+03 0.  0.
        -11    1    3    3    0    0  0.12836945701E+02 -0.37821217818E+02  0.45852532873E+02  0.60808605175E+02  0.51100000000E-03 0.  1.
         23    2    1    0    0    0  0.40668726228E+01 -0.10197925884E+02  0.28187265769E+02  0.94750056252E+02  0.89791503289E+02 0.  0.
         11    1    3    3    0    0 -0.87700730784E+01  0.27623291934E+02 -0.17665267105E+02  0.33941451077E+02  0.51100000000E-03 0. -1.
         22    1    1    0    0    0 -0.40668726228E+01  0.10197925884E+02 -0.28187265769E+02  0.30249943748E+02  0.00000000000E+00 0.  1.
</event>
<event>
 5    1  0.8907853E-005  0.9118800E+02  0.7818608E-02  0.1130116E+00
         25   -1    0    0    0    0  0.00000000000E+00  0.00000000000E+00  0.99999998245E-14  0.12500000000E+03  0.12500000000E+03 0.  0.
        -11    1    3    3    0    0  0.10380332765E+02 -0.11691619588E+01  0.39000370658E+02  0.40375080925E+02  0.51100000000E-03 0. -1.
         23    2    1    0    0    0  0.17104857373E+02  0.21750468297E+02 -0.10553502012E+02  0.95385216165E+02  0.90671406966E+02 0.  0.
         11    1    3    3    0    0  0.67245246081E+01  0.22919630255E+02 -0.49553872670E+02  0.55010135240E+02  0.51100000000E-03 0.  1.
         22    1    1    0    0    0 -0.17104857373E+02 -0.21750468297E+02  0.10553502012E+02  0.29614783835E+02  0.00000000000E+00 0.  1.
</event>
<event>
 5    1  0.8907853E-005  0.9118800E+02  0.7818608E-02  0.1130116E+00
         25   -1    0    0    0    0  0.00000000000E+00  0.00000000000E+00  0.99999998245E-14  0.12500000000E+03  0.12500000000E+03 0.  0.
        -11    1    3    3    0    0 -0.22154601158E+02  0.28089066944E+02 -0.13120814629E+01  0.35798653499E+02  0.51100000000E-03 0.  1.
         23    2    1    0    0    0  0.25641209029E+02 -0.10549176548E+02 -0.84757605218E+00  0.97260585596E+02  0.93220954721E+02 0.  0.
         11    1    3    3    0    0  0.47795810187E+02 -0.38638243493E+02  0.46450541070E+00  0.61461932098E+02  0.51100000000E-03 0. -1.
         22    1    1    0    0    0 -0.25641209029E+02  0.10549176548E+02  0.84757605218E+00  0.27739414404E+02  0.00000000000E+00 0. -1.
</event>
<event>
 5    1  0.8907853E-005  0.9118800E+02  0.7818608E-02  0.1130116E+00
         25   -1    0    0    0    0  0.00000000000E+00  0.00000000000E+00  0.99999998245E-14  0.12500000000E+03  0.12500000000E+03 0.  0.
        -11    1    3    3    0    0 -0.25007419559E+02  0.13702701464E+02  0.52678338792E+02  0.59901105487E+02  0.51100000000E-03 0. -1.
         23    2    1    0    0    0 -0.21774250612E+02  0.87860155720E+01  0.17124365729E+02  0.95938755000E+02  0.91431333524E+02 0.  0.
         11    1    3    3    0    0  0.32331689475E+01 -0.49166858921E+01 -0.35553973063E+02  0.36037649513E+02  0.51100000000E-03 0.  1.
         22    1    1    0    0    0  0.21774250612E+02 -0.87860155720E+01 -0.17124365729E+02  0.29061245000E+02  0.00000000000E+00 0. -1.
</event>
<event>
 5    1  0.8907853E-005  0.9118800E+02  0.7818608E-02  0.1130116E+00
         25   -1    0    0    0    0  0.00000000000E+00  0.00000000000E+00  0.99999998245E-14  0.12500000000E+03  0.12500000000E+03 0.  0.
        -11    1    3    3    0    0 -0.49326742830E+02 -0.43652747891E+01 -0.35798990185E+02  0.61104426032E+02  0.51100000000E-03 0.  1.
         23    2    1    0    0    0 -0.22227039031E+02  0.73368248954E+01 -0.15741288412E+02  0.96792582102E+02  0.92591282124E+02 0.  0.
         11    1    3    3    0    0  0.27099703799E+02  0.11702099685E+02  0.20057701773E+02  0.35688156070E+02  0.51100000000E-03 0. -1.
         22    1    1    0    0    0  0.22227039031E+02 -0.73368248954E+01  0.15741288412E+02  0.28207417898E+02  0.00000000000E+00 0.  1.
</event>
<event>
 5    1  0.8907853E-005  0.9118800E+02  0.7818608E-02  0.1130116E+00
         25   -1    0    0    0    0  0.00000000000E+00  0.00000000000E+00  0.99999998245E-14  0.12500000000E+03  0.12500000000E+03 0.  0.
        -11    1    3    3    0    0  0.54074702210E+02 -0.12160963432E+02 -0.20058953597E+02  0.58943397174E+02  0.51100000000E-03 0. -1.
         23    2    1    0    0    0  0.29665651930E+02  0.68788149691E+01 -0.27177685880E+01  0.94426232389E+02  0.89339566247E+02 0.  0.
         11    1    3    3    0    0 -0.24409050280E+02  0.19039778401E+02  0.17341185010E+02  0.35482835215E+02  0.51100000000E-03 0.  1.
         22    1    1    0    0    0 -0.29665651930E+02 -0.68788149691E+01  0.27177685880E+01  0.30573767611E+02  0.00000000000E+00 0. -1.
</event>
<event>
 5    1  0.8907853E-005  0.9118800E+02  0.7818608E-02  0.1130116E+00
         25   -1    0    0    0    0  0.00000000000E+00  0.00000000000E+00  0.99999998245E-14  0.12500000000E+03  0.12500000000E+03 0.  0.
        -11    1    3    3    0    0  0.31523752260E+02 -0.32915218245E+02  0.36601650679E+02  0.58453737103E+02  0.51100000000E-03 0.  1.
         23    2    1    0    0    0  0.12571182538E+02 -0.24811179279E+02  0.41793045657E+01  0.96873574093E+02  0.92700558376E+02 0.  0.
         11    1    3    3    0    0 -0.18952569722E+02  0.81040389659E+01 -0.32422346113E+02  0.38419836990E+02  0.51100000000E-03 0. -1.
         22    1    1    0    0    0 -0.12571182538E+02  0.24811179279E+02 -0.41793045657E+01  0.28126425907E+02  0.00000000000E+00 0.  1.
</event>
<event>
 5    1  0.8907853E-005  0.9118800E+02  0.7818608E-02  0.1130116E+00
         25   -1    0    0    0    0  0.00000000000E+00  0.00000000000E+00  0.99999998245E-14  0.12500000000E+03  0.12500000000E+03 0.  0.
        -11    1    3    3    0    0 -0.30212654296E+02 -0.46941547859E+02  0.23576838587E+01  0.55873715363E+02  0.51100000000E-03 0.  1.
         23    2    1    0    0    0  0.58498097430E+01 -0.24801930941E+02  0.73380500441E+01  0.98482024381E+02  0.94844641891E+02 0.  0.
         11    1    3    3    0    0  0.36062464039E+02  0.22139616918E+02  0.49803661854E+01  0.42608309018E+02  0.51100000000E-03 0. -1.
         22    1    1    0    0    0 -0.58498097430E+01  0.24801930941E+02 -0.73380500441E+01  0.26517975619E+02  0.00000000000E+00 0.  1.
</event>
<event>
 5    1  0.8907853E-005  0.9118800E+02  0.7818608E-02  0.1130116E+00
         25   -1    0    0    0    0  0.00000000000E+00  0.00000000000E+00  0.99999998245E-14  0.12500000000E+03  0.12500000000E+03 0.  0.
        -11    1    3    3    0    0  0.44337575019E+02  0.36700902108E+02 -0.13958467824E+02  0.59225126411E+02  0.51100000000E-03 0. -1.
         23    2    1    0    0    0  0.15002823696E+02  0.86850196726E+00 -0.12328000078E+02  0.10556244356E+03  0.10375746185E+03 0.  0.
         11    1    3    3    0    0 -0.29334751324E+02 -0.35832400141E+02  0.16304677460E+01  0.46337317147E+02  0.51100000000E-03 0.  1.
         22    1    1    0    0    0 -0.15002823696E+02 -0.86850196726E+00  0.12328000078E+02  0.19437556442E+02  0.00000000000E+00 0. -1.
</event>
<event>
 5    1  0.8907853E-005  0.9118800E+02  0.7818608E-02  0.1130116E+00
         25   -1    0    0    0    0  0.00000000000E+00  0.00000000000E+00  0.99999998245E-14  0.12500000000E+03  0.12500000000E+03 0.  0.
        -11    1    3    3    0    0 -0.19185021020E+01 -0.57192177725E+01 -0.43871959862E+02  0.44284748669E+02  0.51100000000E-03 0. -1.
         23    2    1    0    0    0  0.28262291615E+02 -0.24093399868E+01 -0.41491423125E+02  0.74739675295E+02  0.55316533005E+02 0.  0.
         11    1    3    3    0    0  0.30180793717E+02  0.33098777857E+01  0.23805367371E+01  0.30454926626E+02  0.51100000000E-03 0.  1.
         22    1    1    0    0    0 -0.28262291615E+02  0.24093399868E+01  0.41491423125E+02  0.50260324705E+02  0.00000000000E+00 0. -1.
</event>
<event>
 5    1  0.8907853E-005  0.9118800E+02  0.7818608E-02  0.1130116E+00
         25   -1    0    0    0    0  0.00000000000E+00  0.00000000000E+00  0.99999998245E-14  0.12500000000E+03  0.12500000000E+03 0.  0.
        -11    1    3    3    0    0 -0.31043972526E+02 -0.14006856839E+02  0.63066024077E+01  0.34636591964E+02  0.51100000000E-03 0. -1.
         23    2    1    0    0    0  0.23441630975E+02  0.15510212952E+02  0.35902215413E+01  0.96663337189E+02  0.92416634310E+02 0.  0.
         11    1    3    3    0    0  0.54485603501E+02  0.29517069791E+02 -0.27163808664E+01  0.62026745225E+02  0.51100000000E-03 0.  1.
         22    1    1    0    0    0 -0.23441630975E+02 -0.15510212952E+02 -0.35902215413E+01  0.28336662811E+02  0.00000000000E+00 0.  1.
</event>
<event>
 5    1  0.8907853E-005  0.9118800E+02  0.7818608E-02  0.1130116E+00
         25   -1    0    0    0    0  0.00000000000E+00  0.00000000000E+00  0.99999998245E-14  0.12500000000E+03  0.12500000000E+03 0.  0.
        -11    1    3    3    0    0  0.35114196989E+02 -0.49401050568E+02  0.54202862581E+01  0.60851048723E+02  0.51100000000E-03 0. -1.
         23    2    1    0    0    0  0.26894028258E+02 -0.22877660462E+02  0.81821491264E+01  0.88756053354E+02  0.81018598719E+02 0.  0.
         11    1    3    3    0    0 -0.82201687308E+01  0.26523390106E+02  0.27618628684E+01  0.27905004630E+02  0.51100000000E-03 0.  1.
         22    1    1    0    0    0 -0.26894028258E+02  0.22877660462E+02 -0.81821491264E+01  0.36243946646E+02  0.00000000000E+00 0. -1.
</event>
<event>
 5    1  0.8907853E-005  0.9118800E+02  0.7818608E-02  0.1130116E+00
         25   -1    0    0    0    0  0.00000000000E+00  0.00000000000E+00  0.99999998245E-14  0.12500000000E+03  0.12500000000E+03 0.  0.
        -11    1    3    3    0    0 -0.32254284659E+02  0.10294496134E+02 -0.41031438472E+02  0.53196752466E+02  0.51100000000E-03 0. -1.
         23    2    1    0    0    0 -0.72865696078E+01 -0.18144969492E+02 -0.22031822209E+02  0.95542654492E+02  0.90888192979E+02 0.  0.
         11    1    3    3    0    0  0.24967715052E+02 -0.28439465626E+02  0.18999616263E+02  0.42345902026E+02  0.51100000000E-03 0.  1.
         22    1    1    0    0    0  0.72865696078E+01  0.18144969492E+02  0.22031822209E+02  0.29457345508E+02  0.00000000000E+00 0. -1.
</event>
<event>
 5    1  0.8907853E-005  0.9118800E+02  0.7818608E-02  0.1130116E+00
         25   -1    0    0    0    0  0.00000000000E+00  0.00000000000E+00  0.99999998245E-14  0.12500000000E+03  0.12500000000E+03 0.  0.
        -11    1    3    3    0    0 -0.44400409677E+02  0.73470607311E+01  0.13762166599E+02  0.47061373871E+02  0.51100000000E-03 0.  1.
         23    2    1    0    0    0  0.26426185100E+01  0.25005069523E+02  0.11474265608E+02  0.97361336761E+02  0.93355954230E+02 0.  0.
         11    1    3    3    0    0  0.47043028187E+02  0.17658008791E+02 -0.22879009909E+01  0.50299962890E+02  0.51100000000E-03 0. -1.
         22    1    1    0    0    0 -0.26426185100E+01 -0.25005069523E+02 -0.11474265608E+02  0.27638663239E+02  0.00000000000E+00 0. -1.
</event>
<event>
 5    1  0.8907853E-005  0.9118800E+02  0.7818608E-02  0.1130116E+00
         25   -1    0    0    0    0  0.00000000000E+00  0.00000000000E+00  0.99999998245E-14  0.12500000000E+03  0.12500000000E+03 0.  0.
        -11    1    3    3    0    0 -0.10590708225E+02  0.12136527057E+02  0.33724603350E+02  0.37373884747E+02  0.51100000000E-03 0.  1.
         23    2    1    0    0    0  0.28281080738E+02  0.15251921037E+01 -0.81919086033E+01  0.95516901364E+02  0.90852767382E+02 0.  0.
         11    1    3    3    0    0  0.38871788963E+02 -0.10611334954E+02 -0.41916511953E+02  0.58143016616E+02  0.51100000000E-03 0. -1.
         22    1    1    0    0    0 -0.28281080738E+02 -0.15251921037E+01  0.81919086033E+01  0.29483098636E+02  0.00000000000E+00 0. -1.
</event>
<event>
 5    1  0.8907853E-005  0.9118800E+02  0.7818608E-02  0.1130116E+00
         25   -1    0    0    0    0  0.00000000000E+00  0.00000000000E+00  0.99999998245E-14  0.12500000000E+03  0.12500000000E+03 0.  0.
        -11    1    3    3    0    0 -0.73030286163E+01 -0.30875811236E+02  0.39231246867E+01  0.31969373689E+02  0.51100000000E-03 0. -1.
         23    2    1    0    0    0  0.16497377425E+02  0.26101072136E+02  0.49620536525E+01  0.93726186594E+02  0.88354663988E+02 0.  0.
         11    1    3    3    0    0  0.23800406041E+02  0.56976883372E+02  0.10389289659E+01  0.61756812905E+02  0.51100000000E-03 0.  1.
         22    1    1    0    0    0 -0.16497377425E+02 -0.26101072136E+02 -0.49620536525E+01  0.31273813406E+02  0.00000000000E+00 0.  1.
</event>
<event>
 5    1  0.8907853E-005  0.9118800E+02  0.7818608E-02  0.1130116E+00
         25   -1    0    0    0    0  0.00000000000E+00  0.00000000000E+00  0.99999998245E-14  0.12500000000E+03  0.12500000000E+03 0.  0.
        -11    1    3    3    0    0  0.42267945282E+02  0.36198417132E+02 -0.20999091947E+02  0.59479966914E+02  0.51100000000E-03 0.  1.
         23    2    1    0    0    0  0.98399256080E+01  0.26413941752E+02 -0.91432882346E+01  0.95366907442E+02  0.90646162966E+02 0.  0.
         11    1    3    3    0    0 -0.32428019674E+02 -0.97844753808E+01  0.11855803713E+02  0.35886940527E+02  0.51100000000E-03 0. -1.
         22    1    1    0    0    0 -0.98399256080E+01 -0.26413941752E+02  0.91432882346E+01  0.29633092558E+02  0.00000000000E+00 0.  1.
</event>
<event>
 5    1  0.8907853E-005  0.9118800E+02  0.7818608E-02  0.1130116E+00
         25   -1    0    0    0    0  0.00000000000E+00  0.00000000000E+00  0.99999998245E-14  0.12500000000E+03  0.12500000000E+03 0.  0.
        -11    1    3    3    0    0  0.45104462777E+02  0.12459257165E+02  0.68122093375E+01  0.47286909899E+02  0.51100000000E-03 0.  1.
         23    2    1    0    0    0 -0.13101494016E+01  0.27610188790E+02  0.83158818011E+01  0.96134918905E+02  0.91699126094E+02 0.  0.
         11    1    3    3    0    0 -0.46414612178E+02  0.15150931625E+02  0.15036724636E+01  0.48848009006E+02  0.51100000000E-03 0. -1.
         22    1    1    0    0    0  0.13101494016E+01 -0.27610188790E+02 -0.83158818011E+01  0.28865081095E+02  0.00000000000E+00 0. -1.
</event>
<event>
 5    1  0.8907853E-005  0.9118800E+02  0.7818608E-02  0.1130116E+00
         25   -1    0    0    0    0  0.00000000000E+00  0.00000000000E+00  0.99999998245E-14  0.12500000000E+03  0.12500000000E+03 0.  0.
        -11    1    3    3    0    0 -0.23548257913E+02 -0.12185950160E+02  0.11772068667E+02  0.29010333211E+02  0.51100000000E-03 0. -1.
         23    2    1    0    0    0 -0.95933201904E+01  0.83545930213E+01 -0.38159414236E+02  0.84775978425E+02  0.74625696689E+02 0.  0.
         11    1    3    3    0    0  0.13954937723E+02  0.20540543182E+02 -0.49931482903E+02  0.55765645214E+02  0.51100000000E-03 0.  1.
         22    1    1    0    0    0  0.95933201904E+01 -0.83545930213E+01  0.38159414236E+02  0.40224021575E+02  0.00000000000E+00 0.  1.
</event>
<event>
 5    1  0.8907853E-005  0.9118800E+02  0.7818608E-02  0.1130116E+00
         25   -1    0    0    0    0  0.00000000000E+00  0.00000000000E+00  0.99999998245E-14  0.12500000000E+03  0.12500000000E+03 0.  0.
        -11    1    3    3    0    0 -0.13444363386E+02 -0.72896306670E+01  0.31385126953E+02  0.34912974898E+02  0.51100000000E-03 0.  1.
         23    2    1    0    0    0  0.53521664399E+01 -0.11733945947E+02 -0.26279512268E+02  0.95726395198E+02  0.91140544213E+02 0.  0.
         11    1    3    3    0    0  0.18796529826E+02 -0.44443152797E+01 -0.57664639221E+02  0.60813420300E+02  0.51100000000E-03 0. -1.
         22    1    1    0    0    0 -0.53521664399E+01  0.11733945947E+02  0.26279512268E+02  0.29273604802E+02  0.00000000000E+00 0. -1.
</event>
<event>
 5    1  0.8907853E-005  0.9118800E+02  0.7818608E-02  0.1130116E+00
         25   -1    0    0    0    0  0.00000000000E+00  0.00000000000E+00  0.99999998245E-14  0.12500000000E+03  0.12500000000E+03 0.  0.
        -11    1    3    3    0    0 -0.21690034099E+02 -0.32199580038E+02  0.23493306632E+02  0.45378474970E+02  0.51100000000E-03 0. -1.
         23    2    1    0    0    0 -0.20273966999E+02  0.17009969224E+02  0.12051846404E+02  0.95920457489E+02  0.91406314728E+02 0.  0.
         11    1    3    3    0    0  0.14160671001E+01  0.49209549262E+02 -0.11441460227E+02  0.50541982519E+02  0.51100000000E-03 0.  1.
         22    1    1    0    0    0  0.20273966999E+02 -0.17009969224E+02 -0.12051846404E+02  0.29079542511E+02  0.00000000000E+00 0. -1.
</event>
<event>
 5    1  0.8907853E-005  0.9118800E+02  0.7818608E-02  0.1130116E+00
         25   -1    0    0    0    0  0.00000000000E+00  0.00000000000E+00  0.99999998245E-14  0.12500000000E+03  0.12500000000E+03 0.  0.
        -11    1    3    3    0    0  0.30876057675E+02  0.27768269564E+02 -0.39553738197E+01  0.41713939091E+02  0.51100000000E-03 0. -1.
         23    2    1    0    0    0 -0.45067405211E+00  0.56011576863E+01  0.30922220011E+02  0.93571354389E+02  0.88135342498E+02 0.  0.
         11    1    3    3    0    0 -0.31326731727E+02 -0.22167111878E+02  0.34877593831E+02  0.51857415298E+02  0.51100000000E-03 0.  1.
         22    1    1    0    0    0  0.45067405211E+00 -0.56011576863E+01 -0.30922220011E+02  0.31428645611E+02  0.00000000000E+00 0.  1.
</event>
<event>
 5    1  0.8907853E-005  0.9118800E+02  0.7818608E-02  0.1130116E+00
         25   -1    0    0    0    0  0.00000000000E+00  0.00000000000E+00  0.99999998245E-14  0.12500000000E+03  0.12500000000E+03 0.  0.
        -11    1    3    3    0    0  0.47590779030E+02  0.34229256208E+02  0.13288425764E+02  0.60109121511E+02  0.51100000000E-03 0.  1.
         23    2    1    0    0    0  0.19502896770E+02  0.24581898458E+02 -0.20872685092E+01  0.93551798079E+02  0.88107601941E+02 0.  0.
         11    1    3    3    0    0 -0.28087882260E+02 -0.96473577505E+01 -0.15375694273E+02  0.33442676569E+02  0.51100000000E-03 0. -1.
         22    1    1    0    0    0 -0.19502896770E+02 -0.24581898458E+02  0.20872685092E+01  0.31448201921E+02  0.00000000000E+00 0.  1.
</event>
<event>
 5    1  0.8907853E-005  0.9118800E+02  0.7818608E-02  0.1130116E+00
         25   -1    0    0    0    0  0.00000000000E+00  0.00000000000E+00  0.99999998245E-14  0.12500000000E+03  0.12500000000E+03 0.  0.
        -11    1    3    3    0    0 -0.32580286900E+02 -0.36133323546E+02  0.28773497462E+02  0.56524386962E+02  0.51100000000E-03 0. -1.
         23    2    1    0    0    0  0.34499752920E+01 -0.23495714796E+02  0.13771377428E+02  0.97548191689E+02  0.93605811370E+02 0.  0.
         11    1    3    3    0    0  0.36030262192E+02  0.12637608750E+02 -0.15002120034E+02  0.41023804727E+02  0.51100000000E-03 0.  1.
         22    1    1    0    0    0 -0.34499752920E+01  0.23495714796E+02 -0.13771377428E+02  0.27451808311E+02  0.00000000000E+00 0. -1.
</event>
<event>
 5    1  0.8907853E-005  0.9118800E+02  0.7818608E-02  0.1130116E+00
         25   -1    0    0    0    0  0.00000000000E+00  0.00000000000E+00  0.99999998245E-14  0.12500000000E+03  0.12500000000E+03 0.  0.
        -11    1    3    3    0    0  0.21313248614E+02 -0.25181210751E+02 -0.32430241512E+02  0.46260874464E+02  0.51100000000E-03 0. -1.
         23    2    1    0    0    0 -0.19857782462E+02 -0.20604887972E+02 -0.21795168635E+02  0.89028868401E+02  0.81438425208E+02 0.  0.
         11    1    3    3    0    0 -0.41171031076E+02  0.45763227790E+01  0.10635072877E+02  0.42767993937E+02  0.51100000000E-03 0.  1.
         22    1    1    0    0    0  0.19857782462E+02  0.20604887972E+02  0.21795168635E+02  0.35971131599E+02  0.00000000000E+00 0.  1.
</event>
<event>
 5    1  0.8907853E-005  0.9118800E+02  0.7818608E-02  0.1130116E+00
         25   -1    0    0    0    0  0.00000000000E+00  0.00000000000E+00  0.99999998245E-14  0.12500000000E+03  0.12500000000E+03 0.  0.
        -11    1    3    3    0    0 -0.14042678399E+01  0.10288600007E+01  0.40089273618E+02  0.40127052976E+02  0.51100000000E-03 0.  1.
         23    2    1    0    0    0  0.13792321363E+02  0.23067268494E+02 -0.95112488813E+01  0.96490512813E+02  0.92182580802E+02 0.  0.
         11    1    3    3    0    0  0.15196589203E+02  0.22038408494E+02 -0.49600522499E+02  0.56363459837E+02  0.51100000000E-03 0. -1.
         22    1    1    0    0    0 -0.13792321363E+02 -0.23067268494E+02  0.95112488813E+01  0.28509487187E+02  0.00000000000E+00 0. -1.
</event>
<event>
 5    1  0.8907853E-005  0.9118800E+02  0.7818608E-02  0.1130116E+00
         25   -1    0    0    0    0  0.00000000000E+00  0.00000000000E+00  0.99999998245E-14  0.12500000000E+03  0.12500000000E+03 0.  0.
        -11    1    3    3    0    0 -0.13683444190E+02 -0.35146770263E+02  0.49940051997E+01  0.38045659319E+02  0.51100000000E-03 0.  1.
         23    2    1    0    0    0 -0.13725769596E+02  0.18591224735E+02 -0.17206243082E+02  0.96188800977E+02  0.91772546245E+02 0.  0.
         11    1    3    3    0    0 -0.42325405471E-01  0.53737994998E+02 -0.22200248282E+02  0.58143141658E+02  0.51100000000E-03 0. -1.
         22    1    1    0    0    0  0.13725769596E+02 -0.18591224735E+02  0.17206243082E+02  0.28811199023E+02  0.00000000000E+00 0. -1.
</event>
<event>
 5    1  0.8907853E-005  0.9118800E+02  0.7818608E-02  0.1130116E+00
         25   -1    0    0    0    0  0.00000000000E+00  0.00000000000E+00  0.99999998245E-14  0.12500000000E+03  0.12500000000E+03 0.  0.
        -11    1    3    3    0    0  0.30751241965E+02  0.16119932431E+01 -0.28178126077E+02  0.41740198779E+02  0.51100000000E-03 0.  1.
         23    2    1    0    0    0 -0.12496277530E+02 -0.24715477167E+02 -0.90494431177E+01  0.95864039669E+02  0.91329129620E+02 0.  0.
         11    1    3    3    0    0 -0.43247519495E+02 -0.26327470410E+02  0.19128682960E+02  0.54123840890E+02  0.51100000000E-03 0. -1.
         22    1    1    0    0    0  0.12496277530E+02  0.24715477167E+02  0.90494431177E+01  0.29135960331E+02  0.00000000000E+00 0. -1.
</event>
<event>
 5    1  0.8907853E-005  0.9118800E+02  0.7818608E-02  0.1130116E+00
         25   -1    0    0    0    0  0.00000000000E+00  0.00000000000E+00  0.99999998245E-14  0.12500000000E+03  0.12500000000E+03 0.  0.
        -11    1    3    3    0    0 -0.22657704565E+02  0.40772037124E+02  0.40853321355E+02  0.62005842090E+02  0.51100000000E-03 0. -1.
         23    2    1    0    0    0 -0.13355420511E+02  0.14958625792E+02  0.21607412575E+02  0.95521058011E+02  0.90858486135E+02 0.  0.
         11    1    3    3    0    0  0.93022840534E+01 -0.25813411332E+02 -0.19245908780E+02  0.33515215921E+02  0.51100000000E-03 0.  1.
         22    1    1    0    0    0  0.13355420511E+02 -0.14958625792E+02 -0.21607412575E+02  0.29478941989E+02  0.00000000000E+00 0. -1.
</event>
<event>
 5    1  0.8907853E-005  0.9118800E+02  0.7818608E-02  0.1130116E+00
         25   -1    0    0    0    0  0.00000000000E+00  0.00000000000E+00  0.99999998245E-14  0.12500000000E+03  0.12500000000E+03 0.  0.
        -11    1    3    3    0    0 -0.33528465523E+02  0.25626484895E+02 -0.31213594703E+02  0.52489648722E+02  0.51100000000E-03 0.  1.
         23    2    1    0    0    0 -0.31357580943E+02  0.23852769082E+01  0.24524696673E+01  0.93456347136E+02  0.87972079571E+02 0.  0.
         11    1    3    3    0    0  0.21708845797E+01 -0.23241207987E+02  0.33666064370E+02  0.40966698415E+02  0.51100000000E-03 0. -1.
         22    1    1    0    0    0  0.31357580943E+02 -0.23852769082E+01 -0.24524696673E+01  0.31543652864E+02  0.00000000000E+00 0.  1.
</event>
<event>
 5    1  0.8907853E-005  0.9118800E+02  0.7818608E-02  0.1130116E+00
         25   -1    0    0    0    0  0.00000000000E+00  0.00000000000E+00  0.99999998245E-14  0.12500000000E+03  0.12500000000E+03 0.  0.
        -11    1    3    3    0    0 -0.30615124599E+02 -0.22476247646E+02  0.90077887852E+01  0.39033419291E+02  0.51100000000E-03 0.  1.
         23    2    1    0    0    0 -0.51327902289E+01  0.26890813398E+02  0.12922460769E+02  0.94727052124E+02  0.89759473211E+02 0.  0.
         11    1    3    3    0    0  0.25482334370E+02  0.49367061045E+02  0.39146719841E+01  0.55693632833E+02  0.51100000000E-03 0. -1.
         22    1    1    0    0    0  0.51327902289E+01 -0.26890813398E+02 -0.12922460769E+02  0.30272947876E+02  0.00000000000E+00 0. -1.
</event>
<event>
 5    1  0.8907853E-005  0.9118800E+02  0.7818608E-02  0.1130116E+00
         25   -1    0    0    0    0  0.00000000000E+00  0.00000000000E+00  0.99999998245E-14  0.12500000000E+03  0.12500000000E+03 0.  0.
        -11    1    3    3    0    0  0.20454331414E+02  0.35836540970E+02  0.98294106675E+01  0.42417622006E+02  0.51100000000E-03 0.  1.
         23    2    1    0    0    0 -0.20368220821E+02 -0.73379336592E+00  0.17971764470E+02  0.97826719184E+02  0.93977017382E+02 0.  0.
         11    1    3    3    0    0 -0.40822552235E+02 -0.36570334336E+02  0.81423538025E+01  0.55409097179E+02  0.51100000000E-03 0. -1.
         22    1    1    0    0    0  0.20368220821E+02  0.73379336592E+00 -0.17971764470E+02  0.27173280816E+02  0.00000000000E+00 0. -1.
</event>
<event>
 5    1  0.8907853E-005  0.9118800E+02  0.7818608E-02  0.1130116E+00
         25   -1    0    0    0    0  0.00000000000E+00  0.00000000000E+00  0.99999998245E-14  0.12500000000E+03  0.12500000000E+03 0.  0.
        -11    1    3    3    0    0  0.34694985627E+02 -0.30700925320E+01  0.38215713897E+01  0.35039576252E+02  0.51100000000E-03 0. -1.
         23    2    1    0    0    0 -0.87200202464E+01  0.27448046310E+01 -0.32059701260E+02  0.91662376353E+02  0.85384975776E+02 0.  0.
         11    1    3    3    0    0 -0.43415005873E+02  0.58148971630E+01 -0.35881272650E+02  0.56622800100E+02  0.51100000000E-03 0.  1.
         22    1    1    0    0    0  0.87200202464E+01 -0.27448046310E+01  0.32059701260E+02  0.33337623647E+02  0.00000000000E+00 0.  1.
</event>
<event>
 5    1  0.8907853E-005  0.9118800E+02  0.7818608E-02  0.1130116E+00
         25   -1    0    0    0    0  0.00000000000E+00  0.00000000000E+00  0.99999998245E-14  0.12500000000E+03  0.12500000000E+03 0.  0.
        -11    1    3    3    0    0 -0.29268956593E+02 -0.15594897062E+02  0.17654881978E+02  0.37570833000E+02  0.51100000000E-03 0.  1.
         23    2    1    0    0    0 -0.14830889758E+02  0.15357562360E+02 -0.24941336402E+02  0.92168912991E+02  0.86123331611E+02 0.  0.
         11    1    3    3    0    0  0.14438066835E+02  0.30952459422E+02 -0.42596218380E+02  0.54598079991E+02  0.51100000000E-03 0. -1.
         22    1    1    0    0    0  0.14830889758E+02 -0.15357562360E+02  0.24941336402E+02  0.32831087009E+02  0.00000000000E+00 0. -1.
</event>
<event>
 5    1  0.8907853E-005  0.9118800E+02  0.7818608E-02  0.1130116E+00
         25   -1    0    0    0    0  0.00000000000E+00  0.00000000000E+00  0.99999998245E-14  0.12500000000E+03  0.12500000000E+03 0.  0.
        -11    1    3    3    0    0 -0.34476987946E+02  0.99659437985E+01 -0.20499732238E+02  0.41330639430E+02  0.51100000000E-03 0.  1.
         23    2    1    0    0    0  0.12995129731E+02  0.19971801310E+02  0.10561021572E+02  0.98936972145E+02  0.95442354520E+02 0.  0.
         11    1    3    3    0    0  0.47472117678E+02  0.10005857512E+02  0.31060753810E+02  0.57606332715E+02  0.51100000000E-03 0. -1.
         22    1    1    0    0    0 -0.12995129731E+02 -0.19971801310E+02 -0.10561021572E+02  0.26063027855E+02  0.00000000000E+00 0. -1.
</event>
<event>
 5    1  0.8907853E-005  0.9118800E+02  0.7818608E-02  0.1130116E+00
         25   -1    0    0    0    0  0.00000000000E+00  0.00000000000E+00  0.99999998245E-14  0.12500000000E+03  0.12500000000E+03 0.  0.
        -11    1    3    3    0    0 -0.76704629058E+01  0.28368290030E+02  0.28635736973E+02  0.41031711062E+02  0.51100000000E-03 0.  1.
         23    2    1    0    0    0 -0.28263826632E+02 -0.89854341128E+01 -0.44455044930E+01  0.95010928119E+02  0.90153935188E+02 0.  0.
         11    1    3    3    0    0 -0.20593363726E+02 -0.37353724143E+02 -0.33081241466E+02  0.53979217057E+02  0.51100000000E-03 0. -1.
         22    1    1    0    0    0  0.28263826632E+02  0.89854341128E+01  0.44455044930E+01  0.29989071881E+02  0.00000000000E+00 0. -1.
</event>
<event>
 5    1  0.8907853E-005  0.9118800E+02  0.7818608E-02  0.1130116E+00
         25   -1    0    0    0    0  0.00000000000E+00  0.00000000000E+00  0.99999998245E-14  0.12500000000E+03  0.12500000000E+03 0.  0.
        -11    1    3    3    0    0  0.35119711456E+02  0.73679070791E+01  0.78735431709E+01  0.36737894194E+02  0.51100000000E-03 0. -1.
         23    2    1    0    0    0 -0.22822270279E+02  0.46518980981E+01  0.17926997555E+02  0.95608276370E+02  0.90978399043E+02 0.  0.
         11    1    3    3    0    0 -0.57941981735E+02 -0.27160089810E+01  0.10053454384E+02  0.58870382176E+02  0.51100000000E-03 0.  1.
         22    1    1    0    0    0  0.22822270279E+02 -0.46518980981E+01 -0.17926997555E+02  0.29391723630E+02  0.00000000000E+00 0.  1.
</event>
<event>
 5    1  0.8907853E-005  0.9118800E+02  0.7818608E-02  0.1130116E+00
         25   -1    0    0    0    0  0.00000000000E+00  0.00000000000E+00  0.99999998245E-14  0.12500000000E+03  0.12500000000E+03 0.  0.
        -11    1    3    3    0    0  0.17500477819E+02 -0.52288124222E+02  0.27391050866E+02  0.61567721465E+02  0.51100000000E-03 0.  1.
         23    2    1    0    0    0  0.89224179840E+01 -0.20838367893E+02  0.19477691132E+02  0.95113086962E+02  0.90295469102E+02 0.  0.
         11    1    3    3    0    0 -0.85780598354E+01  0.31449756330E+02 -0.79133597341E+01  0.33545365496E+02  0.51100000000E-03 0. -1.
         22    1    1    0    0    0 -0.89224179840E+01  0.20838367893E+02 -0.19477691132E+02  0.29886913038E+02  0.00000000000E+00 0.  1.
</event>
<event>
 5    1  0.8907853E-005  0.9118800E+02  0.7818608E-02  0.1130116E+00
         25   -1    0    0    0    0  0.00000000000E+00  0.00000000000E+00  0.99999998245E-14  0.12500000000E+03  0.12500000000E+03 0.  0.
        -11    1    3    3    0    0  0.52995216284E+02 -0.13471154544E+02 -0.29682651119E+01  0.54761076978E+02  0.51100000000E-03 0. -1.
         23    2    1    0    0    0  0.26078000671E+02  0.15210292787E+02  0.34448849388E+01  0.94614438331E+02  0.89602508798E+02 0.  0.
         11    1    3    3    0    0 -0.26917215613E+02  0.28681447330E+02  0.64131500508E+01  0.39853361353E+02  0.51100000000E-03 0.  1.
         22    1    1    0    0    0 -0.26078000671E+02 -0.15210292787E+02 -0.34448849388E+01  0.30385561669E+02  0.00000000000E+00 0. -1.
</event>
<event>
 5    1  0.8907853E-005  0.9118800E+02  0.7818608E-02  0.1130116E+00
         25   -1    0    0    0    0  0.00000000000E+00  0.00000000000E+00  0.99999998245E-14  0.12500000000E+03  0.12500000000E+03 0.  0.
        -11    1    3    3    0    0 -0.24855293229E+02  0.50718354667E+02 -0.23418162065E+02  0.61143662111E+02  0.51100000000E-03 0.  1.
         23    2    1    0    0    0 -0.46271750957E+01  0.23193461088E+02 -0.16934044149E+02  0.95912043079E+02  0.91394807127E+02 0.  0.
         11    1    3    3    0    0  0.20228118133E+02 -0.27524893579E+02  0.64841179160E+01  0.34768380968E+02  0.51100000000E-03 0. -1.
         22    1    1    0    0    0  0.46271750957E+01 -0.23193461088E+02  0.16934044149E+02  0.29087956921E+02  0.00000000000E+00 0.  1.
</event>
<event>
 5    1  0.8907853E-005  0.9118800E+02  0.7818608E-02  0.1130116E+00
         25   -1    0    0    0    0  0.00000000000E+00  0.00000000000E+00  0.99999998245E-14  0.12500000000E+03  0.12500000000E+03 0.  0.
        -11    1    3    3    0    0 -0.17207860774E+02  0.40105177165E+02  0.37164238085E+02  0.57321167997E+02  0.51100000000E-03 0. -1.
         23    2    1    0    0    0 -0.15543672246E+02  0.40190138743E+01  0.24710147515E+02  0.95532227610E+02  0.90873851589E+02 0.  0.
         11    1    3    3    0    0  0.16641885284E+01 -0.36086163291E+02 -0.12454090570E+02  0.38211059613E+02  0.51100000000E-03 0.  1.
         22    1    1    0    0    0  0.15543672246E+02 -0.40190138743E+01 -0.24710147515E+02  0.29467772390E+02  0.00000000000E+00 0. -1.
</event>
<event>
 5    1  0.8907853E-005  0.9118800E+02  0.7818608E-02  0.1130116E+00
         25   -1    0    0    0    0  0.00000000000E+00  0.00000000000E+00  0.99999998245E-14  0.12500000000E+03  0.12500000000E+03 0.  0.
        -11    1    3    3    0    0 -0.34649942136E+02  0.31735765822E+01 -0.30054546776E+00  0.34796270004E+02  0.51100000000E-03 0. -1.
         23    2    1    0    0    0  0.24270235175E+02 -0.55947435230E+01  0.14504693528E+02  0.96177585027E+02  0.91757268141E+02 0.  0.
         11    1    3    3    0    0  0.58920177312E+02 -0.87683201052E+01  0.14805238996E+02  0.61381315022E+02  0.51100000000E-03 0.  1.
         22    1    1    0    0    0 -0.24270235175E+02  0.55947435230E+01 -0.14504693528E+02  0.28822414973E+02  0.00000000000E+00 0.  1.
</event>
<event>
 5    1  0.8907853E-005  0.9118800E+02  0.7818608E-02  0.1130116E+00
         25   -1    0    0    0    0  0.00000000000E+00  0.00000000000E+00  0.99999998245E-14  0.12500000000E+03  0.12500000000E+03 0.  0.
        -11    1    3    3    0    0 -0.10004086553E+02  0.50571948529E+02 -0.31932481706E+00  0.51552940696E+02  0.51100000000E-03 0.  1.
         23    2    1    0    0    0 -0.27304012822E+02  0.97044230670E+01 -0.19096767045E+01  0.95959824236E+02  0.91460133714E+02 0.  0.
         11    1    3    3    0    0 -0.17299926270E+02 -0.40867525462E+02 -0.15903518875E+01  0.44406883540E+02  0.51100000000E-03 0. -1.
         22    1    1    0    0    0  0.27304012822E+02 -0.97044230670E+01  0.19096767045E+01  0.29040175764E+02  0.00000000000E+00 0. -1.
</event>
<event>
 5    1  0.8907853E-005  0.9118800E+02  0.7818608E-02  0.1130116E+00
         25   -1    0    0    0    0  0.00000000000E+00  0.00000000000E+00  0.99999998245E-14  0.12500000000E+03  0.12500000000E+03 0.  0.
        -11    1    3    3    0    0 -0.21145892668E+02 -0.48187868247E+02 -0.25995278033E+02  0.58693900050E+02  0.51100000000E-03 0.  1.
         23    2    1    0    0    0 -0.21316533521E+02 -0.11414982846E+02 -0.11549926289E+02  0.98202663714E+02  0.94475742541E+02 0.  0.
         11    1    3    3    0    0 -0.17064085310E+00  0.36772885401E+02  0.14445351743E+02  0.39508763664E+02  0.51100000000E-03 0. -1.
         22    1    1    0    0    0  0.21316533521E+02  0.11414982846E+02  0.11549926289E+02  0.26797336286E+02  0.00000000000E+00 0.  1.
</event>
<event>
 5    1  0.8907853E-005  0.9118800E+02  0.7818608E-02  0.1130116E+00
         25   -1    0    0    0    0  0.00000000000E+00  0.00000000000E+00  0.99999998245E-14  0.12500000000E+03  0.12500000000E+03 0.  0.
        -11    1    3    3    0    0  0.22598926312E+02 -0.27608175634E+02  0.31455006571E+02  0.47564064912E+02  0.51100000000E-03 0.  1.
         23    2    1    0    0    0  0.19585334579E+02 -0.36345507649E+02 -0.33522997102E+01  0.83577552339E+02  0.72590550934E+02 0.  0.
         11    1    3    3    0    0 -0.30135917333E+01 -0.87373320151E+01 -0.34807306281E+02  0.36013487427E+02  0.51100000000E-03 0. -1.
         22    1    1    0    0    0 -0.19585334579E+02  0.36345507649E+02  0.33522997102E+01  0.41422447661E+02  0.00000000000E+00 0.  1.
</event>
<event>
 5    1  0.8907853E-005  0.9118800E+02  0.7818608E-02  0.1130116E+00
         25   -1    0    0    0    0  0.00000000000E+00  0.00000000000E+00  0.99999998245E-14  0.12500000000E+03  0.12500000000E+03 0.  0.
        -11    1    3    3    0    0 -0.21905560731E+02  0.56144386929E+02 -0.11103047319E+02  0.61280693816E+02  0.51100000000E-03 0.  1.
         23    2    1    0    0    0 -0.17282871630E+02  0.22377645912E+02 -0.85639725781E+01  0.95456839799E+02  0.90770093917E+02 0.  0.
         11    1    3    3    0    0  0.46226891011E+01 -0.33766741017E+02  0.25390747406E+01  0.34176145983E+02  0.51100000000E-03 0. -1.
         22    1    1    0    0    0  0.17282871630E+02 -0.22377645912E+02  0.85639725781E+01  0.29543160201E+02  0.00000000000E+00 0.  1.
</event>
<event>
 5    1  0.8907853E-005  0.9118800E+02  0.7818608E-02  0.1130116E+00
         25   -1    0    0    0    0  0.00000000000E+00  0.00000000000E+00  0.99999998245E-14  0.12500000000E+03  0.12500000000E+03 0.  0.
        -11    1    3    3    0    0  0.21361952839E+02 -0.31358043002E+01  0.34338036027E+02  0.40561891181E+02  0.51100000000E-03 0.  1.
         23    2    1    0    0    0 -0.22538352455E+02  0.15055671917E+02  0.24597800471E+01  0.97784175446E+02  0.93920412379E+02 0.  0.
         11    1    3    3    0    0 -0.43900305295E+02  0.18191476217E+02 -0.31878255980E+02  0.57222284265E+02  0.51100000000E-03 0. -1.
         22    1    1    0    0    0  0.22538352455E+02 -0.15055671917E+02 -0.24597800471E+01  0.27215824554E+02  0.00000000000E+00 0. -1.
</event>
<event>
 5    1  0.8907853E-005  0.9118800E+02  0.7818608E-02  0.1130116E+00
         25   -1    0    0    0    0  0.00000000000E+00  0.00000000000E+00  0.99999998245E-14  0.12500000000E+03  0.12500000000E+03 0.  0.
        -11    1    3    3    0    0  0.40141665510E+02 -0.23117791256E+02  0.18095871474E+01  0.46357957121E+02  0.51100000000E-03 0.  1.
         23    2    1    0    0    0  0.35432266318E+01 -0.14865984004E+02 -0.27212265215E+02  0.93790076682E+02  0.88445006476E+02 0.  0.
         11    1    3    3    0    0 -0.36598438879E+02  0.82518072523E+01 -0.29021852362E+02  0.47432119561E+02  0.51100000000E-03 0. -1.
         22    1    1    0    0    0 -0.35432266318E+01  0.14865984004E+02  0.27212265215E+02  0.31209923318E+02  0.00000000000E+00 0.  1.
</event>
<event>
 5    1  0.8907853E-005  0.9118800E+02  0.7818608E-02  0.1130116E+00
         25   -1    0    0    0    0  0.00000000000E+00  0.00000000000E+00  0.99999998245E-14  0.12500000000E+03  0.12500000000E+03 0.  0.
        -11    1    3    3    0    0 -0.72161481695E+01  0.95109562270E-01 -0.39672956082E+02  0.40324003829E+02  0.51100000000E-03 0. -1.
         23    2    1    0    0    0 -0.42503191860E+01  0.23481788413E+02  0.12851477819E+02  0.97896124218E+02  0.94069288584E+02 0.  0.
         11    1    3    3    0    0  0.29658289835E+01  0.23386678851E+02  0.52524433901E+02  0.57572120389E+02  0.51100000000E-03 0.  1.
         22    1    1    0    0    0  0.42503191860E+01 -0.23481788413E+02 -0.12851477819E+02  0.27103875782E+02  0.00000000000E+00 0. -1.
</event>
<event>
 5    1  0.8907853E-005  0.9118800E+02  0.7818608E-02  0.1130116E+00
         25   -1    0    0    0    0  0.00000000000E+00  0.00000000000E+00  0.99999998245E-14  0.12500000000E+03  0.12500000000E+03 0.  0.
        -11    1    3    3    0    0  0.56624160366E+01  0.27066017303E+02  0.24253937038E+02  0.36781594719E+02  0.51100000000E-03 0.  1.
         23    2    1    0    0    0  0.22653650694E+02 -0.19216743265E+02 -0.60921976593E+01  0.94675323847E+02  0.89687406929E+02 0.  0.
         11    1    3    3    0    0  0.16991234657E+02 -0.46282760568E+02 -0.30346134697E+02  0.57893729127E+02  0.51100000000E-03 0. -1.
         22    1    1    0    0    0 -0.22653650694E+02  0.19216743265E+02  0.60921976593E+01  0.30324676153E+02  0.00000000000E+00 0. -1.
</event>
<event>
 5    1  0.8907853E-005  0.9118800E+02  0.7818608E-02  0.1130116E+00
         25   -1    0    0    0    0  0.00000000000E+00  0.00000000000E+00  0.99999998245E-14  0.12500000000E+03  0.12500000000E+03 0.  0.
        -11    1    3    3    0    0 -0.23321004619E+02  0.17457080025E+02 -0.25530005620E+02  0.38734998214E+02  0.51100000000E-03 0. -1.
         23    2    1    0    0    0 -0.96805135763E+01  0.24812316987E+01  0.27627102574E+02  0.95620999839E+02  0.90995878806E+02 0.  0.
         11    1    3    3    0    0  0.13640491043E+02 -0.14975848326E+02  0.53157108194E+02  0.56886001624E+02  0.51100000000E-03 0.  1.
         22    1    1    0    0    0  0.96805135763E+01 -0.24812316987E+01 -0.27627102574E+02  0.29379000161E+02  0.00000000000E+00 0.  1.
</event>
<event>
 5    1  0.8907853E-005  0.9118800E+02  0.7818608E-02  0.1130116E+00
         25   -1    0    0    0    0  0.00000000000E+00  0.00000000000E+00  0.99999998245E-14  0.12500000000E+03  0.12500000000E+03 0.  0.
        -11    1    3    3    0    0  0.32961949347E+02 -0.40842958845E+01  0.10966289313E+02  0.34977579664E+02  0.51100000000E-03 0. -1.
         23    2    1    0    0    0 -0.18961392007E+02 -0.43016726196E+01 -0.21339558983E+02  0.96131062511E+02  0.91693869085E+02 0.  0.
         11    1    3    3    0    0 -0.51923341353E+02 -0.21737673510E+00 -0.32305848296E+02  0.61153482847E+02  0.51100000000E-03 0.  1.
         22    1    1    0    0    0  0.18961392007E+02  0.43016726196E+01  0.21339558983E+02  0.28868937489E+02  0.00000000000E+00 0.  1.
</event>
<event>
 5    1  0.8907853E-005  0.9118800E+02  0.7818608E-02  0.1130116E+00
         25   -1    0    0    0    0  0.00000000000E+00  0.00000000000E+00  0.99999998245E-14  0.12500000000E+03  0.12500000000E+03 0.  0.
        -11    1    3    3    0    0 -0.81372473996E+01 -0.35477229660E+02  0.48306920143E+02  0.60484767947E+02  0.51100000000E-03 0.  1.
         23    2    1    0    0    0 -0.10260991532E+02 -0.18551324483E+02  0.40588824322E+02  0.79208163968E+02  0.64630031657E+02 0.  0.
         11    1    3    3    0    0 -0.21237441327E+01  0.16925905177E+02 -0.77180958207E+01  0.18723396021E+02  0.51100000000E-03 0. -1.
         22    1    1    0    0    0  0.10260991532E+02  0.18551324483E+02 -0.40588824322E+02  0.45791836032E+02  0.00000000000E+00 0.  1.
</event>
<event>
 5    1  0.8907853E-005  0.9118800E+02  0.7818608E-02  0.1130116E+00
         25   -1    0    0    0    0  0.00000000000E+00  0.00000000000E+00  0.99999998245E-14  0.12500000000E+03  0.12500000000E+03 0.  0.
        -11    1    3    3    0    0  0.31728534276E+01  0.15141135070E+02 -0.49993875046E+02  0.52332671559E+02  0.51100000000E-03 0.  1.
         23    2    1    0    0    0 -0.40532458136E+01 -0.18107861105E+02 -0.20351818655E+02  0.97458758961E+02  0.93486307768E+02 0.  0.
         11    1    3    3    0    0 -0.72260992411E+01 -0.33248996175E+02  0.29642056391E+02  0.45126087402E+02  0.51100000000E-03 0. -1.
         22    1    1    0    0    0  0.40532458136E+01  0.18107861105E+02  0.20351818655E+02  0.27541241039E+02  0.00000000000E+00 0.  1.
</event>
<event>
 5    1  0.8907853E-005  0.9118800E+02  0.7818608E-02  0.1130116E+00
         25   -1    0    0    0    0  0.00000000000E+00  0.00000000000E+00  0.99999998245E-14  0.12500000000E+03  0.12500000000E+03 0.  0.
        -11    1    3    3    0    0 -0.46224318257E+02 -0.16238710928E+02 -0.38317933950E+01  0.49143320724E+02  0.51100000000E-03 0. -1.
         23    2    1    0    0    0 -0.17003467915E+02  0.13536747046E+02  0.18496139303E+02  0.96461103546E+02  0.92142693071E+02 0.  0.
         11    1    3    3    0    0  0.29220850342E+02  0.29775457974E+02  0.22327932698E+02  0.47317782821E+02  0.51100000000E-03 0.  1.
         22    1    1    0    0    0  0.17003467915E+02 -0.13536747046E+02 -0.18496139303E+02  0.28538896454E+02  0.00000000000E+00 0.  1.
</event>
<event>
 5    1  0.8907853E-005  0.9118800E+02  0.7818608E-02  0.1130116E+00
         25   -1    0    0    0    0  0.00000000000E+00  0.00000000000E+00  0.99999998245E-14  0.12500000000E+03  0.12500000000E+03 0.  0.
        -11    1    3    3    0    0  0.35374045326E+02 -0.11052407846E+02 -0.32851798928E+02  0.49524938112E+02  0.51100000000E-03 0.  1.
         23    2    1    0    0    0 -0.94337515598E+01  0.57935547163E+01 -0.24495859597E+02  0.98118629459E+02  0.94364492077E+02 0.  0.
         11    1    3    3    0    0 -0.44807796886E+02  0.16845962563E+02  0.83559393309E+01  0.48593691348E+02  0.51100000000E-03 0. -1.
         22    1    1    0    0    0  0.94337515598E+01 -0.57935547163E+01  0.24495859597E+02  0.26881370541E+02  0.00000000000E+00 0. -1.
</event>
<event>
 5    1  0.8907853E-005  0.9118800E+02  0.7818608E-02  0.1130116E+00
         25   -1    0    0    0    0  0.00000000000E+00  0.00000000000E+00  0.99999998245E-14  0.12500000000E+03  0.12500000000E+03 0.  0.
        -11    1    3    3    0    0 -0.44114292329E+02  0.42616704236E+01  0.26019610546E+02  0.51393119732E+02  0.51100000000E-03 0.  1.
         23    2    1    0    0    0 -0.23932204019E+02  0.87875775717E+01 -0.13613360313E+02  0.96098521010E+02  0.91649496739E+02 0.  0.
         11    1    3    3    0    0  0.20182088310E+02  0.45259071480E+01 -0.39632970859E+02  0.44705401279E+02  0.51100000000E-03 0. -1.
         22    1    1    0    0    0  0.23932204019E+02 -0.87875775717E+01  0.13613360313E+02  0.28901478990E+02  0.00000000000E+00 0.  1.
</event>
<event>
 5    1  0.8907853E-005  0.9118800E+02  0.7818608E-02  0.1130116E+00
         25   -1    0    0    0    0  0.00000000000E+00  0.00000000000E+00  0.99999998245E-14  0.12500000000E+03  0.12500000000E+03 0.  0.
        -11    1    3    3    0    0  0.25165258935E+02 -0.28249719384E+02  0.12441164405E+02  0.39826115484E+02  0.51100000000E-03 0.  1.
         23    2    1    0    0    0  0.16580036694E+01  0.22176569230E+02  0.18872438989E+02  0.95832926915E+02  0.91286536404E+02 0.  0.
         11    1    3    3    0    0 -0.23507255266E+02  0.50426288614E+02  0.64312745832E+01  0.56006811430E+02  0.51100000000E-03 0. -1.
         22    1    1    0    0    0 -0.16580036694E+01 -0.22176569230E+02 -0.18872438989E+02  0.29167073085E+02  0.00000000000E+00 0.  1.
</event>
<event>
 5    1  0.8907853E-005  0.9118800E+02  0.7818608E-02  0.1130116E+00
         25   -1    0    0    0    0  0.00000000000E+00  0.00000000000E+00  0.99999998245E-14  0.12500000000E+03  0.12500000000E+03 0.  0.
        -11    1    3    3    0    0  0.45588961278E+01  0.12446598623E+02 -0.29601453314E+02  0.32433738449E+02  0.51100000000E-03 0. -1.
         23    2    1    0    0    0 -0.18373377911E+01 -0.28097078861E+02  0.15041011394E+02  0.93077379894E+02  0.87431944811E+02 0.  0.
         11    1    3    3    0    0 -0.63962339189E+01 -0.40543677484E+02  0.44642464708E+02  0.60643641445E+02  0.51100000000E-03 0.  1.
         22    1    1    0    0    0  0.18373377911E+01  0.28097078861E+02 -0.15041011394E+02  0.31922620106E+02  0.00000000000E+00 0.  1.
</event>
<event>
 5    1  0.8907853E-005  0.9118800E+02  0.7818608E-02  0.1130116E+00
         25   -1    0    0    0    0  0.00000000000E+00  0.00000000000E+00  0.99999998245E-14  0.12500000000E+03  0.12500000000E+03 0.  0.
        -11    1    3    3    0    0 -0.31159065333E+02  0.22307758321E+02  0.45231891347E+02  0.59282775144E+02  0.51100000000E-03 0. -1.
         23    2    1    0    0    0 -0.19697773848E+02  0.19304295180E+02  0.11351299514E+02  0.95175343965E+02  0.90381613125E+02 0.  0.
         11    1    3    3    0    0  0.11461291485E+02 -0.30034631401E+01 -0.33880591833E+02  0.35892568820E+02  0.51100000000E-03 0.  1.
         22    1    1    0    0    0  0.19697773848E+02 -0.19304295180E+02 -0.11351299514E+02  0.29824656035E+02  0.00000000000E+00 0. -1.
</event>
<event>
 5    1  0.8907853E-005  0.9118800E+02  0.7818608E-02  0.1130116E+00
         25   -1    0    0    0    0  0.00000000000E+00  0.00000000000E+00  0.99999998245E-14  0.12500000000E+03  0.12500000000E+03 0.  0.
        -11    1    3    3    0    0 -0.41724007269E+02 -0.96174163704E+01 -0.83382763557E+01  0.43622406319E+02  0.51100000000E-03 0.  1.
         23    2    1    0    0    0  0.30902606223E+01 -0.84061187581E+00 -0.30465581623E+02  0.94366554182E+02  0.89256028063E+02 0.  0.
         11    1    3    3    0    0  0.44814267891E+02  0.87768044946E+01 -0.22127305267E+02  0.50744147864E+02  0.51100000000E-03 0. -1.
         22    1    1    0    0    0 -0.30902606223E+01  0.84061187581E+00  0.30465581623E+02  0.30633445818E+02  0.00000000000E+00 0.  1.
</event>
<event>
 5    1  0.8907853E-005  0.9118800E+02  0.7818608E-02  0.1130116E+00
         25   -1    0    0    0    0  0.00000000000E+00  0.00000000000E+00  0.99999998245E-14  0.12500000000E+03  0.12500000000E+03 0.  0.
        -11    1    3    3    0    0 -0.18989686737E+02 -0.53511462744E+02  0.13214455664E+01  0.56796400115E+02  0.51100000000E-03 0. -1.
         23    2    1    0    0    0  0.88490434396E+01 -0.28245754533E+02 -0.51849929470E+01  0.94949835760E+02  0.90069189738E+02 0.  0.
         11    1    3    3    0    0  0.27838730176E+02  0.25265708210E+02 -0.65064385134E+01  0.38153435646E+02  0.51100000000E-03 0.  1.
         22    1    1    0    0    0 -0.88490434396E+01  0.28245754533E+02  0.51849929470E+01  0.30050164240E+02  0.00000000000E+00 0. -1.
</event>
<event>
 5    1  0.8907853E-005  0.9118800E+02  0.7818608E-02  0.1130116E+00
         25   -1    0    0    0    0  0.00000000000E+00  0.00000000000E+00  0.99999998245E-14  0.12500000000E+03  0.12500000000E+03 0.  0.
        -11    1    3    3    0    0  0.29680920613E+02  0.56541420505E-01  0.37553682063E+02  0.47866891293E+02  0.51100000000E-03 0.  1.
         23    2    1    0    0    0  0.14873887509E+02 -0.24790947007E+02 -0.10088179865E+01  0.96071790638E+02  0.91613032149E+02 0.  0.
         11    1    3    3    0    0 -0.14807033104E+02 -0.24847488428E+02 -0.38562500049E+02  0.48204899345E+02  0.51100000000E-03 0. -1.
         22    1    1    0    0    0 -0.14873887509E+02  0.24790947007E+02  0.10088179865E+01  0.28928209362E+02  0.00000000000E+00 0. -1.
</event>
<event>
 5    1  0.8907853E-005  0.9118800E+02  0.7818608E-02  0.1130116E+00
         25   -1    0    0    0    0  0.00000000000E+00  0.00000000000E+00  0.99999998245E-14  0.12500000000E+03  0.12500000000E+03 0.  0.
        -11    1    3    3    0    0 -0.28206246865E+02  0.43554324877E+02 -0.46943474734E+01  0.52101904727E+02  0.51100000000E-03 0.  1.
         23    2    1    0    0    0 -0.60685215242E+01  0.19561100344E+02 -0.26609379707E+02  0.91421395375E+02  0.85031457966E+02 0.  0.
         11    1    3    3    0    0  0.22137725341E+02 -0.23993224533E+02 -0.21915032234E+02  0.39319490648E+02  0.51100000000E-03 0. -1.
         22    1    1    0    0    0  0.60685215242E+01 -0.19561100344E+02  0.26609379707E+02  0.33578604625E+02  0.00000000000E+00 0. -1.
</event>
<event>
 5    1  0.8907853E-005  0.9118800E+02  0.7818608E-02  0.1130116E+00
         25   -1    0    0    0    0  0.00000000000E+00  0.00000000000E+00  0.99999998245E-14  0.12500000000E+03  0.12500000000E+03 0.  0.
        -11    1    3    3    0    0 -0.16031910832E+02  0.22202905486E+01 -0.54232376468E+02  0.56595958448E+02  0.51100000000E-03 0. -1.
         23    2    1    0    0    0 -0.24781304906E+02  0.94586494858E+00 -0.16830307973E+02  0.95028897254E+02  0.90178846264E+02 0.  0.
         11    1    3    3    0    0 -0.87493940738E+01 -0.12744256000E+01  0.37402068495E+02  0.38432938806E+02  0.51100000000E-03 0.  1.
         22    1    1    0    0    0  0.24781304906E+02 -0.94586494858E+00  0.16830307973E+02  0.29971102746E+02  0.00000000000E+00 0. -1.
</event>
<event>
 5    1  0.8907853E-005  0.9118800E+02  0.7818608E-02  0.1130116E+00
         25   -1    0    0    0    0  0.00000000000E+00  0.00000000000E+00  0.99999998245E-14  0.12500000000E+03  0.12500000000E+03 0.  0.
        -11    1    3    3    0    0 -0.25472098649E+02  0.49606586192E+02 -0.18878227010E+02  0.58872987512E+02  0.51100000000E-03 0.  1.
         23    2    1    0    0    0 -0.25316171325E+02  0.17986398817E+02 -0.44576213887E+01  0.93626612211E+02  0.88213678376E+02 0.  0.
         11    1    3    3    0    0  0.15592732447E+00 -0.31620187375E+02  0.14420605621E+02  0.34753624699E+02  0.51100000000E-03 0. -1.
         22    1    1    0    0    0  0.25316171325E+02 -0.17986398817E+02  0.44576213887E+01  0.31373387789E+02  0.00000000000E+00 0.  1.
</event>
<event>
 5    1  0.8907853E-005  0.9118800E+02  0.7818608E-02  0.1130116E+00
         25   -1    0    0    0    0  0.00000000000E+00  0.00000000000E+00  0.99999998245E-14  0.12500000000E+03  0.12500000000E+03 0.  0.
        -11    1    3    3    0    0 -0.40166407883E+01  0.33667064012E+01 -0.35491109821E+02  0.35875994646E+02  0.51100000000E-03 0.  1.
         23    2    1    0    0    0  0.45375523373E+01 -0.23810934888E+02  0.16856728510E+02  0.95475445854E+02  0.90795712803E+02 0.  0.
         11    1    3    3    0    0  0.85541931256E+01 -0.27177641290E+02  0.52347838331E+02  0.59599451208E+02  0.51100000000E-03 0. -1.
         22    1    1    0    0    0 -0.45375523373E+01  0.23810934888E+02 -0.16856728510E+02  0.29524554146E+02  0.00000000000E+00 0. -1.
</event>
<event>
 5    1  0.8907853E-005  0.9118800E+02  0.7818608E-02  0.1130116E+00
         25   -1    0    0    0    0  0.00000000000E+00  0.00000000000E+00  0.99999998245E-14  0.12500000000E+03  0.12500000000E+03 0.  0.
        -11    1    3    3    0    0  0.12028223432E+02 -0.49521646078E+02 -0.32743575562E+02  0.60574031812E+02  0.51100000000E-03 0.  1.
         23    2    1    0    0    0 -0.28955571578E+01 -0.18126230456E+02 -0.20629342342E+02  0.97386339481E+02  0.93389425902E+02 0.  0.
         11    1    3    3    0    0 -0.14923780589E+02  0.31395415622E+02  0.12114233220E+02  0.36812307669E+02  0.51100000000E-03 0. -1.
         22    1    1    0    0    0  0.28955571578E+01  0.18126230456E+02  0.20629342342E+02  0.27613660519E+02  0.00000000000E+00 0.  1.
</event>
<event>
 5    1  0.8907853E-005  0.9118800E+02  0.7818608E-02  0.1130116E+00
         25   -1    0    0    0    0  0.00000000000E+00  0.00000000000E+00  0.99999998245E-14  0.12500000000E+03  0.12500000000E+03 0.  0.
        -11    1    3    3    0    0 -0.42396895376E+02  0.22612220564E+02  0.35871838630E+02  0.59963305974E+02  0.51100000000E-03 0. -1.
         23    2    1    0    0    0 -0.19207280454E+02  0.20072658861E+02  0.84586781112E+01  0.95958986044E+02  0.91458988137E+02 0.  0.
         11    1    3    3    0    0  0.23189614921E+02 -0.25395617027E+01 -0.27413160519E+02  0.35995680070E+02  0.51100000000E-03 0.  1.
         22    1    1    0    0    0  0.19207280454E+02 -0.20072658861E+02 -0.84586781112E+01  0.29041013956E+02  0.00000000000E+00 0. -1.
</event>
<event>
 5    1  0.8907853E-005  0.9118800E+02  0.7818608E-02  0.1130116E+00
         25   -1    0    0    0    0  0.00000000000E+00  0.00000000000E+00  0.99999998245E-14  0.12500000000E+03  0.12500000000E+03 0.  0.
        -11    1    3    3    0    0 -0.14430136303E+02 -0.46329690334E+01  0.41371349615E+02  0.44059979630E+02  0.51100000000E-03 0. -1.
         23    2    1    0    0    0 -0.27051047671E+02 -0.14842299622E+02 -0.54959577355E+01  0.93658995077E+02  0.88259553416E+02 0.  0.
         11    1    3    3    0    0 -0.12620911368E+02 -0.10209330588E+02 -0.46867307350E+02  0.49599015447E+02  0.51100000000E-03 0.  1.
         22    1    1    0    0    0  0.27051047671E+02  0.14842299622E+02  0.54959577355E+01  0.31341004923E+02  0.00000000000E+00 0. -1.
</event>
<event>
 5    1  0.8907853E-005  0.9118800E+02  0.7818608E-02  0.1130116E+00
         25   -1    0    0    0    0  0.00000000000E+00  0.00000000000E+00  0.99999998245E-14  0.12500000000E+03  0.12500000000E+03 0.  0.
        -11    1    3    3    0    0  0.12614272888E+02 -0.56908740070E+02  0.22486187244E+02  0.62476821253E+02  0.51100000000E-03 0. -1.
         23    2    1    0    0    0  0.53882895394E+01 -0.28376699166E+02  0.10257679490E+02  0.94348887325E+02  0.89231282806E+02 0.  0.
         11    1    3    3    0    0 -0.72259833489E+01  0.28532040904E+02 -0.12228507754E+02  0.31872066071E+02  0.51100000000E-03 0.  1.
         22    1    1    0    0    0 -0.53882895394E+01  0.28376699166E+02 -0.10257679490E+02  0.30651112675E+02  0.00000000000E+00 0. -1.
</event>
<event>
 5    1  0.8907853E-005  0.9118800E+02  0.7818608E-02  0.1130116E+00
         25   -1    0    0    0    0  0.00000000000E+00  0.00000000000E+00  0.99999998245E-14  0.12500000000E+03  0.12500000000E+03 0.  0.
        -11    1    3    3    0    0  0.49705789505E+02  0.15780891370E+02 -0.14473043228E+02  0.54121816519E+02  0.51100000000E-03 0. -1.
         23    2    1    0    0    0  0.17754292310E+02  0.29635517799E+02 -0.78675606655E+01  0.89568695741E+02  0.82262834472E+02 0.  0.
         11    1    3    3    0    0 -0.31951497195E+02  0.13854626429E+02  0.66054825621E+01  0.35446879223E+02  0.51100000000E-03 0.  1.
         22    1    1    0    0    0 -0.17754292310E+02 -0.29635517799E+02  0.78675606655E+01  0.35431304259E+02  0.00000000000E+00 0. -1.
</event>
<event>
 5    1  0.8907853E-005  0.9118800E+02  0.7818608E-02  0.1130116E+00
         25   -1    0    0    0    0  0.00000000000E+00  0.00000000000E+00  0.99999998245E-14  0.12500000000E+03  0.12500000000E+03 0.  0.
        -11    1    3    3    0    0  0.58438154981E+01 -0.34974944063E+02  0.16109596746E+01  0.35496367182E+02  0.51100000000E-03 0. -1.
         23    2    1    0    0    0  0.59764968094E+01  0.23732232494E+02 -0.14730463244E+02  0.96435617972E+02  0.92108113069E+02 0.  0.
         11    1    3    3    0    0  0.13268131128E+00  0.58707176557E+02 -0.16341422918E+02  0.60939250790E+02  0.51100000000E-03 0.  1.
         22    1    1    0    0    0 -0.59764968094E+01 -0.23732232494E+02  0.14730463244E+02  0.28564382028E+02  0.00000000000E+00 0.  1.
</event>
<event>
 5    1  0.8907853E-005  0.9118800E+02  0.7818608E-02  0.1130116E+00
         25   -1    0    0    0    0  0.00000000000E+00  0.00000000000E+00  0.99999998245E-14  0.12500000000E+03  0.12500000000E+03 0.  0.
        -11    1    3    3    0    0 -0.32505232724E+01  0.40792803015E+01  0.35974225683E+02  0.36350396739E+02  0.51100000000E-03 0.  1.
         23    2    1    0    0    0  0.53811530384E+00 -0.20982202916E+02 -0.18874613871E+02  0.96772469891E+02  0.92564126273E+02 0.  0.
         11    1    3    3    0    0  0.37886385762E+01 -0.25061483217E+02 -0.54848839554E+02  0.60422073152E+02  0.51100000000E-03 0. -1.
         22    1    1    0    0    0 -0.53811530384E+00  0.20982202916E+02  0.18874613871E+02  0.28227530109E+02  0.00000000000E+00 0. -1.
</event>
<event>
 5    1  0.8907853E-005  0.9118800E+02  0.7818608E-02  0.1130116E+00
         25   -1    0    0    0    0  0.00000000000E+00  0.00000000000E+00  0.99999998245E-14  0.12500000000E+03  0.12500000000E+03 0.  0.
        -11    1    3    3    0    0  0.68662475291E+01 -0.22183271449E+02 -0.36356853432E+02  0.43140047277E+02  0.51100000000E-03 0.  1.
         23    2    1    0    0    0  0.29125924091E+02  0.70980497717E+01  0.23164683030E+00  0.95020750093E+02  0.90167552497E+02 0.  0.
         11    1    3    3    0    0  0.22259676562E+02  0.29281321221E+02  0.36588500262E+02  0.51880702817E+02  0.51100000000E-03 0. -1.
         22    1    1    0    0    0 -0.29125924091E+02 -0.70980497717E+01 -0.23164683030E+00  0.29979249907E+02  0.00000000000E+00 0. -1.
</event>
<event>
 5    1  0.8907853E-005  0.9118800E+02  0.7818608E-02  0.1130116E+00
         25   -1    0    0    0    0  0.00000000000E+00  0.00000000000E+00  0.99999998245E-14  0.12500000000E+03  0.12500000000E+03 0.  0.
        -11    1    3    3    0    0  0.17316911359E+02  0.26586130886E+02  0.28096012414E+02  0.42380227564E+02  0.51100000000E-03 0.  1.
         23    2    1    0    0    0  0.21984341061E+02  0.45204166944E+01 -0.19639872162E+02  0.95176016405E+02  0.90382543122E+02 0.  0.
         11    1    3    3    0    0  0.46674297016E+01 -0.22065714192E+02 -0.47735884576E+02  0.52795788841E+02  0.51100000000E-03 0. -1.
         22    1    1    0    0    0 -0.21984341061E+02 -0.45204166944E+01  0.19639872162E+02  0.29823983595E+02  0.00000000000E+00 0. -1.
</event>
<event>
 5    1  0.8907853E-005  0.9118800E+02  0.7818608E-02  0.1130116E+00
         25   -1    0    0    0    0  0.00000000000E+00  0.00000000000E+00  0.99999998245E-14  0.12500000000E+03  0.12500000000E+03 0.  0.
        -11    1    3    3    0    0 -0.26559234779E+02 -0.73544148767E+01  0.25124143946E+02  0.37292130262E+02  0.51100000000E-03 0.  1.
         23    2    1    0    0    0  0.25613153135E+02  0.11828925326E+02  0.11562013025E+02  0.94510047014E+02  0.89456759127E+02 0.  0.
         11    1    3    3    0    0  0.52172387914E+02  0.19183340203E+02 -0.13562130921E+02  0.57217916752E+02  0.51100000000E-03 0. -1.
         22    1    1    0    0    0 -0.25613153135E+02 -0.11828925326E+02 -0.11562013025E+02  0.30489952986E+02  0.00000000000E+00 0. -1.
</event>
<event>
 5    1  0.8907853E-005  0.9118800E+02  0.7818608E-02  0.1130116E+00
         25   -1    0    0    0    0  0.00000000000E+00  0.00000000000E+00  0.99999998245E-14  0.12500000000E+03  0.12500000000E+03 0.  0.
        -11    1    3    3    0    0  0.19896199474E+02  0.34367553827E+02  0.70405867195E+01  0.40330600927E+02  0.51100000000E-03 0.  1.
         23    2    1    0    0    0  0.56212107030E+01 -0.17282718002E+02  0.22475692478E+02  0.96095898151E+02  0.91645919373E+02 0.  0.
         11    1    3    3    0    0 -0.14274988771E+02 -0.51650271829E+02  0.15435105759E+02  0.55765297224E+02  0.51100000000E-03 0. -1.
         22    1    1    0    0    0 -0.56212107030E+01  0.17282718002E+02 -0.22475692478E+02  0.28904101849E+02  0.00000000000E+00 0. -1.
</event>
<event>
 5    1  0.8907853E-005  0.9118800E+02  0.7818608E-02  0.1130116E+00
         25   -1    0    0    0    0  0.00000000000E+00  0.00000000000E+00  0.99999998245E-14  0.12500000000E+03  0.12500000000E+03 0.  0.
        -11    1    3    3    0    0 -0.25441788134E+02  0.58222448262E+01 -0.24642564896E+01  0.26215561763E+02  0.51100000000E-03 0.  1.
         23    2    1    0    0    0  0.34320822095E+02 -0.67043789284E+01  0.10193575354E+02  0.88575056560E+02  0.80738863876E+02 0.  0.
         11    1    3    3    0    0  0.59762610229E+02 -0.12526623755E+02  0.12657831843E+02  0.62359494797E+02  0.51100000000E-03 0. -1.
         22    1    1    0    0    0 -0.34320822095E+02  0.67043789284E+01 -0.10193575354E+02  0.36424943440E+02  0.00000000000E+00 0. -1.
</event>
<event>
 5    1  0.8907853E-005  0.9118800E+02  0.7818608E-02  0.1130116E+00
         25   -1    0    0    0    0  0.00000000000E+00  0.00000000000E+00  0.99999998245E-14  0.12500000000E+03  0.12500000000E+03 0.  0.
        -11    1    3    3    0    0 -0.96877075047E+01 -0.35926415411E+02  0.15231983727E+02  0.40206620469E+02  0.51100000000E-03 0.  1.
         23    2    1    0    0    0 -0.16173726952E+02 -0.40689174907E+02 -0.20370818690E+02  0.76707467945E+02  0.59597541781E+02 0.  0.
         11    1    3    3    0    0 -0.64860194469E+01 -0.47627594961E+01 -0.35602802417E+02  0.36500847477E+02  0.51100000000E-03 0. -1.
         22    1    1    0    0    0  0.16173726952E+02  0.40689174907E+02  0.20370818690E+02  0.48292532055E+02  0.00000000000E+00 0. -1.
</event>
<event>
 5    1  0.8907853E-005  0.9118800E+02  0.7818608E-02  0.1130116E+00
         25   -1    0    0    0    0  0.00000000000E+00  0.00000000000E+00  0.99999998245E-14  0.12500000000E+03  0.12500000000E+03 0.  0.
        -11    1    3    3    0    0 -0.23181975152E+02 -0.43372334547E+02 -0.80442778828E+01  0.49832457123E+02  0.51100000000E-03 0. -1.
         23    2    1    0    0    0  0.17115690599E+02 -0.22166335797E+02  0.34105501342E+01  0.96787854396E+02  0.92584899412E+02 0.  0.
         11    1    3    3    0    0  0.40297665751E+02  0.21205998750E+02  0.11454828017E+02  0.46955397274E+02  0.51100000000E-03 0.  1.
         22    1    1    0    0    0 -0.17115690599E+02  0.22166335797E+02 -0.34105501342E+01  0.28212145604E+02  0.00000000000E+00 0. -1.
</event>
<event>
 5    1  0.8907853E-005  0.9118800E+02  0.7818608E-02  0.1130116E+00
         25   -1    0    0    0    0  0.00000000000E+00  0.00000000000E+00  0.99999998245E-14  0.12500000000E+03  0.12500000000E+03 0.  0.
        -11    1    3    3    0    0  0.98677333448E+01  0.57651926958E+02  0.12945808356E+02  0.59905849444E+02  0.51100000000E-03 0. -1.
         23    2    1    0    0    0  0.20875634748E+01  0.22873069561E+02  0.17891345119E+02  0.95885820249E+02  0.91358935317E+02 0.  0.
         11    1    3    3    0    0 -0.77801698700E+01 -0.34778857397E+02  0.49455367626E+01  0.35979970805E+02  0.51100000000E-03 0.  1.
         22    1    1    0    0    0 -0.20875634748E+01 -0.22873069561E+02 -0.17891345119E+02  0.29114179751E+02  0.00000000000E+00 0. -1.
</event>
<event>
 5    1  0.8907853E-005  0.9118800E+02  0.7818608E-02  0.1130116E+00
         25   -1    0    0    0    0  0.00000000000E+00  0.00000000000E+00  0.99999998245E-14  0.12500000000E+03  0.12500000000E+03 0.  0.
        -11    1    3    3    0    0  0.45293952272E+00 -0.50352430313E+02  0.27610285389E+02  0.57427347599E+02  0.51100000000E-03 0.  1.
         23    2    1    0    0    0 -0.17216702974E+02 -0.26875446305E+02  0.10657469601E+02  0.91350540366E+02  0.84927234098E+02 0.  0.
         11    1    3    3    0    0 -0.17669642497E+02  0.23476984009E+02 -0.16952815788E+02  0.33923192767E+02  0.51100000000E-03 0. -1.
         22    1    1    0    0    0  0.17216702974E+02  0.26875446305E+02 -0.10657469601E+02  0.33649459634E+02  0.00000000000E+00 0.  1.
</event>
<event>
 5    1  0.8907853E-005  0.9118800E+02  0.7818608E-02  0.1130116E+00
         25   -1    0    0    0    0  0.00000000000E+00  0.00000000000E+00  0.99999998245E-14  0.12500000000E+03  0.12500000000E+03 0.  0.
        -11    1    3    3    0    0 -0.24105626437E+02 -0.45667483667E+02 -0.14221872728E+02  0.53561758323E+02  0.51100000000E-03 0.  1.
         23    2    1    0    0    0 -0.24737603119E+01 -0.20725300744E+02  0.16294344214E+02  0.98520512951E+02  0.94895354143E+02 0.  0.
         11    1    3    3    0    0  0.21631866126E+02  0.24942182924E+02  0.30516216942E+02  0.44958754629E+02  0.51100000000E-03 0. -1.
         22    1    1    0    0    0  0.24737603119E+01  0.20725300744E+02 -0.16294344214E+02  0.26479487049E+02  0.00000000000E+00 0.  1.
</event>
<event>
 5    1  0.8907853E-005  0.9118800E+02  0.7818608E-02  0.1130116E+00
         25   -1    0    0    0    0  0.00000000000E+00  0.00000000000E+00  0.99999998245E-14  0.12500000000E+03  0.12500000000E+03 0.  0.
        -11    1    3    3    0    0  0.52365055297E+02  0.31159671472E+02  0.42699813050E+01  0.61084014956E+02  0.51100000000E-03 0.  1.
         23    2    1    0    0    0  0.23355918576E+02  0.50395831439E+01 -0.33991782415E+01  0.10086598368E+03  0.97936182901E+02 0.  0.
         11    1    3    3    0    0 -0.29009136721E+02 -0.26120088328E+02 -0.76691595465E+01  0.39781968729E+02  0.51100000000E-03 0. -1.
         22    1    1    0    0    0 -0.23355918576E+02 -0.50395831439E+01  0.33991782415E+01  0.24134016315E+02  0.00000000000E+00 0.  1.
</event>
<event>
 5    1  0.8907853E-005  0.9118800E+02  0.7818608E-02  0.1130116E+00
         25   -1    0    0    0    0  0.00000000000E+00  0.00000000000E+00  0.99999998245E-14  0.12500000000E+03  0.12500000000E+03 0.  0.
        -11    1    3    3    0    0 -0.37052156634E+02  0.39411416187E+02  0.33775270687E+01  0.54198982707E+02  0.51100000000E-03 0. -1.
         23    2    1    0    0    0 -0.33594974361E+01  0.24349764336E+02  0.18655096590E+02  0.94142101902E+02  0.88941134890E+02 0.  0.
         11    1    3    3    0    0  0.33692659198E+02 -0.15061651851E+02  0.15277569521E+02  0.39943119195E+02  0.51100000000E-03 0.  1.
         22    1    1    0    0    0  0.33594974361E+01 -0.24349764336E+02 -0.18655096590E+02  0.30857898098E+02  0.00000000000E+00 0. -1.
</event>
<event>
 5    1  0.8907853E-005  0.9118800E+02  0.7818608E-02  0.1130116E+00
         25   -1    0    0    0    0  0.00000000000E+00  0.00000000000E+00  0.99999998245E-14  0.12500000000E+03  0.12500000000E+03 0.  0.
        -11    1    3    3    0    0  0.22959470194E+02 -0.48004145120E+02  0.20426442667E+02  0.56998024357E+02  0.51100000000E-03 0. -1.
         23    2    1    0    0    0 -0.19384778937E+01 -0.18396210774E+02  0.22661057279E+02  0.95747619167E+02  0.91169648413E+02 0.  0.
         11    1    3    3    0    0 -0.24897948088E+02  0.29607934346E+02  0.22346146118E+01  0.38749594810E+02  0.51100000000E-03 0.  1.
         22    1    1    0    0    0  0.19384778937E+01  0.18396210774E+02 -0.22661057279E+02  0.29252380833E+02  0.00000000000E+00 0. -1.
</event>
<event>
 5    1  0.8907853E-005  0.9118800E+02  0.7818608E-02  0.1130116E+00
         25   -1    0    0    0    0  0.00000000000E+00  0.00000000000E+00  0.99999998245E-14  0.12500000000E+03  0.12500000000E+03 0.  0.
        -11    1    3    3    0    0 -0.89352541050E+01 -0.20494209444E+02  0.54461023053E+02  0.58871507701E+02  0.51100000000E-03 0.  1.
         23    2    1    0    0    0  0.51508732283E+01  0.15371019326E+01  0.29473984842E+02  0.95039860484E+02  0.90194041494E+02 0.  0.
         11    1    3    3    0    0  0.14086127333E+02  0.22031311377E+02 -0.24987038212E+02  0.36168352784E+02  0.51100000000E-03 0. -1.
         22    1    1    0    0    0 -0.51508732283E+01 -0.15371019326E+01 -0.29473984842E+02  0.29960139516E+02  0.00000000000E+00 0.  1.
</event>
<event>
 5    1  0.8907853E-005  0.9118800E+02  0.7818608E-02  0.1130116E+00
         25   -1    0    0    0    0  0.00000000000E+00  0.00000000000E+00  0.99999998245E-14  0.12500000000E+03  0.12500000000E+03 0.  0.
        -11    1    3    3    0    0 -0.26870766682E+02 -0.26445295208E+02 -0.15132090488E+02  0.40624769581E+02  0.51100000000E-03 0.  1.
         23    2    1    0    0    0 -0.25638212082E+01  0.22816769520E+02 -0.18286000636E+02  0.95647726327E+02  0.91032585274E+02 0.  0.
         11    1    3    3    0    0  0.24306945474E+02  0.49262064728E+02 -0.31539101486E+01  0.55022956746E+02  0.51100000000E-03 0. -1.
         22    1    1    0    0    0  0.25638212082E+01 -0.22816769520E+02  0.18286000636E+02  0.29352273673E+02  0.00000000000E+00 0. -1.
</event>
<event>
 5    1  0.8907853E-005  0.9118800E+02  0.7818608E-02  0.1130116E+00
         25   -1    0    0    0    0  0.00000000000E+00  0.00000000000E+00  0.99999998245E-14  0.12500000000E+03  0.12500000000E+03 0.  0.
        -11    1    3    3    0    0  0.48067362565E+02 -0.82562461059E+01  0.33868881231E+02  0.59377925694E+02  0.51100000000E-03 0.  1.
         23    2    1    0    0    0  0.29214940979E+02 -0.61772842378E+01  0.38425944731E+01  0.94892905334E+02  0.89990145758E+02 0.  0.
         11    1    3    3    0    0 -0.18852421586E+02  0.20789618681E+01 -0.30026286758E+02  0.35514979640E+02  0.51100000000E-03 0. -1.
         22    1    1    0    0    0 -0.29214940979E+02  0.61772842378E+01 -0.38425944731E+01  0.30107094666E+02  0.00000000000E+00 0.  1.
</event>
<event>
 5    1  0.8907853E-005  0.9118800E+02  0.7818608E-02  0.1130116E+00
         25   -1    0    0    0    0  0.00000000000E+00  0.00000000000E+00  0.99999998245E-14  0.12500000000E+03  0.12500000000E+03 0.  0.
        -11    1    3    3    0    0 -0.19240401939E+02  0.15578585441E+02 -0.49085246648E+02  0.54974965483E+02  0.51100000000E-03 0.  1.
         23    2    1    0    0    0 -0.12625699691E+02 -0.14358430072E+02 -0.21635082634E+02  0.96127009033E+02  0.91688343088E+02 0.  0.
         11    1    3    3    0    0  0.66147022482E+01 -0.29937015513E+02  0.27450164014E+02  0.41152043550E+02  0.51100000000E-03 0. -1.
         22    1    1    0    0    0  0.12625699691E+02  0.14358430072E+02  0.21635082634E+02  0.28872990967E+02  0.00000000000E+00 0.  1.
</event>
<event>
 5    1  0.8907853E-005  0.9118800E+02  0.7818608E-02  0.1130116E+00
         25   -1    0    0    0    0  0.00000000000E+00  0.00000000000E+00  0.99999998245E-14  0.12500000000E+03  0.12500000000E+03 0.  0.
        -11    1    3    3    0    0 -0.33553664908E+02 -0.30911266133E+02  0.11413756676E+02  0.47027955988E+02  0.51100000000E-03 0.  1.
         23    2    1    0    0    0  0.14087487294E+02 -0.24554401842E+02  0.95374703238E+01  0.95127951389E+02  0.90316044240E+02 0.  0.
         11    1    3    3    0    0  0.47641152202E+02  0.63568642914E+01 -0.18762863526E+01  0.48099995400E+02  0.51100000000E-03 0. -1.
         22    1    1    0    0    0 -0.14087487294E+02  0.24554401842E+02 -0.95374703238E+01  0.29872048611E+02  0.00000000000E+00 0.  1.
</event>
<event>
 5    1  0.8907853E-005  0.9118800E+02  0.7818608E-02  0.1130116E+00
         25   -1    0    0    0    0  0.00000000000E+00  0.00000000000E+00  0.99999998245E-14  0.12500000000E+03  0.12500000000E+03 0.  0.
        -11    1    3    3    0    0  0.55583915390E+02  0.20830816947E+02 -0.18568917478E+02  0.62195653235E+02  0.51100000000E-03 0.  1.
         23    2    1    0    0    0  0.24478434491E+02  0.13451948463E+02 -0.10438374436E+02  0.95182080330E+02  0.90390929204E+02 0.  0.
         11    1    3    3    0    0 -0.31105480898E+02 -0.73788684839E+01  0.81305430427E+01  0.32986427094E+02  0.51100000000E-03 0. -1.
         22    1    1    0    0    0 -0.24478434491E+02 -0.13451948463E+02  0.10438374436E+02  0.29817919670E+02  0.00000000000E+00 0.  1.
</event>
<event>
 5    1  0.8907853E-005  0.9118800E+02  0.7818608E-02  0.1130116E+00
         25   -1    0    0    0    0  0.00000000000E+00  0.00000000000E+00  0.99999998245E-14  0.12500000000E+03  0.12500000000E+03 0.  0.
        -11    1    3    3    0    0 -0.21094772148E+02  0.80970497271E+01  0.30187289308E+02  0.37707082389E+02  0.51100000000E-03 0. -1.
         23    2    1    0    0    0  0.27415243773E+02  0.11932003055E+02 -0.24271994295E+00  0.95099712359E+02  0.90276952152E+02 0.  0.
         11    1    3    3    0    0  0.48510015921E+02  0.38349533276E+01 -0.30430009251E+02  0.57392629971E+02  0.51100000000E-03 0.  1.
         22    1    1    0    0    0 -0.27415243773E+02 -0.11932003055E+02  0.24271994295E+00  0.29900287641E+02  0.00000000000E+00 0.  1.
</event>
<event>
 5    1  0.8907853E-005  0.9118800E+02  0.7818608E-02  0.1130116E+00
         25   -1    0    0    0    0  0.00000000000E+00  0.00000000000E+00  0.99999998245E-14  0.12500000000E+03  0.12500000000E+03 0.  0.
        -11    1    3    3    0    0  0.19183384532E+02  0.38240892988E+02  0.98522048267E+01  0.43902552077E+02  0.51100000000E-03 0. -1.
         23    2    1    0    0    0 -0.12018724963E+02  0.34049556180E+00  0.26629342723E+02  0.95782067478E+02  0.91216867243E+02 0.  0.
         11    1    3    3    0    0 -0.31202109495E+02 -0.37900397426E+02  0.16777137897E+02  0.51879515401E+02  0.51100000000E-03 0.  1.
         22    1    1    0    0    0  0.12018724963E+02 -0.34049556180E+00 -0.26629342723E+02  0.29217932522E+02  0.00000000000E+00 0.  1.
</event>
<event>
 5    1  0.8907853E-005  0.9118800E+02  0.7818608E-02  0.1130116E+00
         25   -1    0    0    0    0  0.00000000000E+00  0.00000000000E+00  0.99999998245E-14  0.12500000000E+03  0.12500000000E+03 0.  0.
        -11    1    3    3    0    0 -0.23709094226E+02 -0.80961944091E+01 -0.30762271193E+02  0.39673503024E+02  0.51100000000E-03 0.  1.
         23    2    1    0    0    0  0.20868937891E+02 -0.22382374893E+02 -0.26360844654E+01  0.94284658298E+02  0.89141261908E+02 0.  0.
         11    1    3    3    0    0  0.44578032117E+02 -0.14286180484E+02  0.28126186728E+02  0.54611155274E+02  0.51100000000E-03 0. -1.
         22    1    1    0    0    0 -0.20868937891E+02  0.22382374893E+02  0.26360844654E+01  0.30715341702E+02  0.00000000000E+00 0.  1.
</event>
<event>
 5    1  0.8907853E-005  0.9118800E+02  0.7818608E-02  0.1130116E+00
         25   -1    0    0    0    0  0.00000000000E+00  0.00000000000E+00  0.99999998245E-14  0.12500000000E+03  0.12500000000E+03 0.  0.
        -11    1    3    3    0    0 -0.12213237062E+02  0.48330646531E+02 -0.15909097627E+02  0.52326990561E+02  0.51100000000E-03 0.  1.
         23    2    1    0    0    0 -0.26290207294E+01  0.24631280826E+02  0.17700954607E+02  0.94554383909E+02  0.89518690659E+02 0.  0.
         11    1    3    3    0    0  0.95842163322E+01 -0.23699365705E+02  0.33610052234E+02  0.42227393348E+02  0.51100000000E-03 0. -1.
         22    1    1    0    0    0  0.26290207294E+01 -0.24631280826E+02 -0.17700954607E+02  0.30445616091E+02  0.00000000000E+00 0.  1.
</event>
<event>
 5    1  0.8907853E-005  0.9118800E+02  0.7818608E-02  0.1130116E+00
         25   -1    0    0    0    0  0.00000000000E+00  0.00000000000E+00  0.99999998245E-14  0.12500000000E+03  0.12500000000E+03 0.  0.
        -11    1    3    3    0    0 -0.22040331637E+02  0.17833485982E+02  0.26491551957E+02  0.38802213420E+02  0.51100000000E-03 0.  1.
         23    2    1    0    0    0  0.21153623388E+02 -0.16046228849E+02  0.39036270865E+01  0.98163540712E+02  0.94423965061E+02 0.  0.
         11    1    3    3    0    0  0.43193955025E+02 -0.33879714830E+02 -0.22587924871E+02  0.59361327292E+02  0.51100000000E-03 0. -1.
         22    1    1    0    0    0 -0.21153623388E+02  0.16046228849E+02 -0.39036270865E+01  0.26836459288E+02  0.00000000000E+00 0. -1.
</event>
<event>
 5    1  0.8907853E-005  0.9118800E+02  0.7818608E-02  0.1130116E+00
         25   -1    0    0    0    0  0.00000000000E+00  0.00000000000E+00  0.99999998245E-14  0.12500000000E+03  0.12500000000E+03 0.  0.
        -11    1    3    3    0    0  0.19624720935E+02 -0.77048933438E+01 -0.37275247536E+02  0.42824515553E+02  0.51100000000E-03 0. -1.
         23    2    1    0    0    0 -0.14221148318E+02  0.20478628142E+02 -0.27385821192E+02  0.87964902154E+02  0.79788630384E+02 0.  0.
         11    1    3    3    0    0 -0.33845869253E+02  0.28183521486E+02  0.98894263434E+01  0.45140386601E+02  0.51100000000E-03 0.  1.
         22    1    1    0    0    0  0.14221148318E+02 -0.20478628142E+02  0.27385821192E+02  0.37035097846E+02  0.00000000000E+00 0.  1.
</event>
<event>
 5    1  0.8907853E-005  0.9118800E+02  0.7818608E-02  0.1130116E+00
         25   -1    0    0    0    0  0.00000000000E+00  0.00000000000E+00  0.99999998245E-14  0.12500000000E+03  0.12500000000E+03 0.  0.
        -11    1    3    3    0    0  0.20936244202E+01 -0.49667950869E+02  0.55477226594E+01  0.50020654071E+02  0.51100000000E-03 0. -1.
         23    2    1    0    0    0  0.16576392731E+02 -0.10921299420E+02 -0.18497764222E+02  0.97866646756E+02  0.94030110545E+02 0.  0.
         11    1    3    3    0    0  0.14482768311E+02  0.38746651449E+02 -0.24045486882E+02  0.47845992686E+02  0.51100000000E-03 0.  1.
         22    1    1    0    0    0 -0.16576392731E+02  0.10921299420E+02  0.18497764222E+02  0.27133353244E+02  0.00000000000E+00 0. -1.
</event>
<event>
 5    1  0.8907853E-005  0.9118800E+02  0.7818608E-02  0.1130116E+00
         25   -1    0    0    0    0  0.00000000000E+00  0.00000000000E+00  0.99999998245E-14  0.12500000000E+03  0.12500000000E+03 0.  0.
        -11    1    3    3    0    0  0.13933286212E+02 -0.30425883373E+02 -0.26495128169E+01  0.33569193647E+02  0.51100000000E-03 0. -1.
         23    2    1    0    0    0 -0.31197206825E+01  0.28912145994E+02 -0.56263069278E+01  0.95380746587E+02  0.90665244977E+02 0.  0.
         11    1    3    3    0    0 -0.17053006894E+02  0.59338029367E+02 -0.29767941109E+01  0.61811552939E+02  0.51100000000E-03 0.  1.
         22    1    1    0    0    0  0.31197206825E+01 -0.28912145994E+02  0.56263069278E+01  0.29619253413E+02  0.00000000000E+00 0.  1.
</event>
<event>
 5    1  0.8907853E-005  0.9118800E+02  0.7818608E-02  0.1130116E+00
         25   -1    0    0    0    0  0.00000000000E+00  0.00000000000E+00  0.99999998245E-14  0.12500000000E+03  0.12500000000E+03 0.  0.
        -11    1    3    3    0    0  0.46708932112E+02 -0.25307281412E+02 -0.32869348584E+02  0.62470608354E+02  0.51100000000E-03 0.  1.
         23    2    1    0    0    0  0.22004643309E+02 -0.10481833490E+02 -0.15615294362E+02  0.96053314897E+02  0.91587819737E+02 0.  0.
         11    1    3    3    0    0 -0.24704288804E+02  0.14825447922E+02  0.17254054222E+02  0.33582706543E+02  0.51100000000E-03 0. -1.
         22    1    1    0    0    0 -0.22004643309E+02  0.10481833490E+02  0.15615294362E+02  0.28946685103E+02  0.00000000000E+00 0.  1.
</event>
<event>
 5    1  0.8907853E-005  0.9118800E+02  0.7818608E-02  0.1130116E+00
         25   -1    0    0    0    0  0.00000000000E+00  0.00000000000E+00  0.99999998245E-14  0.12500000000E+03  0.12500000000E+03 0.  0.
        -11    1    3    3    0    0 -0.29071354047E+02 -0.47542049456E+02  0.60358733319E+01  0.56051956788E+02  0.51100000000E-03 0.  1.
         23    2    1    0    0    0  0.40522429519E+01 -0.27739520225E+02  0.10843755462E+02  0.94941911441E+02  0.90058191523E+02 0.  0.
         11    1    3    3    0    0  0.33123596999E+02  0.19802529231E+02  0.48078821301E+01  0.38889954653E+02  0.51100000000E-03 0. -1.
         22    1    1    0    0    0 -0.40522429519E+01  0.27739520225E+02 -0.10843755462E+02  0.30058088559E+02  0.00000000000E+00 0. -1.
</event>
<event>
 5    1  0.8907853E-005  0.9118800E+02  0.7818608E-02  0.1130116E+00
         25   -1    0    0    0    0  0.00000000000E+00  0.00000000000E+00  0.99999998245E-14  0.12500000000E+03  0.12500000000E+03 0.  0.
        -11    1    3    3    0    0  0.47775859505E+02  0.61609084372E+01  0.17718964053E+02  0.51326905533E+02  0.51100000000E-03 0. -1.
         23    2    1    0    0    0  0.53857493177E+01  0.21942037737E+02  0.17271088946E+02  0.96561472803E+02  0.92278752704E+02 0.  0.
         11    1    3    3    0    0 -0.42390110187E+02  0.15781129300E+02 -0.44787510690E+00  0.45234567270E+02  0.51100000000E-03 0.  1.
         22    1    1    0    0    0 -0.53857493177E+01 -0.21942037737E+02 -0.17271088946E+02  0.28438527197E+02  0.00000000000E+00 0.  1.
</event>
<event>
 5    1  0.8907853E-005  0.9118800E+02  0.7818608E-02  0.1130116E+00
         25   -1    0    0    0    0  0.00000000000E+00  0.00000000000E+00  0.99999998245E-14  0.12500000000E+03  0.12500000000E+03 0.  0.
        -11    1    3    3    0    0 -0.36946452232E+02 -0.19630853029E+02 -0.41694121073E+02  0.59066153214E+02  0.51100000000E-03 0.  1.
         23    2    1    0    0    0 -0.24871865698E+02 -0.13663429611E+02 -0.77526942619E+01  0.95582262487E+02  0.90942650180E+02 0.  0.
         11    1    3    3    0    0  0.12074586534E+02  0.59674234178E+01  0.33941426811E+02  0.36516109273E+02  0.51100000000E-03 0. -1.
         22    1    1    0    0    0  0.24871865698E+02  0.13663429611E+02  0.77526942619E+01  0.29417737513E+02  0.00000000000E+00 0.  1.
</event>
<event>
 5    1  0.8907853E-005  0.9118800E+02  0.7818608E-02  0.1130116E+00
         25   -1    0    0    0    0  0.00000000000E+00  0.00000000000E+00  0.99999998245E-14  0.12500000000E+03  0.12500000000E+03 0.  0.
        -11    1    3    3    0    0 -0.24376754023E+02  0.21349253709E+02  0.15884051388E+02  0.36087669076E+02  0.51100000000E-03 0.  1.
         23    2    1    0    0    0  0.25700679854E+02  0.58393653409E+01 -0.12640491758E+02  0.95769790209E+02  0.91200041405E+02 0.  0.
         11    1    3    3    0    0  0.50077433877E+02 -0.15509888368E+02 -0.28524543146E+02  0.59682121132E+02  0.51100000000E-03 0. -1.
         22    1    1    0    0    0 -0.25700679854E+02 -0.58393653409E+01  0.12640491758E+02  0.29230209791E+02  0.00000000000E+00 0. -1.
</event>
<event>
 5    1  0.8907853E-005  0.9118800E+02  0.7818608E-02  0.1130116E+00
         25   -1    0    0    0    0  0.00000000000E+00  0.00000000000E+00  0.99999998245E-14  0.12500000000E+03  0.12500000000E+03 0.  0.
        -11    1    3    3    0    0 -0.19699575113E-01 -0.13168174390E+02  0.54696381983E+02  0.56259180647E+02  0.51100000000E-03 0. -1.
         23    2    1    0    0    0  0.18288726527E+02  0.11919259986E+01  0.25617167216E+02  0.93501786373E+02  0.88036620750E+02 0.  0.
         11    1    3    3    0    0  0.18308426102E+02  0.14360100388E+02 -0.29079214767E+02  0.37242605726E+02  0.51100000000E-03 0.  1.
         22    1    1    0    0    0 -0.18288726527E+02 -0.11919259986E+01 -0.25617167216E+02  0.31498213627E+02  0.00000000000E+00 0. -1.
</event>
<event>
 5    1  0.8907853E-005  0.9118800E+02  0.7818608E-02  0.1130116E+00
         25   -1    0    0    0    0  0.00000000000E+00  0.00000000000E+00  0.99999998245E-14  0.12500000000E+03  0.12500000000E+03 0.  0.
        -11    1    3    3    0    0 -0.36513204598E+02  0.11921831799E+02 -0.79254285209E+01  0.39219339629E+02  0.51100000000E-03 0. -1.
         23    2    1    0    0    0  0.22060975863E+02  0.11507839791E+02  0.59509871849E+01  0.99416191035E+02  0.96067933041E+02 0.  0.
         11    1    3    3    0    0  0.58574180461E+02 -0.41399200750E+00  0.13876415706E+02  0.60196851406E+02  0.51100000000E-03 0.  1.
         22    1    1    0    0    0 -0.22060975863E+02 -0.11507839791E+02 -0.59509871849E+01  0.25583808965E+02  0.00000000000E+00 0.  1.
</event>
<event>
 5    1  0.8907853E-005  0.9118800E+02  0.7818608E-02  0.1130116E+00
         25   -1    0    0    0    0  0.00000000000E+00  0.00000000000E+00  0.99999998245E-14  0.12500000000E+03  0.12500000000E+03 0.  0.
        -11    1    3    3    0    0  0.23562487726E+02 -0.46852529759E+01  0.16559834707E+02  0.29178254729E+02  0.51100000000E-03 0. -1.
         23    2    1    0    0    0 -0.26463592118E+02  0.20324839866E+02 -0.86534027883E+01  0.90528240498E+02  0.83708184334E+02 0.  0.
         11    1    3    3    0    0 -0.50026079844E+02  0.25010092842E+02 -0.25213237495E+02  0.61349985768E+02  0.51100000000E-03 0.  1.
         22    1    1    0    0    0  0.26463592118E+02 -0.20324839866E+02  0.86534027883E+01  0.34471759502E+02  0.00000000000E+00 0.  1.
</event>
<event>
 5    1  0.8907853E-005  0.9118800E+02  0.7818608E-02  0.1130116E+00
         25   -1    0    0    0    0  0.00000000000E+00  0.00000000000E+00  0.99999998245E-14  0.12500000000E+03  0.12500000000E+03 0.  0.
        -11    1    3    3    0    0  0.29098202023E+02 -0.36293765745E+01  0.22372879976E+02  0.36883919178E+02  0.51100000000E-03 0.  1.
         23    2    1    0    0    0 -0.10107851234E+02  0.23769983932E+02 -0.12719974869E+02  0.96208012341E+02  0.91798709605E+02 0.  0.
         11    1    3    3    0    0 -0.39206053257E+02  0.27399360506E+02 -0.35092854845E+02  0.59324093163E+02  0.51100000000E-03 0. -1.
         22    1    1    0    0    0  0.10107851234E+02 -0.23769983932E+02  0.12719974869E+02  0.28791987659E+02  0.00000000000E+00 0. -1.
</event>
<event>
 5    1  0.8907853E-005  0.9118800E+02  0.7818608E-02  0.1130116E+00
         25   -1    0    0    0    0  0.00000000000E+00  0.00000000000E+00  0.99999998245E-14  0.12500000000E+03  0.12500000000E+03 0.  0.
        -11    1    3    3    0    0 -0.50336110133E+02  0.29019654250E+02  0.18835129174E+02  0.61078854012E+02  0.51100000000E-03 0. -1.
         23    2    1    0    0    0 -0.21518874952E+02  0.81184418348E+01  0.16382835403E+02  0.96762288108E+02  0.92550375618E+02 0.  0.
         11    1    3    3    0    0  0.28817235181E+02 -0.20901212416E+02 -0.24522937707E+01  0.35683434096E+02  0.51100000000E-03 0.  1.
         22    1    1    0    0    0  0.21518874952E+02 -0.81184418348E+01 -0.16382835403E+02  0.28237711892E+02  0.00000000000E+00 0. -1.
</event>
<event>
 5    1  0.8907853E-005  0.9118800E+02  0.7818608E-02  0.1130116E+00
         25   -1    0    0    0    0  0.00000000000E+00  0.00000000000E+00  0.99999998245E-14  0.12500000000E+03  0.12500000000E+03 0.  0.
        -11    1    3    3    0    0  0.24126445540E+02 -0.16059638140E+02  0.28133690453E+02  0.40391854257E+02  0.51100000000E-03 0. -1.
         23    2    1    0    0    0 -0.55612088525E+01  0.26915024355E+02  0.11488059507E+02  0.95212064671E+02  0.90432384507E+02 0.  0.
         11    1    3    3    0    0 -0.29687654393E+02  0.42974662495E+02 -0.16645630946E+02  0.54820210413E+02  0.51100000000E-03 0.  1.
         22    1    1    0    0    0  0.55612088525E+01 -0.26915024355E+02 -0.11488059507E+02  0.29787935329E+02  0.00000000000E+00 0.  1.
</event>
<event>
 5    1  0.8907853E-005  0.9118800E+02  0.7818608E-02  0.1130116E+00
         25   -1    0    0    0    0  0.00000000000E+00  0.00000000000E+00  0.99999998245E-14  0.12500000000E+03  0.12500000000E+03 0.  0.
        -11    1    3    3    0    0  0.30236786745E+02 -0.11195106214E+01  0.23598410154E+02  0.38371884743E+02  0.51100000000E-03 0. -1.
         23    2    1    0    0    0 -0.23032263248E+02  0.14891728191E+02  0.43585593622E+01  0.97228688210E+02  0.93178173691E+02 0.  0.
         11    1    3    3    0    0 -0.53269049993E+02  0.16011238812E+02 -0.19239850792E+02  0.58856803466E+02  0.51100000000E-03 0.  1.
         22    1    1    0    0    0  0.23032263248E+02 -0.14891728191E+02 -0.43585593622E+01  0.27771311790E+02  0.00000000000E+00 0.  1.
</event>
<event>
 5    1  0.8907853E-005  0.9118800E+02  0.7818608E-02  0.1130116E+00
         25   -1    0    0    0    0  0.00000000000E+00  0.00000000000E+00  0.99999998245E-14  0.12500000000E+03  0.12500000000E+03 0.  0.
        -11    1    3    3    0    0 -0.29090555973E+02 -0.17930806718E+02 -0.20725267075E+02  0.39966373015E+02  0.51100000000E-03 0. -1.
         23    2    1    0    0    0 -0.96212830031E+01  0.78116835821E+01  0.25676299023E+02  0.96489233288E+02  0.92180845743E+02 0.  0.
         11    1    3    3    0    0  0.19469272970E+02  0.25742490301E+02  0.46401566097E+02  0.56522860273E+02  0.51100000000E-03 0.  1.
         22    1    1    0    0    0  0.96212830031E+01 -0.78116835821E+01 -0.25676299023E+02  0.28510766712E+02  0.00000000000E+00 0.  1.
</event>
<event>
 5    1  0.8907853E-005  0.9118800E+02  0.7818608E-02  0.1130116E+00
         25   -1    0    0    0    0  0.00000000000E+00  0.00000000000E+00  0.99999998245E-14  0.12500000000E+03  0.12500000000E+03 0.  0.
        -11    1    3    3    0    0 -0.30213346779E+02 -0.11086792388E+02  0.23634300634E+02  0.39929230593E+02  0.51100000000E-03 0. -1.
         23    2    1    0    0    0  0.19565580996E+02 -0.23063661722E+02  0.12183159242E+02  0.92393653672E+02  0.86448906401E+02 0.  0.
         11    1    3    3    0    0  0.49778927776E+02 -0.11976869333E+02 -0.11451141392E+02  0.52464423078E+02  0.51100000000E-03 0.  1.
         22    1    1    0    0    0 -0.19565580996E+02  0.23063661722E+02 -0.12183159242E+02  0.32606346328E+02  0.00000000000E+00 0.  1.
</event>
<event>
 5    1  0.8907853E-005  0.9118800E+02  0.7818608E-02  0.1130116E+00
         25   -1    0    0    0    0  0.00000000000E+00  0.00000000000E+00  0.99999998245E-14  0.12500000000E+03  0.12500000000E+03 0.  0.
        -11    1    3    3    0    0 -0.34009693924E+02  0.46180556671E+02 -0.24609713250E+01  0.57405221674E+02  0.51100000000E-03 0.  1.
         23    2    1    0    0    0 -0.23252058725E+02  0.78479508113E+01 -0.10971807120E+02  0.98118238183E+02  0.94363973770E+02 0.  0.
         11    1    3    3    0    0  0.10757635199E+02 -0.38332605860E+02 -0.85108357954E+01  0.40713016509E+02  0.51100000000E-03 0. -1.
         22    1    1    0    0    0  0.23252058725E+02 -0.78479508113E+01  0.10971807120E+02  0.26881761817E+02  0.00000000000E+00 0.  1.
</event>
<event>
 5    1  0.8907853E-005  0.9118800E+02  0.7818608E-02  0.1130116E+00
         25   -1    0    0    0    0  0.00000000000E+00  0.00000000000E+00  0.99999998245E-14  0.12500000000E+03  0.12500000000E+03 0.  0.
        -11    1    3    3    0    0 -0.10291287216E+02 -0.12940434398E+00  0.51726622281E+02  0.52740599076E+02  0.51100000000E-03 0.  1.
         23    2    1    0    0    0  0.59922845337E+01 -0.21750873499E+02  0.17102264049E+02  0.96689305775E+02  0.92451751977E+02 0.  0.
         11    1    3    3    0    0  0.16283571749E+02 -0.21621469155E+02 -0.34624358231E+02  0.43948706699E+02  0.51100000000E-03 0. -1.
         22    1    1    0    0    0 -0.59922845337E+01  0.21750873499E+02 -0.17102264049E+02  0.28310694225E+02  0.00000000000E+00 0. -1.
</event>
<event>
 5    1  0.8907853E-005  0.9118800E+02  0.7818608E-02  0.1130116E+00
         25   -1    0    0    0    0  0.00000000000E+00  0.00000000000E+00  0.99999998245E-14  0.12500000000E+03  0.12500000000E+03 0.  0.
        -11    1    3    3    0    0  0.12419400801E+02  0.61445068242E+01  0.53449005739E+02  0.55215873580E+02  0.51100000000E-03 0.  1.
         23    2    1    0    0    0  0.92641268225E+01  0.22723916555E+02  0.17717283323E+02  0.94732813846E+02  0.89767496687E+02 0.  0.
         11    1    3    3    0    0 -0.31552739786E+01  0.16579409730E+02 -0.35731722416E+02  0.39516940266E+02  0.51100000000E-03 0. -1.
         22    1    1    0    0    0 -0.92641268225E+01 -0.22723916555E+02 -0.17717283323E+02  0.30267186154E+02  0.00000000000E+00 0.  1.
</event>
<event>
 5    1  0.8907853E-005  0.9118800E+02  0.7818608E-02  0.1130116E+00
         25   -1    0    0    0    0  0.00000000000E+00  0.00000000000E+00  0.99999998245E-14  0.12500000000E+03  0.12500000000E+03 0.  0.
        -11    1    3    3    0    0  0.19914875286E+02 -0.65485986252E+01  0.43967929138E+02  0.48710011236E+02  0.51100000000E-03 0.  1.
         23    2    1    0    0    0 -0.70218382167E+01 -0.26306658596E+02  0.11031467249E+02  0.95622461504E+02  0.90997886657E+02 0.  0.
         11    1    3    3    0    0 -0.26936713503E+02 -0.19758059970E+02 -0.32936461889E+02  0.46912450268E+02  0.51100000000E-03 0. -1.
         22    1    1    0    0    0  0.70218382167E+01  0.26306658596E+02 -0.11031467249E+02  0.29377538496E+02  0.00000000000E+00 0.  1.
</event>
<event>
 5    1  0.8907853E-005  0.9118800E+02  0.7818608E-02  0.1130116E+00
         25   -1    0    0    0    0  0.00000000000E+00  0.00000000000E+00  0.99999998245E-14  0.12500000000E+03  0.12500000000E+03 0.  0.
        -11    1    3    3    0    0  0.49499255662E+01  0.57382184523E+01  0.38020217272E+02  0.38768103330E+02  0.51100000000E-03 0.  1.
         23    2    1    0    0    0  0.23631423534E+02  0.86352546457E+01 -0.15445420704E+02  0.95477587806E+02  0.90798661617E+02 0.  0.
         11    1    3    3    0    0  0.18681497968E+02  0.28970361934E+01 -0.53465637976E+02  0.56709484476E+02  0.51100000000E-03 0. -1.
         22    1    1    0    0    0 -0.23631423534E+02 -0.86352546457E+01  0.15445420704E+02  0.29522412194E+02  0.00000000000E+00 0. -1.
</event>
<event>
 5    1  0.8907853E-005  0.9118800E+02  0.7818608E-02  0.1130116E+00
         25   -1    0    0    0    0  0.00000000000E+00  0.00000000000E+00  0.99999998245E-14  0.12500000000E+03  0.12500000000E+03 0.  0.
        -11    1    3    3    0    0 -0.19628107703E+02 -0.40656569352E+02 -0.42973193437E+02  0.62329083082E+02  0.51100000000E-03 0.  1.
         23    2    1    0    0    0 -0.49369493626E+01 -0.13404349969E+02 -0.99745625082E+01  0.10757754425E+03  0.10615736462E+03 0.  0.
         11    1    3    3    0    0  0.14691158341E+02  0.27252219383E+02  0.32998630928E+02  0.45248461168E+02  0.51100000000E-03 0. -1.
         22    1    1    0    0    0  0.49369493626E+01  0.13404349969E+02  0.99745625082E+01  0.17422455749E+02  0.00000000000E+00 0.  1.
</event>
<event>
 5    1  0.8907853E-005  0.9118800E+02  0.7818608E-02  0.1130116E+00
         25   -1    0    0    0    0  0.00000000000E+00  0.00000000000E+00  0.99999998245E-14  0.12500000000E+03  0.12500000000E+03 0.  0.
        -11    1    3    3    0    0 -0.59841179169E+01 -0.17175007067E+02 -0.29770611343E+02  0.34886671309E+02  0.51100000000E-03 0.  1.
         23    2    1    0    0    0  0.16807948365E+02 -0.93897166687E+01  0.24251945400E+02  0.94035007459E+02  0.88790494225E+02 0.  0.
         11    1    3    3    0    0  0.22792066282E+02  0.77852903987E+01  0.54022556743E+02  0.59148336150E+02  0.51100000000E-03 0. -1.
         22    1    1    0    0    0 -0.16807948365E+02  0.93897166687E+01 -0.24251945400E+02  0.30964992541E+02  0.00000000000E+00 0. -1.
</event>
<event>
 5    1  0.8907853E-005  0.9118800E+02  0.7818608E-02  0.1130116E+00
         25   -1    0    0    0    0  0.00000000000E+00  0.00000000000E+00  0.99999998245E-14  0.12500000000E+03  0.12500000000E+03 0.  0.
        -11    1    3    3    0    0 -0.22204584948E+02  0.18934473027E+02 -0.16748486527E+02  0.33646242921E+02  0.51100000000E-03 0.  1.
         23    2    1    0    0    0  0.22755378307E+02 -0.12381730433E+02  0.13024417750E+02  0.96004311560E+02  0.91520915041E+02 0.  0.
         11    1    3    3    0    0  0.44959963255E+02 -0.31316203460E+02  0.29772904276E+02  0.62358068639E+02  0.51100000000E-03 0. -1.
         22    1    1    0    0    0 -0.22755378307E+02  0.12381730433E+02 -0.13024417750E+02  0.28995688440E+02  0.00000000000E+00 0. -1.
</event>
<event>
 5    1  0.8907853E-005  0.9118800E+02  0.7818608E-02  0.1130116E+00
         25   -1    0    0    0    0  0.00000000000E+00  0.00000000000E+00  0.99999998245E-14  0.12500000000E+03  0.12500000000E+03 0.  0.
        -11    1    3    3    0    0 -0.80197621235E+01 -0.40879830038E+02 -0.40026088839E+02  0.57771661534E+02  0.51100000000E-03 0.  1.
         23    2    1    0    0    0 -0.69987053858E+00 -0.27667613424E+02 -0.37449750102E+01  0.97071314224E+02  0.92966814273E+02 0.  0.
         11    1    3    3    0    0  0.73198915849E+01  0.13212216614E+02  0.36281113829E+02  0.39299652690E+02  0.51100000000E-03 0. -1.
         22    1    1    0    0    0  0.69987053858E+00  0.27667613424E+02  0.37449750102E+01  0.27928685776E+02  0.00000000000E+00 0.  1.
</event>
<event>
 5    1  0.8907853E-005  0.9118800E+02  0.7818608E-02  0.1130116E+00
         25   -1    0    0    0    0  0.00000000000E+00  0.00000000000E+00  0.99999998245E-14  0.12500000000E+03  0.12500000000E+03 0.  0.
        -11    1    3    3    0    0 -0.24242771260E+02 -0.19326797253E+01  0.44706896721E+02  0.50893553854E+02  0.51100000000E-03 0.  1.
         23    2    1    0    0    0  0.20892119468E+01  0.21563113706E+02  0.27017597666E+02  0.90369330603E+02  0.83470549601E+02 0.  0.
         11    1    3    3    0    0  0.26331983207E+02  0.23495793432E+02 -0.17689299055E+02  0.39475776748E+02  0.51100000000E-03 0. -1.
         22    1    1    0    0    0 -0.20892119468E+01 -0.21563113706E+02 -0.27017597666E+02  0.34630669397E+02  0.00000000000E+00 0. -1.
</event>
<event>
 5    1  0.8907853E-005  0.9118800E+02  0.7818608E-02  0.1130116E+00
         25   -1    0    0    0    0  0.00000000000E+00  0.00000000000E+00  0.99999998245E-14  0.12500000000E+03  0.12500000000E+03 0.  0.
        -11    1    3    3    0    0 -0.50271475242E+02  0.33266659622E+02  0.15347304054E+02  0.62204755505E+02  0.51100000000E-03 0. -1.
         23    2    1    0    0    0 -0.23543508805E+02  0.15010762075E+02  0.11509909339E+02  0.94799043095E+02  0.89859672678E+02 0.  0.
         11    1    3    3    0    0  0.26727966437E+02 -0.18255897547E+02 -0.38373947149E+01  0.32594287591E+02  0.51100000000E-03 0.  1.
         22    1    1    0    0    0  0.23543508805E+02 -0.15010762075E+02 -0.11509909339E+02  0.30200956905E+02  0.00000000000E+00 0. -1.
</event>
<event>
 5    1  0.8907853E-005  0.9118800E+02  0.7818608E-02  0.1130116E+00
         25   -1    0    0    0    0  0.00000000000E+00  0.00000000000E+00  0.99999998245E-14  0.12500000000E+03  0.12500000000E+03 0.  0.
        -11    1    3    3    0    0 -0.11675864940E+02  0.44712027874E+02  0.54151234693E+01  0.46527570548E+02  0.51100000000E-03 0.  1.
         23    2    1    0    0    0  0.19579456711E+02  0.10706269819E+02  0.20072736954E+02  0.94985101910E+02  0.90118119584E+02 0.  0.
         11    1    3    3    0    0  0.31255321651E+02 -0.34005758054E+02  0.14657613485E+02  0.48457531362E+02  0.51100000000E-03 0. -1.
         22    1    1    0    0    0 -0.19579456711E+02 -0.10706269819E+02 -0.20072736954E+02  0.30014898090E+02  0.00000000000E+00 0.  1.
</event>
<event>
 5    1  0.8907853E-005  0.9118800E+02  0.7818608E-02  0.1130116E+00
         25   -1    0    0    0    0  0.00000000000E+00  0.00000000000E+00  0.99999998245E-14  0.12500000000E+03  0.12500000000E+03 0.  0.
        -11    1    3    3    0    0  0.50367942973E+02  0.24256258585E+02  0.25246672078E+02  0.61340771198E+02  0.51100000000E-03 0. -1.
         23    2    1    0    0    0  0.26836020771E+02  0.12942006590E+02  0.41306483215E+01  0.94921273283E+02  0.90029541378E+02 0.  0.
         11    1    3    3    0    0 -0.23531922202E+02 -0.11314251995E+02 -0.21116023756E+02  0.33580502085E+02  0.51100000000E-03 0.  1.
         22    1    1    0    0    0 -0.26836020771E+02 -0.12942006590E+02 -0.41306483215E+01  0.30078726717E+02  0.00000000000E+00 0. -1.
</event>
<event>
 5    1  0.8907853E-005  0.9118800E+02  0.7818608E-02  0.1130116E+00
         25   -1    0    0    0    0  0.00000000000E+00  0.00000000000E+00  0.99999998245E-14  0.12500000000E+03  0.12500000000E+03 0.  0.
        -11    1    3    3    0    0 -0.28247086853E+02  0.29436979571E+01 -0.14627393554E+02  0.31945640012E+02  0.51100000000E-03 0.  1.
         23    2    1    0    0    0 -0.65071100906E+01 -0.14379739568E+02  0.33750498226E+02  0.87741235632E+02  0.79437452804E+02 0.  0.
         11    1    3    3    0    0  0.21739976762E+02 -0.17323437525E+02  0.48377891779E+02  0.55795595620E+02  0.51100000000E-03 0. -1.
         22    1    1    0    0    0  0.65071100906E+01  0.14379739568E+02 -0.33750498226E+02  0.37258764368E+02  0.00000000000E+00 0. -1.
</event>
<event>
 5    1  0.8907853E-005  0.9118800E+02  0.7818608E-02  0.1130116E+00
         25   -1    0    0    0    0  0.00000000000E+00  0.00000000000E+00  0.99999998245E-14  0.12500000000E+03  0.12500000000E+03 0.  0.
        -11    1    3    3    0    0  0.33885085695E+02 -0.23484216609E+01 -0.40703518536E+02  0.53014059818E+02  0.51100000000E-03 0.  1.
         23    2    1    0    0    0  0.23631996372E+02 -0.15580398476E+02 -0.36073617736E+00  0.96691870429E+02  0.92455219471E+02 0.  0.
         11    1    3    3    0    0 -0.10253089323E+02 -0.13231976816E+02  0.40342782359E+02  0.43677810612E+02  0.51100000000E-03 0. -1.
         22    1    1    0    0    0 -0.23631996372E+02  0.15580398476E+02  0.36073617736E+00  0.28308129571E+02  0.00000000000E+00 0. -1.
</event>
<event>
 5    1  0.8907853E-005  0.9118800E+02  0.7818608E-02  0.1130116E+00
         25   -1    0    0    0    0  0.00000000000E+00  0.00000000000E+00  0.99999998245E-14  0.12500000000E+03  0.12500000000E+03 0.  0.
        -11    1    3    3    0    0 -0.31144567249E+02  0.24825509748E+02  0.21309865316E+02  0.45170791042E+02  0.51100000000E-03 0.  1.
         23    2    1    0    0    0 -0.25747380035E+02 -0.53375265488E+01 -0.16590651866E+02  0.93908739208E+02  0.88612554426E+02 0.  0.
         11    1    3    3    0    0  0.53971872141E+01 -0.30163036296E+02 -0.37900517182E+02  0.48737948165E+02  0.51100000000E-03 0. -1.
         22    1    1    0    0    0  0.25747380035E+02  0.53375265488E+01  0.16590651866E+02  0.31091260792E+02  0.00000000000E+00 0.  1.
</event>
<event>
 5    1  0.8907853E-005  0.9118800E+02  0.7818608E-02  0.1130116E+00
         25   -1    0    0    0    0  0.00000000000E+00  0.00000000000E+00  0.99999998245E-14  0.12500000000E+03  0.12500000000E+03 0.  0.
        -11    1    3    3    0    0 -0.33283495804E+02 -0.10350078756E+02  0.26540562228E+01  0.34956533551E+02  0.51100000000E-03 0. -1.
         23    2    1    0    0    0  0.23571797226E+02  0.13196241519E+02 -0.66116511552E+01  0.97188413464E+02  0.93124128806E+02 0.  0.
         11    1    3    3    0    0  0.56855293030E+02  0.23546320275E+02 -0.92657073780E+01  0.62231879913E+02  0.51100000000E-03 0.  1.
         22    1    1    0    0    0 -0.23571797226E+02 -0.13196241519E+02  0.66116511552E+01  0.27811586536E+02  0.00000000000E+00 0.  1.
</event>
<event>
 5    1  0.8907853E-005  0.9118800E+02  0.7818608E-02  0.1130116E+00
         25   -1    0    0    0    0  0.00000000000E+00  0.00000000000E+00  0.99999998245E-14  0.12500000000E+03  0.12500000000E+03 0.  0.
        -11    1    3    3    0    0 -0.20999045239E+02 -0.34088942376E+02  0.26190313992E+02  0.47842956018E+02  0.51100000000E-03 0.  1.
         23    2    1    0    0    0  0.14582546887E+02 -0.21783703002E+02  0.29377847812E+02  0.85626933923E+02  0.76037710912E+02 0.  0.
         11    1    3    3    0    0  0.35581592126E+02  0.12305239374E+02  0.31875338204E+01  0.37783977906E+02  0.51100000000E-03 0. -1.
         22    1    1    0    0    0 -0.14582546887E+02  0.21783703002E+02 -0.29377847812E+02  0.39373066077E+02  0.00000000000E+00 0.  1.
</event>
<event>
 5    1  0.8907853E-005  0.9118800E+02  0.7818608E-02  0.1130116E+00
         25   -1    0    0    0    0  0.00000000000E+00  0.00000000000E+00  0.99999998245E-14  0.12500000000E+03  0.12500000000E+03 0.  0.
        -11    1    3    3    0    0 -0.25439874167E+02 -0.37308535817E+01 -0.38383986421E+02  0.46199966233E+02  0.51100000000E-03 0.  1.
         23    2    1    0    0    0 -0.84442156999E+00  0.28257747708E+02 -0.18773125304E+02  0.91064125368E+02  0.84504623199E+02 0.  0.
         11    1    3    3    0    0  0.24595452597E+02  0.31988601290E+02  0.19610861117E+02  0.44864159136E+02  0.51100000000E-03 0. -1.
         22    1    1    0    0    0  0.84442156999E+00 -0.28257747708E+02  0.18773125304E+02  0.33935874632E+02  0.00000000000E+00 0.  1.
</event>
<event>
 5    1  0.8907853E-005  0.9118800E+02  0.7818608E-02  0.1130116E+00
         25   -1    0    0    0    0  0.00000000000E+00  0.00000000000E+00  0.99999998245E-14  0.12500000000E+03  0.12500000000E+03 0.  0.
        -11    1    3    3    0    0 -0.18000022891E+02  0.46055513786E+02  0.17939664194E+02  0.52601736909E+02  0.51100000000E-03 0.  1.
         23    2    1    0    0    0 -0.29772224626E+01  0.21315367720E+02 -0.16711779621E+02  0.97751287503E+02  0.93876631148E+02 0.  0.
         11    1    3    3    0    0  0.15022800428E+02 -0.24740146066E+02 -0.34651443815E+02  0.45149550594E+02  0.51100000000E-03 0. -1.
         22    1    1    0    0    0  0.29772224626E+01 -0.21315367720E+02  0.16711779621E+02  0.27248712497E+02  0.00000000000E+00 0.  1.
</event>
<event>
 5    1  0.8907853E-005  0.9118800E+02  0.7818608E-02  0.1130116E+00
         25   -1    0    0    0    0  0.00000000000E+00  0.00000000000E+00  0.99999998245E-14  0.12500000000E+03  0.12500000000E+03 0.  0.
        -11    1    3    3    0    0 -0.13374029114E+01  0.15860562234E+02  0.54846909467E+02  0.57109802655E+02  0.51100000000E-03 0. -1.
         23    2    1    0    0    0  0.16413147589E+02  0.12548218743E+02  0.20605492898E+02  0.95820631519E+02  0.91269698585E+02 0.  0.
         11    1    3    3    0    0  0.17750550500E+02 -0.33123434909E+01 -0.34241416569E+02  0.38710828864E+02  0.51100000000E-03 0.  1.
         22    1    1    0    0    0 -0.16413147589E+02 -0.12548218743E+02 -0.20605492898E+02  0.29179368481E+02  0.00000000000E+00 0. -1.
</event>
<event>
 5    1  0.8907853E-005  0.9118800E+02  0.7818608E-02  0.1130116E+00
         25   -1    0    0    0    0  0.00000000000E+00  0.00000000000E+00  0.99999998245E-14  0.12500000000E+03  0.12500000000E+03 0.  0.
        -11    1    3    3    0    0 -0.24969198645E+02 -0.38664789515E+02 -0.26099125373E+02  0.52911163044E+02  0.51100000000E-03 0.  1.
         23    2    1    0    0    0 -0.30342527655E+02 -0.91256567105E+01 -0.27610128046E+02  0.82973035256E+02  0.71542007338E+02 0.  0.
         11    1    3    3    0    0 -0.53733290107E+01  0.29539132805E+02 -0.15110026731E+01  0.30061872211E+02  0.51100000000E-03 0. -1.
         22    1    1    0    0    0  0.30342527655E+02  0.91256567105E+01  0.27610128046E+02  0.42026964744E+02  0.00000000000E+00 0.  1.
</event>
