<event>
 5    1  0.1102386E-009  0.9118800E+02  0.7818608E-02  0.1130116E+00
         25   -1    0    0    0    0  0.00000000000E+00  0.00000000000E+00  0.99999998245E-14  0.12500000000E+03  0.12500000000E+03 0.  0.
        -11    1    3    3    0    0  0.10188506937E+02 -0.39738290339E+02  0.25910401164E+02  0.48520988051E+02  0.51100000000E-03 0.  1.
         23    2    1    0    0    0 -0.24559822679E+02 -0.15716572220E+02  0.59569446441E+01  0.95239611530E+02  0.90470453092E+02 0.  0.
         11    1    3    3    0    0 -0.34748329616E+02  0.24021718119E+02 -0.19953456520E+02  0.46718623480E+02  0.51100000000E-03 0. -1.
         22    1    1    0    0    0  0.24559822679E+02  0.15716572220E+02 -0.59569446441E+01  0.29760388470E+02  0.00000000000E+00 0. -1.
</event>
<event>
 5    1  0.1102386E-009  0.9118800E+02  0.7818608E-02  0.1130116E+00
         25   -1    0    0    0    0  0.00000000000E+00  0.00000000000E+00  0.99999998245E-14  0.12500000000E+03  0.12500000000E+03 0.  0.
        -11    1    3    3    0    0 -0.15837523580E+02  0.24243171174E+02 -0.40845358690E+02  0.50068970715E+02  0.51100000000E-03 0. -1.
         23    2    1    0    0    0 -0.34111963292E+01 -0.16337327090E+02 -0.24081867113E+02  0.95700156306E+02  0.91104550252E+02 0.  0.
         11    1    3    3    0    0  0.12426327251E+02 -0.40580498264E+02  0.16763491577E+02  0.45631185591E+02  0.51100000000E-03 0.  1.
         22    1    1    0    0    0  0.34111963292E+01  0.16337327090E+02  0.24081867113E+02  0.29299843694E+02  0.00000000000E+00 0. -1.
</event>
<event>
 5    1  0.1102386E-009  0.9118800E+02  0.7818608E-02  0.1130116E+00
         25   -1    0    0    0    0  0.00000000000E+00  0.00000000000E+00  0.99999998245E-14  0.12500000000E+03  0.12500000000E+03 0.  0.
        -11    1    3    3    0    0 -0.21764586333E+02  0.55919676788E+02  0.12609840595E+02  0.61316519393E+02  0.51100000000E-03 0.  1.
         23    2    1    0    0    0 -0.95547177504E+01  0.27838611388E+02 -0.24982254107E+01  0.95461515856E+02  0.90776533113E+02 0.  0.
         11    1    3    3    0    0  0.12209868583E+02 -0.28081065400E+02 -0.15108066006E+02  0.34144996464E+02  0.51100000000E-03 0. -1.
         22    1    1    0    0    0  0.95547177504E+01 -0.27838611388E+02  0.24982254107E+01  0.29538484144E+02  0.00000000000E+00 0.  1.
</event>
<event>
 5    1  0.1102386E-009  0.9118800E+02  0.7818608E-02  0.1130116E+00
         25   -1    0    0    0    0  0.00000000000E+00  0.00000000000E+00  0.99999998245E-14  0.12500000000E+03  0.12500000000E+03 0.  0.
        -11    1    3    3    0    0  0.31823858085E+02  0.28052701123E+02 -0.21230075448E+02  0.47438677126E+02  0.51100000000E-03 0.  1.
         23    2    1    0    0    0  0.23725270246E+02 -0.59137690503E+01  0.13819482366E+02  0.96913718554E+02  0.92754674483E+02 0.  0.
         11    1    3    3    0    0 -0.80985878387E+01 -0.33966470173E+02  0.35049557815E+02  0.49475041427E+02  0.51100000000E-03 0. -1.
         22    1    1    0    0    0 -0.23725270246E+02  0.59137690503E+01 -0.13819482366E+02  0.28086281446E+02  0.00000000000E+00 0.  1.
</event>
<event>
 5    1  0.1102386E-009  0.9118800E+02  0.7818608E-02  0.1130116E+00
         25   -1    0    0    0    0  0.00000000000E+00  0.00000000000E+00  0.99999998245E-14  0.12500000000E+03  0.12500000000E+03 0.  0.
        -11    1    3    3    0    0 -0.12824357347E+01  0.25019912918E+02 -0.40776998402E+02  0.47858168402E+02  0.51100000000E-03 0. -1.
         23    2    1    0    0    0 -0.22274791244E+02 -0.10150987858E+02 -0.16651270073E+02  0.95394701919E+02  0.90684483125E+02 0.  0.
         11    1    3    3    0    0 -0.20992355509E+02 -0.35170900775E+02  0.24125728329E+02  0.47536533517E+02  0.51100000000E-03 0.  1.
         22    1    1    0    0    0  0.22274791244E+02  0.10150987858E+02  0.16651270073E+02  0.29605298081E+02  0.00000000000E+00 0. -1.
</event>
<event>
 5    1  0.1102386E-009  0.9118800E+02  0.7818608E-02  0.1130116E+00
         25   -1    0    0    0    0  0.00000000000E+00  0.00000000000E+00  0.99999998245E-14  0.12500000000E+03  0.12500000000E+03 0.  0.
        -11    1    3    3    0    0  0.52136229458E+01 -0.80049197866E+01  0.25913342291E+02  0.27618144651E+02  0.51100000000E-03 0.  1.
         23    2    1    0    0    0  0.20369321327E+02  0.15880524052E+02 -0.27010699357E+02  0.87627842245E+02  0.79258820085E+02 0.  0.
         11    1    3    3    0    0  0.15155698381E+02  0.23885443839E+02 -0.52924041648E+02  0.60009697595E+02  0.51100000000E-03 0. -1.
         22    1    1    0    0    0 -0.20369321327E+02 -0.15880524052E+02  0.27010699357E+02  0.37372157755E+02  0.00000000000E+00 0. -1.
</event>
<event>
 5    1  0.1102386E-009  0.9118800E+02  0.7818608E-02  0.1130116E+00
         25   -1    0    0    0    0  0.00000000000E+00  0.00000000000E+00  0.99999998245E-14  0.12500000000E+03  0.12500000000E+03 0.  0.
        -11    1    3    3    0    0 -0.26311326651E+02  0.30271811756E+02  0.15955164419E+01  0.40139932362E+02  0.51100000000E-03 0. -1.
         23    2    1    0    0    0 -0.44122902656E+01 -0.15139163077E+02  0.24777767062E+02  0.95629942039E+02  0.91008161775E+02 0.  0.
         11    1    3    3    0    0  0.21899036385E+02 -0.45410974832E+02  0.23182250620E+02  0.55490009677E+02  0.51100000000E-03 0.  1.
         22    1    1    0    0    0  0.44122902656E+01  0.15139163077E+02 -0.24777767062E+02  0.29370057961E+02  0.00000000000E+00 0.  1.
</event>
<event>
 5    1  0.1102386E-009  0.9118800E+02  0.7818608E-02  0.1130116E+00
         25   -1    0    0    0    0  0.00000000000E+00  0.00000000000E+00  0.99999998245E-14  0.12500000000E+03  0.12500000000E+03 0.  0.
        -11    1    3    3    0    0 -0.16712048254E+02 -0.50292421183E+01 -0.33339987200E+02  0.37631643332E+02  0.51100000000E-03 0. -1.
         23    2    1    0    0    0  0.21468302952E+02 -0.99103035476E+01  0.13115041295E+02  0.97961019690E+02  0.94155482700E+02 0.  0.
         11    1    3    3    0    0  0.38180351206E+02 -0.48810614294E+01  0.46455028495E+02  0.60329376357E+02  0.51100000000E-03 0.  1.
         22    1    1    0    0    0 -0.21468302952E+02  0.99103035476E+01 -0.13115041295E+02  0.27038980310E+02  0.00000000000E+00 0.  1.
</event>
<event>
 5    1  0.1102386E-009  0.9118800E+02  0.7818608E-02  0.1130116E+00
         25   -1    0    0    0    0  0.00000000000E+00  0.00000000000E+00  0.99999998245E-14  0.12500000000E+03  0.12500000000E+03 0.  0.
        -11    1    3    3    0    0 -0.29926520344E+02 -0.25523525681E+02  0.97882691971E+01  0.40532174840E+02  0.51100000000E-03 0. -1.
         23    2    1    0    0    0 -0.16584693816E+02  0.25847343518E+02  0.14784981538E+01  0.94253891422E+02  0.89098108035E+02 0.  0.
         11    1    3    3    0    0  0.13341826528E+02  0.51370869200E+02 -0.83097710433E+01  0.53721716582E+02  0.51100000000E-03 0.  1.
         22    1    1    0    0    0  0.16584693816E+02 -0.25847343518E+02 -0.14784981538E+01  0.30746108578E+02  0.00000000000E+00 0. -1.
</event>
<event>
 5    1  0.1102386E-009  0.9118800E+02  0.7818608E-02  0.1130116E+00
         25   -1    0    0    0    0  0.00000000000E+00  0.00000000000E+00  0.99999998245E-14  0.12500000000E+03  0.12500000000E+03 0.  0.
        -11    1    3    3    0    0 -0.13125325712E+02 -0.22321438075E+02  0.33885423165E+02  0.42646719406E+02  0.51100000000E-03 0. -1.
         23    2    1    0    0    0  0.23055404746E+02 -0.16337000666E+02 -0.52285134897E+01  0.96263496524E+02  0.91874229961E+02 0.  0.
         11    1    3    3    0    0  0.36180730458E+02  0.59844374099E+01 -0.39113936655E+02  0.53616777117E+02  0.51100000000E-03 0.  1.
         22    1    1    0    0    0 -0.23055404746E+02  0.16337000666E+02  0.52285134897E+01  0.28736503476E+02  0.00000000000E+00 0.  1.
</event>
<event>
 5    1  0.1102386E-009  0.9118800E+02  0.7818608E-02  0.1130116E+00
         25   -1    0    0    0    0  0.00000000000E+00  0.00000000000E+00  0.99999998245E-14  0.12500000000E+03  0.12500000000E+03 0.  0.
        -11    1    3    3    0    0  0.11066573249E+02 -0.28720891893E+02  0.17530977740E+02  0.35421657999E+02  0.51100000000E-03 0. -1.
         23    2    1    0    0    0 -0.10802217964E+02  0.14370204508E+01 -0.28412031791E+02  0.94569809543E+02  0.89540227752E+02 0.  0.
         11    1    3    3    0    0 -0.21868791213E+02  0.30157912343E+02 -0.45943009532E+02  0.59148151545E+02  0.51100000000E-03 0.  1.
         22    1    1    0    0    0  0.10802217964E+02 -0.14370204508E+01  0.28412031791E+02  0.30430190457E+02  0.00000000000E+00 0.  1.
</event>
<event>
 5    1  0.1102386E-009  0.9118800E+02  0.7818608E-02  0.1130116E+00
         25   -1    0    0    0    0  0.00000000000E+00  0.00000000000E+00  0.99999998245E-14  0.12500000000E+03  0.12500000000E+03 0.  0.
        -11    1    3    3    0    0  0.32411189794E+02  0.36255062655E+02 -0.50774711635E+01  0.48894739038E+02  0.51100000000E-03 0.  1.
         23    2    1    0    0    0  0.19039712554E+02 -0.65326817713E+01 -0.20468849314E+02  0.96291806440E+02  0.91912739106E+02 0.  0.
         11    1    3    3    0    0 -0.13371477240E+02 -0.42787744426E+02 -0.15391378150E+02  0.47397067401E+02  0.51100000000E-03 0. -1.
         22    1    1    0    0    0 -0.19039712554E+02  0.65326817713E+01  0.20468849314E+02  0.28708193560E+02  0.00000000000E+00 0.  1.
</event>
<event>
 4    1  0.1102386E-009  0.9118800E+02  0.7818608E-02  0.1130116E+00
         25   -1    0    0    0    0  0.00000000000E+00  0.00000000000E+00  0.99999998245E-14  0.12500000000E+03  0.12500000000E+03 0.  0.
        -11    1    1    0    0    0 -0.15740154986E+02  0.42801720258E+02  0.22594975845E+02  0.50894721433E+02  0.51100000000E-03 0. -1.
         11    1    1    0    0    0 -0.60443205512E-01  0.56649691743E+01 -0.22423141897E+02  0.23127750041E+02  0.51100000000E-03 0.  1.
         22    1    1    0    0    0  0.15800598191E+02 -0.48466689433E+02 -0.17183394807E+00  0.50977528526E+02  0.00000000000E+00 0. -1.
</event>
<event>
 5    1  0.1102386E-009  0.9118800E+02  0.7818608E-02  0.1130116E+00
         25   -1    0    0    0    0  0.00000000000E+00  0.00000000000E+00  0.99999998245E-14  0.12500000000E+03  0.12500000000E+03 0.  0.
        -11    1    3    3    0    0  0.48657154312E+02  0.61115761369E+00  0.25670964969E+01  0.48728658549E+02  0.51100000000E-03 0.  1.
         23    2    1    0    0    0  0.12085168349E+02  0.93111360781E+01 -0.25253470585E+02  0.95495994752E+02  0.90823998415E+02 0.  0.
         11    1    3    3    0    0 -0.36571985963E+02  0.86999784644E+01 -0.27820567081E+02  0.46767336203E+02  0.51100000000E-03 0. -1.
         22    1    1    0    0    0 -0.12085168349E+02 -0.93111360781E+01  0.25253470585E+02  0.29504005248E+02  0.00000000000E+00 0.  1.
</event>
<event>
 5    1  0.1102386E-009  0.9118800E+02  0.7818608E-02  0.1130116E+00
         25   -1    0    0    0    0  0.00000000000E+00  0.00000000000E+00  0.99999998245E-14  0.12500000000E+03  0.12500000000E+03 0.  0.
        -11    1    3    3    0    0 -0.16093146242E+02 -0.32597916784E+02 -0.65817417044E+00  0.36359960508E+02  0.51100000000E-03 0.  1.
         23    2    1    0    0    0  0.16177108751E+02  0.20207052255E+02 -0.58505010161E+01  0.98462250086E+02  0.94818576880E+02 0.  0.
         11    1    3    3    0    0  0.32270254993E+02  0.52804969039E+02 -0.51923268456E+01  0.62102289578E+02  0.51100000000E-03 0. -1.
         22    1    1    0    0    0 -0.16177108751E+02 -0.20207052255E+02  0.58505010161E+01  0.26537749914E+02  0.00000000000E+00 0. -1.
</event>
<event>
 5    1  0.1102386E-009  0.9118800E+02  0.7818608E-02  0.1130116E+00
         25   -1    0    0    0    0  0.00000000000E+00  0.00000000000E+00  0.99999998245E-14  0.12500000000E+03  0.12500000000E+03 0.  0.
        -11    1    3    3    0    0  0.33743341580E+02  0.43645776582E+02 -0.97179676340E+00  0.55177090388E+02  0.51100000000E-03 0. -1.
         23    2    1    0    0    0  0.22189683581E+02  0.10345973202E+02  0.17437213983E+02  0.94942095043E+02  0.90058446360E+02 0.  0.
         11    1    3    3    0    0 -0.11553657998E+02 -0.33299803380E+02  0.18409010746E+02  0.39765004655E+02  0.51100000000E-03 0.  1.
         22    1    1    0    0    0 -0.22189683581E+02 -0.10345973202E+02 -0.17437213983E+02  0.30057904957E+02  0.00000000000E+00 0. -1.
</event>
<event>
 5    1  0.1102386E-009  0.9118800E+02  0.7818608E-02  0.1130116E+00
         25   -1    0    0    0    0  0.00000000000E+00  0.00000000000E+00  0.99999998245E-14  0.12500000000E+03  0.12500000000E+03 0.  0.
        -11    1    3    3    0    0 -0.10970671101E+02  0.42071316378E+02  0.38730904959E+02  0.58227435848E+02  0.51100000000E-03 0. -1.
         23    2    1    0    0    0  0.11114492525E+02  0.18346652982E+02  0.20046428469E+02  0.95640318223E+02  0.91022412381E+02 0.  0.
         11    1    3    3    0    0  0.22085163625E+02 -0.23724663397E+02 -0.18684476490E+02  0.37412882375E+02  0.51100000000E-03 0.  1.
         22    1    1    0    0    0 -0.11114492525E+02 -0.18346652982E+02 -0.20046428469E+02  0.29359681777E+02  0.00000000000E+00 0. -1.
</event>
<event>
 5    1  0.1102386E-009  0.9118800E+02  0.7818608E-02  0.1130116E+00
         25   -1    0    0    0    0  0.00000000000E+00  0.00000000000E+00  0.99999998245E-14  0.12500000000E+03  0.12500000000E+03 0.  0.
        -11    1    3    3    0    0 -0.37929099120E+01 -0.55015689914E+02 -0.21900661070E+02  0.59335918784E+02  0.51100000000E-03 0. -1.
         23    2    1    0    0    0 -0.12029912163E+02 -0.31772999370E+02 -0.20997235241E+01  0.90961035349E+02  0.84351993677E+02 0.  0.
         11    1    3    3    0    0 -0.82370022509E+01  0.23242690544E+02  0.19800937546E+02  0.31625116565E+02  0.51100000000E-03 0.  1.
         22    1    1    0    0    0  0.12029912163E+02  0.31772999370E+02  0.20997235241E+01  0.34038964651E+02  0.00000000000E+00 0. -1.
</event>
<event>
 5    1  0.1102386E-009  0.9118800E+02  0.7818608E-02  0.1130116E+00
         25   -1    0    0    0    0  0.00000000000E+00  0.00000000000E+00  0.99999998245E-14  0.12500000000E+03  0.12500000000E+03 0.  0.
        -11    1    3    3    0    0  0.10364920154E+02  0.26446630085E+02  0.11800899726E+02  0.30759015707E+02  0.51100000000E-03 0. -1.
         23    2    1    0    0    0 -0.89831274772E+01  0.36931722976E+02 -0.29050594941E+02  0.77160833957E+02  0.60540965382E+02 0.  0.
         11    1    3    3    0    0 -0.19348047632E+02  0.10485092891E+02 -0.40851494668E+02  0.46401818250E+02  0.51100000000E-03 0.  1.
         22    1    1    0    0    0  0.89831274772E+01 -0.36931722976E+02  0.29050594941E+02  0.47839166043E+02  0.00000000000E+00 0.  1.
</event>
<event>
 5    1  0.1102386E-009  0.9118800E+02  0.7818608E-02  0.1130116E+00
         25   -1    0    0    0    0  0.00000000000E+00  0.00000000000E+00  0.99999998245E-14  0.12500000000E+03  0.12500000000E+03 0.  0.
        -11    1    3    3    0    0 -0.22550380673E+02  0.14906847764E+02  0.51433181610E+02  0.58104267911E+02  0.51100000000E-03 0.  1.
         23    2    1    0    0    0 -0.23673299698E+02 -0.10616100414E+01  0.17768133572E+02  0.95381446607E+02  0.90666210088E+02 0.  0.
         11    1    3    3    0    0 -0.11229190254E+01 -0.15968457805E+02 -0.33665048039E+02  0.37277178696E+02  0.51100000000E-03 0. -1.
         22    1    1    0    0    0  0.23673299698E+02  0.10616100414E+01 -0.17768133572E+02  0.29618553393E+02  0.00000000000E+00 0.  1.
</event>
<event>
 5    1  0.1102386E-009  0.9118800E+02  0.7818608E-02  0.1130116E+00
         25   -1    0    0    0    0  0.00000000000E+00  0.00000000000E+00  0.99999998245E-14  0.12500000000E+03  0.12500000000E+03 0.  0.
        -11    1    3    3    0    0  0.40608910834E+02 -0.91608951830E+01 -0.42283325014E+02  0.59337047568E+02  0.51100000000E-03 0.  1.
         23    2    1    0    0    0  0.82076265101E+01 -0.10363788711E+02 -0.26472119547E+02  0.95410367310E+02  0.90706073819E+02 0.  0.
         11    1    3    3    0    0 -0.32401284324E+02 -0.12028935284E+01  0.15811205466E+02  0.36073319742E+02  0.51100000000E-03 0. -1.
         22    1    1    0    0    0 -0.82076265101E+01  0.10363788711E+02  0.26472119547E+02  0.29589632690E+02  0.00000000000E+00 0.  1.
</event>
<event>
 5    1  0.1102386E-009  0.9118800E+02  0.7818608E-02  0.1130116E+00
         25   -1    0    0    0    0  0.00000000000E+00  0.00000000000E+00  0.99999998245E-14  0.12500000000E+03  0.12500000000E+03 0.  0.
        -11    1    3    3    0    0 -0.31515309192E+02  0.85570184335E+00  0.18583019744E+02  0.36596114031E+02  0.51100000000E-03 0. -1.
         23    2    1    0    0    0  0.15944962118E+02  0.22192817683E+02 -0.99212799519E+01  0.95927766348E+02  0.91416309195E+02 0.  0.
         11    1    3    3    0    0  0.47460271310E+02  0.21337115840E+02 -0.28504299696E+02  0.59331652316E+02  0.51100000000E-03 0.  1.
         22    1    1    0    0    0 -0.15944962118E+02 -0.22192817683E+02  0.99212799519E+01  0.29072233652E+02  0.00000000000E+00 0.  1.
</event>
<event>
 5    1  0.1102386E-009  0.9118800E+02  0.7818608E-02  0.1130116E+00
         25   -1    0    0    0    0  0.00000000000E+00  0.00000000000E+00  0.99999998245E-14  0.12500000000E+03  0.12500000000E+03 0.  0.
        -11    1    3    3    0    0  0.45284285863E+02 -0.37720712610E+02  0.53534525547E+01  0.59179203783E+02  0.51100000000E-03 0.  1.
         23    2    1    0    0    0  0.39404713651E+02 -0.24907542416E+02  0.14731199043E+02  0.76111091724E+02  0.58333291790E+02 0.  0.
         11    1    3    3    0    0 -0.58795722114E+01  0.12813170193E+02  0.93777464886E+01  0.16931887941E+02  0.51100000000E-03 0. -1.
         22    1    1    0    0    0 -0.39404713651E+02  0.24907542416E+02 -0.14731199043E+02  0.48888908276E+02  0.00000000000E+00 0.  1.
</event>
<event>
 5    1  0.1102386E-009  0.9118800E+02  0.7818608E-02  0.1130116E+00
         25   -1    0    0    0    0  0.00000000000E+00  0.00000000000E+00  0.99999998245E-14  0.12500000000E+03  0.12500000000E+03 0.  0.
        -11    1    3    3    0    0 -0.19843988749E+02 -0.88353871222E+01  0.27506890913E+02  0.35049636275E+02  0.51100000000E-03 0. -1.
         23    2    1    0    0    0  0.20301221772E+02  0.96240717684E+00 -0.18940389297E+02  0.97218636107E+02  0.93164687660E+02 0.  0.
         11    1    3    3    0    0  0.40145210521E+02  0.97977942990E+01 -0.46447280210E+02  0.62168999832E+02  0.51100000000E-03 0.  1.
         22    1    1    0    0    0 -0.20301221772E+02 -0.96240717684E+00  0.18940389297E+02  0.27781363893E+02  0.00000000000E+00 0.  1.
</event>
<event>
 5    1  0.1102386E-009  0.9118800E+02  0.7818608E-02  0.1130116E+00
         25   -1    0    0    0    0  0.00000000000E+00  0.00000000000E+00  0.99999998245E-14  0.12500000000E+03  0.12500000000E+03 0.  0.
        -11    1    3    3    0    0  0.17761745568E+02  0.36048274315E+02 -0.15214717853E+02  0.42970284224E+02  0.51100000000E-03 0. -1.
         23    2    1    0    0    0  0.32991304849E+02  0.17363921787E+02  0.17669449775E+02  0.83742983253E+02  0.72874864071E+02 0.  0.
         11    1    3    3    0    0  0.15229559281E+02 -0.18684352527E+02  0.32884167629E+02  0.40772699029E+02  0.51100000000E-03 0.  1.
         22    1    1    0    0    0 -0.32991304849E+02 -0.17363921787E+02 -0.17669449775E+02  0.41257016747E+02  0.00000000000E+00 0. -1.
</event>
<event>
 5    1  0.1102386E-009  0.9118800E+02  0.7818608E-02  0.1130116E+00
         25   -1    0    0    0    0  0.00000000000E+00  0.00000000000E+00  0.99999998245E-14  0.12500000000E+03  0.12500000000E+03 0.  0.
        -11    1    3    3    0    0  0.45027402637E+02  0.24502589233E+02  0.24786009566E+02  0.56940233033E+02  0.51100000000E-03 0.  1.
         23    2    1    0    0    0  0.21142271847E+02  0.22425808805E+02 -0.34556792089E+01  0.93986224381E+02  0.88721790419E+02 0.  0.
         11    1    3    3    0    0 -0.23885130790E+02 -0.20767804282E+01 -0.28241688775E+02  0.37045991348E+02  0.51100000000E-03 0. -1.
         22    1    1    0    0    0 -0.21142271847E+02 -0.22425808805E+02  0.34556792089E+01  0.31013775619E+02  0.00000000000E+00 0.  1.
</event>
<event>
 5    1  0.1102386E-009  0.9118800E+02  0.7818608E-02  0.1130116E+00
         25   -1    0    0    0    0  0.00000000000E+00  0.00000000000E+00  0.99999998245E-14  0.12500000000E+03  0.12500000000E+03 0.  0.
        -11    1    3    3    0    0 -0.36510256114E+02 -0.25435880772E+02 -0.18478601838E+01  0.44535350225E+02  0.51100000000E-03 0.  1.
         23    2    1    0    0    0 -0.28290077195E+02  0.12566517884E+02  0.19025448887E+02  0.88665257057E+02  0.80878391825E+02 0.  0.
         11    1    3    3    0    0  0.82201789194E+01  0.38002398657E+02  0.20873309070E+02  0.44129906831E+02  0.51100000000E-03 0. -1.
         22    1    1    0    0    0  0.28290077195E+02 -0.12566517884E+02 -0.19025448887E+02  0.36334742943E+02  0.00000000000E+00 0.  1.
</event>
<event>
 5    1  0.1102386E-009  0.9118800E+02  0.7818608E-02  0.1130116E+00
         25   -1    0    0    0    0  0.00000000000E+00  0.00000000000E+00  0.99999998245E-14  0.12500000000E+03  0.12500000000E+03 0.  0.
        -11    1    3    3    0    0  0.27008359293E+02 -0.36847294253E+02  0.15124796592E+02  0.48124152333E+02  0.51100000000E-03 0.  1.
         23    2    1    0    0    0 -0.36970118416E+01  0.45403429383E+00  0.26892900638E+02  0.97850374802E+02  0.94008476748E+02 0.  0.
         11    1    3    3    0    0 -0.30705371135E+02  0.37301328547E+02  0.11768104045E+02  0.49726222469E+02  0.51100000000E-03 0. -1.
         22    1    1    0    0    0  0.36970118416E+01 -0.45403429383E+00 -0.26892900638E+02  0.27149625198E+02  0.00000000000E+00 0. -1.
</event>
<event>
 5    1  0.1102386E-009  0.9118800E+02  0.7818608E-02  0.1130116E+00
         25   -1    0    0    0    0  0.00000000000E+00  0.00000000000E+00  0.99999998245E-14  0.12500000000E+03  0.12500000000E+03 0.  0.
        -11    1    3    3    0    0 -0.33166318263E+02  0.71850406460E+01  0.97083821523E+01  0.35297055974E+02  0.51100000000E-03 0.  1.
         23    2    1    0    0    0  0.26619421433E+02  0.11840761587E+02  0.49048758740E+01  0.95455879777E+02  0.90768771856E+02 0.  0.
         11    1    3    3    0    0  0.59785739696E+02  0.46557209406E+01 -0.48035062783E+01  0.60158823803E+02  0.51100000000E-03 0. -1.
         22    1    1    0    0    0 -0.26619421433E+02 -0.11840761587E+02 -0.49048758740E+01  0.29544120223E+02  0.00000000000E+00 0. -1.
</event>
<event>
 5    1  0.1102386E-009  0.9118800E+02  0.7818608E-02  0.1130116E+00
         25   -1    0    0    0    0  0.00000000000E+00  0.00000000000E+00  0.99999998245E-14  0.12500000000E+03  0.12500000000E+03 0.  0.
        -11    1    3    3    0    0 -0.23650613324E+02 -0.53326839528E+01  0.28358886106E+02  0.37309723266E+02  0.51100000000E-03 0. -1.
         23    2    1    0    0    0  0.20190318307E+02  0.16949359524E+02 -0.68144605929E+01  0.97771951690E+02  0.93904142201E+02 0.  0.
         11    1    3    3    0    0  0.43840931630E+02  0.22282043477E+02 -0.35173346699E+02  0.60462228424E+02  0.51100000000E-03 0.  1.
         22    1    1    0    0    0 -0.20190318307E+02 -0.16949359524E+02  0.68144605929E+01  0.27228048310E+02  0.00000000000E+00 0.  1.
</event>
<event>
 5    1  0.1102386E-009  0.9118800E+02  0.7818608E-02  0.1130116E+00
         25   -1    0    0    0    0  0.00000000000E+00  0.00000000000E+00  0.99999998245E-14  0.12500000000E+03  0.12500000000E+03 0.  0.
        -11    1    3    3    0    0  0.18257764995E+02  0.36951735053E+02 -0.20149411524E+02  0.45877832240E+02  0.51100000000E-03 0.  1.
         23    2    1    0    0    0 -0.23242632667E+02  0.92711771361E+01 -0.14493448124E+02  0.96082276415E+02  0.91627338190E+02 0.  0.
         11    1    3    3    0    0 -0.41500397662E+02 -0.27680557917E+02  0.56559633994E+01  0.50204444175E+02  0.51100000000E-03 0. -1.
         22    1    1    0    0    0  0.23242632667E+02 -0.92711771361E+01  0.14493448124E+02  0.28917723585E+02  0.00000000000E+00 0.  1.
</event>
<event>
 5    1  0.1102386E-009  0.9118800E+02  0.7818608E-02  0.1130116E+00
         25   -1    0    0    0    0  0.00000000000E+00  0.00000000000E+00  0.99999998245E-14  0.12500000000E+03  0.12500000000E+03 0.  0.
        -11    1    3    3    0    0 -0.29304254142E+02  0.26998620832E+02  0.14418690403E+02  0.42374089617E+02  0.51100000000E-03 0. -1.
         23    2    1    0    0    0 -0.19243675058E+02 -0.22434241238E+02 -0.18674409410E+01  0.95384099788E+02  0.90669867911E+02 0.  0.
         11    1    3    3    0    0  0.10060579084E+02 -0.49432862070E+02 -0.16286131344E+02  0.53010010171E+02  0.51100000000E-03 0.  1.
         22    1    1    0    0    0  0.19243675058E+02  0.22434241238E+02  0.18674409410E+01  0.29615900212E+02  0.00000000000E+00 0.  1.
</event>
<event>
 5    1  0.1102386E-009  0.9118800E+02  0.7818608E-02  0.1130116E+00
         25   -1    0    0    0    0  0.00000000000E+00  0.00000000000E+00  0.99999998245E-14  0.12500000000E+03  0.12500000000E+03 0.  0.
        -11    1    3    3    0    0 -0.43441133744E+02  0.31751924251E+02 -0.27893403612E+02  0.60608240033E+02  0.51100000000E-03 0. -1.
         23    2    1    0    0    0 -0.12367860150E+02  0.21994348782E+02 -0.15057049443E+02  0.95615819205E+02  0.90988761951E+02 0.  0.
         11    1    3    3    0    0  0.31073273594E+02 -0.97575754683E+01  0.12836354169E+02  0.35007579172E+02  0.51100000000E-03 0.  1.
         22    1    1    0    0    0  0.12367860150E+02 -0.21994348782E+02  0.15057049443E+02  0.29384180795E+02  0.00000000000E+00 0. -1.
</event>
<event>
 5    1  0.1102386E-009  0.9118800E+02  0.7818608E-02  0.1130116E+00
         25   -1    0    0    0    0  0.00000000000E+00  0.00000000000E+00  0.99999998245E-14  0.12500000000E+03  0.12500000000E+03 0.  0.
        -11    1    3    3    0    0 -0.35373816638E+02  0.20338996218E+02  0.98983883465E+01  0.41987614398E+02  0.51100000000E-03 0.  1.
         23    2    1    0    0    0  0.48849032493E+01  0.11341647023E+02 -0.25707272479E+02  0.96480548826E+02  0.92169068600E+02 0.  0.
         11    1    3    3    0    0  0.40258719888E+02 -0.89973491950E+01 -0.35605660825E+02  0.54492934428E+02  0.51100000000E-03 0. -1.
         22    1    1    0    0    0 -0.48849032493E+01 -0.11341647023E+02  0.25707272479E+02  0.28519451174E+02  0.00000000000E+00 0. -1.
</event>
<event>
 5    1  0.1102386E-009  0.9118800E+02  0.7818608E-02  0.1130116E+00
         25   -1    0    0    0    0  0.00000000000E+00  0.00000000000E+00  0.99999998245E-14  0.12500000000E+03  0.12500000000E+03 0.  0.
        -11    1    3    3    0    0 -0.27223189081E+02 -0.11612809084E+02 -0.45786077475E+02  0.54519026489E+02  0.51100000000E-03 0. -1.
         23    2    1    0    0    0 -0.27156833131E+02 -0.55504175136E+01 -0.37042534671E+01  0.97035339908E+02  0.92918431848E+02 0.  0.
         11    1    3    3    0    0  0.66355950095E-01  0.60623915701E+01  0.42081824008E+02  0.42516313419E+02  0.51100000000E-03 0.  1.
         22    1    1    0    0    0  0.27156833131E+02  0.55504175136E+01  0.37042534671E+01  0.27964660092E+02  0.00000000000E+00 0.  1.
</event>
<event>
 5    1  0.1102386E-009  0.9118800E+02  0.7818608E-02  0.1130116E+00
         25   -1    0    0    0    0  0.00000000000E+00  0.00000000000E+00  0.99999998245E-14  0.12500000000E+03  0.12500000000E+03 0.  0.
        -11    1    3    3    0    0  0.18285408575E+01 -0.46342698823E+02 -0.13991564806E+02  0.48443298627E+02  0.51100000000E-03 0. -1.
         23    2    1    0    0    0 -0.79920194662E+01 -0.11270113236E+01 -0.27253698635E+02  0.96576301807E+02  0.92298837760E+02 0.  0.
         11    1    3    3    0    0 -0.98205603237E+01  0.45215687500E+02 -0.13262133829E+02  0.48133003180E+02  0.51100000000E-03 0.  1.
         22    1    1    0    0    0  0.79920194662E+01  0.11270113236E+01  0.27253698635E+02  0.28423698193E+02  0.00000000000E+00 0. -1.
</event>
<event>
 5    1  0.1102386E-009  0.9118800E+02  0.7818608E-02  0.1130116E+00
         25   -1    0    0    0    0  0.00000000000E+00  0.00000000000E+00  0.99999998245E-14  0.12500000000E+03  0.12500000000E+03 0.  0.
        -11    1    3    3    0    0 -0.23699804127E+02  0.34610231470E+02  0.39271696788E+02  0.57461421902E+02  0.51100000000E-03 0. -1.
         23    2    1    0    0    0 -0.11541847182E+02  0.26732126023E+02  0.39787777132E+01  0.95612052298E+02  0.90983586841E+02 0.  0.
         11    1    3    3    0    0  0.12157956945E+02 -0.78781054471E+01 -0.35292919075E+02  0.38150630396E+02  0.51100000000E-03 0.  1.
         22    1    1    0    0    0  0.11541847182E+02 -0.26732126023E+02 -0.39787777132E+01  0.29387947702E+02  0.00000000000E+00 0. -1.
</event>
<event>
 5    1  0.1102386E-009  0.9118800E+02  0.7818608E-02  0.1130116E+00
         25   -1    0    0    0    0  0.00000000000E+00  0.00000000000E+00  0.99999998245E-14  0.12500000000E+03  0.12500000000E+03 0.  0.
        -11    1    3    3    0    0  0.11546152553E+01  0.35287535060E+02  0.22305088016E+02  0.41761947017E+02  0.51100000000E-03 0.  1.
         23    2    1    0    0    0 -0.28038519684E+02  0.11004663086E+02 -0.11653089204E+02  0.92703627390E+02  0.86895954150E+02 0.  0.
         11    1    3    3    0    0 -0.29193134940E+02 -0.24282871973E+02 -0.33958177221E+02  0.50941680374E+02  0.51100000000E-03 0. -1.
         22    1    1    0    0    0  0.28038519684E+02 -0.11004663086E+02  0.11653089204E+02  0.32296372610E+02  0.00000000000E+00 0. -1.
</event>
<event>
 5    1  0.1102386E-009  0.9118800E+02  0.7818608E-02  0.1130116E+00
         25   -1    0    0    0    0  0.00000000000E+00  0.00000000000E+00  0.99999998245E-14  0.12500000000E+03  0.12500000000E+03 0.  0.
        -11    1    3    3    0    0  0.10516141741E+02  0.11322538590E+01  0.31813956941E+02  0.33526095693E+02  0.51100000000E-03 0.  1.
         23    2    1    0    0    0 -0.42009167703E+01 -0.64397897100E+01 -0.28194894447E+02  0.95775512560E+02  0.91207884199E+02 0.  0.
         11    1    3    3    0    0 -0.14717058512E+02 -0.75720435690E+01 -0.60008851388E+02  0.62249416867E+02  0.51100000000E-03 0. -1.
         22    1    1    0    0    0  0.42009167703E+01  0.64397897100E+01  0.28194894447E+02  0.29224487440E+02  0.00000000000E+00 0. -1.
</event>
<event>
 5    1  0.1102386E-009  0.9118800E+02  0.7818608E-02  0.1130116E+00
         25   -1    0    0    0    0  0.00000000000E+00  0.00000000000E+00  0.99999998245E-14  0.12500000000E+03  0.12500000000E+03 0.  0.
        -11    1    3    3    0    0 -0.10544685176E+01  0.28947737203E+02 -0.14596132648E+02  0.32436560878E+02  0.51100000000E-03 0.  1.
         23    2    1    0    0    0 -0.88808869067E+01 -0.30238017378E+02 -0.22210181723E+01  0.93406634099E+02  0.87901413668E+02 0.  0.
         11    1    3    3    0    0 -0.78264183890E+01 -0.59185754581E+02  0.12375114475E+02  0.60970073222E+02  0.51100000000E-03 0. -1.
         22    1    1    0    0    0  0.88808869067E+01  0.30238017378E+02  0.22210181723E+01  0.31593365901E+02  0.00000000000E+00 0. -1.
</event>
<event>
 5    1  0.1102386E-009  0.9118800E+02  0.7818608E-02  0.1130116E+00
         25   -1    0    0    0    0  0.00000000000E+00  0.00000000000E+00  0.99999998245E-14  0.12500000000E+03  0.12500000000E+03 0.  0.
        -11    1    3    3    0    0 -0.87632502363E+01 -0.35341296624E+02  0.42054194924E+01  0.36653613126E+02  0.51100000000E-03 0.  1.
         23    2    1    0    0    0 -0.19280530591E+02  0.22356764673E+02  0.31303202213E+01  0.95312246780E+02  0.90570755187E+02 0.  0.
         11    1    3    3    0    0 -0.10517280355E+02  0.57698061297E+02 -0.10750992711E+01  0.58658633655E+02  0.51100000000E-03 0. -1.
         22    1    1    0    0    0  0.19280530591E+02 -0.22356764673E+02 -0.31303202213E+01  0.29687753220E+02  0.00000000000E+00 0. -1.
</event>
<event>
 5    1  0.1102386E-009  0.9118800E+02  0.7818608E-02  0.1130116E+00
         25   -1    0    0    0    0  0.00000000000E+00  0.00000000000E+00  0.99999998245E-14  0.12500000000E+03  0.12500000000E+03 0.  0.
        -11    1    3    3    0    0 -0.14850410297E+02 -0.53580838099E+02  0.16445357461E+02  0.57981813353E+02  0.51100000000E-03 0.  1.
         23    2    1    0    0    0  0.23690638163E+01 -0.33098159429E+02 -0.38885231921E+01  0.91590102761E+02  0.85279104651E+02 0.  0.
         11    1    3    3    0    0  0.17219474113E+02  0.20482678670E+02 -0.20333880653E+02  0.33608289408E+02  0.51100000000E-03 0. -1.
         22    1    1    0    0    0 -0.23690638163E+01  0.33098159429E+02  0.38885231921E+01  0.33409897239E+02  0.00000000000E+00 0.  1.
</event>
<event>
 5    1  0.1102386E-009  0.9118800E+02  0.7818608E-02  0.1130116E+00
         25   -1    0    0    0    0  0.00000000000E+00  0.00000000000E+00  0.99999998245E-14  0.12500000000E+03  0.12500000000E+03 0.  0.
        -11    1    3    3    0    0  0.17119115960E+02 -0.17946500731E+02 -0.51653554966E+02  0.57299483075E+02  0.51100000000E-03 0. -1.
         23    2    1    0    0    0  0.13625732968E+02 -0.21288365034E+02 -0.12405509000E+02  0.96844152681E+02  0.92660877236E+02 0.  0.
         11    1    3    3    0    0 -0.34933829914E+01 -0.33418643032E+01  0.39248045967E+02  0.39544669606E+02  0.51100000000E-03 0.  1.
         22    1    1    0    0    0 -0.13625732968E+02  0.21288365034E+02  0.12405509000E+02  0.28155847319E+02  0.00000000000E+00 0. -1.
</event>
<event>
 5    1  0.1102386E-009  0.9118800E+02  0.7818608E-02  0.1130116E+00
         25   -1    0    0    0    0  0.00000000000E+00  0.00000000000E+00  0.99999998245E-14  0.12500000000E+03  0.12500000000E+03 0.  0.
        -11    1    3    3    0    0  0.33586722132E+01  0.20497213834E+02  0.43437170039E+02  0.48147733023E+02  0.51100000000E-03 0. -1.
         23    2    1    0    0    0 -0.21543690830E+02  0.20168435361E+02  0.34065846528E+01  0.95293077936E+02  0.90544295702E+02 0.  0.
         11    1    3    3    0    0 -0.24902363043E+02 -0.32877847240E+00 -0.40030585386E+02  0.47145344914E+02  0.51100000000E-03 0.  1.
         22    1    1    0    0    0  0.21543690830E+02 -0.20168435361E+02 -0.34065846528E+01  0.29706922064E+02  0.00000000000E+00 0. -1.
</event>
<event>
 5    1  0.1102386E-009  0.9118800E+02  0.7818608E-02  0.1130116E+00
         25   -1    0    0    0    0  0.00000000000E+00  0.00000000000E+00  0.99999998245E-14  0.12500000000E+03  0.12500000000E+03 0.  0.
        -11    1    3    3    0    0 -0.77185776448E+01  0.15582080039E+02  0.43482774341E+02  0.46830858671E+02  0.51100000000E-03 0. -1.
         23    2    1    0    0    0 -0.13339921486E+02  0.24723100754E+02 -0.49817774108E+01  0.96469256541E+02  0.92153752693E+02 0.  0.
         11    1    3    3    0    0 -0.56213438408E+01  0.91410207151E+01 -0.48464551752E+02  0.49638397870E+02  0.51100000000E-03 0.  1.
         22    1    1    0    0    0  0.13339921486E+02 -0.24723100754E+02  0.49817774108E+01  0.28530743459E+02  0.00000000000E+00 0.  1.
</event>
<event>
 5    1  0.1102386E-009  0.9118800E+02  0.7818608E-02  0.1130116E+00
         25   -1    0    0    0    0  0.00000000000E+00  0.00000000000E+00  0.99999998245E-14  0.12500000000E+03  0.12500000000E+03 0.  0.
        -11    1    3    3    0    0 -0.24711066949E+02  0.23793841625E+02 -0.17754815493E+02  0.38626638509E+02  0.51100000000E-03 0. -1.
         23    2    1    0    0    0  0.12809476561E+02  0.15166324110E+02  0.22950604313E+02  0.94654813971E+02  0.89658817150E+02 0.  0.
         11    1    3    3    0    0  0.37520543510E+02 -0.86275175144E+01  0.40705419806E+02  0.56028175462E+02  0.51100000000E-03 0.  1.
         22    1    1    0    0    0 -0.12809476561E+02 -0.15166324110E+02 -0.22950604313E+02  0.30345186029E+02  0.00000000000E+00 0.  1.
</event>
<event>
 5    1  0.1102386E-009  0.9118800E+02  0.7818608E-02  0.1130116E+00
         25   -1    0    0    0    0  0.00000000000E+00  0.00000000000E+00  0.99999998245E-14  0.12500000000E+03  0.12500000000E+03 0.  0.
        -11    1    3    3    0    0 -0.27213430384E+02 -0.12746500346E+02 -0.27929445827E+02  0.41025577495E+02  0.51100000000E-03 0.  1.
         23    2    1    0    0    0  0.10842528551E+02  0.23397775233E+02 -0.15322727870E+02  0.95003295171E+02  0.90143351350E+02 0.  0.
         11    1    3    3    0    0  0.38055958935E+02  0.36144275579E+02  0.12606717957E+02  0.53977717676E+02  0.51100000000E-03 0. -1.
         22    1    1    0    0    0 -0.10842528551E+02 -0.23397775233E+02  0.15322727870E+02  0.29996704829E+02  0.00000000000E+00 0. -1.
</event>
<event>
 5    1  0.1102386E-009  0.9118800E+02  0.7818608E-02  0.1130116E+00
         25   -1    0    0    0    0  0.00000000000E+00  0.00000000000E+00  0.99999998245E-14  0.12500000000E+03  0.12500000000E+03 0.  0.
        -11    1    3    3    0    0 -0.10802019257E+01 -0.26906419268E+02  0.28856539409E+02  0.39469255135E+02  0.51100000000E-03 0.  1.
         23    2    1    0    0    0 -0.13408362361E+02  0.24350018297E+02  0.98995292057E+01  0.95492234060E+02  0.90818822471E+02 0.  0.
         11    1    3    3    0    0 -0.12328160435E+02  0.51256437565E+02 -0.18957010203E+02  0.56022978925E+02  0.51100000000E-03 0. -1.
         22    1    1    0    0    0  0.13408362361E+02 -0.24350018297E+02 -0.98995292057E+01  0.29507765940E+02  0.00000000000E+00 0. -1.
</event>
<event>
 5    1  0.1102386E-009  0.9118800E+02  0.7818608E-02  0.1130116E+00
         25   -1    0    0    0    0  0.00000000000E+00  0.00000000000E+00  0.99999998245E-14  0.12500000000E+03  0.12500000000E+03 0.  0.
        -11    1    3    3    0    0  0.39641771242E+01  0.35272319183E+01 -0.44234977838E+02  0.44552096806E+02  0.51100000000E-03 0. -1.
         23    2    1    0    0    0 -0.25520114543E+02  0.13710061880E+02 -0.35577924108E+01  0.95812675184E+02  0.91258801198E+02 0.  0.
         11    1    3    3    0    0 -0.29484291667E+02  0.10182829962E+02  0.40677185427E+02  0.51260578378E+02  0.51100000000E-03 0.  1.
         22    1    1    0    0    0  0.25520114543E+02 -0.13710061880E+02  0.35577924108E+01  0.29187324816E+02  0.00000000000E+00 0. -1.
</event>
<event>
 5    1  0.1102386E-009  0.9118800E+02  0.7818608E-02  0.1130116E+00
         25   -1    0    0    0    0  0.00000000000E+00  0.00000000000E+00  0.99999998245E-14  0.12500000000E+03  0.12500000000E+03 0.  0.
        -11    1    3    3    0    0  0.53122797148E+02  0.17342921216E+01 -0.18895714972E+02  0.56409993712E+02  0.51100000000E-03 0.  1.
         23    2    1    0    0    0  0.15407332579E+02 -0.13648472877E+02 -0.18772274491E+02  0.97142056813E+02  0.93061883729E+02 0.  0.
         11    1    3    3    0    0 -0.37715464569E+02 -0.15382764999E+02  0.12344048123E+00  0.40732063101E+02  0.51100000000E-03 0. -1.
         22    1    1    0    0    0 -0.15407332579E+02  0.13648472877E+02  0.18772274491E+02  0.27857943187E+02  0.00000000000E+00 0. -1.
</event>
<event>
 5    1  0.1102386E-009  0.9118800E+02  0.7818608E-02  0.1130116E+00
         25   -1    0    0    0    0  0.00000000000E+00  0.00000000000E+00  0.99999998245E-14  0.12500000000E+03  0.12500000000E+03 0.  0.
        -11    1    3    3    0    0  0.12806125346E+02  0.42839130142E+02 -0.29097091223E+02  0.53346308547E+02  0.51100000000E-03 0.  1.
         23    2    1    0    0    0 -0.52549147742E+01  0.56447891464E+01 -0.29307877169E+02  0.94694399232E+02  0.89713988920E+02 0.  0.
         11    1    3    3    0    0 -0.18061040120E+02 -0.37194340995E+02 -0.21078594600E+00  0.41348090685E+02  0.51100000000E-03 0. -1.
         22    1    1    0    0    0  0.52549147742E+01 -0.56447891464E+01  0.29307877169E+02  0.30305600768E+02  0.00000000000E+00 0. -1.
</event>
<event>
 5    1  0.1102386E-009  0.9118800E+02  0.7818608E-02  0.1130116E+00
         25   -1    0    0    0    0  0.00000000000E+00  0.00000000000E+00  0.99999998245E-14  0.12500000000E+03  0.12500000000E+03 0.  0.
        -11    1    3    3    0    0  0.28513113630E+02 -0.24047190206E+01  0.52838816463E+02  0.60089273983E+02  0.51100000000E-03 0.  1.
         23    2    1    0    0    0  0.20459639303E+02 -0.40394629456E+01  0.13778258548E+02  0.10000491028E+03  0.96830922597E+02 0.  0.
         11    1    3    3    0    0 -0.80534743268E+01 -0.16347439250E+01 -0.39060557915E+02  0.39915636301E+02  0.51100000000E-03 0. -1.
         22    1    1    0    0    0 -0.20459639303E+02  0.40394629456E+01 -0.13778258548E+02  0.24995089716E+02  0.00000000000E+00 0.  1.
</event>
<event>
 5    1  0.1102386E-009  0.9118800E+02  0.7818608E-02  0.1130116E+00
         25   -1    0    0    0    0  0.00000000000E+00  0.00000000000E+00  0.99999998245E-14  0.12500000000E+03  0.12500000000E+03 0.  0.
        -11    1    3    3    0    0  0.42628930333E+02 -0.80260278159E+01 -0.31566597524E+02  0.53647860194E+02  0.51100000000E-03 0. -1.
         23    2    1    0    0    0  0.33016560902E+02 -0.18130715467E+01  0.46302028476E+01  0.91611090155E+02  0.85309861909E+02 0.  0.
         11    1    3    3    0    0 -0.96123694318E+01  0.62129562692E+01  0.36196800372E+02  0.37963229962E+02  0.51100000000E-03 0.  1.
         22    1    1    0    0    0 -0.33016560902E+02  0.18130715467E+01 -0.46302028476E+01  0.33388909845E+02  0.00000000000E+00 0. -1.
</event>
<event>
 5    1  0.1102386E-009  0.9118800E+02  0.7818608E-02  0.1130116E+00
         25   -1    0    0    0    0  0.00000000000E+00  0.00000000000E+00  0.99999998245E-14  0.12500000000E+03  0.12500000000E+03 0.  0.
        -11    1    3    3    0    0  0.14479978541E+02 -0.39755688710E+02  0.18183038213E+01  0.42349625647E+02  0.51100000000E-03 0.  1.
         23    2    1    0    0    0  0.89226773772E+01  0.41104419421E+01 -0.27763755649E+02  0.95549430697E+02  0.90897511926E+02 0.  0.
         11    1    3    3    0    0 -0.55573011637E+01  0.43866130652E+02 -0.29582059470E+02  0.53199805050E+02  0.51100000000E-03 0. -1.
         22    1    1    0    0    0 -0.89226773772E+01 -0.41104419421E+01  0.27763755649E+02  0.29450569303E+02  0.00000000000E+00 0. -1.
</event>
<event>
 5    1  0.1102386E-009  0.9118800E+02  0.7818608E-02  0.1130116E+00
         25   -1    0    0    0    0  0.00000000000E+00  0.00000000000E+00  0.99999998245E-14  0.12500000000E+03  0.12500000000E+03 0.  0.
        -11    1    3    3    0    0  0.49893518389E+01  0.66417033309E+01 -0.51625173928E+02  0.52289238265E+02  0.51100000000E-03 0.  1.
         23    2    1    0    0    0 -0.14143235572E+02  0.21359459010E+02 -0.17960427010E+02  0.93713668480E+02  0.88336952177E+02 0.  0.
         11    1    3    3    0    0 -0.19132587411E+02  0.14717755679E+02  0.33664746919E+02  0.41424430215E+02  0.51100000000E-03 0. -1.
         22    1    1    0    0    0  0.14143235572E+02 -0.21359459010E+02  0.17960427010E+02  0.31286331520E+02  0.00000000000E+00 0.  1.
</event>
<event>
 5    1  0.1102386E-009  0.9118800E+02  0.7818608E-02  0.1130116E+00
         25   -1    0    0    0    0  0.00000000000E+00  0.00000000000E+00  0.99999998245E-14  0.12500000000E+03  0.12500000000E+03 0.  0.
        -11    1    3    3    0    0  0.10827995753E+02  0.38949248412E+01  0.33627384523E+02  0.35541763064E+02  0.51100000000E-03 0. -1.
         23    2    1    0    0    0 -0.27106138199E+02 -0.10862000084E+02 -0.89624957670E+01  0.94454098405E+02  0.89378546649E+02 0.  0.
         11    1    3    3    0    0 -0.37934133952E+02 -0.14756924925E+02 -0.42589880290E+02  0.58912335341E+02  0.51100000000E-03 0.  1.
         22    1    1    0    0    0  0.27106138199E+02  0.10862000084E+02  0.89624957670E+01  0.30545901595E+02  0.00000000000E+00 0.  1.
</event>
<event>
 5    1  0.1102386E-009  0.9118800E+02  0.7818608E-02  0.1130116E+00
         25   -1    0    0    0    0  0.00000000000E+00  0.00000000000E+00  0.99999998245E-14  0.12500000000E+03  0.12500000000E+03 0.  0.
        -11    1    3    3    0    0 -0.15228404940E+02 -0.70419913946E+01 -0.56864463767E+02  0.59287951555E+02  0.51100000000E-03 0.  1.
         23    2    1    0    0    0 -0.62261398807E+01  0.10871616292E+02 -0.26695126859E+02  0.95511245251E+02  0.90844985073E+02 0.  0.
         11    1    3    3    0    0  0.90022650594E+01  0.17913607686E+02  0.30169336908E+02  0.36223293697E+02  0.51100000000E-03 0. -1.
         22    1    1    0    0    0  0.62261398807E+01 -0.10871616292E+02  0.26695126859E+02  0.29488754749E+02  0.00000000000E+00 0. -1.
</event>
<event>
 5    1  0.1102386E-009  0.9118800E+02  0.7818608E-02  0.1130116E+00
         25   -1    0    0    0    0  0.00000000000E+00  0.00000000000E+00  0.99999998245E-14  0.12500000000E+03  0.12500000000E+03 0.  0.
        -11    1    3    3    0    0  0.46954460524E+02  0.33195632373E+02 -0.27331243861E+01  0.57568579460E+02  0.51100000000E-03 0.  1.
         23    2    1    0    0    0  0.29275707820E+02 -0.39146546647E+00  0.97890476195E+00  0.95705315019E+02  0.91111627989E+02 0.  0.
         11    1    3    3    0    0 -0.17678752704E+02 -0.33587097840E+02  0.37120291481E+01  0.38136735560E+02  0.51100000000E-03 0. -1.
         22    1    1    0    0    0 -0.29275707820E+02  0.39146546647E+00 -0.97890476195E+00  0.29294684981E+02  0.00000000000E+00 0.  1.
</event>
<event>
 5    1  0.1102386E-009  0.9118800E+02  0.7818608E-02  0.1130116E+00
         25   -1    0    0    0    0  0.00000000000E+00  0.00000000000E+00  0.99999998245E-14  0.12500000000E+03  0.12500000000E+03 0.  0.
        -11    1    3    3    0    0 -0.25123646820E+02 -0.13427902430E+02  0.44035003898E+02  0.52446046198E+02  0.51100000000E-03 0. -1.
         23    2    1    0    0    0 -0.10890512438E+02  0.19026391769E+02  0.20487693920E+02  0.94994126458E+02  0.90130636381E+02 0.  0.
         11    1    3    3    0    0  0.14233134382E+02  0.32454294199E+02 -0.23547309979E+02  0.42548080260E+02  0.51100000000E-03 0.  1.
         22    1    1    0    0    0  0.10890512438E+02 -0.19026391769E+02 -0.20487693920E+02  0.30005873542E+02  0.00000000000E+00 0. -1.
</event>
<event>
 5    1  0.1102386E-009  0.9118800E+02  0.7818608E-02  0.1130116E+00
         25   -1    0    0    0    0  0.00000000000E+00  0.00000000000E+00  0.99999998245E-14  0.12500000000E+03  0.12500000000E+03 0.  0.
        -11    1    3    3    0    0  0.38892548610E+02 -0.51171391006E+01  0.12845750343E+02  0.41277460582E+02  0.51100000000E-03 0.  1.
         23    2    1    0    0    0 -0.15061396481E+02 -0.15127925652E+02  0.18904135707E+02  0.96485685256E+02  0.92176034380E+02 0.  0.
         11    1    3    3    0    0 -0.53953945091E+02 -0.10010786552E+02  0.60583853635E+01  0.55208224674E+02  0.51100000000E-03 0. -1.
         22    1    1    0    0    0  0.15061396481E+02  0.15127925652E+02 -0.18904135707E+02  0.28514314744E+02  0.00000000000E+00 0. -1.
</event>
<event>
 5    1  0.1102386E-009  0.9118800E+02  0.7818608E-02  0.1130116E+00
         25   -1    0    0    0    0  0.00000000000E+00  0.00000000000E+00  0.99999998245E-14  0.12500000000E+03  0.12500000000E+03 0.  0.
        -11    1    3    3    0    0  0.30716494885E+02 -0.15780856312E+02 -0.19154672471E+02  0.39489745019E+02  0.51100000000E-03 0. -1.
         23    2    1    0    0    0  0.89574176533E+01  0.26991353959E+02 -0.24087075061E+02  0.87731303960E+02  0.79421823134E+02 0.  0.
         11    1    3    3    0    0 -0.21759077231E+02  0.42772210271E+02 -0.49324025901E+01  0.48241558940E+02  0.51100000000E-03 0.  1.
         22    1    1    0    0    0 -0.89574176533E+01 -0.26991353959E+02  0.24087075061E+02  0.37268696040E+02  0.00000000000E+00 0.  1.
</event>
<event>
 5    1  0.1102386E-009  0.9118800E+02  0.7818608E-02  0.1130116E+00
         25   -1    0    0    0    0  0.00000000000E+00  0.00000000000E+00  0.99999998245E-14  0.12500000000E+03  0.12500000000E+03 0.  0.
        -11    1    3    3    0    0 -0.16917289222E+02 -0.16484687537E+02  0.36149644399E+02  0.43182593579E+02  0.51100000000E-03 0.  1.
         23    2    1    0    0    0  0.27165631781E+02 -0.34387862731E+01  0.12145999149E+02  0.95044664975E+02  0.90200699797E+02 0.  0.
         11    1    3    3    0    0  0.44082921004E+02  0.13045901263E+02 -0.24003645250E+02  0.51862071396E+02  0.51100000000E-03 0. -1.
         22    1    1    0    0    0 -0.27165631781E+02  0.34387862731E+01 -0.12145999149E+02  0.29955335025E+02  0.00000000000E+00 0.  1.
</event>
<event>
 5    1  0.1102386E-009  0.9118800E+02  0.7818608E-02  0.1130116E+00
         25   -1    0    0    0    0  0.00000000000E+00  0.00000000000E+00  0.99999998245E-14  0.12500000000E+03  0.12500000000E+03 0.  0.
        -11    1    3    3    0    0  0.27460520387E+02  0.15591897009E+02  0.28594365067E+02  0.42600764619E+02  0.51100000000E-03 0.  1.
         23    2    1    0    0    0  0.21059188842E+02 -0.19399723983E+02 -0.96057615365E+01  0.94798851346E+02  0.89859405943E+02 0.  0.
         11    1    3    3    0    0 -0.64013315448E+01 -0.34991620992E+02 -0.38200126604E+02  0.52198086727E+02  0.51100000000E-03 0. -1.
         22    1    1    0    0    0 -0.21059188842E+02  0.19399723983E+02  0.96057615365E+01  0.30201148654E+02  0.00000000000E+00 0. -1.
</event>
<event>
 5    1  0.1102386E-009  0.9118800E+02  0.7818608E-02  0.1130116E+00
         25   -1    0    0    0    0  0.00000000000E+00  0.00000000000E+00  0.99999998245E-14  0.12500000000E+03  0.12500000000E+03 0.  0.
        -11    1    3    3    0    0  0.78960666806E+01  0.35942428883E+00 -0.47085546453E+02  0.47744379145E+02  0.51100000000E-03 0. -1.
         23    2    1    0    0    0 -0.65252104105E-02 -0.27283888091E+02 -0.74357339025E+01  0.96721019633E+02  0.92494620969E+02 0.  0.
         11    1    3    3    0    0 -0.79025918911E+01 -0.27643312380E+02  0.39649812551E+02  0.48976640488E+02  0.51100000000E-03 0.  1.
         22    1    1    0    0    0  0.65252104105E-02  0.27283888091E+02  0.74357339025E+01  0.28278980367E+02  0.00000000000E+00 0. -1.
</event>
<event>
 5    1  0.1102386E-009  0.9118800E+02  0.7818608E-02  0.1130116E+00
         25   -1    0    0    0    0  0.00000000000E+00  0.00000000000E+00  0.99999998245E-14  0.12500000000E+03  0.12500000000E+03 0.  0.
        -11    1    3    3    0    0 -0.36599887321E+02 -0.18335089157E+02  0.36916849681E+02  0.55123325707E+02  0.51100000000E-03 0.  1.
         23    2    1    0    0    0 -0.72795922800E+00 -0.94764651194E+00  0.29259813468E+02  0.95715795337E+02  0.91126005258E+02 0.  0.
         11    1    3    3    0    0  0.35871928093E+02  0.17387442645E+02 -0.76570362127E+01  0.40592469630E+02  0.51100000000E-03 0. -1.
         22    1    1    0    0    0  0.72795922800E+00  0.94764651194E+00 -0.29259813468E+02  0.29284204663E+02  0.00000000000E+00 0.  1.
</event>
<event>
 5    1  0.1102386E-009  0.9118800E+02  0.7818608E-02  0.1130116E+00
         25   -1    0    0    0    0  0.00000000000E+00  0.00000000000E+00  0.99999998245E-14  0.12500000000E+03  0.12500000000E+03 0.  0.
        -11    1    3    3    0    0  0.53925180861E+02 -0.19765398309E+02  0.80572131451E+01  0.57995816962E+02  0.51100000000E-03 0.  1.
         23    2    1    0    0    0  0.28966915518E+02 -0.22648791480E+01 -0.10985186218E+02  0.93937382782E+02  0.88652950856E+02 0.  0.
         11    1    3    3    0    0 -0.24958265342E+02  0.17500519161E+02 -0.19042399363E+02  0.35941565820E+02  0.51100000000E-03 0. -1.
         22    1    1    0    0    0 -0.28966915518E+02  0.22648791480E+01  0.10985186218E+02  0.31062617218E+02  0.00000000000E+00 0.  1.
</event>
<event>
 5    1  0.1102386E-009  0.9118800E+02  0.7818608E-02  0.1130116E+00
         25   -1    0    0    0    0  0.00000000000E+00  0.00000000000E+00  0.99999998245E-14  0.12500000000E+03  0.12500000000E+03 0.  0.
        -11    1    3    3    0    0 -0.49312419526E+02 -0.24196665580E+02  0.98976592739E+01  0.55813591571E+02  0.51100000000E-03 0.  1.
         23    2    1    0    0    0 -0.24455681140E+02 -0.23537652566E+02  0.23076678627E+02  0.83955700459E+02  0.73238822456E+02 0.  0.
         11    1    3    3    0    0  0.24856738385E+02  0.65901301376E+00  0.13179019353E+02  0.28142108888E+02  0.51100000000E-03 0. -1.
         22    1    1    0    0    0  0.24455681140E+02  0.23537652566E+02 -0.23076678627E+02  0.41044299541E+02  0.00000000000E+00 0.  1.
</event>
<event>
 5    1  0.1102386E-009  0.9118800E+02  0.7818608E-02  0.1130116E+00
         25   -1    0    0    0    0  0.00000000000E+00  0.00000000000E+00  0.99999998245E-14  0.12500000000E+03  0.12500000000E+03 0.  0.
        -11    1    3    3    0    0  0.81333667803E+01  0.10654630596E+02 -0.17387038906E+02  0.21954086875E+02  0.51100000000E-03 0. -1.
         23    2    1    0    0    0  0.27881474696E+02 -0.22684350031E+02  0.26383820446E+02  0.80412307204E+02  0.66918433941E+02 0.  0.
         11    1    3    3    0    0  0.19748107916E+02 -0.33338980627E+02  0.43770859352E+02  0.58458220330E+02  0.51100000000E-03 0.  1.
         22    1    1    0    0    0 -0.27881474696E+02  0.22684350031E+02 -0.26383820446E+02  0.44587692796E+02  0.00000000000E+00 0.  1.
</event>
<event>
 5    1  0.1102386E-009  0.9118800E+02  0.7818608E-02  0.1130116E+00
         25   -1    0    0    0    0  0.00000000000E+00  0.00000000000E+00  0.99999998245E-14  0.12500000000E+03  0.12500000000E+03 0.  0.
        -11    1    3    3    0    0  0.14986193474E+02  0.91091770786E+01  0.16576238677E+02  0.24131613929E+02  0.51100000000E-03 0. -1.
         23    2    1    0    0    0 -0.33338589442E+02 -0.13766514098E+02 -0.14673960609E+02  0.86060257110E+02  0.76746754182E+02 0.  0.
         11    1    3    3    0    0 -0.48324782916E+02 -0.22875691176E+02 -0.31250199285E+02  0.61928643181E+02  0.51100000000E-03 0.  1.
         22    1    1    0    0    0  0.33338589442E+02  0.13766514098E+02  0.14673960609E+02  0.38939742890E+02  0.00000000000E+00 0.  1.
</event>
<event>
 5    1  0.1102386E-009  0.9118800E+02  0.7818608E-02  0.1130116E+00
         25   -1    0    0    0    0  0.00000000000E+00  0.00000000000E+00  0.99999998245E-14  0.12500000000E+03  0.12500000000E+03 0.  0.
        -11    1    3    3    0    0  0.26514015399E+02 -0.21626482364E+02 -0.76906628189E+01  0.35069132394E+02  0.51100000000E-03 0. -1.
         23    2    1    0    0    0 -0.18942031084E+01  0.30321746291E+02 -0.33073088785E+01  0.94439656488E+02  0.89358346683E+02 0.  0.
         11    1    3    3    0    0 -0.28408218508E+02  0.51948228655E+02  0.43833539403E+01  0.59370524094E+02  0.51100000000E-03 0.  1.
         22    1    1    0    0    0  0.18942031084E+01 -0.30321746291E+02  0.33073088785E+01  0.30560343512E+02  0.00000000000E+00 0.  1.
</event>
<event>
 5    1  0.1102386E-009  0.9118800E+02  0.7818608E-02  0.1130116E+00
         25   -1    0    0    0    0  0.00000000000E+00  0.00000000000E+00  0.99999998245E-14  0.12500000000E+03  0.12500000000E+03 0.  0.
        -11    1    3    3    0    0 -0.30321239286E+02  0.13234243132E+02  0.17404981650E+02  0.37382564514E+02  0.51100000000E-03 0. -1.
         23    2    1    0    0    0  0.49716889550E+01 -0.26679641275E+02 -0.84116858598E+01  0.96587372374E+02  0.92313829373E+02 0.  0.
         11    1    3    3    0    0  0.35292928241E+02 -0.39913884406E+02 -0.25816667510E+02  0.59204807861E+02  0.51100000000E-03 0.  1.
         22    1    1    0    0    0 -0.49716889550E+01  0.26679641275E+02  0.84116858598E+01  0.28412627626E+02  0.00000000000E+00 0.  1.
</event>
<event>
 5    1  0.1102386E-009  0.9118800E+02  0.7818608E-02  0.1130116E+00
         25   -1    0    0    0    0  0.00000000000E+00  0.00000000000E+00  0.99999998245E-14  0.12500000000E+03  0.12500000000E+03 0.  0.
        -11    1    3    3    0    0  0.52949760260E+01 -0.34466964560E+02  0.16777539027E+02  0.38697470630E+02  0.51100000000E-03 0.  1.
         23    2    1    0    0    0 -0.30393469673E+02  0.31505094530E+01 -0.32231701534E+01  0.94274155269E+02  0.89126532623E+02 0.  0.
         11    1    3    3    0    0 -0.35688445699E+02  0.37617474013E+02 -0.20000709180E+02  0.55576684639E+02  0.51100000000E-03 0. -1.
         22    1    1    0    0    0  0.30393469673E+02 -0.31505094530E+01  0.32231701534E+01  0.30725844731E+02  0.00000000000E+00 0. -1.
</event>
<event>
 5    1  0.1102386E-009  0.9118800E+02  0.7818608E-02  0.1130116E+00
         25   -1    0    0    0    0  0.00000000000E+00  0.00000000000E+00  0.99999998245E-14  0.12500000000E+03  0.12500000000E+03 0.  0.
        -11    1    3    3    0    0  0.25059656783E+02 -0.75973338943E+01  0.46644990298E+02  0.53492625665E+02  0.51100000000E-03 0.  1.
         23    2    1    0    0    0 -0.60131900493E+01 -0.19858864699E+02  0.19302140815E+02  0.96660882128E+02  0.92413313608E+02 0.  0.
         11    1    3    3    0    0 -0.31072846833E+02 -0.12261530804E+02 -0.27342849483E+02  0.43168256463E+02  0.51100000000E-03 0. -1.
         22    1    1    0    0    0  0.60131900493E+01  0.19858864699E+02 -0.19302140815E+02  0.28339117872E+02  0.00000000000E+00 0.  1.
</event>
<event>
 5    1  0.1102386E-009  0.9118800E+02  0.7818608E-02  0.1130116E+00
         25   -1    0    0    0    0  0.00000000000E+00  0.00000000000E+00  0.99999998245E-14  0.12500000000E+03  0.12500000000E+03 0.  0.
        -11    1    3    3    0    0  0.51479243362E+02  0.25647242889E+02  0.19641706628E+02  0.60775736972E+02  0.51100000000E-03 0.  1.
         23    2    1    0    0    0  0.20230122686E+02  0.20144179410E+02  0.39328597130E+01  0.96181373844E+02  0.91762429463E+02 0.  0.
         11    1    3    3    0    0 -0.31249120676E+02 -0.55030634791E+01 -0.15708846915E+02  0.35405636872E+02  0.51100000000E-03 0. -1.
         22    1    1    0    0    0 -0.20230122686E+02 -0.20144179410E+02 -0.39328597130E+01  0.28818626156E+02  0.00000000000E+00 0.  1.
</event>
<event>
 5    1  0.1102386E-009  0.9118800E+02  0.7818608E-02  0.1130116E+00
         25   -1    0    0    0    0  0.00000000000E+00  0.00000000000E+00  0.99999998245E-14  0.12500000000E+03  0.12500000000E+03 0.  0.
        -11    1    3    3    0    0  0.32020661677E+02 -0.32225632180E+02 -0.16350617055E+01  0.45458635821E+02  0.51100000000E-03 0. -1.
         23    2    1    0    0    0 -0.87165836540E+01 -0.16652428460E+02  0.22801208260E+02  0.95450426360E+02  0.90761261505E+02 0.  0.
         11    1    3    3    0    0 -0.40737245331E+02  0.15573203720E+02  0.24436269965E+02  0.49991790539E+02  0.51100000000E-03 0.  1.
         22    1    1    0    0    0  0.87165836540E+01  0.16652428460E+02 -0.22801208260E+02  0.29549573640E+02  0.00000000000E+00 0. -1.
</event>
<event>
 5    1  0.1102386E-009  0.9118800E+02  0.7818608E-02  0.1130116E+00
         25   -1    0    0    0    0  0.00000000000E+00  0.00000000000E+00  0.99999998245E-14  0.12500000000E+03  0.12500000000E+03 0.  0.
        -11    1    3    3    0    0 -0.31416336318E+02 -0.44014240450E+02  0.17554132168E+02  0.56854086102E+02  0.51100000000E-03 0.  1.
         23    2    1    0    0    0  0.14676015577E+01 -0.28743218625E+02  0.25035187493E+01  0.96110658066E+02  0.91666048876E+02 0.  0.
         11    1    3    3    0    0  0.32883937876E+02  0.15271021825E+02 -0.15050613419E+02  0.39256571964E+02  0.51100000000E-03 0. -1.
         22    1    1    0    0    0 -0.14676015577E+01  0.28743218625E+02 -0.25035187493E+01  0.28889341934E+02  0.00000000000E+00 0.  1.
</event>
<event>
 5    1  0.1102386E-009  0.9118800E+02  0.7818608E-02  0.1130116E+00
         25   -1    0    0    0    0  0.00000000000E+00  0.00000000000E+00  0.99999998245E-14  0.12500000000E+03  0.12500000000E+03 0.  0.
        -11    1    3    3    0    0  0.60258789136E+02 -0.36640979205E+01 -0.33327431655E+01  0.60462008393E+02  0.51100000000E-03 0.  1.
         23    2    1    0    0    0  0.25526146020E+02 -0.11156113405E+02 -0.72657806163E+01  0.96210512945E+02  0.91802114552E+02 0.  0.
         11    1    3    3    0    0 -0.34732643116E+02 -0.74920154845E+01 -0.39330374507E+01  0.35748504552E+02  0.51100000000E-03 0. -1.
         22    1    1    0    0    0 -0.25526146020E+02  0.11156113405E+02  0.72657806163E+01  0.28789487055E+02  0.00000000000E+00 0.  1.
</event>
<event>
 5    1  0.1102386E-009  0.9118800E+02  0.7818608E-02  0.1130116E+00
         25   -1    0    0    0    0  0.00000000000E+00  0.00000000000E+00  0.99999998245E-14  0.12500000000E+03  0.12500000000E+03 0.  0.
        -11    1    3    3    0    0 -0.13406393472E+02 -0.27518706727E+01 -0.31815277500E+02  0.34634030386E+02  0.51100000000E-03 0. -1.
         23    2    1    0    0    0  0.17754715933E+02 -0.12126585325E+02  0.19879025549E+02  0.95717587765E+02  0.91128463947E+02 0.  0.
         11    1    3    3    0    0  0.31161109405E+02 -0.93747146523E+01  0.51694303049E+02  0.61083557379E+02  0.51100000000E-03 0.  1.
         22    1    1    0    0    0 -0.17754715933E+02  0.12126585325E+02 -0.19879025549E+02  0.29282412235E+02  0.00000000000E+00 0.  1.
</event>
<event>
 5    1  0.1102386E-009  0.9118800E+02  0.7818608E-02  0.1130116E+00
         25   -1    0    0    0    0  0.00000000000E+00  0.00000000000E+00  0.99999998245E-14  0.12500000000E+03  0.12500000000E+03 0.  0.
        -11    1    3    3    0    0 -0.32582501497E+02  0.31258983421E+02 -0.41969188173E+02  0.61645407002E+02  0.51100000000E-03 0.  1.
         23    2    1    0    0    0 -0.11546485511E+02  0.10641076602E+02 -0.24526355619E+02  0.95877912869E+02  0.91348115565E+02 0.  0.
         11    1    3    3    0    0  0.21036015985E+02 -0.20617906819E+02  0.17442832554E+02  0.34232505867E+02  0.51100000000E-03 0. -1.
         22    1    1    0    0    0  0.11546485511E+02 -0.10641076602E+02  0.24526355619E+02  0.29122087131E+02  0.00000000000E+00 0.  1.
</event>
<event>
 5    1  0.1102386E-009  0.9118800E+02  0.7818608E-02  0.1130116E+00
         25   -1    0    0    0    0  0.00000000000E+00  0.00000000000E+00  0.99999998245E-14  0.12500000000E+03  0.12500000000E+03 0.  0.
        -11    1    3    3    0    0 -0.55022078348E+02 -0.12850018084E+02 -0.12241466755E+02  0.57813541486E+02  0.51100000000E-03 0.  1.
         23    2    1    0    0    0 -0.27022022339E+02  0.10399076074E+00  0.10362027969E+02  0.96059161570E+02  0.91595798990E+02 0.  0.
         11    1    3    3    0    0  0.28000056009E+02  0.12954008845E+02  0.22603494724E+02  0.38245620085E+02  0.51100000000E-03 0. -1.
         22    1    1    0    0    0  0.27022022339E+02 -0.10399076074E+00 -0.10362027969E+02  0.28940838430E+02  0.00000000000E+00 0.  1.
</event>
<event>
 5    1  0.1102386E-009  0.9118800E+02  0.7818608E-02  0.1130116E+00
         25   -1    0    0    0    0  0.00000000000E+00  0.00000000000E+00  0.99999998245E-14  0.12500000000E+03  0.12500000000E+03 0.  0.
        -11    1    3    3    0    0 -0.13608918865E+02  0.11457938842E+02  0.53307898056E+02  0.56198034046E+02  0.51100000000E-03 0.  1.
         23    2    1    0    0    0  0.58070576730E+01 -0.10492880737E+02  0.26487766150E+02  0.95923820392E+02  0.91410913451E+02 0.  0.
         11    1    3    3    0    0  0.19415976538E+02 -0.21950819579E+02 -0.26820131906E+02  0.39725786346E+02  0.51100000000E-03 0. -1.
         22    1    1    0    0    0 -0.58070576730E+01  0.10492880737E+02 -0.26487766150E+02  0.29076179608E+02  0.00000000000E+00 0.  1.
</event>
<event>
 5    1  0.1102386E-009  0.9118800E+02  0.7818608E-02  0.1130116E+00
         25   -1    0    0    0    0  0.00000000000E+00  0.00000000000E+00  0.99999998245E-14  0.12500000000E+03  0.12500000000E+03 0.  0.
        -11    1    3    3    0    0 -0.13554120963E+02 -0.35391741804E+02 -0.11966365449E+02  0.39742716129E+02  0.51100000000E-03 0.  1.
         23    2    1    0    0    0 -0.30192940454E+02  0.13111775861E+02 -0.16953954291E+01  0.92039316069E+02  0.85935027884E+02 0.  0.
         11    1    3    3    0    0 -0.16638819491E+02  0.48503517665E+02  0.10270970020E+02  0.52296599941E+02  0.51100000000E-03 0. -1.
         22    1    1    0    0    0  0.30192940454E+02 -0.13111775861E+02  0.16953954291E+01  0.32960683931E+02  0.00000000000E+00 0.  1.
</event>
<event>
 5    1  0.1102386E-009  0.9118800E+02  0.7818608E-02  0.1130116E+00
         25   -1    0    0    0    0  0.00000000000E+00  0.00000000000E+00  0.99999998245E-14  0.12500000000E+03  0.12500000000E+03 0.  0.
        -11    1    3    3    0    0 -0.20451194514E+02 -0.23564351950E+02  0.31999659337E+02  0.44693492120E+02  0.51100000000E-03 0.  1.
         23    2    1    0    0    0  0.21116016563E+02  0.47686196219E+01  0.17826637294E+02  0.96956910195E+02  0.92812863057E+02 0.  0.
         11    1    3    3    0    0  0.41567211077E+02  0.28332971572E+02 -0.14173022043E+02  0.52263418075E+02  0.51100000000E-03 0. -1.
         22    1    1    0    0    0 -0.21116016563E+02 -0.47686196219E+01 -0.17826637294E+02  0.28043089805E+02  0.00000000000E+00 0. -1.
</event>
<event>
 5    1  0.1102386E-009  0.9118800E+02  0.7818608E-02  0.1130116E+00
         25   -1    0    0    0    0  0.00000000000E+00  0.00000000000E+00  0.99999998245E-14  0.12500000000E+03  0.12500000000E+03 0.  0.
        -11    1    3    3    0    0 -0.60056936867E+01 -0.15974610589E+02  0.43743071668E+02  0.46954369970E+02  0.51100000000E-03 0.  1.
         23    2    1    0    0    0  0.23302616379E+02  0.92427859843E+01  0.10983206498E+02  0.97630823033E+02  0.93716091245E+02 0.  0.
         11    1    3    3    0    0  0.29308310066E+02  0.25217396573E+02 -0.32759865170E+02  0.50676453063E+02  0.51100000000E-03 0. -1.
         22    1    1    0    0    0 -0.23302616379E+02 -0.92427859843E+01 -0.10983206498E+02  0.27369176967E+02  0.00000000000E+00 0. -1.
</event>
<event>
 5    1  0.1102386E-009  0.9118800E+02  0.7818608E-02  0.1130116E+00
         25   -1    0    0    0    0  0.00000000000E+00  0.00000000000E+00  0.99999998245E-14  0.12500000000E+03  0.12500000000E+03 0.  0.
        -11    1    3    3    0    0  0.18193746775E+02  0.50348483182E+02 -0.48903057145E+01  0.53757764748E+02  0.51100000000E-03 0. -1.
         23    2    1    0    0    0 -0.80873859948E+01  0.20286137042E+02 -0.18944474228E+02  0.96089339820E+02  0.91636973733E+02 0.  0.
         11    1    3    3    0    0 -0.26281132770E+02 -0.30062346141E+02 -0.14054168513E+02  0.42331575071E+02  0.51100000000E-03 0.  1.
         22    1    1    0    0    0  0.80873859948E+01 -0.20286137042E+02  0.18944474228E+02  0.28910660180E+02  0.00000000000E+00 0. -1.
</event>
<event>
 5    1  0.1102386E-009  0.9118800E+02  0.7818608E-02  0.1130116E+00
         25   -1    0    0    0    0  0.00000000000E+00  0.00000000000E+00  0.99999998245E-14  0.12500000000E+03  0.12500000000E+03 0.  0.
        -11    1    3    3    0    0  0.31785959144E+02  0.49207960573E+02 -0.24129664443E+01  0.58630990012E+02  0.51100000000E-03 0. -1.
         23    2    1    0    0    0  0.25137481577E+02  0.12857430448E+02 -0.71150510573E+01  0.95882471786E+02  0.91354353736E+02 0.  0.
         11    1    3    3    0    0 -0.66484775674E+01 -0.36350530126E+02 -0.47020846130E+01  0.37251481774E+02  0.51100000000E-03 0.  1.
         22    1    1    0    0    0 -0.25137481577E+02 -0.12857430448E+02  0.71150510573E+01  0.29117528214E+02  0.00000000000E+00 0. -1.
</event>
<event>
 5    1  0.1102386E-009  0.9118800E+02  0.7818608E-02  0.1130116E+00
         25   -1    0    0    0    0  0.00000000000E+00  0.00000000000E+00  0.99999998245E-14  0.12500000000E+03  0.12500000000E+03 0.  0.
        -11    1    3    3    0    0  0.32088782316E+02 -0.13935338372E+02 -0.32988483838E+01  0.35139237427E+02  0.51100000000E-03 0.  1.
         23    2    1    0    0    0 -0.25854472061E+02 -0.50188143956E+01 -0.14663646647E+02  0.94855933312E+02  0.89938775442E+02 0.  0.
         11    1    3    3    0    0 -0.57943254377E+02  0.89165239763E+01 -0.11364798263E+02  0.59716695885E+02  0.51100000000E-03 0. -1.
         22    1    1    0    0    0  0.25854472061E+02  0.50188143956E+01  0.14663646647E+02  0.30144066688E+02  0.00000000000E+00 0. -1.
</event>
<event>
 5    1  0.1102386E-009  0.9118800E+02  0.7818608E-02  0.1130116E+00
         25   -1    0    0    0    0  0.00000000000E+00  0.00000000000E+00  0.99999998245E-14  0.12500000000E+03  0.12500000000E+03 0.  0.
        -11    1    3    3    0    0  0.23204139890E+02  0.38515083632E+02 -0.27225501360E+02  0.52564928420E+02  0.51100000000E-03 0.  1.
         23    2    1    0    0    0 -0.16543867853E+01  0.19106529054E+01 -0.28066140579E+02  0.96820293878E+02  0.92628685996E+02 0.  0.
         11    1    3    3    0    0 -0.24858526675E+02 -0.36604430726E+02 -0.84063921858E+00  0.44255365458E+02  0.51100000000E-03 0. -1.
         22    1    1    0    0    0  0.16543867853E+01 -0.19106529054E+01  0.28066140579E+02  0.28179706122E+02  0.00000000000E+00 0.  1.
</event>
<event>
 5    1  0.1102386E-009  0.9118800E+02  0.7818608E-02  0.1130116E+00
         25   -1    0    0    0    0  0.00000000000E+00  0.00000000000E+00  0.99999998245E-14  0.12500000000E+03  0.12500000000E+03 0.  0.
        -11    1    3    3    0    0  0.12423121240E+02 -0.57899946421E+02 -0.46099025831E+01  0.59396876509E+02  0.51100000000E-03 0. -1.
         23    2    1    0    0    0  0.94994115449E+01 -0.23700764587E+02 -0.15159299174E+02  0.95305397575E+02  0.90561301855E+02 0.  0.
         11    1    3    3    0    0 -0.29237096955E+01  0.34199181834E+02 -0.10549396591E+02  0.35908521066E+02  0.51100000000E-03 0.  1.
         22    1    1    0    0    0 -0.94994115449E+01  0.23700764587E+02  0.15159299174E+02  0.29694602425E+02  0.00000000000E+00 0. -1.
</event>
<event>
 5    1  0.1102386E-009  0.9118800E+02  0.7818608E-02  0.1130116E+00
         25   -1    0    0    0    0  0.00000000000E+00  0.00000000000E+00  0.99999998245E-14  0.12500000000E+03  0.12500000000E+03 0.  0.
        -11    1    3    3    0    0 -0.29598846598E+02 -0.19919723656E+02  0.93821996739E+01  0.36890551384E+02  0.51100000000E-03 0.  1.
         23    2    1    0    0    0  0.21855189721E+02 -0.12971237430E+02 -0.16291114828E+02  0.94812208750E+02  0.89877984999E+02 0.  0.
         11    1    3    3    0    0  0.51454036318E+02  0.69484862259E+01 -0.25673314502E+02  0.57921657366E+02  0.51100000000E-03 0. -1.
         22    1    1    0    0    0 -0.21855189721E+02  0.12971237430E+02  0.16291114828E+02  0.30187791250E+02  0.00000000000E+00 0. -1.
</event>
<event>
 5    1  0.1102386E-009  0.9118800E+02  0.7818608E-02  0.1130116E+00
         25   -1    0    0    0    0  0.00000000000E+00  0.00000000000E+00  0.99999998245E-14  0.12500000000E+03  0.12500000000E+03 0.  0.
        -11    1    3    3    0    0  0.34699189560E+02 -0.10084031361E+02  0.80568452425E+01  0.37022077199E+02  0.51100000000E-03 0. -1.
         23    2    1    0    0    0  0.96185407082E+01  0.57477165873E+01 -0.34404755232E+02  0.88816581782E+02  0.81111931586E+02 0.  0.
         11    1    3    3    0    0 -0.25080648852E+02  0.15831747948E+02 -0.42461600475E+02  0.51794504584E+02  0.51100000000E-03 0.  1.
         22    1    1    0    0    0 -0.96185407082E+01 -0.57477165873E+01  0.34404755232E+02  0.36183418218E+02  0.00000000000E+00 0.  1.
</event>
<event>
 5    1  0.1102386E-009  0.9118800E+02  0.7818608E-02  0.1130116E+00
         25   -1    0    0    0    0  0.00000000000E+00  0.00000000000E+00  0.99999998245E-14  0.12500000000E+03  0.12500000000E+03 0.  0.
        -11    1    3    3    0    0 -0.56181745449E+02 -0.60851239731E+01 -0.11407428020E+02  0.57650209624E+02  0.51100000000E-03 0.  1.
         23    2    1    0    0    0 -0.23483744423E+02 -0.19980610779E+02 -0.60148552964E+01  0.93585201839E+02  0.88154979779E+02 0.  0.
         11    1    3    3    0    0  0.32698001025E+02 -0.13895486806E+02  0.53925727236E+01  0.35934992215E+02  0.51100000000E-03 0. -1.
         22    1    1    0    0    0  0.23483744423E+02  0.19980610779E+02  0.60148552964E+01  0.31414798161E+02  0.00000000000E+00 0.  1.
</event>
<event>
 5    1  0.1102386E-009  0.9118800E+02  0.7818608E-02  0.1130116E+00
         25   -1    0    0    0    0  0.00000000000E+00  0.00000000000E+00  0.99999998245E-14  0.12500000000E+03  0.12500000000E+03 0.  0.
        -11    1    3    3    0    0  0.27569180548E+01  0.28795582555E+02 -0.16116673172E+02  0.33113944589E+02  0.51100000000E-03 0.  1.
         23    2    1    0    0    0 -0.16183166151E+01 -0.29896350405E+02 -0.13848056151E+02  0.92012436050E+02  0.85895919650E+02 0.  0.
         11    1    3    3    0    0 -0.43752346699E+01 -0.58691932960E+02  0.22686170211E+01  0.58898491461E+02  0.51100000000E-03 0. -1.
         22    1    1    0    0    0  0.16183166151E+01  0.29896350405E+02  0.13848056151E+02  0.32987563950E+02  0.00000000000E+00 0. -1.
</event>
<event>
 5    1  0.1102386E-009  0.9118800E+02  0.7818608E-02  0.1130116E+00
         25   -1    0    0    0    0  0.00000000000E+00  0.00000000000E+00  0.99999998245E-14  0.12500000000E+03  0.12500000000E+03 0.  0.
        -11    1    3    3    0    0 -0.45411144339E+02  0.42725847515E+02 -0.23887575482E+01  0.62396924916E+02  0.51100000000E-03 0.  1.
         23    2    1    0    0    0 -0.22651210105E+02  0.20442384123E+02 -0.36279515217E+01  0.94273294676E+02  0.89125325632E+02 0.  0.
         11    1    3    3    0    0  0.22759934234E+02 -0.22283463393E+02 -0.12391939735E+01  0.31876369760E+02  0.51100000000E-03 0. -1.
         22    1    1    0    0    0  0.22651210105E+02 -0.20442384123E+02  0.36279515217E+01  0.30726705324E+02  0.00000000000E+00 0.  1.
</event>
<event>
 5    1  0.1102386E-009  0.9118800E+02  0.7818608E-02  0.1130116E+00
         25   -1    0    0    0    0  0.00000000000E+00  0.00000000000E+00  0.99999998245E-14  0.12500000000E+03  0.12500000000E+03 0.  0.
        -11    1    3    3    0    0 -0.52061777497E+01 -0.40537905843E+02  0.32480410339E+01  0.40999705703E+02  0.51100000000E-03 0. -1.
         23    2    1    0    0    0  0.94036451040E+01  0.26891472700E+00 -0.28669193440E+02  0.94826774967E+02  0.89898241039E+02 0.  0.
         11    1    3    3    0    0  0.14609822854E+02  0.40806820570E+02 -0.31917234474E+02  0.53827069264E+02  0.51100000000E-03 0.  1.
         22    1    1    0    0    0 -0.94036451040E+01 -0.26891472700E+00  0.28669193440E+02  0.30173225033E+02  0.00000000000E+00 0.  1.
</event>
<event>
 5    1  0.1102386E-009  0.9118800E+02  0.7818608E-02  0.1130116E+00
         25   -1    0    0    0    0  0.00000000000E+00  0.00000000000E+00  0.99999998245E-14  0.12500000000E+03  0.12500000000E+03 0.  0.
        -11    1    3    3    0    0  0.12173292138E+02  0.25721441944E+02  0.48667342388E+02  0.56376341070E+02  0.51100000000E-03 0. -1.
         23    2    1    0    0    0  0.15403873215E+02  0.23476996058E+02  0.10076140698E+02  0.95167513256E+02  0.90370782414E+02 0.  0.
         11    1    3    3    0    0  0.32305810775E+01 -0.22444458856E+01 -0.38591201690E+02  0.38791172186E+02  0.51100000000E-03 0.  1.
         22    1    1    0    0    0 -0.15403873215E+02 -0.23476996058E+02 -0.10076140698E+02  0.29832486744E+02  0.00000000000E+00 0. -1.
</event>
<event>
 5    1  0.1102386E-009  0.9118800E+02  0.7818608E-02  0.1130116E+00
         25   -1    0    0    0    0  0.00000000000E+00  0.00000000000E+00  0.99999998245E-14  0.12500000000E+03  0.12500000000E+03 0.  0.
        -11    1    3    3    0    0  0.93903337797E+01  0.10198094796E+02  0.57239765455E+02  0.58894568982E+02  0.51100000000E-03 0. -1.
         23    2    1    0    0    0  0.17917519535E+02 -0.85095657285E+00  0.23277147991E+02  0.95613144912E+02  0.90985087943E+02 0.  0.
         11    1    3    3    0    0  0.85271857548E+01 -0.11049051368E+02 -0.33962617464E+02  0.36718575930E+02  0.51100000000E-03 0.  1.
         22    1    1    0    0    0 -0.17917519535E+02  0.85095657285E+00 -0.23277147991E+02  0.29386855088E+02  0.00000000000E+00 0. -1.
</event>
<event>
 5    1  0.1102386E-009  0.9118800E+02  0.7818608E-02  0.1130116E+00
         25   -1    0    0    0    0  0.00000000000E+00  0.00000000000E+00  0.99999998245E-14  0.12500000000E+03  0.12500000000E+03 0.  0.
        -11    1    3    3    0    0 -0.28275453024E+02 -0.19920387573E+02  0.26527734505E+02  0.43589491658E+02  0.51100000000E-03 0.  1.
         23    2    1    0    0    0 -0.25385913588E+01  0.24499243493E+02  0.14854495912E+02  0.96236943371E+02  0.91838095815E+02 0.  0.
         11    1    3    3    0    0  0.25736861665E+02  0.44419631066E+02 -0.11673238593E+02  0.52647451714E+02  0.51100000000E-03 0. -1.
         22    1    1    0    0    0  0.25385913588E+01 -0.24499243493E+02 -0.14854495912E+02  0.28763056629E+02  0.00000000000E+00 0. -1.
</event>
<event>
 5    1  0.1102386E-009  0.9118800E+02  0.7818608E-02  0.1130116E+00
         25   -1    0    0    0    0  0.00000000000E+00  0.00000000000E+00  0.99999998245E-14  0.12500000000E+03  0.12500000000E+03 0.  0.
        -11    1    3    3    0    0  0.23716750451E+02  0.50228169556E+01 -0.37595165649E+02  0.44733761552E+02  0.51100000000E-03 0.  1.
         23    2    1    0    0    0  0.19956093886E+02  0.18537167102E+02  0.11233193398E+02  0.95537194952E+02  0.90880684075E+02 0.  0.
         11    1    3    3    0    0 -0.37606565643E+01  0.13514350147E+02  0.48828359048E+02  0.50803433400E+02  0.51100000000E-03 0. -1.
         22    1    1    0    0    0 -0.19956093886E+02 -0.18537167102E+02 -0.11233193398E+02  0.29462805048E+02  0.00000000000E+00 0. -1.
</event>
<event>
 5    1  0.1102386E-009  0.9118800E+02  0.7818608E-02  0.1130116E+00
         25   -1    0    0    0    0  0.00000000000E+00  0.00000000000E+00  0.99999998245E-14  0.12500000000E+03  0.12500000000E+03 0.  0.
        -11    1    3    3    0    0 -0.21002250677E+02 -0.38790350291E+02 -0.18268543031E+01  0.44148875479E+02  0.51100000000E-03 0.  1.
         23    2    1    0    0    0  0.76954406874E+01 -0.77885572130E+01  0.27382959329E+02  0.95509189695E+02  0.90842156644E+02 0.  0.
         11    1    3    3    0    0  0.28697691364E+02  0.31001793078E+02  0.29209813632E+02  0.51360314216E+02  0.51100000000E-03 0. -1.
         22    1    1    0    0    0 -0.76954406874E+01  0.77885572130E+01 -0.27382959329E+02  0.29490810305E+02  0.00000000000E+00 0. -1.
</event>
<event>
 5    1  0.1102386E-009  0.9118800E+02  0.7818608E-02  0.1130116E+00
         25   -1    0    0    0    0  0.00000000000E+00  0.00000000000E+00  0.99999998245E-14  0.12500000000E+03  0.12500000000E+03 0.  0.
        -11    1    3    3    0    0  0.44713069269E+02  0.13907523060E+02 -0.25715320527E+02  0.53422424798E+02  0.51100000000E-03 0. -1.
         23    2    1    0    0    0  0.10055507908E+02 -0.12639231250E+02 -0.22643198167E+02  0.97186732858E+02  0.93121872911E+02 0.  0.
         11    1    3    3    0    0 -0.34657561361E+02 -0.26546754311E+02  0.30721223604E+01  0.43764308060E+02  0.51100000000E-03 0.  1.
         22    1    1    0    0    0 -0.10055507908E+02  0.12639231250E+02  0.22643198167E+02  0.27813267142E+02  0.00000000000E+00 0.  1.
</event>
<event>
 5    1  0.1102386E-009  0.9118800E+02  0.7818608E-02  0.1130116E+00
         25   -1    0    0    0    0  0.00000000000E+00  0.00000000000E+00  0.99999998245E-14  0.12500000000E+03  0.12500000000E+03 0.  0.
        -11    1    3    3    0    0 -0.48291282038E+02 -0.28258577660E+02 -0.82083722983E+01  0.56550618992E+02  0.51100000000E-03 0.  1.
         23    2    1    0    0    0 -0.93678915097E+01 -0.26658121200E+02 -0.84490418975E+01  0.95507642919E+02  0.90840028235E+02 0.  0.
         11    1    3    3    0    0  0.38923390529E+02  0.16004564609E+01 -0.24066959925E+00  0.38957023927E+02  0.51100000000E-03 0. -1.
         22    1    1    0    0    0  0.93678915097E+01  0.26658121200E+02  0.84490418975E+01  0.29492357081E+02  0.00000000000E+00 0.  1.
</event>
<event>
 5    1  0.1102386E-009  0.9118800E+02  0.7818608E-02  0.1130116E+00
         25   -1    0    0    0    0  0.00000000000E+00  0.00000000000E+00  0.99999998245E-14  0.12500000000E+03  0.12500000000E+03 0.  0.
        -11    1    3    3    0    0  0.35553182663E+02  0.85325765514E+00 -0.38616619767E+02  0.52497620599E+02  0.51100000000E-03 0. -1.
         23    2    1    0    0    0  0.70060746340E+01 -0.23051682262E+02 -0.16379053954E+02  0.95866882327E+02  0.91333020216E+02 0.  0.
         11    1    3    3    0    0 -0.28547108029E+02 -0.23904939917E+02  0.22237565813E+02  0.43369261728E+02  0.51100000000E-03 0.  1.
         22    1    1    0    0    0 -0.70060746340E+01  0.23051682262E+02  0.16379053954E+02  0.29133117673E+02  0.00000000000E+00 0. -1.
</event>
<event>
 5    1  0.1102386E-009  0.9118800E+02  0.7818608E-02  0.1130116E+00
         25   -1    0    0    0    0  0.00000000000E+00  0.00000000000E+00  0.99999998245E-14  0.12500000000E+03  0.12500000000E+03 0.  0.
        -11    1    3    3    0    0  0.11003573782E+02 -0.17333480394E+02 -0.23610715159E+02  0.31288880599E+02  0.51100000000E-03 0.  1.
         23    2    1    0    0    0  0.35618379275E+02 -0.23021493458E+02  0.17157544625E+02  0.79250252014E+02  0.64711382334E+02 0.  0.
         11    1    3    3    0    0  0.24614805492E+02 -0.56880130644E+01  0.40768259784E+02  0.47961371416E+02  0.51100000000E-03 0. -1.
         22    1    1    0    0    0 -0.35618379275E+02  0.23021493458E+02 -0.17157544625E+02  0.45749747986E+02  0.00000000000E+00 0. -1.
</event>
<event>
 5    1  0.1102386E-009  0.9118800E+02  0.7818608E-02  0.1130116E+00
         25   -1    0    0    0    0  0.00000000000E+00  0.00000000000E+00  0.99999998245E-14  0.12500000000E+03  0.12500000000E+03 0.  0.
        -11    1    3    3    0    0 -0.24878649955E+02  0.19233968490E+02  0.22370368418E+02  0.38591788646E+02  0.51100000000E-03 0. -1.
         23    2    1    0    0    0  0.13292489460E+02  0.16632317377E+02 -0.20075908146E+02  0.95736262282E+02  0.91154075994E+02 0.  0.
         11    1    3    3    0    0  0.38171139415E+02 -0.26016511134E+01 -0.42446276563E+02  0.57144473636E+02  0.51100000000E-03 0.  1.
         22    1    1    0    0    0 -0.13292489460E+02 -0.16632317377E+02  0.20075908146E+02  0.29263737718E+02  0.00000000000E+00 0.  1.
</event>
<event>
 5    1  0.1102386E-009  0.9118800E+02  0.7818608E-02  0.1130116E+00
         25   -1    0    0    0    0  0.00000000000E+00  0.00000000000E+00  0.99999998245E-14  0.12500000000E+03  0.12500000000E+03 0.  0.
        -11    1    3    3    0    0 -0.22528196505E+02 -0.17687124250E+02  0.17061435151E+02  0.33338364862E+02  0.51100000000E-03 0.  1.
         23    2    1    0    0    0  0.22166749486E+02  0.13924835088E+02 -0.12976959776E+02  0.95782414542E+02  0.91217342844E+02 0.  0.
         11    1    3    3    0    0  0.44694945991E+02  0.31611959338E+02 -0.30038394927E+02  0.62444049679E+02  0.51100000000E-03 0. -1.
         22    1    1    0    0    0 -0.22166749486E+02 -0.13924835088E+02  0.12976959776E+02  0.29217585458E+02  0.00000000000E+00 0. -1.
</event>
<event>
 5    1  0.1102386E-009  0.9118800E+02  0.7818608E-02  0.1130116E+00
         25   -1    0    0    0    0  0.00000000000E+00  0.00000000000E+00  0.99999998245E-14  0.12500000000E+03  0.12500000000E+03 0.  0.
        -11    1    3    3    0    0 -0.14878904695E+02 -0.54931179794E+01  0.54696429247E+02  0.56949587555E+02  0.51100000000E-03 0. -1.
         23    2    1    0    0    0  0.98614181182E+01 -0.11168338899E+02  0.23602533497E+02  0.97088372521E+02  0.92989747446E+02 0.  0.
         11    1    3    3    0    0  0.24740322813E+02 -0.56752209197E+01 -0.31093895750E+02  0.40138784966E+02  0.51100000000E-03 0.  1.
         22    1    1    0    0    0 -0.98614181182E+01  0.11168338899E+02 -0.23602533497E+02  0.27911627479E+02  0.00000000000E+00 0. -1.
</event>
<event>
 5    1  0.1102386E-009  0.9118800E+02  0.7818608E-02  0.1130116E+00
         25   -1    0    0    0    0  0.00000000000E+00  0.00000000000E+00  0.99999998245E-14  0.12500000000E+03  0.12500000000E+03 0.  0.
        -11    1    3    3    0    0 -0.62243714104E+01 -0.12506283807E+02 -0.52022467660E+02  0.53865453454E+02  0.51100000000E-03 0. -1.
         23    2    1    0    0    0  0.50210065978E+01  0.15981728202E+02 -0.26080859296E+02  0.94002623253E+02  0.88744891758E+02 0.  0.
         11    1    3    3    0    0  0.11245378008E+02  0.28488012009E+02  0.25941608363E+02  0.40137169799E+02  0.51100000000E-03 0.  1.
         22    1    1    0    0    0 -0.50210065978E+01 -0.15981728202E+02  0.26080859296E+02  0.30997376747E+02  0.00000000000E+00 0. -1.
</event>
<event>
 5    1  0.1102386E-009  0.9118800E+02  0.7818608E-02  0.1130116E+00
         25   -1    0    0    0    0  0.00000000000E+00  0.00000000000E+00  0.99999998245E-14  0.12500000000E+03  0.12500000000E+03 0.  0.
        -11    1    3    3    0    0 -0.28951129423E+02 -0.16852928202E+02  0.35646685465E+02  0.48917024324E+02  0.51100000000E-03 0. -1.
         23    2    1    0    0    0 -0.85524770197E+01  0.21107553679E+02  0.19766419253E+02  0.94843988732E+02  0.89922172922E+02 0.  0.
         11    1    3    3    0    0  0.20398652403E+02  0.37960481881E+02 -0.15880266212E+02  0.45926964408E+02  0.51100000000E-03 0.  1.
         22    1    1    0    0    0  0.85524770197E+01 -0.21107553679E+02 -0.19766419253E+02  0.30156011268E+02  0.00000000000E+00 0. -1.
</event>
<event>
 5    1  0.1102386E-009  0.9118800E+02  0.7818608E-02  0.1130116E+00
         25   -1    0    0    0    0  0.00000000000E+00  0.00000000000E+00  0.99999998245E-14  0.12500000000E+03  0.12500000000E+03 0.  0.
        -11    1    3    3    0    0 -0.50454371263E+01  0.53175846108E+02  0.22555326161E+00  0.53415146912E+02  0.51100000000E-03 0. -1.
         23    2    1    0    0    0  0.21308956713E+02  0.20529041856E+02  0.12521875513E+01  0.95384443794E+02  0.90670342166E+02 0.  0.
         11    1    3    3    0    0  0.26354393839E+02 -0.32646804252E+02  0.10266342897E+01  0.41969296882E+02  0.51100000000E-03 0.  1.
         22    1    1    0    0    0 -0.21308956713E+02 -0.20529041856E+02 -0.12521875513E+01  0.29615556206E+02  0.00000000000E+00 0. -1.
</event>
<event>
 5    1  0.1102386E-009  0.9118800E+02  0.7818608E-02  0.1130116E+00
         25   -1    0    0    0    0  0.00000000000E+00  0.00000000000E+00  0.99999998245E-14  0.12500000000E+03  0.12500000000E+03 0.  0.
        -11    1    3    3    0    0  0.87572587462E+01 -0.54180631674E+02  0.17199701092E+02  0.57515738257E+02  0.51100000000E-03 0. -1.
         23    2    1    0    0    0 -0.99201774888E+01 -0.25908345775E+02 -0.32099386773E+01  0.97072307497E+02  0.92968149784E+02 0.  0.
         11    1    3    3    0    0 -0.18677436235E+02  0.28272285899E+02 -0.20409639769E+02  0.39556569240E+02  0.51100000000E-03 0.  1.
         22    1    1    0    0    0  0.99201774888E+01  0.25908345775E+02  0.32099386773E+01  0.27927692503E+02  0.00000000000E+00 0. -1.
</event>
<event>
 5    1  0.1102386E-009  0.9118800E+02  0.7818608E-02  0.1130116E+00
         25   -1    0    0    0    0  0.00000000000E+00  0.00000000000E+00  0.99999998245E-14  0.12500000000E+03  0.12500000000E+03 0.  0.
        -11    1    3    3    0    0  0.11552439766E+02 -0.44173785467E+02 -0.42135149574E+01  0.45853417491E+02  0.51100000000E-03 0.  1.
         23    2    1    0    0    0  0.30908610465E+02 -0.31692694139E+00 -0.43018672369E+01  0.93791848736E+02  0.88447510898E+02 0.  0.
         11    1    3    3    0    0  0.19356170700E+02  0.43856858526E+02 -0.88352279489E-01  0.47938431245E+02  0.51100000000E-03 0. -1.
         22    1    1    0    0    0 -0.30908610465E+02  0.31692694139E+00  0.43018672369E+01  0.31208151264E+02  0.00000000000E+00 0. -1.
</event>
<event>
 5    1  0.1102386E-009  0.9118800E+02  0.7818608E-02  0.1130116E+00
         25   -1    0    0    0    0  0.00000000000E+00  0.00000000000E+00  0.99999998245E-14  0.12500000000E+03  0.12500000000E+03 0.  0.
        -11    1    3    3    0    0 -0.51491807747E+02 -0.18901922997E+02  0.19778347570E+02  0.58308421269E+02  0.51100000000E-03 0. -1.
         23    2    1    0    0    0 -0.21541598588E+02  0.30542366901E+01  0.20002971895E+02  0.95445174402E+02  0.90754028013E+02 0.  0.
         11    1    3    3    0    0  0.29950209159E+02  0.21956159688E+02  0.22462432540E+00  0.37136753133E+02  0.51100000000E-03 0.  1.
         22    1    1    0    0    0  0.21541598588E+02 -0.30542366901E+01 -0.20002971895E+02  0.29554825598E+02  0.00000000000E+00 0. -1.
</event>
<event>
 5    1  0.1102386E-009  0.9118800E+02  0.7818608E-02  0.1130116E+00
         25   -1    0    0    0    0  0.00000000000E+00  0.00000000000E+00  0.99999998245E-14  0.12500000000E+03  0.12500000000E+03 0.  0.
        -11    1    3    3    0    0 -0.26946252520E+02  0.49292054403E+02 -0.22713360125E+02  0.60594586231E+02  0.51100000000E-03 0.  1.
         23    2    1    0    0    0 -0.91140527632E+01  0.19078184271E+02 -0.20183857329E+02  0.95769345380E+02  0.91199431714E+02 0.  0.
         11    1    3    3    0    0  0.17832199756E+02 -0.30213870132E+02  0.25295027959E+01  0.35174759148E+02  0.51100000000E-03 0. -1.
         22    1    1    0    0    0  0.91140527632E+01 -0.19078184271E+02  0.20183857329E+02  0.29230654620E+02  0.00000000000E+00 0.  1.
</event>
<event>
 5    1  0.1102386E-009  0.9118800E+02  0.7818608E-02  0.1130116E+00
         25   -1    0    0    0    0  0.00000000000E+00  0.00000000000E+00  0.99999998245E-14  0.12500000000E+03  0.12500000000E+03 0.  0.
        -11    1    3    3    0    0  0.98143871794E+01  0.25770600714E+02  0.28424132932E+02  0.39602744729E+02  0.51100000000E-03 0. -1.
         23    2    1    0    0    0 -0.16231684414E+02  0.11129834199E+02 -0.20279110952E+02  0.96740786826E+02  0.92521331090E+02 0.  0.
         11    1    3    3    0    0 -0.26046071594E+02 -0.14640766515E+02 -0.48703243884E+02  0.57138042097E+02  0.51100000000E-03 0.  1.
         22    1    1    0    0    0  0.16231684414E+02 -0.11129834199E+02  0.20279110952E+02  0.28259213174E+02  0.00000000000E+00 0.  1.
</event>
<event>
 5    1  0.1102386E-009  0.9118800E+02  0.7818608E-02  0.1130116E+00
         25   -1    0    0    0    0  0.00000000000E+00  0.00000000000E+00  0.99999998245E-14  0.12500000000E+03  0.12500000000E+03 0.  0.
        -11    1    3    3    0    0 -0.39081982994E+02  0.23235801682E+02 -0.58305206605E+01  0.45839926331E+02  0.51100000000E-03 0.  1.
         23    2    1    0    0    0 -0.94508749452E+01 -0.10632379473E+02 -0.26162147576E+02  0.95220401341E+02  0.90443907121E+02 0.  0.
         11    1    3    3    0    0  0.29631108049E+02 -0.33868181155E+02 -0.20331626916E+02  0.49380475010E+02  0.51100000000E-03 0. -1.
         22    1    1    0    0    0  0.94508749452E+01  0.10632379473E+02  0.26162147576E+02  0.29779598659E+02  0.00000000000E+00 0. -1.
</event>
<event>
 5    1  0.1102386E-009  0.9118800E+02  0.7818608E-02  0.1130116E+00
         25   -1    0    0    0    0  0.00000000000E+00  0.00000000000E+00  0.99999998245E-14  0.12500000000E+03  0.12500000000E+03 0.  0.
        -11    1    3    3    0    0  0.19597853040E+02  0.84155777173E+01  0.31202268268E+02  0.37795229030E+02  0.51100000000E-03 0. -1.
         23    2    1    0    0    0 -0.26962778096E+02  0.11434290776E+02 -0.28737926753E+01  0.95572239424E+02  0.90928872510E+02 0.  0.
         11    1    3    3    0    0 -0.46560631136E+02  0.30187130591E+01 -0.34076060944E+02  0.57777010393E+02  0.51100000000E-03 0.  1.
         22    1    1    0    0    0  0.26962778096E+02 -0.11434290776E+02  0.28737926753E+01  0.29427760576E+02  0.00000000000E+00 0. -1.
</event>
<event>
 5    1  0.1102386E-009  0.9118800E+02  0.7818608E-02  0.1130116E+00
         25   -1    0    0    0    0  0.00000000000E+00  0.00000000000E+00  0.99999998245E-14  0.12500000000E+03  0.12500000000E+03 0.  0.
        -11    1    3    3    0    0 -0.21542880322E+02 -0.54566956427E+02 -0.11985100056E+02  0.59877299955E+02  0.51100000000E-03 0. -1.
         23    2    1    0    0    0  0.19468827702E+01 -0.20603757845E+02 -0.11808531541E+02  0.10117256608E+03  0.98326708076E+02 0.  0.
         11    1    3    3    0    0  0.23489763092E+02  0.33963198582E+02  0.17656851533E+00  0.41295266130E+02  0.51100000000E-03 0.  1.
         22    1    1    0    0    0 -0.19468827702E+01  0.20603757845E+02  0.11808531541E+02  0.23827433916E+02  0.00000000000E+00 0. -1.
</event>
<event>
 5    1  0.1102386E-009  0.9118800E+02  0.7818608E-02  0.1130116E+00
         25   -1    0    0    0    0  0.00000000000E+00  0.00000000000E+00  0.99999998245E-14  0.12500000000E+03  0.12500000000E+03 0.  0.
        -11    1    3    3    0    0 -0.39189902840E+01 -0.24977374488E+02 -0.41644586139E+02  0.48718572189E+02  0.51100000000E-03 0. -1.
         23    2    1    0    0    0 -0.66479278451E+01 -0.28196058684E+02  0.50418753964E+01  0.95595354492E+02  0.90960643264E+02 0.  0.
         11    1    3    3    0    0 -0.27289375611E+01 -0.32186841957E+01  0.46686461536E+02  0.46876782304E+02  0.51100000000E-03 0.  1.
         22    1    1    0    0    0  0.66479278451E+01  0.28196058684E+02 -0.50418753964E+01  0.29404645508E+02  0.00000000000E+00 0.  1.
</event>
<event>
 5    1  0.1102386E-009  0.9118800E+02  0.7818608E-02  0.1130116E+00
         25   -1    0    0    0    0  0.00000000000E+00  0.00000000000E+00  0.99999998245E-14  0.12500000000E+03  0.12500000000E+03 0.  0.
        -11    1    3    3    0    0  0.35307455065E+02  0.69041087827E+01  0.48889289728E+01  0.36306813796E+02  0.51100000000E-03 0.  1.
         23    2    1    0    0    0 -0.11080485620E+02 -0.85140672273E+00 -0.28780690071E+02  0.94148254896E+02  0.88949782035E+02 0.  0.
         11    1    3    3    0    0 -0.46387940685E+02 -0.77555155054E+01 -0.33669619044E+02  0.57841441100E+02  0.51100000000E-03 0. -1.
         22    1    1    0    0    0  0.11080485620E+02  0.85140672273E+00  0.28780690071E+02  0.30851745104E+02  0.00000000000E+00 0. -1.
</event>
<event>
 5    1  0.1102386E-009  0.9118800E+02  0.7818608E-02  0.1130116E+00
         25   -1    0    0    0    0  0.00000000000E+00  0.00000000000E+00  0.99999998245E-14  0.12500000000E+03  0.12500000000E+03 0.  0.
        -11    1    3    3    0    0 -0.37812239491E+02 -0.30595899397E+02 -0.17104084475E+01  0.48670319627E+02  0.51100000000E-03 0.  1.
         23    2    1    0    0    0 -0.18056450138E+02  0.12316404829E+02 -0.15871109747E+02  0.97988496078E+02  0.94191953051E+02 0.  0.
         11    1    3    3    0    0  0.19755789352E+02  0.42912304226E+02 -0.14160701300E+02  0.49318176451E+02  0.51100000000E-03 0. -1.
         22    1    1    0    0    0  0.18056450138E+02 -0.12316404829E+02  0.15871109747E+02  0.27011503922E+02  0.00000000000E+00 0.  1.
</event>
<event>
 5    1  0.1102386E-009  0.9118800E+02  0.7818608E-02  0.1130116E+00
         25   -1    0    0    0    0  0.00000000000E+00  0.00000000000E+00  0.99999998245E-14  0.12500000000E+03  0.12500000000E+03 0.  0.
        -11    1    3    3    0    0 -0.25666681755E+02  0.93887277315E+01  0.16617266291E+02  0.31985313818E+02  0.51100000000E-03 0. -1.
         23    2    1    0    0    0  0.12821419282E+01 -0.22610593116E+02 -0.25187832915E+02  0.91128039089E+02  0.84599112125E+02 0.  0.
         11    1    3    3    0    0  0.26948823684E+02 -0.31999320848E+02 -0.41805099206E+02  0.59142725272E+02  0.51100000000E-03 0.  1.
         22    1    1    0    0    0 -0.12821419282E+01  0.22610593116E+02  0.25187832915E+02  0.33871960911E+02  0.00000000000E+00 0.  1.
</event>
<event>
 5    1  0.1102386E-009  0.9118800E+02  0.7818608E-02  0.1130116E+00
         25   -1    0    0    0    0  0.00000000000E+00  0.00000000000E+00  0.99999998245E-14  0.12500000000E+03  0.12500000000E+03 0.  0.
        -11    1    3    3    0    0  0.56959934848E+01  0.41436100037E+02 -0.11670146532E+02  0.43423346812E+02  0.51100000000E-03 0.  1.
         23    2    1    0    0    0 -0.26270814026E+02  0.48720171644E+01  0.98210644087E+01  0.96533431416E+02  0.92240760264E+02 0.  0.
         11    1    3    3    0    0 -0.31966807510E+02 -0.36564082872E+02  0.21491210941E+02  0.53110084604E+02  0.51100000000E-03 0. -1.
         22    1    1    0    0    0  0.26270814026E+02 -0.48720171644E+01 -0.98210644087E+01  0.28466568584E+02  0.00000000000E+00 0. -1.
</event>
<event>
 5    1  0.1102386E-009  0.9118800E+02  0.7818608E-02  0.1130116E+00
         25   -1    0    0    0    0  0.00000000000E+00  0.00000000000E+00  0.99999998245E-14  0.12500000000E+03  0.12500000000E+03 0.  0.
        -11    1    3    3    0    0  0.50483257883E+02 -0.13461746086E+02 -0.32281244665E+02  0.61415443429E+02  0.51100000000E-03 0.  1.
         23    2    1    0    0    0  0.25240975305E+02 -0.13818394470E+02 -0.11900608586E+02  0.93860325230E+02  0.88544233621E+02 0.  0.
         11    1    3    3    0    0 -0.25242282578E+02 -0.35664838391E+00  0.20380636079E+02  0.32444881801E+02  0.51100000000E-03 0. -1.
         22    1    1    0    0    0 -0.25240975305E+02  0.13818394470E+02  0.11900608586E+02  0.31139674770E+02  0.00000000000E+00 0.  1.
</event>
<event>
 5    1  0.1102386E-009  0.9118800E+02  0.7818608E-02  0.1130116E+00
         25   -1    0    0    0    0  0.00000000000E+00  0.00000000000E+00  0.99999998245E-14  0.12500000000E+03  0.12500000000E+03 0.  0.
        -11    1    3    3    0    0 -0.85370422136E+01  0.27047152049E+02 -0.14352411200E+02  0.31787123670E+02  0.51100000000E-03 0. -1.
         23    2    1    0    0    0  0.13248892196E+02 -0.27091955183E+02  0.71940125834E+01  0.93995790655E+02  0.88735267306E+02 0.  0.
         11    1    3    3    0    0  0.21785934409E+02 -0.54139107232E+02  0.21546423784E+02  0.62208666985E+02  0.51100000000E-03 0.  1.
         22    1    1    0    0    0 -0.13248892196E+02  0.27091955183E+02 -0.71940125834E+01  0.31004209345E+02  0.00000000000E+00 0.  1.
</event>
<event>
 5    1  0.1102386E-009  0.9118800E+02  0.7818608E-02  0.1130116E+00
         25   -1    0    0    0    0  0.00000000000E+00  0.00000000000E+00  0.99999998245E-14  0.12500000000E+03  0.12500000000E+03 0.  0.
        -11    1    3    3    0    0  0.18099002603E+02 -0.36548435332E+02  0.51413049823E+01  0.41107116630E+02  0.51100000000E-03 0.  1.
         23    2    1    0    0    0 -0.26442783185E+02 -0.56703636712E+00  0.63476790503E+00  0.98543521717E+02  0.94925657381E+02 0.  0.
         11    1    3    3    0    0 -0.44541785789E+02  0.35981398965E+02 -0.45065370773E+01  0.57436405088E+02  0.51100000000E-03 0. -1.
         22    1    1    0    0    0  0.26442783185E+02  0.56703636712E+00 -0.63476790503E+00  0.26456478283E+02  0.00000000000E+00 0. -1.
</event>
<event>
 5    1  0.1102386E-009  0.9118800E+02  0.7818608E-02  0.1130116E+00
         25   -1    0    0    0    0  0.00000000000E+00  0.00000000000E+00  0.99999998245E-14  0.12500000000E+03  0.12500000000E+03 0.  0.
        -11    1    3    3    0    0 -0.36245297392E+02  0.43660426369E+02  0.14008380392E+02  0.58448174781E+02  0.51100000000E-03 0. -1.
         23    2    1    0    0    0 -0.11696937260E+02  0.25696051994E+02 -0.76008401915E+01  0.95761699759E+02  0.91188951851E+02 0.  0.
         11    1    3    3    0    0  0.24548360132E+02 -0.17964374375E+02 -0.21609220583E+02  0.37313524978E+02  0.51100000000E-03 0.  1.
         22    1    1    0    0    0  0.11696937260E+02 -0.25696051994E+02  0.76008401915E+01  0.29238300241E+02  0.00000000000E+00 0.  1.
</event>
<event>
 5    1  0.1102386E-009  0.9118800E+02  0.7818608E-02  0.1130116E+00
         25   -1    0    0    0    0  0.00000000000E+00  0.00000000000E+00  0.99999998245E-14  0.12500000000E+03  0.12500000000E+03 0.  0.
        -11    1    3    3    0    0 -0.48730168449E+02  0.72658290930E+01  0.49560771585E+00  0.49271363050E+02  0.51100000000E-03 0.  1.
         23    2    1    0    0    0 -0.14806395971E+02 -0.21596394427E+02  0.13321231817E+02  0.95621626474E+02  0.90996739604E+02 0.  0.
         11    1    3    3    0    0  0.33923772478E+02 -0.28862223520E+02  0.12825624101E+02  0.46350263424E+02  0.51100000000E-03 0. -1.
         22    1    1    0    0    0  0.14806395971E+02  0.21596394427E+02 -0.13321231817E+02  0.29378373526E+02  0.00000000000E+00 0.  1.
</event>
<event>
 5    1  0.1102386E-009  0.9118800E+02  0.7818608E-02  0.1130116E+00
         25   -1    0    0    0    0  0.00000000000E+00  0.00000000000E+00  0.99999998245E-14  0.12500000000E+03  0.12500000000E+03 0.  0.
        -11    1    3    3    0    0 -0.12104216310E+02 -0.31072367360E+02 -0.32901234126E+02  0.46845440259E+02  0.51100000000E-03 0. -1.
         23    2    1    0    0    0  0.22693070258E+02 -0.10519803356E+02  0.15340850458E+01  0.99940169248E+02  0.96747311653E+02 0.  0.
         11    1    3    3    0    0  0.34797286569E+02  0.20552564004E+02  0.34435319171E+02  0.53094728989E+02  0.51100000000E-03 0.  1.
         22    1    1    0    0    0 -0.22693070258E+02  0.10519803356E+02 -0.15340850458E+01  0.25059830752E+02  0.00000000000E+00 0.  1.
</event>
<event>
 5    1  0.1102386E-009  0.9118800E+02  0.7818608E-02  0.1130116E+00
         25   -1    0    0    0    0  0.00000000000E+00  0.00000000000E+00  0.99999998245E-14  0.12500000000E+03  0.12500000000E+03 0.  0.
        -11    1    3    3    0    0  0.18318545076E+02  0.57026667843E+01  0.35815932210E+02  0.40630905755E+02  0.51100000000E-03 0. -1.
         23    2    1    0    0    0 -0.15946194211E+02 -0.24120632243E+02  0.23615803204E+02  0.87666473906E+02  0.79319723125E+02 0.  0.
         11    1    3    3    0    0 -0.34264739287E+02 -0.29823299027E+02 -0.12200129006E+02  0.47035568151E+02  0.51100000000E-03 0.  1.
         22    1    1    0    0    0  0.15946194211E+02  0.24120632243E+02 -0.23615803204E+02  0.37333526094E+02  0.00000000000E+00 0.  1.
</event>
<event>
 5    1  0.1102386E-009  0.9118800E+02  0.7818608E-02  0.1130116E+00
         25   -1    0    0    0    0  0.00000000000E+00  0.00000000000E+00  0.99999998245E-14  0.12500000000E+03  0.12500000000E+03 0.  0.
        -11    1    3    3    0    0 -0.22515883004E+02 -0.46758586989E+02 -0.16797973759E+02  0.54548165573E+02  0.51100000000E-03 0.  1.
         23    2    1    0    0    0 -0.47602528711E+00 -0.53541337397E+01 -0.22562431463E+02  0.10180610723E+03  0.99128839437E+02 0.  0.
         11    1    3    3    0    0  0.22039857717E+02  0.41404453249E+02 -0.57644577038E+01  0.47257941660E+02  0.51100000000E-03 0. -1.
         22    1    1    0    0    0  0.47602528711E+00  0.53541337397E+01  0.22562431463E+02  0.23193892767E+02  0.00000000000E+00 0. -1.
</event>
<event>
 5    1  0.1102386E-009  0.9118800E+02  0.7818608E-02  0.1130116E+00
         25   -1    0    0    0    0  0.00000000000E+00  0.00000000000E+00  0.99999998245E-14  0.12500000000E+03  0.12500000000E+03 0.  0.
        -11    1    3    3    0    0 -0.99353654791E+01 -0.67641562318E-01 -0.55442084634E+02  0.56325312350E+02  0.51100000000E-03 0. -1.
         23    2    1    0    0    0  0.46758562614E+01 -0.17064078734E+02 -0.19630017258E+02  0.98573044210E+02  0.94964525231E+02 0.  0.
         11    1    3    3    0    0  0.14611221741E+02 -0.16996437171E+02  0.35812067376E+02  0.42247731859E+02  0.51100000000E-03 0.  1.
         22    1    1    0    0    0 -0.46758562614E+01  0.17064078734E+02  0.19630017258E+02  0.26426955790E+02  0.00000000000E+00 0. -1.
</event>
<event>
 5    1  0.1102386E-009  0.9118800E+02  0.7818608E-02  0.1130116E+00
         25   -1    0    0    0    0  0.00000000000E+00  0.00000000000E+00  0.99999998245E-14  0.12500000000E+03  0.12500000000E+03 0.  0.
        -11    1    3    3    0    0  0.27610509786E+02  0.17301458247E+02  0.27127860600E+02  0.42398131198E+02  0.51100000000E-03 0.  1.
         23    2    1    0    0    0 -0.14495396471E+02 -0.15847749375E+02  0.18452133644E+02  0.96684828888E+02  0.92445698775E+02 0.  0.
         11    1    3    3    0    0 -0.42105906257E+02 -0.33149207622E+02 -0.86757269560E+01  0.54286697690E+02  0.51100000000E-03 0. -1.
         22    1    1    0    0    0  0.14495396471E+02  0.15847749375E+02 -0.18452133644E+02  0.28315171112E+02  0.00000000000E+00 0. -1.
</event>
<event>
 5    1  0.1102386E-009  0.9118800E+02  0.7818608E-02  0.1130116E+00
         25   -1    0    0    0    0  0.00000000000E+00  0.00000000000E+00  0.99999998245E-14  0.12500000000E+03  0.12500000000E+03 0.  0.
        -11    1    3    3    0    0  0.23581703235E+02 -0.47630536230E+02  0.41749099653E+01  0.53312236705E+02  0.51100000000E-03 0.  1.
         23    2    1    0    0    0  0.23972611414E+02 -0.13981407922E+01  0.79619290862E+01  0.99701122348E+02  0.96437962374E+02 0.  0.
         11    1    3    3    0    0  0.39090817895E+00  0.46232395437E+02  0.37870191209E+01  0.46388885643E+02  0.51100000000E-03 0. -1.
         22    1    1    0    0    0 -0.23972611414E+02  0.13981407922E+01 -0.79619290862E+01  0.25298877652E+02  0.00000000000E+00 0.  1.
</event>
<event>
 5    1  0.1102386E-009  0.9118800E+02  0.7818608E-02  0.1130116E+00
         25   -1    0    0    0    0  0.00000000000E+00  0.00000000000E+00  0.99999998245E-14  0.12500000000E+03  0.12500000000E+03 0.  0.
        -11    1    3    3    0    0 -0.30906452815E+02  0.30913264925E+01  0.25444953318E+02  0.40152344573E+02  0.51100000000E-03 0. -1.
         23    2    1    0    0    0  0.22437437735E+02  0.40646778668E+01  0.21514699775E+02  0.93649680629E+02  0.88246360589E+02 0.  0.
         11    1    3    3    0    0  0.53343890550E+02  0.97335137431E+00 -0.39302535429E+01  0.53497336056E+02  0.51100000000E-03 0.  1.
         22    1    1    0    0    0 -0.22437437735E+02 -0.40646778668E+01 -0.21514699775E+02  0.31350319371E+02  0.00000000000E+00 0.  1.
</event>
<event>
 5    1  0.1102386E-009  0.9118800E+02  0.7818608E-02  0.1130116E+00
         25   -1    0    0    0    0  0.00000000000E+00  0.00000000000E+00  0.99999998245E-14  0.12500000000E+03  0.12500000000E+03 0.  0.
        -11    1    3    3    0    0 -0.25846243658E+02  0.50570609514E+02 -0.76121105603E+01  0.57300602835E+02  0.51100000000E-03 0. -1.
         23    2    1    0    0    0  0.54807240259E+01  0.24268611002E+02  0.39520276728E+01  0.99808288297E+02  0.96576767777E+02 0.  0.
         11    1    3    3    0    0  0.31326967684E+02 -0.26301998512E+02  0.11564138233E+02  0.42507685462E+02  0.51100000000E-03 0.  1.
         22    1    1    0    0    0 -0.54807240259E+01 -0.24268611002E+02 -0.39520276728E+01  0.25191711703E+02  0.00000000000E+00 0. -1.
</event>
<event>
 5    1  0.1102386E-009  0.9118800E+02  0.7818608E-02  0.1130116E+00
         25   -1    0    0    0    0  0.00000000000E+00  0.00000000000E+00  0.99999998245E-14  0.12500000000E+03  0.12500000000E+03 0.  0.
        -11    1    3    3    0    0  0.17488039178E+02 -0.39281649830E+02 -0.11466743554E+02  0.44501300382E+02  0.51100000000E-03 0.  1.
         23    2    1    0    0    0  0.12960496668E+02  0.23179854549E+01  0.22856511996E+02  0.98622591653E+02  0.95029721210E+02 0.  0.
         11    1    3    3    0    0 -0.45275425097E+01  0.41599635285E+02  0.34323255550E+02  0.54121291271E+02  0.51100000000E-03 0. -1.
         22    1    1    0    0    0 -0.12960496668E+02 -0.23179854549E+01 -0.22856511996E+02  0.26377408347E+02  0.00000000000E+00 0. -1.
</event>
<event>
 5    1  0.1102386E-009  0.9118800E+02  0.7818608E-02  0.1130116E+00
         25   -1    0    0    0    0  0.00000000000E+00  0.00000000000E+00  0.99999998245E-14  0.12500000000E+03  0.12500000000E+03 0.  0.
        -11    1    3    3    0    0  0.21488870350E+01 -0.45145356817E+02  0.41321422679E+02  0.61238720840E+02  0.51100000000E-03 0.  1.
         23    2    1    0    0    0  0.96117576162E+01 -0.21167782347E+02  0.16984368089E+02  0.96208861548E+02  0.91799865943E+02 0.  0.
         11    1    3    3    0    0  0.74628705812E+01  0.23977574470E+02 -0.24337054591E+02  0.34970140708E+02  0.51100000000E-03 0. -1.
         22    1    1    0    0    0 -0.96117576162E+01  0.21167782347E+02 -0.16984368089E+02  0.28791138452E+02  0.00000000000E+00 0.  1.
</event>
<event>
 5    1  0.1102386E-009  0.9118800E+02  0.7818608E-02  0.1130116E+00
         25   -1    0    0    0    0  0.00000000000E+00  0.00000000000E+00  0.99999998245E-14  0.12500000000E+03  0.12500000000E+03 0.  0.
        -11    1    3    3    0    0 -0.12249689822E+02  0.24914271971E+02 -0.42354951128E+02  0.50643042305E+02  0.51100000000E-03 0.  1.
         23    2    1    0    0    0 -0.25396031198E+02  0.17989540377E+02 -0.18094550235E+01  0.93825393490E+02  0.88494905913E+02 0.  0.
         11    1    3    3    0    0 -0.13146341375E+02 -0.69247315935E+01  0.40545496105E+02  0.43182351185E+02  0.51100000000E-03 0. -1.
         22    1    1    0    0    0  0.25396031198E+02 -0.17989540377E+02  0.18094550235E+01  0.31174606510E+02  0.00000000000E+00 0.  1.
</event>
<event>
 5    1  0.1102386E-009  0.9118800E+02  0.7818608E-02  0.1130116E+00
         25   -1    0    0    0    0  0.00000000000E+00  0.00000000000E+00  0.99999998245E-14  0.12500000000E+03  0.12500000000E+03 0.  0.
        -11    1    3    3    0    0 -0.11509748375E+02 -0.36564436284E+02  0.48637501000E+02  0.61927690190E+02  0.51100000000E-03 0.  1.
         23    2    1    0    0    0 -0.70108064705E+00 -0.20536053937E+02  0.21361970153E+02  0.95359575000E+02  0.90636051050E+02 0.  0.
         11    1    3    3    0    0  0.10808667728E+02  0.16028382347E+02 -0.27275530847E+02  0.33431884810E+02  0.51100000000E-03 0. -1.
         22    1    1    0    0    0  0.70108064705E+00  0.20536053937E+02 -0.21361970153E+02  0.29640425000E+02  0.00000000000E+00 0.  1.
</event>
<event>
 5    1  0.1102386E-009  0.9118800E+02  0.7818608E-02  0.1130116E+00
         25   -1    0    0    0    0  0.00000000000E+00  0.00000000000E+00  0.99999998245E-14  0.12500000000E+03  0.12500000000E+03 0.  0.
        -11    1    3    3    0    0  0.24828766921E+01 -0.38537184857E+02 -0.27618752566E+02  0.47477097499E+02  0.51100000000E-03 0. -1.
         23    2    1    0    0    0  0.23708692665E+02  0.42469843958E+01 -0.13999358924E+02  0.97141051085E+02  0.93060532833E+02 0.  0.
         11    1    3    3    0    0  0.21225815973E+02  0.42784169253E+02  0.13619393641E+02  0.49663953586E+02  0.51100000000E-03 0.  1.
         22    1    1    0    0    0 -0.23708692665E+02 -0.42469843958E+01  0.13999358924E+02  0.27858948915E+02  0.00000000000E+00 0.  1.
</event>
<event>
 5    1  0.1102386E-009  0.9118800E+02  0.7818608E-02  0.1130116E+00
         25   -1    0    0    0    0  0.00000000000E+00  0.00000000000E+00  0.99999998245E-14  0.12500000000E+03  0.12500000000E+03 0.  0.
        -11    1    3    3    0    0 -0.11162975347E+02  0.35220195650E+02 -0.41289298881E+01  0.37176904961E+02  0.51100000000E-03 0. -1.
         23    2    1    0    0    0  0.29038200588E+02 -0.62618749784E+01  0.17602143738E+01  0.95242202261E+02  0.90474032547E+02 0.  0.
         11    1    3    3    0    0  0.40201175935E+02 -0.41482070628E+02  0.58891442620E+01  0.58065297300E+02  0.51100000000E-03 0.  1.
         22    1    1    0    0    0 -0.29038200588E+02  0.62618749784E+01 -0.17602143738E+01  0.29757797739E+02  0.00000000000E+00 0.  1.
</event>
<event>
 5    1  0.1102386E-009  0.9118800E+02  0.7818608E-02  0.1130116E+00
         25   -1    0    0    0    0  0.00000000000E+00  0.00000000000E+00  0.99999998245E-14  0.12500000000E+03  0.12500000000E+03 0.  0.
        -11    1    3    3    0    0 -0.30197557964E+02  0.20991290097E+02 -0.44121511508E+02  0.57438963647E+02  0.51100000000E-03 0.  1.
         23    2    1    0    0    0  0.25836186443E+01  0.15129230496E+02 -0.24495762129E+02  0.96093062027E+02  0.91642050974E+02 0.  0.
         11    1    3    3    0    0  0.32781176608E+02 -0.58620596008E+01  0.19625749379E+02  0.38654098379E+02  0.51100000000E-03 0. -1.
         22    1    1    0    0    0 -0.25836186443E+01 -0.15129230496E+02  0.24495762129E+02  0.28906937973E+02  0.00000000000E+00 0.  1.
</event>
<event>
 5    1  0.1102386E-009  0.9118800E+02  0.7818608E-02  0.1130116E+00
         25   -1    0    0    0    0  0.00000000000E+00  0.00000000000E+00  0.99999998245E-14  0.12500000000E+03  0.12500000000E+03 0.  0.
        -11    1    3    3    0    0  0.35836503480E+02 -0.31560919354E+02 -0.17639110213E+01  0.47785541689E+02  0.51100000000E-03 0. -1.
         23    2    1    0    0    0 -0.89623831462E+01 -0.25540336917E+02  0.12502095525E+02  0.95184978383E+02  0.90394936781E+02 0.  0.
         11    1    3    3    0    0 -0.44798886626E+02  0.60205824364E+01  0.14266006547E+02  0.47399436694E+02  0.51100000000E-03 0.  1.
         22    1    1    0    0    0  0.89623831462E+01  0.25540336917E+02 -0.12502095525E+02  0.29815021617E+02  0.00000000000E+00 0. -1.
</event>
<event>
 5    1  0.1102386E-009  0.9118800E+02  0.7818608E-02  0.1130116E+00
         25   -1    0    0    0    0  0.00000000000E+00  0.00000000000E+00  0.99999998245E-14  0.12500000000E+03  0.12500000000E+03 0.  0.
        -11    1    3    3    0    0 -0.20252851121E+02  0.21315317230E+01  0.29197425916E+02  0.35597908455E+02  0.51100000000E-03 0. -1.
         23    2    1    0    0    0  0.18157210894E+02  0.23920815048E+02 -0.86393730061E+01  0.93750544549E+02  0.88389117754E+02 0.  0.
         11    1    3    3    0    0  0.38410062015E+02  0.21789283325E+02 -0.37836798922E+02  0.58152636094E+02  0.51100000000E-03 0.  1.
         22    1    1    0    0    0 -0.18157210894E+02 -0.23920815048E+02  0.86393730061E+01  0.31249455451E+02  0.00000000000E+00 0.  1.
</event>
<event>
 5    1  0.1102386E-009  0.9118800E+02  0.7818608E-02  0.1130116E+00
         25   -1    0    0    0    0  0.00000000000E+00  0.00000000000E+00  0.99999998245E-14  0.12500000000E+03  0.12500000000E+03 0.  0.
        -11    1    3    3    0    0 -0.44925914727E+02 -0.22853710419E+02 -0.24497783523E+02  0.56042584628E+02  0.51100000000E-03 0. -1.
         23    2    1    0    0    0 -0.66594345465E+01 -0.21224168378E+02 -0.20840913270E+02  0.94517922352E+02  0.89467762842E+02 0.  0.
         11    1    3    3    0    0  0.38266480181E+02  0.16295420416E+01  0.36568702527E+01  0.38475337724E+02  0.51100000000E-03 0.  1.
         22    1    1    0    0    0  0.66594345465E+01  0.21224168378E+02  0.20840913270E+02  0.30482077648E+02  0.00000000000E+00 0. -1.
</event>
<event>
 5    1  0.1102386E-009  0.9118800E+02  0.7818608E-02  0.1130116E+00
         25   -1    0    0    0    0  0.00000000000E+00  0.00000000000E+00  0.99999998245E-14  0.12500000000E+03  0.12500000000E+03 0.  0.
        -11    1    3    3    0    0  0.45677697455E+02 -0.10103282419E+02 -0.30352532712E+02  0.55765622051E+02  0.51100000000E-03 0. -1.
         23    2    1    0    0    0  0.68144676246E+01 -0.17495031920E+02 -0.21781331183E+02  0.96243444244E+02  0.91846943667E+02 0.  0.
         11    1    3    3    0    0 -0.38863229831E+02 -0.73917495004E+01  0.85712015289E+01  0.40477822193E+02  0.51100000000E-03 0.  1.
         22    1    1    0    0    0 -0.68144676246E+01  0.17495031920E+02  0.21781331183E+02  0.28756555756E+02  0.00000000000E+00 0. -1.
</event>
<event>
 5    1  0.1102386E-009  0.9118800E+02  0.7818608E-02  0.1130116E+00
         25   -1    0    0    0    0  0.00000000000E+00  0.00000000000E+00  0.99999998245E-14  0.12500000000E+03  0.12500000000E+03 0.  0.
        -11    1    3    3    0    0  0.30730154530E+02 -0.20013872634E+02  0.42109967520E+02  0.55840369447E+02  0.51100000000E-03 0.  1.
         23    2    1    0    0    0  0.23634135769E+02  0.48395935072E+01  0.61882110687E+01  0.10009441839E+03  0.96946400649E+02 0.  0.
         11    1    3    3    0    0 -0.70960187613E+01  0.24853466141E+02 -0.35921756451E+02  0.44254048948E+02  0.51100000000E-03 0. -1.
         22    1    1    0    0    0 -0.23634135769E+02 -0.48395935072E+01 -0.61882110687E+01  0.24905581605E+02  0.00000000000E+00 0.  1.
</event>
<event>
 5    1  0.1102386E-009  0.9118800E+02  0.7818608E-02  0.1130116E+00
         25   -1    0    0    0    0  0.00000000000E+00  0.00000000000E+00  0.99999998245E-14  0.12500000000E+03  0.12500000000E+03 0.  0.
        -11    1    3    3    0    0  0.22696355439E+02 -0.33236455278E+02  0.16305319771E+02  0.43424071236E+02  0.51100000000E-03 0. -1.
         23    2    1    0    0    0 -0.14610512429E+02 -0.33506351891E+01  0.28537102086E+02  0.92765545994E+02  0.86984978580E+02 0.  0.
         11    1    3    3    0    0 -0.37306867868E+02  0.29885820088E+02  0.12231782314E+02  0.49341474758E+02  0.51100000000E-03 0.  1.
         22    1    1    0    0    0  0.14610512429E+02  0.33506351891E+01 -0.28537102086E+02  0.32234454006E+02  0.00000000000E+00 0.  1.
</event>
<event>
 5    1  0.1102386E-009  0.9118800E+02  0.7818608E-02  0.1130116E+00
         25   -1    0    0    0    0  0.00000000000E+00  0.00000000000E+00  0.99999998245E-14  0.12500000000E+03  0.12500000000E+03 0.  0.
        -11    1    3    3    0    0 -0.25359046546E+02  0.18909403851E+02  0.47149185403E+02  0.56777570220E+02  0.51100000000E-03 0.  1.
         23    2    1    0    0    0 -0.13289944183E+02  0.26498930928E+02  0.15371597319E+02  0.91606857577E+02  0.85303659912E+02 0.  0.
         11    1    3    3    0    0  0.12069102363E+02  0.75895270769E+01 -0.31777588084E+02  0.34829287357E+02  0.51100000000E-03 0. -1.
         22    1    1    0    0    0  0.13289944183E+02 -0.26498930928E+02 -0.15371597319E+02  0.33393142423E+02  0.00000000000E+00 0.  1.
</event>
<event>
 5    1  0.1102386E-009  0.9118800E+02  0.7818608E-02  0.1130116E+00
         25   -1    0    0    0    0  0.00000000000E+00  0.00000000000E+00  0.99999998245E-14  0.12500000000E+03  0.12500000000E+03 0.  0.
        -11    1    3    3    0    0  0.24798750587E+02 -0.82312228552E+01  0.46606902691E+02  0.53431586530E+02  0.51100000000E-03 0. -1.
         23    2    1    0    0    0  0.12370412600E+02 -0.24149733047E+02  0.84883531454E+01  0.96569578736E+02  0.92289732278E+02 0.  0.
         11    1    3    3    0    0 -0.12428337987E+02 -0.15918510192E+02 -0.38118549546E+02  0.43137992206E+02  0.51100000000E-03 0.  1.
         22    1    1    0    0    0 -0.12370412600E+02  0.24149733047E+02 -0.84883531454E+01  0.28430421264E+02  0.00000000000E+00 0. -1.
</event>
<event>
 5    1  0.1102386E-009  0.9118800E+02  0.7818608E-02  0.1130116E+00
         25   -1    0    0    0    0  0.00000000000E+00  0.00000000000E+00  0.99999998245E-14  0.12500000000E+03  0.12500000000E+03 0.  0.
        -11    1    3    3    0    0 -0.14420223423E+02  0.39782743284E+02  0.81624067195E+01  0.43095642361E+02  0.51100000000E-03 0. -1.
         23    2    1    0    0    0 -0.14192260990E+02  0.38999615304E+01 -0.27577173072E+02  0.93740914175E+02  0.88375497418E+02 0.  0.
         11    1    3    3    0    0  0.22796243320E+00 -0.35882781753E+02 -0.35739579792E+02  0.50645271815E+02  0.51100000000E-03 0.  1.
         22    1    1    0    0    0  0.14192260990E+02 -0.38999615304E+01  0.27577173072E+02  0.31259085825E+02  0.00000000000E+00 0.  1.
</event>
<event>
 5    1  0.1102386E-009  0.9118800E+02  0.7818608E-02  0.1130116E+00
         25   -1    0    0    0    0  0.00000000000E+00  0.00000000000E+00  0.99999998245E-14  0.12500000000E+03  0.12500000000E+03 0.  0.
        -11    1    3    3    0    0 -0.32046297821E+02  0.31491409938E+02  0.21353849727E+02  0.49745964684E+02  0.51100000000E-03 0.  1.
         23    2    1    0    0    0  0.11844863066E+02  0.15871060406E+02  0.20719810665E+02  0.96338145673E+02  0.91975738204E+02 0.  0.
         11    1    3    3    0    0  0.43891160887E+02 -0.15620349532E+02 -0.63403906173E+00  0.46592180989E+02  0.51100000000E-03 0. -1.
         22    1    1    0    0    0 -0.11844863066E+02 -0.15871060406E+02 -0.20719810665E+02  0.28661854327E+02  0.00000000000E+00 0.  1.
</event>
<event>
 5    1  0.1102386E-009  0.9118800E+02  0.7818608E-02  0.1130116E+00
         25   -1    0    0    0    0  0.00000000000E+00  0.00000000000E+00  0.99999998245E-14  0.12500000000E+03  0.12500000000E+03 0.  0.
        -11    1    3    3    0    0 -0.29057201152E+01 -0.35740361475E+02 -0.82135017133E+01  0.36786930538E+02  0.51100000000E-03 0.  1.
         23    2    1    0    0    0 -0.26738609511E+02  0.14864425914E+02  0.43029291153E+01  0.94106317874E+02  0.88890828934E+02 0.  0.
         11    1    3    3    0    0 -0.23832889396E+02  0.50604787389E+02  0.12516430829E+02  0.57319387336E+02  0.51100000000E-03 0. -1.
         22    1    1    0    0    0  0.26738609511E+02 -0.14864425914E+02 -0.43029291153E+01  0.30893682126E+02  0.00000000000E+00 0. -1.
</event>
<event>
 5    1  0.1102386E-009  0.9118800E+02  0.7818608E-02  0.1130116E+00
         25   -1    0    0    0    0  0.00000000000E+00  0.00000000000E+00  0.99999998245E-14  0.12500000000E+03  0.12500000000E+03 0.  0.
        -11    1    3    3    0    0  0.24013669101E+02 -0.90611111706E+01 -0.40207841342E+02  0.47701473195E+02  0.51100000000E-03 0. -1.
         23    2    1    0    0    0 -0.11754391448E+02  0.16884612752E+02 -0.20060536675E+02  0.96265334563E+02  0.91876730681E+02 0.  0.
         11    1    3    3    0    0 -0.35768060549E+02  0.25945723923E+02  0.20147304667E+02  0.48563861368E+02  0.51100000000E-03 0.  1.
         22    1    1    0    0    0  0.11754391448E+02 -0.16884612752E+02  0.20060536675E+02  0.28734665437E+02  0.00000000000E+00 0. -1.
</event>
<event>
 5    1  0.1102386E-009  0.9118800E+02  0.7818608E-02  0.1130116E+00
         25   -1    0    0    0    0  0.00000000000E+00  0.00000000000E+00  0.99999998245E-14  0.12500000000E+03  0.12500000000E+03 0.  0.
        -11    1    3    3    0    0  0.42801107660E+02 -0.38141122160E+02  0.17466900513E+02  0.59931399369E+02  0.51100000000E-03 0.  1.
         23    2    1    0    0    0  0.79626052197E+01 -0.13879188855E+02 -0.53494549417E+01  0.10812837787E+03  0.10680400024E+03 0.  0.
         11    1    3    3    0    0 -0.34838502440E+02  0.24261933305E+02 -0.22816355455E+02  0.48196978500E+02  0.51100000000E-03 0. -1.
         22    1    1    0    0    0 -0.79626052197E+01  0.13879188855E+02  0.53494549417E+01  0.16871622131E+02  0.00000000000E+00 0.  1.
</event>
<event>
 5    1  0.1102386E-009  0.9118800E+02  0.7818608E-02  0.1130116E+00
         25   -1    0    0    0    0  0.00000000000E+00  0.00000000000E+00  0.99999998245E-14  0.12500000000E+03  0.12500000000E+03 0.  0.
        -11    1    3    3    0    0  0.20763554678E+02  0.34279503810E+02  0.11020624938E+02  0.41565174830E+02  0.51100000000E-03 0.  1.
         23    2    1    0    0    0 -0.26784154116E+02  0.13419952252E+02  0.97233876116E+01  0.93503487545E+02  0.88039036150E+02 0.  0.
         11    1    3    3    0    0 -0.47547708794E+02 -0.20859551558E+02 -0.12972373263E+01  0.51938312715E+02  0.51100000000E-03 0. -1.
         22    1    1    0    0    0  0.26784154116E+02 -0.13419952252E+02 -0.97233876116E+01  0.31496512455E+02  0.00000000000E+00 0. -1.
</event>
<event>
 5    1  0.1102386E-009  0.9118800E+02  0.7818608E-02  0.1130116E+00
         25   -1    0    0    0    0  0.00000000000E+00  0.00000000000E+00  0.99999998245E-14  0.12500000000E+03  0.12500000000E+03 0.  0.
        -11    1    3    3    0    0 -0.36369635958E+02  0.12619153253E+02 -0.14518458258E+02  0.41143396542E+02  0.51100000000E-03 0.  1.
         23    2    1    0    0    0 -0.27912563147E+01 -0.89069909726E+01  0.25621939469E+02  0.97730797919E+02  0.93849344589E+02 0.  0.
         11    1    3    3    0    0  0.33578379643E+02 -0.21526144226E+02  0.40140397727E+02  0.56587401377E+02  0.51100000000E-03 0. -1.
         22    1    1    0    0    0  0.27912563147E+01  0.89069909726E+01 -0.25621939469E+02  0.27269202081E+02  0.00000000000E+00 0. -1.
</event>
<event>
 5    1  0.1102386E-009  0.9118800E+02  0.7818608E-02  0.1130116E+00
         25   -1    0    0    0    0  0.00000000000E+00  0.00000000000E+00  0.99999998245E-14  0.12500000000E+03  0.12500000000E+03 0.  0.
        -11    1    3    3    0    0  0.14519577417E+02 -0.50642930821E+02 -0.18506717604E+02  0.55839261879E+02  0.51100000000E-03 0.  1.
         23    2    1    0    0    0  0.17370598648E+01 -0.12131106239E+02 -0.25212119354E+02  0.96967303414E+02  0.92826859548E+02 0.  0.
         11    1    3    3    0    0 -0.12782517552E+02  0.38511824582E+02 -0.67054017500E+01  0.41128041535E+02  0.51100000000E-03 0. -1.
         22    1    1    0    0    0 -0.17370598648E+01  0.12131106239E+02  0.25212119354E+02  0.28032696586E+02  0.00000000000E+00 0.  1.
</event>
<event>
 5    1  0.1102386E-009  0.9118800E+02  0.7818608E-02  0.1130116E+00
         25   -1    0    0    0    0  0.00000000000E+00  0.00000000000E+00  0.99999998245E-14  0.12500000000E+03  0.12500000000E+03 0.  0.
        -11    1    3    3    0    0  0.35615086288E+02 -0.21328983184E+02  0.16337371914E+02  0.44612437910E+02  0.51100000000E-03 0. -1.
         23    2    1    0    0    0  0.13243732695E+02  0.22473631685E+02  0.17110561996E+02  0.93803334976E+02  0.88463742538E+02 0.  0.
         11    1    3    3    0    0 -0.22371353592E+02  0.43802614869E+02  0.77319008249E+00  0.49190897066E+02  0.51100000000E-03 0.  1.
         22    1    1    0    0    0 -0.13243732695E+02 -0.22473631685E+02 -0.17110561996E+02  0.31196665024E+02  0.00000000000E+00 0. -1.
</event>
<event>
 5    1  0.1102386E-009  0.9118800E+02  0.7818608E-02  0.1130116E+00
         25   -1    0    0    0    0  0.00000000000E+00  0.00000000000E+00  0.99999998245E-14  0.12500000000E+03  0.12500000000E+03 0.  0.
        -11    1    3    3    0    0 -0.54226845143E+02 -0.88007497576E+01  0.59965410472E+01  0.55262667645E+02  0.51100000000E-03 0.  1.
         23    2    1    0    0    0 -0.22691284459E+02  0.26438707153E+01 -0.17501692169E+02  0.96221645781E+02  0.91817272042E+02 0.  0.
         11    1    3    3    0    0  0.31535560683E+02  0.11444620473E+02 -0.23498233216E+02  0.40958978136E+02  0.51100000000E-03 0. -1.
         22    1    1    0    0    0  0.22691284459E+02 -0.26438707153E+01  0.17501692169E+02  0.28778354219E+02  0.00000000000E+00 0.  1.
</event>
<event>
 5    1  0.1102386E-009  0.9118800E+02  0.7818608E-02  0.1130116E+00
         25   -1    0    0    0    0  0.00000000000E+00  0.00000000000E+00  0.99999998245E-14  0.12500000000E+03  0.12500000000E+03 0.  0.
        -11    1    3    3    0    0 -0.12087841902E+02  0.49133536331E+02  0.85667645445E+01  0.51318707790E+02  0.51100000000E-03 0. -1.
         23    2    1    0    0    0 -0.18787308825E+02  0.43529248755E+01  0.19154415367E+02  0.97819077354E+02  0.93966852339E+02 0.  0.
         11    1    3    3    0    0 -0.66994669228E+01 -0.44780611455E+02  0.10587650822E+02  0.46500369564E+02  0.51100000000E-03 0.  1.
         22    1    1    0    0    0  0.18787308825E+02 -0.43529248755E+01 -0.19154415367E+02  0.27180922646E+02  0.00000000000E+00 0. -1.
</event>
<event>
 5    1  0.1102386E-009  0.9118800E+02  0.7818608E-02  0.1130116E+00
         25   -1    0    0    0    0  0.00000000000E+00  0.00000000000E+00  0.99999998245E-14  0.12500000000E+03  0.12500000000E+03 0.  0.
        -11    1    3    3    0    0  0.15362899916E+02 -0.25178401257E+01  0.51241934746E+02  0.53554589808E+02  0.51100000000E-03 0. -1.
         23    2    1    0    0    0 -0.14918587496E+02 -0.10511234619E+02  0.22148999279E+02  0.96301071882E+02  0.91925339109E+02 0.  0.
         11    1    3    3    0    0 -0.30281487411E+02 -0.79933944930E+01 -0.29092935467E+02  0.42746482074E+02  0.51100000000E-03 0.  1.
         22    1    1    0    0    0  0.14918587496E+02  0.10511234619E+02 -0.22148999279E+02  0.28698928118E+02  0.00000000000E+00 0. -1.
</event>
<event>
 5    1  0.1102386E-009  0.9118800E+02  0.7818608E-02  0.1130116E+00
         25   -1    0    0    0    0  0.00000000000E+00  0.00000000000E+00  0.99999998245E-14  0.12500000000E+03  0.12500000000E+03 0.  0.
        -11    1    3    3    0    0  0.58895524533E+02 -0.12920883700E+02  0.69998035620E+01  0.60701147400E+02  0.51100000000E-03 0.  1.
         23    2    1    0    0    0  0.22785916153E+02 -0.97965694226E+01  0.12272493729E+02  0.97327182115E+02  0.93310211277E+02 0.  0.
         11    1    3    3    0    0 -0.36109608379E+02  0.31243142775E+01  0.52726901670E+01  0.36626034714E+02  0.51100000000E-03 0. -1.
         22    1    1    0    0    0 -0.22785916153E+02  0.97965694226E+01 -0.12272493729E+02  0.27672817885E+02  0.00000000000E+00 0.  1.
</event>
<event>
 5    1  0.1102386E-009  0.9118800E+02  0.7818608E-02  0.1130116E+00
         25   -1    0    0    0    0  0.00000000000E+00  0.00000000000E+00  0.99999998245E-14  0.12500000000E+03  0.12500000000E+03 0.  0.
        -11    1    3    3    0    0  0.41446184861E+02  0.98572008230E+01 -0.17610157698E+02  0.46098463119E+02  0.51100000000E-03 0.  1.
         23    2    1    0    0    0  0.87205391554E+01  0.16786456933E+02  0.20700644244E+02  0.96958074038E+02  0.92814430503E+02 0.  0.
         11    1    3    3    0    0 -0.32725645705E+02  0.69292561101E+01  0.38310801942E+02  0.50859610919E+02  0.51100000000E-03 0. -1.
         22    1    1    0    0    0 -0.87205391554E+01 -0.16786456933E+02 -0.20700644244E+02  0.28041925962E+02  0.00000000000E+00 0. -1.
</event>
<event>
 5    1  0.1102386E-009  0.9118800E+02  0.7818608E-02  0.1130116E+00
         25   -1    0    0    0    0  0.00000000000E+00  0.00000000000E+00  0.99999998245E-14  0.12500000000E+03  0.12500000000E+03 0.  0.
        -11    1    3    3    0    0  0.38725061766E+02  0.41821635263E+02  0.24916609244E+02  0.62205441895E+02  0.51100000000E-03 0. -1.
         23    2    1    0    0    0  0.19245112787E+02  0.21773827353E+02  0.80791236004E+01  0.94838001360E+02  0.89913849545E+02 0.  0.
         11    1    3    3    0    0 -0.19479948978E+02 -0.20047807910E+02 -0.16837485643E+02  0.32632559465E+02  0.51100000000E-03 0.  1.
         22    1    1    0    0    0 -0.19245112787E+02 -0.21773827353E+02 -0.80791236004E+01  0.30161998640E+02  0.00000000000E+00 0. -1.
</event>
<event>
 5    1  0.1102386E-009  0.9118800E+02  0.7818608E-02  0.1130116E+00
         25   -1    0    0    0    0  0.00000000000E+00  0.00000000000E+00  0.99999998245E-14  0.12500000000E+03  0.12500000000E+03 0.  0.
        -11    1    3    3    0    0 -0.44919310628E+02  0.49231569765E+01 -0.49924341697E+01  0.45463241648E+02  0.51100000000E-03 0.  1.
         23    2    1    0    0    0 -0.31340919983E+01 -0.23012708475E+02 -0.15844609575E+02  0.96884898425E+02  0.92715827161E+02 0.  0.
         11    1    3    3    0    0  0.41785218630E+02 -0.27935865451E+02 -0.10852175406E+02  0.51421656777E+02  0.51100000000E-03 0. -1.
         22    1    1    0    0    0  0.31340919983E+01  0.23012708475E+02  0.15844609575E+02  0.28115101575E+02  0.00000000000E+00 0. -1.
</event>
<event>
 5    1  0.1102386E-009  0.9118800E+02  0.7818608E-02  0.1130116E+00
         25   -1    0    0    0    0  0.00000000000E+00  0.00000000000E+00  0.99999998245E-14  0.12500000000E+03  0.12500000000E+03 0.  0.
        -11    1    3    3    0    0 -0.16266642085E+02  0.35354527860E+02  0.13616655854E+02  0.41230566354E+02  0.51100000000E-03 0. -1.
         23    2    1    0    0    0 -0.13916363425E+02 -0.15859277851E+02 -0.14208537387E+02  0.99562539443E+02  0.96258167761E+02 0.  0.
         11    1    3    3    0    0  0.23502786602E+01 -0.51213805712E+02 -0.27825193241E+02  0.58331973089E+02  0.51100000000E-03 0.  1.
         22    1    1    0    0    0  0.13916363425E+02  0.15859277851E+02  0.14208537387E+02  0.25437460557E+02  0.00000000000E+00 0.  1.
</event>
<event>
 5    1  0.1102386E-009  0.9118800E+02  0.7818608E-02  0.1130116E+00
         25   -1    0    0    0    0  0.00000000000E+00  0.00000000000E+00  0.99999998245E-14  0.12500000000E+03  0.12500000000E+03 0.  0.
        -11    1    3    3    0    0  0.34357571725E+02  0.28694562455E+02  0.24262287029E+02  0.50916394427E+02  0.51100000000E-03 0.  1.
         23    2    1    0    0    0  0.34258629292E+01  0.33839196148E+02  0.25798361298E+02  0.82310619840E+02  0.70375101848E+02 0.  0.
         11    1    3    3    0    0 -0.30931708796E+02  0.51446336925E+01  0.15360742696E+01  0.31394225413E+02  0.51100000000E-03 0. -1.
         22    1    1    0    0    0 -0.34258629292E+01 -0.33839196148E+02 -0.25798361298E+02  0.42689380160E+02  0.00000000000E+00 0.  1.
</event>
<event>
 5    1  0.1102386E-009  0.9118800E+02  0.7818608E-02  0.1130116E+00
         25   -1    0    0    0    0  0.00000000000E+00  0.00000000000E+00  0.99999998245E-14  0.12500000000E+03  0.12500000000E+03 0.  0.
        -11    1    3    3    0    0 -0.21735892385E+02  0.52156420360E+01 -0.39831523207E+02  0.45674962297E+02  0.51100000000E-03 0.  1.
         23    2    1    0    0    0 -0.17803137344E+02 -0.25024992136E+02 -0.20612797637E+01  0.94219311169E+02  0.89049580528E+02 0.  0.
         11    1    3    3    0    0  0.39327550408E+01 -0.30240634172E+02  0.37770243443E+02  0.48544348871E+02  0.51100000000E-03 0. -1.
         22    1    1    0    0    0  0.17803137344E+02  0.25024992136E+02  0.20612797637E+01  0.30780688831E+02  0.00000000000E+00 0. -1.
</event>
<event>
 5    1  0.1102386E-009  0.9118800E+02  0.7818608E-02  0.1130116E+00
         25   -1    0    0    0    0  0.00000000000E+00  0.00000000000E+00  0.99999998245E-14  0.12500000000E+03  0.12500000000E+03 0.  0.
        -11    1    3    3    0    0 -0.36967838953E+02  0.23732924068E+02 -0.24164982066E+02  0.50138001159E+02  0.51100000000E-03 0. -1.
         23    2    1    0    0    0 -0.26806344725E+02 -0.13308702398E+01  0.12249623192E+02  0.95497379753E+02  0.90825904554E+02 0.  0.
         11    1    3    3    0    0  0.10161494228E+02 -0.25063794307E+02  0.36414605259E+02  0.45359378594E+02  0.51100000000E-03 0.  1.
         22    1    1    0    0    0  0.26806344725E+02  0.13308702398E+01 -0.12249623192E+02  0.29502620247E+02  0.00000000000E+00 0. -1.
</event>
<event>
 5    1  0.1102386E-009  0.9118800E+02  0.7818608E-02  0.1130116E+00
         25   -1    0    0    0    0  0.00000000000E+00  0.00000000000E+00  0.99999998245E-14  0.12500000000E+03  0.12500000000E+03 0.  0.
        -11    1    3    3    0    0 -0.23456335803E+02 -0.15775892050E+02  0.28731276968E+02  0.40305889591E+02  0.51100000000E-03 0.  1.
         23    2    1    0    0    0 -0.11630694384E+02 -0.65783884051E+01 -0.25306758145E+02  0.96382168956E+02  0.92035548779E+02 0.  0.
         11    1    3    3    0    0  0.11825641420E+02  0.91975036446E+01 -0.54038035113E+02  0.56076279365E+02  0.51100000000E-03 0. -1.
         22    1    1    0    0    0  0.11630694384E+02  0.65783884051E+01  0.25306758145E+02  0.28617831044E+02  0.00000000000E+00 0. -1.
</event>
<event>
 5    1  0.1102386E-009  0.9118800E+02  0.7818608E-02  0.1130116E+00
         25   -1    0    0    0    0  0.00000000000E+00  0.00000000000E+00  0.99999998245E-14  0.12500000000E+03  0.12500000000E+03 0.  0.
        -11    1    3    3    0    0 -0.37110909706E+02  0.26435161019E+02  0.11259949041E+02  0.46934249860E+02  0.51100000000E-03 0.  1.
         23    2    1    0    0    0 -0.12878324236E+01 -0.87258234542E+01  0.24595311815E+02  0.98870938199E+02  0.95355831232E+02 0.  0.
         11    1    3    3    0    0  0.35823077282E+02 -0.35160984473E+02  0.13335362774E+02  0.51936688339E+02  0.51100000000E-03 0. -1.
         22    1    1    0    0    0  0.12878324236E+01  0.87258234542E+01 -0.24595311815E+02  0.26129061801E+02  0.00000000000E+00 0. -1.
</event>
<event>
 5    1  0.1102386E-009  0.9118800E+02  0.7818608E-02  0.1130116E+00
         25   -1    0    0    0    0  0.00000000000E+00  0.00000000000E+00  0.99999998245E-14  0.12500000000E+03  0.12500000000E+03 0.  0.
        -11    1    3    3    0    0  0.18298934578E+02  0.27009521907E+02 -0.35913343885E+02  0.48519414151E+02  0.51100000000E-03 0. -1.
         23    2    1    0    0    0 -0.24814995705E+01 -0.14144236456E+02 -0.25424631580E+02  0.95800185685E+02  0.91241692342E+02 0.  0.
         11    1    3    3    0    0 -0.20780434148E+02 -0.41153758363E+02  0.10488712305E+02  0.47280771534E+02  0.51100000000E-03 0.  1.
         22    1    1    0    0    0  0.24814995705E+01  0.14144236456E+02  0.25424631580E+02  0.29199814315E+02  0.00000000000E+00 0. -1.
</event>
<event>
 5    1  0.1102386E-009  0.9118800E+02  0.7818608E-02  0.1130116E+00
         25   -1    0    0    0    0  0.00000000000E+00  0.00000000000E+00  0.99999998245E-14  0.12500000000E+03  0.12500000000E+03 0.  0.
        -11    1    3    3    0    0 -0.39923269739E+02  0.98131203538E+01 -0.20890355321E+02  0.46114767087E+02  0.51100000000E-03 0.  1.
         23    2    1    0    0    0 -0.15727872720E+01 -0.23829972482E+02 -0.33557307569E+00  0.10111582412E+03  0.98254547117E+02 0.  0.
         11    1    3    3    0    0  0.38350482467E+02 -0.33643092836E+02  0.20554782245E+02  0.55001057030E+02  0.51100000000E-03 0. -1.
         22    1    1    0    0    0  0.15727872720E+01  0.23829972482E+02  0.33557307569E+00  0.23884175883E+02  0.00000000000E+00 0. -1.
</event>
<event>
 5    1  0.1102386E-009  0.9118800E+02  0.7818608E-02  0.1130116E+00
         25   -1    0    0    0    0  0.00000000000E+00  0.00000000000E+00  0.99999998245E-14  0.12500000000E+03  0.12500000000E+03 0.  0.
        -11    1    3    3    0    0  0.11471962815E+02  0.51577072188E+02  0.78752563123E+00  0.52843358175E+02  0.51100000000E-03 0. -1.
         23    2    1    0    0    0 -0.15746471205E+02  0.20878674263E+02  0.13199098364E+02  0.95706884904E+02  0.91113781757E+02 0.  0.
         11    1    3    3    0    0 -0.27218434020E+02 -0.30698397926E+02  0.12411572733E+02  0.42863526729E+02  0.51100000000E-03 0.  1.
         22    1    1    0    0    0  0.15746471205E+02 -0.20878674263E+02 -0.13199098364E+02  0.29293115096E+02  0.00000000000E+00 0. -1.
</event>
<event>
 5    1  0.1102386E-009  0.9118800E+02  0.7818608E-02  0.1130116E+00
         25   -1    0    0    0    0  0.00000000000E+00  0.00000000000E+00  0.99999998245E-14  0.12500000000E+03  0.12500000000E+03 0.  0.
        -11    1    3    3    0    0  0.36613065701E+02 -0.38927808617E+02  0.24109563237E+02  0.58627313630E+02  0.51100000000E-03 0. -1.
         23    2    1    0    0    0  0.15942376627E+02 -0.24250105272E+02 -0.30961262073E+01  0.95814164811E+02  0.91260841563E+02 0.  0.
         11    1    3    3    0    0 -0.20670689074E+02  0.14677703346E+02 -0.27205689444E+02  0.37186851180E+02  0.51100000000E-03 0.  1.
         22    1    1    0    0    0 -0.15942376627E+02  0.24250105272E+02  0.30961262073E+01  0.29185835189E+02  0.00000000000E+00 0. -1.
</event>
<event>
 5    1  0.1102386E-009  0.9118800E+02  0.7818608E-02  0.1130116E+00
         25   -1    0    0    0    0  0.00000000000E+00  0.00000000000E+00  0.99999998245E-14  0.12500000000E+03  0.12500000000E+03 0.  0.
        -11    1    3    3    0    0 -0.19511095080E+00 -0.35094281868E+02 -0.21205320648E+02  0.41003808508E+02  0.51100000000E-03 0. -1.
         23    2    1    0    0    0 -0.82331845173E+01 -0.12773152963E+02  0.26595923086E+02  0.94368612687E+02  0.89258910882E+02 0.  0.
         11    1    3    3    0    0 -0.80380735665E+01  0.22321128905E+02  0.47801243734E+02  0.53364804179E+02  0.51100000000E-03 0.  1.
         22    1    1    0    0    0  0.82331845173E+01  0.12773152963E+02 -0.26595923086E+02  0.30631387313E+02  0.00000000000E+00 0.  1.
</event>
<event>
 5    1  0.1102386E-009  0.9118800E+02  0.7818608E-02  0.1130116E+00
         25   -1    0    0    0    0  0.00000000000E+00  0.00000000000E+00  0.99999998245E-14  0.12500000000E+03  0.12500000000E+03 0.  0.
        -11    1    3    3    0    0 -0.79958129161E+01  0.28416607881E+02  0.25957501947E+02  0.39309394999E+02  0.51100000000E-03 0. -1.
         23    2    1    0    0    0 -0.21193092390E+02 -0.12190588097E+02 -0.13174898075E+02  0.97227071769E+02  0.93176005185E+02 0.  0.
         11    1    3    3    0    0 -0.13197279474E+02 -0.40607195978E+02 -0.39132400022E+02  0.57917676770E+02  0.51100000000E-03 0.  1.
         22    1    1    0    0    0  0.21193092390E+02  0.12190588097E+02  0.13174898075E+02  0.27772928231E+02  0.00000000000E+00 0.  1.
</event>
<event>
 5    1  0.1102386E-009  0.9118800E+02  0.7818608E-02  0.1130116E+00
         25   -1    0    0    0    0  0.00000000000E+00  0.00000000000E+00  0.99999998245E-14  0.12500000000E+03  0.12500000000E+03 0.  0.
        -11    1    3    3    0    0  0.43787694715E+02  0.34569558802E+01  0.28924629879E+02  0.52592270975E+02  0.51100000000E-03 0. -1.
         23    2    1    0    0    0  0.25549008927E+02  0.14463149773E+02 -0.74186164959E+01  0.94718480401E+02  0.89747535344E+02 0.  0.
         11    1    3    3    0    0 -0.18238685788E+02  0.11006193892E+02 -0.36343246375E+02  0.42126209426E+02  0.51100000000E-03 0.  1.
         22    1    1    0    0    0 -0.25549008927E+02 -0.14463149773E+02  0.74186164959E+01  0.30281519599E+02  0.00000000000E+00 0.  1.
</event>
<event>
 5    1  0.1102386E-009  0.9118800E+02  0.7818608E-02  0.1130116E+00
         25   -1    0    0    0    0  0.00000000000E+00  0.00000000000E+00  0.99999998245E-14  0.12500000000E+03  0.12500000000E+03 0.  0.
        -11    1    3    3    0    0  0.85079516255E+01  0.17928459666E+01 -0.32921613172E+02  0.34050435410E+02  0.51100000000E-03 0. -1.
         23    2    1    0    0    0 -0.63325348782E+01  0.90794553400E+01  0.26792383760E+02  0.96010875577E+02  0.91529879790E+02 0.  0.
         11    1    3    3    0    0 -0.14840486504E+02  0.72866093734E+01  0.59713996932E+02  0.61960440167E+02  0.51100000000E-03 0.  1.
         22    1    1    0    0    0  0.63325348782E+01 -0.90794553400E+01 -0.26792383760E+02  0.28989124423E+02  0.00000000000E+00 0.  1.
</event>
<event>
 5    1  0.1102386E-009  0.9118800E+02  0.7818608E-02  0.1130116E+00
         25   -1    0    0    0    0  0.00000000000E+00  0.00000000000E+00  0.99999998245E-14  0.12500000000E+03  0.12500000000E+03 0.  0.
        -11    1    3    3    0    0  0.78110630852E+01  0.36231274302E+02  0.32956651864E+02  0.49596964085E+02  0.51100000000E-03 0.  1.
         23    2    1    0    0    0 -0.22984051900E+02  0.18127244192E+02  0.42576508820E+01  0.95419749582E+02  0.90719002395E+02 0.  0.
         11    1    3    3    0    0 -0.30795114985E+02 -0.18104030110E+02 -0.28699000982E+02  0.45822785498E+02  0.51100000000E-03 0. -1.
         22    1    1    0    0    0  0.22984051900E+02 -0.18127244192E+02 -0.42576508820E+01  0.29580250418E+02  0.00000000000E+00 0.  1.
</event>
<event>
 5    1  0.1102386E-009  0.9118800E+02  0.7818608E-02  0.1130116E+00
         25   -1    0    0    0    0  0.00000000000E+00  0.00000000000E+00  0.99999998245E-14  0.12500000000E+03  0.12500000000E+03 0.  0.
        -11    1    3    3    0    0  0.55650018687E+01 -0.13748279403E+02  0.32442491312E+02  0.35672113410E+02  0.51100000000E-03 0.  1.
         23    2    1    0    0    0  0.88720145820E+01 -0.52230438170E+01 -0.27150761148E+02  0.95962840009E+02  0.91464255325E+02 0.  0.
         11    1    3    3    0    0  0.33070127133E+01  0.85252355862E+01 -0.59593252459E+02  0.60290726599E+02  0.51100000000E-03 0. -1.
         22    1    1    0    0    0 -0.88720145820E+01  0.52230438170E+01  0.27150761148E+02  0.29037159991E+02  0.00000000000E+00 0. -1.
</event>
<event>
 5    1  0.1102386E-009  0.9118800E+02  0.7818608E-02  0.1130116E+00
         25   -1    0    0    0    0  0.00000000000E+00  0.00000000000E+00  0.99999998245E-14  0.12500000000E+03  0.12500000000E+03 0.  0.
        -11    1    3    3    0    0  0.45930354589E+02 -0.34172045392E+02 -0.15236238251E+01  0.57268207487E+02  0.51100000000E-03 0. -1.
         23    2    1    0    0    0  0.10335001282E+02 -0.25272817624E+02 -0.11624520025E+02  0.95324133914E+02  0.90587159567E+02 0.  0.
         11    1    3    3    0    0 -0.35595353307E+02  0.88992277682E+01 -0.10100896200E+02  0.38055926427E+02  0.51100000000E-03 0.  1.
         22    1    1    0    0    0 -0.10335001282E+02  0.25272817624E+02  0.11624520025E+02  0.29675866086E+02  0.00000000000E+00 0.  1.
</event>
<event>
 5    1  0.1102386E-009  0.9118800E+02  0.7818608E-02  0.1130116E+00
         25   -1    0    0    0    0  0.00000000000E+00  0.00000000000E+00  0.99999998245E-14  0.12500000000E+03  0.12500000000E+03 0.  0.
        -11    1    3    3    0    0 -0.11965627471E+02 -0.50622361749E+02 -0.18323189563E+02  0.55150149827E+02  0.51100000000E-03 0. -1.
         23    2    1    0    0    0 -0.22134769889E+02 -0.14571410061E+02  0.31283398985E+01  0.98315537485E+02  0.94624966955E+02 0.  0.
         11    1    3    3    0    0 -0.10169142418E+02  0.36050951688E+02  0.21451529462E+02  0.43165387658E+02  0.51100000000E-03 0.  1.
         22    1    1    0    0    0  0.22134769889E+02  0.14571410061E+02 -0.31283398985E+01  0.26684462515E+02  0.00000000000E+00 0. -1.
</event>
<event>
 5    1  0.1102386E-009  0.9118800E+02  0.7818608E-02  0.1130116E+00
         25   -1    0    0    0    0  0.00000000000E+00  0.00000000000E+00  0.99999998245E-14  0.12500000000E+03  0.12500000000E+03 0.  0.
        -11    1    3    3    0    0  0.46367972614E+02 -0.25569552165E+02 -0.62457348894E+01  0.53317915252E+02  0.51100000000E-03 0.  1.
         23    2    1    0    0    0  0.32148019117E+02  0.62343343745E+01 -0.14603288142E+02  0.89144483231E+02  0.81615689715E+02 0.  0.
         11    1    3    3    0    0 -0.14219953497E+02  0.31803886540E+02 -0.83575532523E+01  0.35826567978E+02  0.51100000000E-03 0. -1.
         22    1    1    0    0    0 -0.32148019117E+02 -0.62343343745E+01  0.14603288142E+02  0.35855516769E+02  0.00000000000E+00 0. -1.
</event>
<event>
 5    1  0.1102386E-009  0.9118800E+02  0.7818608E-02  0.1130116E+00
         25   -1    0    0    0    0  0.00000000000E+00  0.00000000000E+00  0.99999998245E-14  0.12500000000E+03  0.12500000000E+03 0.  0.
        -11    1    3    3    0    0  0.47686085794E+01  0.11896439649E+02  0.43726854603E+02  0.45566464838E+02  0.51100000000E-03 0.  1.
         23    2    1    0    0    0 -0.23027825024E+02  0.17864543415E+02  0.23614846688E+01  0.95759629848E+02  0.91186114414E+02 0.  0.
         11    1    3    3    0    0 -0.27796433604E+02  0.59681037663E+01 -0.41365369934E+02  0.50193165010E+02  0.51100000000E-03 0. -1.
         22    1    1    0    0    0  0.23027825024E+02 -0.17864543415E+02 -0.23614846688E+01  0.29240370152E+02  0.00000000000E+00 0. -1.
</event>
<event>
 5    1  0.1102386E-009  0.9118800E+02  0.7818608E-02  0.1130116E+00
         25   -1    0    0    0    0  0.00000000000E+00  0.00000000000E+00  0.99999998245E-14  0.12500000000E+03  0.12500000000E+03 0.  0.
        -11    1    3    3    0    0  0.11036057444E+01  0.13476127710E+02 -0.27328072465E+02  0.30490121492E+02  0.51100000000E-03 0. -1.
         23    2    1    0    0    0  0.22588259374E+01 -0.25373834492E+01  0.32442845373E+02  0.92379778890E+02  0.86428841959E+02 0.  0.
         11    1    3    3    0    0  0.11552201930E+01 -0.16013511159E+02  0.59770917838E+02  0.61889657398E+02  0.51100000000E-03 0.  1.
         22    1    1    0    0    0 -0.22588259374E+01  0.25373834492E+01 -0.32442845373E+02  0.32620221110E+02  0.00000000000E+00 0.  1.
</event>
<event>
 5    1  0.1102386E-009  0.9118800E+02  0.7818608E-02  0.1130116E+00
         25   -1    0    0    0    0  0.00000000000E+00  0.00000000000E+00  0.99999998245E-14  0.12500000000E+03  0.12500000000E+03 0.  0.
        -11    1    3    3    0    0  0.90631270652E+01 -0.25207231220E+02  0.32533172125E+02  0.42142046305E+02  0.51100000000E-03 0.  1.
         23    2    1    0    0    0 -0.21148253872E+02 -0.21860890982E+02 -0.86962703639E+01  0.93365014389E+02  0.87842208517E+02 0.  0.
         11    1    3    3    0    0 -0.30211380938E+02  0.33463402374E+01 -0.41229442489E+02  0.51222968084E+02  0.51100000000E-03 0. -1.
         22    1    1    0    0    0  0.21148253872E+02  0.21860890982E+02  0.86962703639E+01  0.31634985611E+02  0.00000000000E+00 0. -1.
</event>
<event>
 5    1  0.1102386E-009  0.9118800E+02  0.7818608E-02  0.1130116E+00
         25   -1    0    0    0    0  0.00000000000E+00  0.00000000000E+00  0.99999998245E-14  0.12500000000E+03  0.12500000000E+03 0.  0.
        -11    1    3    3    0    0  0.21645730766E+02  0.21231511364E+02  0.21351008495E+02  0.37083423510E+02  0.51100000000E-03 0. -1.
         23    2    1    0    0    0 -0.29170301393E+02 -0.90011124760E+00  0.21683876063E+01  0.95735369669E+02  0.91152851942E+02 0.  0.
         11    1    3    3    0    0 -0.50816032159E+02 -0.22131622611E+02 -0.19182620889E+02  0.58651946159E+02  0.51100000000E-03 0.  1.
         22    1    1    0    0    0  0.29170301393E+02  0.90011124760E+00 -0.21683876063E+01  0.29264630331E+02  0.00000000000E+00 0.  1.
</event>
<event>
 5    1  0.1102386E-009  0.9118800E+02  0.7818608E-02  0.1130116E+00
         25   -1    0    0    0    0  0.00000000000E+00  0.00000000000E+00  0.99999998245E-14  0.12500000000E+03  0.12500000000E+03 0.  0.
        -11    1    3    3    0    0 -0.28543455737E+02  0.54226202357E+01 -0.37757593429E+02  0.47642098374E+02  0.51100000000E-03 0. -1.
         23    2    1    0    0    0 -0.19650064355E+02  0.21556888331E+02  0.60894299477E+01  0.95202254771E+02  0.90418823774E+02 0.  0.
         11    1    3    3    0    0  0.88933913818E+01  0.16134268095E+02  0.43847023377E+02  0.47560156397E+02  0.51100000000E-03 0.  1.
         22    1    1    0    0    0  0.19650064355E+02 -0.21556888331E+02 -0.60894299477E+01  0.29797745229E+02  0.00000000000E+00 0.  1.
</event>
<event>
 5    1  0.1102386E-009  0.9118800E+02  0.7818608E-02  0.1130116E+00
         25   -1    0    0    0    0  0.00000000000E+00  0.00000000000E+00  0.99999998245E-14  0.12500000000E+03  0.12500000000E+03 0.  0.
        -11    1    3    3    0    0 -0.14319681431E+02 -0.11936454382E+02  0.28911420024E+02  0.34400616675E+02  0.51100000000E-03 0.  1.
         23    2    1    0    0    0 -0.71020837590E+01  0.14684470004E+02 -0.25110531154E+02  0.95056519443E+02  0.90217126206E+02 0.  0.
         11    1    3    3    0    0  0.72175976722E+01  0.26620924386E+02 -0.54021951178E+02  0.60655902769E+02  0.51100000000E-03 0. -1.
         22    1    1    0    0    0  0.71020837590E+01 -0.14684470004E+02  0.25110531154E+02  0.29943480557E+02  0.00000000000E+00 0. -1.
</event>
<event>
 5    1  0.1102386E-009  0.9118800E+02  0.7818608E-02  0.1130116E+00
         25   -1    0    0    0    0  0.00000000000E+00  0.00000000000E+00  0.99999998245E-14  0.12500000000E+03  0.12500000000E+03 0.  0.
        -11    1    3    3    0    0 -0.30139525391E+01  0.31037751325E+02  0.19168453649E+02  0.36604037110E+02  0.51100000000E-03 0. -1.
         23    2    1    0    0    0 -0.36863767935E+02  0.29750282128E+02 -0.37151983811E+01  0.77483483166E+02  0.61203519437E+02 0.  0.
         11    1    3    3    0    0 -0.33849815396E+02 -0.12874691975E+01 -0.22883652030E+02  0.40879446055E+02  0.51100000000E-03 0.  1.
         22    1    1    0    0    0  0.36863767935E+02 -0.29750282128E+02  0.37151983811E+01  0.47516516834E+02  0.00000000000E+00 0. -1.
</event>
<event>
 5    1  0.1102386E-009  0.9118800E+02  0.7818608E-02  0.1130116E+00
         25   -1    0    0    0    0  0.00000000000E+00  0.00000000000E+00  0.99999998245E-14  0.12500000000E+03  0.12500000000E+03 0.  0.
        -11    1    3    3    0    0  0.43551281987E+02 -0.24448450129E+02  0.23654434526E+02  0.55262764584E+02  0.51100000000E-03 0. -1.
         23    2    1    0    0    0  0.56631923941E+01 -0.26972456050E+02  0.11545885701E+02  0.95118691293E+02  0.90303227092E+02 0.  0.
         11    1    3    3    0    0 -0.37888089593E+02 -0.25240059205E+01 -0.12108548825E+02  0.39855926709E+02  0.51100000000E-03 0.  1.
         22    1    1    0    0    0 -0.56631923941E+01  0.26972456050E+02 -0.11545885701E+02  0.29881308707E+02  0.00000000000E+00 0. -1.
</event>
<event>
 5    1  0.1102386E-009  0.9118800E+02  0.7818608E-02  0.1130116E+00
         25   -1    0    0    0    0  0.00000000000E+00  0.00000000000E+00  0.99999998245E-14  0.12500000000E+03  0.12500000000E+03 0.  0.
        -11    1    3    3    0    0  0.30785234194E+02  0.18674846788E+02 -0.83554614371E+01  0.36963418173E+02  0.51100000000E-03 0.  1.
         23    2    1    0    0    0 -0.14145508287E+02  0.27093459599E+01  0.25686519769E+02  0.95551175608E+02  0.90899911452E+02 0.  0.
         11    1    3    3    0    0 -0.44930742481E+02 -0.15965500828E+02  0.34041981206E+02  0.58587757435E+02  0.51100000000E-03 0. -1.
         22    1    1    0    0    0  0.14145508287E+02 -0.27093459599E+01 -0.25686519769E+02  0.29448824392E+02  0.00000000000E+00 0. -1.
</event>
<event>
 5    1  0.1102386E-009  0.9118800E+02  0.7818608E-02  0.1130116E+00
         25   -1    0    0    0    0  0.00000000000E+00  0.00000000000E+00  0.99999998245E-14  0.12500000000E+03  0.12500000000E+03 0.  0.
        -11    1    3    3    0    0 -0.75023290198E+01  0.78646555825E+01  0.15474727703E+02  0.18910445418E+02  0.51100000000E-03 0.  1.
         23    2    1    0    0    0  0.25016737559E+02 -0.35570475329E+02  0.26215062941E+02  0.74222786624E+02  0.54135909118E+02 0.  0.
         11    1    3    3    0    0  0.32519066579E+02 -0.43435130911E+02  0.10740335238E+02  0.55312341206E+02  0.51100000000E-03 0. -1.
         22    1    1    0    0    0 -0.25016737559E+02  0.35570475329E+02 -0.26215062941E+02  0.50777213376E+02  0.00000000000E+00 0. -1.
</event>
<event>
 5    1  0.1102386E-009  0.9118800E+02  0.7818608E-02  0.1130116E+00
         25   -1    0    0    0    0  0.00000000000E+00  0.00000000000E+00  0.99999998245E-14  0.12500000000E+03  0.12500000000E+03 0.  0.
        -11    1    3    3    0    0 -0.13739440821E+02 -0.46069896823E+02 -0.62757720757E+01  0.48482913926E+02  0.51100000000E-03 0.  1.
         23    2    1    0    0    0 -0.31310806706E+01 -0.13027672098E+02  0.25920482750E+02  0.95821320584E+02  0.91270642301E+02 0.  0.
         11    1    3    3    0    0  0.10608360150E+02  0.33042224726E+02  0.32196254826E+02  0.47338406658E+02  0.51100000000E-03 0. -1.
         22    1    1    0    0    0  0.31310806706E+01  0.13027672098E+02 -0.25920482750E+02  0.29178679416E+02  0.00000000000E+00 0. -1.
</event>
<event>
 5    1  0.1102386E-009  0.9118800E+02  0.7818608E-02  0.1130116E+00
         25   -1    0    0    0    0  0.00000000000E+00  0.00000000000E+00  0.99999998245E-14  0.12500000000E+03  0.12500000000E+03 0.  0.
        -11    1    3    3    0    0 -0.40616016701E+02 -0.36223305086E+02  0.25530310225E+02  0.60113104931E+02  0.51100000000E-03 0.  1.
         23    2    1    0    0    0 -0.10094945766E+02 -0.24880004301E+02  0.86393437489E+01  0.96794312552E+02  0.92593618235E+02 0.  0.
         11    1    3    3    0    0  0.30521070935E+02  0.11343300785E+02 -0.16890966476E+02  0.36681207621E+02  0.51100000000E-03 0. -1.
         22    1    1    0    0    0  0.10094945766E+02  0.24880004301E+02 -0.86393437489E+01  0.28205687448E+02  0.00000000000E+00 0.  1.
</event>
<event>
 5    1  0.1102386E-009  0.9118800E+02  0.7818608E-02  0.1130116E+00
         25   -1    0    0    0    0  0.00000000000E+00  0.00000000000E+00  0.99999998245E-14  0.12500000000E+03  0.12500000000E+03 0.  0.
        -11    1    3    3    0    0  0.70184844227E+01  0.36747364317E+02  0.48857880452E+02  0.61536333904E+02  0.51100000000E-03 0.  1.
         23    2    1    0    0    0  0.10198889035E+02  0.17901545118E+02  0.19084531352E+02  0.96916161372E+02  0.92757966466E+02 0.  0.
         11    1    3    3    0    0  0.31804046120E+01 -0.18845819199E+02 -0.29773349100E+02  0.35379827468E+02  0.51100000000E-03 0. -1.
         22    1    1    0    0    0 -0.10198889035E+02 -0.17901545118E+02 -0.19084531352E+02  0.28083838628E+02  0.00000000000E+00 0.  1.
</event>
<event>
 5    1  0.1102386E-009  0.9118800E+02  0.7818608E-02  0.1130116E+00
         25   -1    0    0    0    0  0.00000000000E+00  0.00000000000E+00  0.99999998245E-14  0.12500000000E+03  0.12500000000E+03 0.  0.
        -11    1    3    3    0    0  0.45917745813E+01  0.19105037363E+02 -0.58675020874E+02  0.61877660922E+02  0.51100000000E-03 0.  1.
         23    2    1    0    0    0 -0.35874599346E+01  0.11659341617E+02 -0.29662451937E+02  0.92927096005E+02  0.87216821780E+02 0.  0.
         11    1    3    3    0    0 -0.81792345159E+01 -0.74456957460E+01  0.29012568936E+02  0.31049435083E+02  0.51100000000E-03 0. -1.
         22    1    1    0    0    0  0.35874599346E+01 -0.11659341617E+02  0.29662451937E+02  0.32072903995E+02  0.00000000000E+00 0.  1.
</event>
<event>
 5    1  0.1102386E-009  0.9118800E+02  0.7818608E-02  0.1130116E+00
         25   -1    0    0    0    0  0.00000000000E+00  0.00000000000E+00  0.99999998245E-14  0.12500000000E+03  0.12500000000E+03 0.  0.
        -11    1    3    3    0    0  0.30473262703E+02  0.10384106723E+02  0.14680382799E+02  0.35383089910E+02  0.51100000000E-03 0.  1.
         23    2    1    0    0    0 -0.13363757725E+02 -0.22848939359E+02 -0.11298905577E+02  0.96219289140E+02  0.91814063656E+02 0.  0.
         11    1    3    3    0    0 -0.43837020428E+02 -0.33233046082E+02 -0.25979288377E+02  0.60836199230E+02  0.51100000000E-03 0. -1.
         22    1    1    0    0    0  0.13363757725E+02  0.22848939359E+02  0.11298905577E+02  0.28780710860E+02  0.00000000000E+00 0. -1.
</event>
<event>
 5    1  0.1102386E-009  0.9118800E+02  0.7818608E-02  0.1130116E+00
         25   -1    0    0    0    0  0.00000000000E+00  0.00000000000E+00  0.99999998245E-14  0.12500000000E+03  0.12500000000E+03 0.  0.
        -11    1    3    3    0    0 -0.42699672805E+02  0.45622896043E+01  0.43254490099E+01  0.43160005253E+02  0.51100000000E-03 0. -1.
         23    2    1    0    0    0  0.36474395968E+01  0.29065577035E+02  0.20361458426E+01  0.95635779018E+02  0.91016178531E+02 0.  0.
         11    1    3    3    0    0  0.46347112402E+02  0.24503287431E+02 -0.22893031673E+01  0.52475773764E+02  0.51100000000E-03 0.  1.
         22    1    1    0    0    0 -0.36474395968E+01 -0.29065577035E+02 -0.20361458426E+01  0.29364220982E+02  0.00000000000E+00 0.  1.
</event>
<event>
 5    1  0.1102386E-009  0.9118800E+02  0.7818608E-02  0.1130116E+00
         25   -1    0    0    0    0  0.00000000000E+00  0.00000000000E+00  0.99999998245E-14  0.12500000000E+03  0.12500000000E+03 0.  0.
        -11    1    3    3    0    0  0.91966655248E+01  0.18635619525E+02 -0.37939245129E+02  0.43257962193E+02  0.51100000000E-03 0.  1.
         23    2    1    0    0    0  0.23985729516E+02  0.12339423730E+02  0.11820990979E+02  0.95549831476E+02  0.90898063065E+02 0.  0.
         11    1    3    3    0    0  0.14789063991E+02 -0.62961957950E+01  0.49760236109E+02  0.52291869283E+02  0.51100000000E-03 0. -1.
         22    1    1    0    0    0 -0.23985729516E+02 -0.12339423730E+02 -0.11820990979E+02  0.29450168524E+02  0.00000000000E+00 0. -1.
</event>
<event>
 5    1  0.1102386E-009  0.9118800E+02  0.7818608E-02  0.1130116E+00
         25   -1    0    0    0    0  0.00000000000E+00  0.00000000000E+00  0.99999998245E-14  0.12500000000E+03  0.12500000000E+03 0.  0.
        -11    1    3    3    0    0 -0.33478888471E+01  0.48754401411E+02 -0.19544043760E+02  0.52632401270E+02  0.51100000000E-03 0.  1.
         23    2    1    0    0    0 -0.19384128116E+02  0.99641464234E+01 -0.21139539640E+02  0.94637049337E+02  0.89634046736E+02 0.  0.
         11    1    3    3    0    0 -0.16036239269E+02 -0.38790254988E+02 -0.15954958803E+01  0.42004648067E+02  0.51100000000E-03 0. -1.
         22    1    1    0    0    0  0.19384128116E+02 -0.99641464234E+01  0.21139539640E+02  0.30362950663E+02  0.00000000000E+00 0. -1.
</event>
<event>
 5    1  0.1102386E-009  0.9118800E+02  0.7818608E-02  0.1130116E+00
         25   -1    0    0    0    0  0.00000000000E+00  0.00000000000E+00  0.99999998245E-14  0.12500000000E+03  0.12500000000E+03 0.  0.
        -11    1    3    3    0    0  0.55654493583E+02 -0.69878335710E+01  0.24604706888E+02  0.61250665917E+02  0.51100000000E-03 0. -1.
         23    2    1    0    0    0  0.22990942736E+02  0.10384455032E+01  0.18581004175E+02  0.95421028870E+02  0.90720765085E+02 0.  0.
         11    1    3    3    0    0 -0.32663550847E+02  0.80262790741E+01 -0.60237027134E+01  0.34170362953E+02  0.51100000000E-03 0.  1.
         22    1    1    0    0    0 -0.22990942736E+02 -0.10384455032E+01 -0.18581004175E+02  0.29578971130E+02  0.00000000000E+00 0. -1.
</event>
<event>
 5    1  0.1102386E-009  0.9118800E+02  0.7818608E-02  0.1130116E+00
         25   -1    0    0    0    0  0.00000000000E+00  0.00000000000E+00  0.99999998245E-14  0.12500000000E+03  0.12500000000E+03 0.  0.
        -11    1    3    3    0    0 -0.13120317009E+02  0.13828657002E+02  0.58979984741E+02  0.61983974326E+02  0.51100000000E-03 0.  1.
         23    2    1    0    0    0 -0.10530179905E+02  0.12566751908E+02  0.32714453453E+02  0.88407057961E+02  0.80478347959E+02 0.  0.
         11    1    3    3    0    0  0.25901371039E+01 -0.12619050942E+01 -0.26265531288E+02  0.26423083635E+02  0.51100000000E-03 0. -1.
         22    1    1    0    0    0  0.10530179905E+02 -0.12566751908E+02 -0.32714453453E+02  0.36592942039E+02  0.00000000000E+00 0.  1.
</event>
<event>
 5    1  0.1102386E-009  0.9118800E+02  0.7818608E-02  0.1130116E+00
         25   -1    0    0    0    0  0.00000000000E+00  0.00000000000E+00  0.99999998245E-14  0.12500000000E+03  0.12500000000E+03 0.  0.
        -11    1    3    3    0    0  0.19077517860E+02  0.83861456216E+01  0.36048786651E+02  0.41638853795E+02  0.51100000000E-03 0.  1.
         23    2    1    0    0    0  0.10817420307E+02  0.27306951886E+02 -0.11485303039E+02  0.93462746009E+02  0.87981171294E+02 0.  0.
         11    1    3    3    0    0 -0.82600975526E+01  0.18920806264E+02 -0.47534089690E+02  0.51823892214E+02  0.51100000000E-03 0. -1.
         22    1    1    0    0    0 -0.10817420307E+02 -0.27306951886E+02  0.11485303039E+02  0.31537253991E+02  0.00000000000E+00 0. -1.
</event>
<event>
 5    1  0.1102386E-009  0.9118800E+02  0.7818608E-02  0.1130116E+00
         25   -1    0    0    0    0  0.00000000000E+00  0.00000000000E+00  0.99999998245E-14  0.12500000000E+03  0.12500000000E+03 0.  0.
        -11    1    3    3    0    0 -0.36861618235E+02  0.45848281377E+02  0.13727229908E+02  0.60409276153E+02  0.51100000000E-03 0.  1.
         23    2    1    0    0    0 -0.24587573831E+02  0.12544881009E+02  0.67920168166E+01  0.96573703743E+02  0.92295319144E+02 0.  0.
         11    1    3    3    0    0  0.12274044404E+02 -0.33303400367E+02 -0.69352130918E+01  0.36164427591E+02  0.51100000000E-03 0. -1.
         22    1    1    0    0    0  0.24587573831E+02 -0.12544881009E+02 -0.67920168166E+01  0.28426296257E+02  0.00000000000E+00 0.  1.
</event>
<event>
 5    1  0.1102386E-009  0.9118800E+02  0.7818608E-02  0.1130116E+00
         25   -1    0    0    0    0  0.00000000000E+00  0.00000000000E+00  0.99999998245E-14  0.12500000000E+03  0.12500000000E+03 0.  0.
        -11    1    3    3    0    0 -0.39554721026E+02 -0.12447803657E+02 -0.20835739396E+02  0.46407454226E+02  0.51100000000E-03 0. -1.
         23    2    1    0    0    0  0.42895399214E+01  0.86950364669E+01 -0.27780471689E+02  0.95576226973E+02  0.90934354032E+02 0.  0.
         11    1    3    3    0    0  0.43844260947E+02  0.21142840124E+02 -0.69447322934E+01  0.49168772747E+02  0.51100000000E-03 0.  1.
         22    1    1    0    0    0 -0.42895399214E+01 -0.86950364669E+01  0.27780471689E+02  0.29423773027E+02  0.00000000000E+00 0.  1.
</event>
<event>
 5    1  0.1102386E-009  0.9118800E+02  0.7818608E-02  0.1130116E+00
         25   -1    0    0    0    0  0.00000000000E+00  0.00000000000E+00  0.99999998245E-14  0.12500000000E+03  0.12500000000E+03 0.  0.
        -11    1    3    3    0    0 -0.10653609784E+02  0.50633704946E+02 -0.53553408352E+01  0.52018757711E+02  0.51100000000E-03 0. -1.
         23    2    1    0    0    0 -0.34679569721E+01  0.15818208583E+02  0.22567735054E+02  0.97223299083E+02  0.93170943812E+02 0.  0.
         11    1    3    3    0    0  0.71856528122E+01 -0.34815496363E+02  0.27923075889E+02  0.45204541373E+02  0.51100000000E-03 0.  1.
         22    1    1    0    0    0  0.34679569721E+01 -0.15818208583E+02 -0.22567735054E+02  0.27776700917E+02  0.00000000000E+00 0.  1.
</event>
<event>
 5    1  0.1102386E-009  0.9118800E+02  0.7818608E-02  0.1130116E+00
         25   -1    0    0    0    0  0.00000000000E+00  0.00000000000E+00  0.99999998245E-14  0.12500000000E+03  0.12500000000E+03 0.  0.
        -11    1    3    3    0    0  0.51574437040E+02  0.11273447624E+02 -0.81126124844E+01  0.53411868147E+02  0.51100000000E-03 0.  1.
         23    2    1    0    0    0  0.12726689957E+02  0.18013981421E+02 -0.20650469288E+02  0.94785532510E+02  0.89840876707E+02 0.  0.
         11    1    3    3    0    0 -0.38847747083E+02  0.67405337967E+01 -0.12537856804E+02  0.41373664363E+02  0.51100000000E-03 0. -1.
         22    1    1    0    0    0 -0.12726689957E+02 -0.18013981421E+02  0.20650469288E+02  0.30214467490E+02  0.00000000000E+00 0. -1.
</event>
<event>
 5    1  0.1102386E-009  0.9118800E+02  0.7818608E-02  0.1130116E+00
         25   -1    0    0    0    0  0.00000000000E+00  0.00000000000E+00  0.99999998245E-14  0.12500000000E+03  0.12500000000E+03 0.  0.
        -11    1    3    3    0    0 -0.49316477949E+01  0.14942832027E+02  0.51974067027E+02  0.54303895096E+02  0.51100000000E-03 0.  1.
         23    2    1    0    0    0  0.84481155754E+01  0.24546823631E+02  0.14435759947E+02  0.95296323925E+02  0.90548776807E+02 0.  0.
         11    1    3    3    0    0  0.13379763370E+02  0.96039916038E+01 -0.37538307080E+02  0.40992428829E+02  0.51100000000E-03 0. -1.
         22    1    1    0    0    0 -0.84481155754E+01 -0.24546823631E+02 -0.14435759947E+02  0.29703676075E+02  0.00000000000E+00 0. -1.
</event>
<event>
 5    1  0.1102386E-009  0.9118800E+02  0.7818608E-02  0.1130116E+00
         25   -1    0    0    0    0  0.00000000000E+00  0.00000000000E+00  0.99999998245E-14  0.12500000000E+03  0.12500000000E+03 0.  0.
        -11    1    3    3    0    0  0.24893899594E+02  0.38381446343E+02 -0.14532122686E+02  0.48000252608E+02  0.51100000000E-03 0.  1.
         23    2    1    0    0    0 -0.17026844593E+02  0.23101124291E+02  0.34277604812E+01  0.96098011795E+02  0.91648802222E+02 0.  0.
         11    1    3    3    0    0 -0.41920744187E+02 -0.15280322052E+02  0.17959883167E+02  0.48097759187E+02  0.51100000000E-03 0. -1.
         22    1    1    0    0    0  0.17026844593E+02 -0.23101124291E+02 -0.34277604812E+01  0.28901988205E+02  0.00000000000E+00 0.  1.
</event>
<event>
 5    1  0.1102386E-009  0.9118800E+02  0.7818608E-02  0.1130116E+00
         25   -1    0    0    0    0  0.00000000000E+00  0.00000000000E+00  0.99999998245E-14  0.12500000000E+03  0.12500000000E+03 0.  0.
        -11    1    3    3    0    0 -0.20109023740E+02  0.30750442672E+02  0.22488298307E+02  0.43077675440E+02  0.51100000000E-03 0.  1.
         23    2    1    0    0    0  0.14108989038E+02  0.19919902473E+02 -0.16085351377E+02  0.95766378686E+02  0.91195365405E+02 0.  0.
         11    1    3    3    0    0  0.34218012779E+02 -0.10830540199E+02 -0.38573649684E+02  0.52688703246E+02  0.51100000000E-03 0. -1.
         22    1    1    0    0    0 -0.14108989038E+02 -0.19919902473E+02  0.16085351377E+02  0.29233621314E+02  0.00000000000E+00 0.  1.
</event>
<event>
 5    1  0.1102386E-009  0.9118800E+02  0.7818608E-02  0.1130116E+00
         25   -1    0    0    0    0  0.00000000000E+00  0.00000000000E+00  0.99999998245E-14  0.12500000000E+03  0.12500000000E+03 0.  0.
        -11    1    3    3    0    0 -0.28765916436E+02 -0.68420533949E+01 -0.21858716131E+02  0.36770845981E+02  0.51100000000E-03 0.  1.
         23    2    1    0    0    0  0.19478398432E+02 -0.22048519947E+02  0.66530928073E+01  0.94836961671E+02  0.89912404137E+02 0.  0.
         11    1    3    3    0    0  0.48244314868E+02 -0.15206466553E+02  0.28511808938E+02  0.58066115689E+02  0.51100000000E-03 0. -1.
         22    1    1    0    0    0 -0.19478398432E+02  0.22048519947E+02 -0.66530928073E+01  0.30163038329E+02  0.00000000000E+00 0. -1.
</event>
<event>
 5    1  0.1102386E-009  0.9118800E+02  0.7818608E-02  0.1130116E+00
         25   -1    0    0    0    0  0.00000000000E+00  0.00000000000E+00  0.99999998245E-14  0.12500000000E+03  0.12500000000E+03 0.  0.
        -11    1    3    3    0    0  0.31201643768E+02  0.90970566555E+00 -0.30984395366E+02  0.43981847331E+02  0.51100000000E-03 0.  1.
         23    2    1    0    0    0  0.17472984677E+02  0.19778150948E+02  0.14343312594E+02  0.94963171529E+02  0.90087695510E+02 0.  0.
         11    1    3    3    0    0 -0.13728659091E+02  0.18868445282E+02  0.45327707960E+02  0.50981324198E+02  0.51100000000E-03 0. -1.
         22    1    1    0    0    0 -0.17472984677E+02 -0.19778150948E+02 -0.14343312594E+02  0.30036828471E+02  0.00000000000E+00 0.  1.
</event>
<event>
 5    1  0.1102386E-009  0.9118800E+02  0.7818608E-02  0.1130116E+00
         25   -1    0    0    0    0  0.00000000000E+00  0.00000000000E+00  0.99999998245E-14  0.12500000000E+03  0.12500000000E+03 0.  0.
        -11    1    3    3    0    0  0.13254752913E+02  0.13776011963E+02 -0.59053010454E+02  0.62070323218E+02  0.51100000000E-03 0.  1.
         23    2    1    0    0    0  0.18037673815E+01  0.92630352001E+01 -0.25880834205E+02  0.97452314489E+02  0.93477690505E+02 0.  0.
         11    1    3    3    0    0 -0.11450985531E+02 -0.45129767625E+01  0.33172176250E+02  0.35381991271E+02  0.51100000000E-03 0. -1.
         22    1    1    0    0    0 -0.18037673815E+01 -0.92630352001E+01  0.25880834205E+02  0.27547685511E+02  0.00000000000E+00 0.  1.
</event>
<event>
 5    1  0.1102386E-009  0.9118800E+02  0.7818608E-02  0.1130116E+00
         25   -1    0    0    0    0  0.00000000000E+00  0.00000000000E+00  0.99999998245E-14  0.12500000000E+03  0.12500000000E+03 0.  0.
        -11    1    3    3    0    0 -0.58784365446E+01 -0.21884542357E+02  0.56549195618E+02  0.60920445957E+02  0.51100000000E-03 0. -1.
         23    2    1    0    0    0  0.22018494416E+01 -0.35499013057E+01  0.32545628134E+02  0.92187382749E+02  0.86150134574E+02 0.  0.
         11    1    3    3    0    0  0.80802859861E+01  0.18334641052E+02 -0.24003567483E+02  0.31266936791E+02  0.51100000000E-03 0.  1.
         22    1    1    0    0    0 -0.22018494416E+01  0.35499013057E+01 -0.32545628134E+02  0.32812617251E+02  0.00000000000E+00 0. -1.
</event>
<event>
 5    1  0.1102386E-009  0.9118800E+02  0.7818608E-02  0.1130116E+00
         25   -1    0    0    0    0  0.00000000000E+00  0.00000000000E+00  0.99999998245E-14  0.12500000000E+03  0.12500000000E+03 0.  0.
        -11    1    3    3    0    0 -0.22587224931E+02  0.38776943619E+02  0.85151317458E+01  0.45676487994E+02  0.51100000000E-03 0.  1.
         23    2    1    0    0    0 -0.25841852599E+02 -0.10760068622E+02  0.98131195820E+01  0.95337266842E+02  0.90605279705E+02 0.  0.
         11    1    3    3    0    0 -0.32546276672E+01 -0.49537012242E+02  0.12979878362E+01  0.49660778848E+02  0.51100000000E-03 0. -1.
         22    1    1    0    0    0  0.25841852599E+02  0.10760068622E+02 -0.98131195820E+01  0.29662733158E+02  0.00000000000E+00 0.  1.
</event>
<event>
 5    1  0.1102386E-009  0.9118800E+02  0.7818608E-02  0.1130116E+00
         25   -1    0    0    0    0  0.00000000000E+00  0.00000000000E+00  0.99999998245E-14  0.12500000000E+03  0.12500000000E+03 0.  0.
        -11    1    3    3    0    0  0.40176683690E+02 -0.88772038240E+00  0.29543429078E+02  0.49877531633E+02  0.51100000000E-03 0.  1.
         23    2    1    0    0    0  0.18406185624E+02 -0.21383429705E+02 -0.58246132587E+01  0.96190889379E+02  0.91775390736E+02 0.  0.
         11    1    3    3    0    0 -0.21770498067E+02 -0.20495709323E+02 -0.35368042337E+02  0.46313357746E+02  0.51100000000E-03 0. -1.
         22    1    1    0    0    0 -0.18406185624E+02  0.21383429705E+02  0.58246132587E+01  0.28809110621E+02  0.00000000000E+00 0.  1.
</event>
<event>
 5    1  0.1102386E-009  0.9118800E+02  0.7818608E-02  0.1130116E+00
         25   -1    0    0    0    0  0.00000000000E+00  0.00000000000E+00  0.99999998245E-14  0.12500000000E+03  0.12500000000E+03 0.  0.
        -11    1    3    3    0    0  0.97661755340E+01 -0.44509022242E+02  0.19196422408E+02  0.49446272651E+02  0.51100000000E-03 0.  1.
         23    2    1    0    0    0  0.58321348757E+01 -0.26624820526E+00  0.29404486593E+02  0.95021532442E+02  0.90168637067E+02 0.  0.
         11    1    3    3    0    0 -0.39340406582E+01  0.44242774037E+02  0.10208064185E+02  0.45575259791E+02  0.51100000000E-03 0. -1.
         22    1    1    0    0    0 -0.58321348757E+01  0.26624820526E+00 -0.29404486593E+02  0.29978467558E+02  0.00000000000E+00 0. -1.
</event>
<event>
 5    1  0.1102386E-009  0.9118800E+02  0.7818608E-02  0.1130116E+00
         25   -1    0    0    0    0  0.00000000000E+00  0.00000000000E+00  0.99999998245E-14  0.12500000000E+03  0.12500000000E+03 0.  0.
        -11    1    3    3    0    0 -0.51895016427E+02 -0.48439418850E+01 -0.15610032239E+02  0.54407992149E+02  0.51100000000E-03 0.  1.
         23    2    1    0    0    0 -0.16759556039E+02 -0.23653807444E+02 -0.67974849315E+01  0.95224319880E+02  0.90449322662E+02 0.  0.
         11    1    3    3    0    0  0.35135460388E+02 -0.18809865560E+02  0.88125473080E+01  0.40816327730E+02  0.51100000000E-03 0. -1.
         22    1    1    0    0    0  0.16759556039E+02  0.23653807444E+02  0.67974849315E+01  0.29775680120E+02  0.00000000000E+00 0.  1.
</event>
<event>
 5    1  0.1102386E-009  0.9118800E+02  0.7818608E-02  0.1130116E+00
         25   -1    0    0    0    0  0.00000000000E+00  0.00000000000E+00  0.99999998245E-14  0.12500000000E+03  0.12500000000E+03 0.  0.
        -11    1    3    3    0    0  0.32909761776E+02 -0.27648702719E+02 -0.34292371190E+02  0.54986088279E+02  0.51100000000E-03 0.  1.
         23    2    1    0    0    0  0.11796161049E+02 -0.28204719086E+02 -0.10017378718E+01  0.94411455200E+02  0.89318888260E+02 0.  0.
         11    1    3    3    0    0 -0.21113600727E+02 -0.55601636734E+00  0.33290633318E+02  0.39425366921E+02  0.51100000000E-03 0. -1.
         22    1    1    0    0    0 -0.11796161049E+02  0.28204719086E+02  0.10017378718E+01  0.30588544800E+02  0.00000000000E+00 0.  1.
</event>
<event>
 5    1  0.1102386E-009  0.9118800E+02  0.7818608E-02  0.1130116E+00
         25   -1    0    0    0    0  0.00000000000E+00  0.00000000000E+00  0.99999998245E-14  0.12500000000E+03  0.12500000000E+03 0.  0.
        -11    1    3    3    0    0  0.32250702336E+02 -0.76221905938E+01  0.13595349808E+02  0.35819535554E+02  0.51100000000E-03 0.  1.
         23    2    1    0    0    0 -0.24386563760E+02 -0.14733262079E+02 -0.54438716045E+01  0.95992944969E+02  0.91505389144E+02 0.  0.
         11    1    3    3    0    0 -0.56637266096E+02 -0.71110714856E+01 -0.19039221413E+02  0.60173409416E+02  0.51100000000E-03 0. -1.
         22    1    1    0    0    0  0.24386563760E+02  0.14733262079E+02  0.54438716045E+01  0.29007055031E+02  0.00000000000E+00 0. -1.
</event>
<event>
 5    1  0.1102386E-009  0.9118800E+02  0.7818608E-02  0.1130116E+00
         25   -1    0    0    0    0  0.00000000000E+00  0.00000000000E+00  0.99999998245E-14  0.12500000000E+03  0.12500000000E+03 0.  0.
        -11    1    3    3    0    0 -0.21620842154E+02  0.74575403331E+01  0.35783859835E+02  0.42468345249E+02  0.51100000000E-03 0.  1.
         23    2    1    0    0    0 -0.21737650636E+01  0.27294671105E+02 -0.98571238398E+01  0.95898673300E+02  0.91376519550E+02 0.  0.
         11    1    3    3    0    0  0.19447077090E+02  0.19837130772E+02 -0.45640983675E+02  0.53430328051E+02  0.51100000000E-03 0. -1.
         22    1    1    0    0    0  0.21737650636E+01 -0.27294671105E+02  0.98571238398E+01  0.29101326700E+02  0.00000000000E+00 0. -1.
</event>
<event>
 5    1  0.1102386E-009  0.9118800E+02  0.7818608E-02  0.1130116E+00
         25   -1    0    0    0    0  0.00000000000E+00  0.00000000000E+00  0.99999998245E-14  0.12500000000E+03  0.12500000000E+03 0.  0.
        -11    1    3    3    0    0  0.31650735533E+02 -0.16222812084E+02 -0.53723504176E+01  0.35969582163E+02  0.51100000000E-03 0. -1.
         23    2    1    0    0    0 -0.56971020305E+01 -0.41792585377E+01  0.33236942061E+02  0.91020337096E+02  0.84439826350E+02 0.  0.
         11    1    3    3    0    0 -0.37347837564E+02  0.12043553546E+02  0.38609292479E+02  0.55050754933E+02  0.51100000000E-03 0.  1.
         22    1    1    0    0    0  0.56971020305E+01  0.41792585377E+01 -0.33236942061E+02  0.33979662904E+02  0.00000000000E+00 0.  1.
</event>
<event>
 5    1  0.1102386E-009  0.9118800E+02  0.7818608E-02  0.1130116E+00
         25   -1    0    0    0    0  0.00000000000E+00  0.00000000000E+00  0.99999998245E-14  0.12500000000E+03  0.12500000000E+03 0.  0.
        -11    1    3    3    0    0  0.56217404305E+02 -0.34602152669E+00 -0.11754430202E+02  0.57434161501E+02  0.51100000000E-03 0. -1.
         23    2    1    0    0    0  0.24648487428E+02 -0.15452036822E+02  0.36671928391E+01  0.95678307045E+02  0.91074567038E+02 0.  0.
         11    1    3    3    0    0 -0.31568916877E+02 -0.15106015295E+02  0.15421623041E+02  0.38244145544E+02  0.51100000000E-03 0.  1.
         22    1    1    0    0    0 -0.24648487428E+02  0.15452036822E+02 -0.36671928391E+01  0.29321692955E+02  0.00000000000E+00 0. -1.
</event>
<event>
 5    1  0.1102386E-009  0.9118800E+02  0.7818608E-02  0.1130116E+00
         25   -1    0    0    0    0  0.00000000000E+00  0.00000000000E+00  0.99999998245E-14  0.12500000000E+03  0.12500000000E+03 0.  0.
        -11    1    3    3    0    0  0.20006840084E+02 -0.32045495272E+02 -0.95587335321E+01  0.38968664390E+02  0.51100000000E-03 0.  1.
         23    2    1    0    0    0 -0.20093808861E+02  0.86419723500E+01 -0.17943965628E+02  0.96708115243E+02  0.92477179946E+02 0.  0.
         11    1    3    3    0    0 -0.40100648945E+02  0.40687467622E+02 -0.83852320955E+01  0.57739450853E+02  0.51100000000E-03 0. -1.
         22    1    1    0    0    0  0.20093808861E+02 -0.86419723500E+01  0.17943965628E+02  0.28291884757E+02  0.00000000000E+00 0. -1.
</event>
<event>
 5    1  0.1102386E-009  0.9118800E+02  0.7818608E-02  0.1130116E+00
         25   -1    0    0    0    0  0.00000000000E+00  0.00000000000E+00  0.99999998245E-14  0.12500000000E+03  0.12500000000E+03 0.  0.
        -11    1    3    3    0    0 -0.26959308096E+02  0.38687073165E+00  0.49169583094E+02  0.56076749762E+02  0.51100000000E-03 0.  1.
         23    2    1    0    0    0 -0.11197518185E+02 -0.19634380811E+02  0.19886237566E+02  0.94894256895E+02  0.89992023112E+02 0.  0.
         11    1    3    3    0    0  0.15761789910E+02 -0.20021251543E+02 -0.29283345528E+02  0.38817507134E+02  0.51100000000E-03 0. -1.
         22    1    1    0    0    0  0.11197518185E+02  0.19634380811E+02 -0.19886237566E+02  0.30105743105E+02  0.00000000000E+00 0.  1.
</event>
<event>
 5    1  0.1102386E-009  0.9118800E+02  0.7818608E-02  0.1130116E+00
         25   -1    0    0    0    0  0.00000000000E+00  0.00000000000E+00  0.99999998245E-14  0.12500000000E+03  0.12500000000E+03 0.  0.
        -11    1    3    3    0    0 -0.25784073526E+02 -0.15638217826E+02 -0.20161484877E+02  0.36274753990E+02  0.51100000000E-03 0. -1.
         23    2    1    0    0    0  0.94239563879E+01 -0.41422622577E+01  0.26920380281E+02  0.96178546791E+02  0.91758578333E+02 0.  0.
         11    1    3    3    0    0  0.35208029914E+02  0.11495955568E+02  0.47081865158E+02  0.59903792800E+02  0.51100000000E-03 0.  1.
         22    1    1    0    0    0 -0.94239563879E+01  0.41422622577E+01 -0.26920380281E+02  0.28821453209E+02  0.00000000000E+00 0.  1.
</event>
<event>
 5    1  0.1102386E-009  0.9118800E+02  0.7818608E-02  0.1130116E+00
         25   -1    0    0    0    0  0.00000000000E+00  0.00000000000E+00  0.99999998245E-14  0.12500000000E+03  0.12500000000E+03 0.  0.
        -11    1    3    3    0    0 -0.77766338899E+01  0.45964594339E+02  0.14123227615E+02  0.48710219933E+02  0.51100000000E-03 0.  1.
         23    2    1    0    0    0 -0.33216766597E+02  0.27848630165E+02  0.43444663913E+01  0.81436550028E+02  0.68805068904E+02 0.  0.
         11    1    3    3    0    0 -0.25440132707E+02 -0.18115964174E+02 -0.97787612238E+01  0.32726330094E+02  0.51100000000E-03 0. -1.
         22    1    1    0    0    0  0.33216766597E+02 -0.27848630165E+02 -0.43444663913E+01  0.43563449972E+02  0.00000000000E+00 0. -1.
</event>
<event>
 5    1  0.1102386E-009  0.9118800E+02  0.7818608E-02  0.1130116E+00
         25   -1    0    0    0    0  0.00000000000E+00  0.00000000000E+00  0.99999998245E-14  0.12500000000E+03  0.12500000000E+03 0.  0.
        -11    1    3    3    0    0 -0.44579267566E+02 -0.34647686158E+02 -0.24918600632E+02  0.61714746297E+02  0.51100000000E-03 0. -1.
         23    2    1    0    0    0 -0.14726451483E+02 -0.12214703140E+02 -0.15881004915E+02  0.10013489065E+03  0.96998570410E+02 0.  0.
         11    1    3    3    0    0  0.29852816083E+02  0.22432983019E+02  0.90375957168E+01  0.38420144349E+02  0.51100000000E-03 0.  1.
         22    1    1    0    0    0  0.14726451483E+02  0.12214703140E+02  0.15881004915E+02  0.24865109354E+02  0.00000000000E+00 0. -1.
</event>
<event>
 5    1  0.1102386E-009  0.9118800E+02  0.7818608E-02  0.1130116E+00
         25   -1    0    0    0    0  0.00000000000E+00  0.00000000000E+00  0.99999998245E-14  0.12500000000E+03  0.12500000000E+03 0.  0.
        -11    1    3    3    0    0 -0.35442468454E+01  0.56592551585E+02  0.24148906066E+02  0.61631552350E+02  0.51100000000E-03 0. -1.
         23    2    1    0    0    0 -0.62415833013E+01  0.28546554245E+02  0.59323316806E+01  0.95182963250E+02  0.90392150171E+02 0.  0.
         11    1    3    3    0    0 -0.26973364559E+01 -0.28045997340E+02 -0.18216574385E+02  0.33551410900E+02  0.51100000000E-03 0.  1.
         22    1    1    0    0    0  0.62415833013E+01 -0.28546554245E+02 -0.59323316806E+01  0.29817036750E+02  0.00000000000E+00 0. -1.
</event>
<event>
 5    1  0.1102386E-009  0.9118800E+02  0.7818608E-02  0.1130116E+00
         25   -1    0    0    0    0  0.00000000000E+00  0.00000000000E+00  0.99999998245E-14  0.12500000000E+03  0.12500000000E+03 0.  0.
        -11    1    3    3    0    0  0.14779609196E+01 -0.19549373881E+02 -0.31549363155E+02  0.37144645689E+02  0.51100000000E-03 0. -1.
         23    2    1    0    0    0  0.12743794344E+02 -0.35849675099E+01  0.24855978299E+02  0.96838395934E+02  0.92653111030E+02 0.  0.
         11    1    3    3    0    0  0.11265833425E+02  0.15964406371E+02  0.56405341454E+02  0.59693750245E+02  0.51100000000E-03 0.  1.
         22    1    1    0    0    0 -0.12743794344E+02  0.35849675099E+01 -0.24855978299E+02  0.28161604066E+02  0.00000000000E+00 0.  1.
</event>
<event>
 5    1  0.1102386E-009  0.9118800E+02  0.7818608E-02  0.1130116E+00
         25   -1    0    0    0    0  0.00000000000E+00  0.00000000000E+00  0.99999998245E-14  0.12500000000E+03  0.12500000000E+03 0.  0.
        -11    1    3    3    0    0 -0.47246181917E+02  0.89889988400E+01  0.35782845257E+02  0.59945106729E+02  0.51100000000E-03 0.  1.
         23    2    1    0    0    0 -0.10191123422E+02  0.10629426121E+02  0.19777758458E+02  0.10034227452E+03  0.97265454452E+02 0.  0.
         11    1    3    3    0    0  0.37055058495E+02  0.16404272807E+01 -0.16005086799E+02  0.40397167790E+02  0.51100000000E-03 0. -1.
         22    1    1    0    0    0  0.10191123422E+02 -0.10629426121E+02 -0.19777758458E+02  0.24657725481E+02  0.00000000000E+00 0.  1.
</event>
<event>
 5    1  0.1102386E-009  0.9118800E+02  0.7818608E-02  0.1130116E+00
         25   -1    0    0    0    0  0.00000000000E+00  0.00000000000E+00  0.99999998245E-14  0.12500000000E+03  0.12500000000E+03 0.  0.
        -11    1    3    3    0    0  0.20580073422E+02 -0.55193685395E+02  0.17935073604E+02  0.61575556798E+02  0.51100000000E-03 0.  1.
         23    2    1    0    0    0  0.94826942653E+01 -0.27892459905E+02  0.10923366519E+01  0.95519429967E+02  0.90856246301E+02 0.  0.
         11    1    3    3    0    0 -0.11097379157E+02  0.27301225490E+02 -0.16842736952E+02  0.33943873169E+02  0.51100000000E-03 0. -1.
         22    1    1    0    0    0 -0.94826942653E+01  0.27892459905E+02 -0.10923366519E+01  0.29480570033E+02  0.00000000000E+00 0.  1.
</event>
<event>
 5    1  0.1102386E-009  0.9118800E+02  0.7818608E-02  0.1130116E+00
         25   -1    0    0    0    0  0.00000000000E+00  0.00000000000E+00  0.99999998245E-14  0.12500000000E+03  0.12500000000E+03 0.  0.
        -11    1    3    3    0    0 -0.84664305833E+01 -0.13710085998E+02  0.40017581668E+02  0.43139932171E+02  0.51100000000E-03 0.  1.
         23    2    1    0    0    0 -0.14857694357E+02  0.24949847982E+02  0.53217301814E+01  0.95477689656E+02  0.90798801831E+02 0.  0.
         11    1    3    3    0    0 -0.63912637734E+01  0.38659933980E+02 -0.34695851486E+02  0.52337757485E+02  0.51100000000E-03 0. -1.
         22    1    1    0    0    0  0.14857694357E+02 -0.24949847982E+02 -0.53217301814E+01  0.29522310344E+02  0.00000000000E+00 0.  1.
</event>
<event>
 5    1  0.1102386E-009  0.9118800E+02  0.7818608E-02  0.1130116E+00
         25   -1    0    0    0    0  0.00000000000E+00  0.00000000000E+00  0.99999998245E-14  0.12500000000E+03  0.12500000000E+03 0.  0.
        -11    1    3    3    0    0  0.10618993690E+02 -0.30374710602E+02 -0.15326398237E+02  0.35641051533E+02  0.51100000000E-03 0.  1.
         23    2    1    0    0    0  0.16351756557E+02  0.16605854502E+02  0.19669923828E+02  0.94503438725E+02  0.89447524735E+02 0.  0.
         11    1    3    3    0    0  0.57327628663E+01  0.46980565105E+02  0.34996322065E+02  0.58862387192E+02  0.51100000000E-03 0. -1.
         22    1    1    0    0    0 -0.16351756557E+02 -0.16605854502E+02 -0.19669923828E+02  0.30496561275E+02  0.00000000000E+00 0. -1.
</event>
<event>
 5    1  0.1102386E-009  0.9118800E+02  0.7818608E-02  0.1130116E+00
         25   -1    0    0    0    0  0.00000000000E+00  0.00000000000E+00  0.99999998245E-14  0.12500000000E+03  0.12500000000E+03 0.  0.
        -11    1    3    3    0    0 -0.38056498254E+02  0.22394910287E+02  0.27079827028E+02  0.51799093605E+02  0.51100000000E-03 0. -1.
         23    2    1    0    0    0 -0.35535398662E+01  0.29497097062E+02  0.16527164013E+01  0.95243692228E+02  0.90476091080E+02 0.  0.
         11    1    3    3    0    0  0.34502958388E+02  0.71021867750E+01 -0.25427110627E+02  0.43444598624E+02  0.51100000000E-03 0.  1.
         22    1    1    0    0    0  0.35535398662E+01 -0.29497097062E+02 -0.16527164013E+01  0.29756307772E+02  0.00000000000E+00 0. -1.
</event>
<event>
 5    1  0.1102386E-009  0.9118800E+02  0.7818608E-02  0.1130116E+00
         25   -1    0    0    0    0  0.00000000000E+00  0.00000000000E+00  0.99999998245E-14  0.12500000000E+03  0.12500000000E+03 0.  0.
        -11    1    3    3    0    0  0.16749572626E+02  0.47674280277E+02  0.17401944707E+02  0.53443548375E+02  0.51100000000E-03 0. -1.
         23    2    1    0    0    0  0.25506105671E+01  0.14815201801E+02  0.30042982314E+02  0.91405705768E+02  0.85008390421E+02 0.  0.
         11    1    3    3    0    0 -0.14198962059E+02 -0.32859078476E+02  0.12641037607E+02  0.37962157392E+02  0.51100000000E-03 0.  1.
         22    1    1    0    0    0 -0.25506105671E+01 -0.14815201801E+02 -0.30042982314E+02  0.33594294232E+02  0.00000000000E+00 0. -1.
</event>
<event>
 5    1  0.1102386E-009  0.9118800E+02  0.7818608E-02  0.1130116E+00
         25   -1    0    0    0    0  0.00000000000E+00  0.00000000000E+00  0.99999998245E-14  0.12500000000E+03  0.12500000000E+03 0.  0.
        -11    1    3    3    0    0  0.21772561882E+02  0.34793278043E+01 -0.56937506579E+02  0.61057594356E+02  0.51100000000E-03 0. -1.
         23    2    1    0    0    0  0.12190611730E+02  0.10799910390E+02 -0.25343295335E+02  0.94874733243E+02  0.89964900437E+02 0.  0.
         11    1    3    3    0    0 -0.95819501521E+01  0.73205825853E+01  0.31594211244E+02  0.33817138887E+02  0.51100000000E-03 0.  1.
         22    1    1    0    0    0 -0.12190611730E+02 -0.10799910390E+02  0.25343295335E+02  0.30125266757E+02  0.00000000000E+00 0. -1.
</event>
<event>
 5    1  0.1102386E-009  0.9118800E+02  0.7818608E-02  0.1130116E+00
         25   -1    0    0    0    0  0.00000000000E+00  0.00000000000E+00  0.99999998245E-14  0.12500000000E+03  0.12500000000E+03 0.  0.
        -11    1    3    3    0    0  0.33504513136E+02 -0.12248370328E+02 -0.97599928697E+01  0.36984218760E+02  0.51100000000E-03 0. -1.
         23    2    1    0    0    0 -0.25254400563E+02 -0.11988138686E+02 -0.85875580984E+01  0.95755404413E+02  0.91180321908E+02 0.  0.
         11    1    3    3    0    0 -0.58758913699E+02  0.26023164153E+00  0.11724347713E+01  0.58771185654E+02  0.51100000000E-03 0.  1.
         22    1    1    0    0    0  0.25254400563E+02  0.11988138686E+02  0.85875580984E+01  0.29244595587E+02  0.00000000000E+00 0.  1.
</event>
<event>
 5    1  0.1102386E-009  0.9118800E+02  0.7818608E-02  0.1130116E+00
         25   -1    0    0    0    0  0.00000000000E+00  0.00000000000E+00  0.99999998245E-14  0.12500000000E+03  0.12500000000E+03 0.  0.
        -11    1    3    3    0    0 -0.48169639280E+02 -0.37650004809E+02 -0.30344779473E+01  0.61213111889E+02  0.51100000000E-03 0.  1.
         23    2    1    0    0    0 -0.20962665497E+02 -0.17822766148E+02  0.74875907284E+01  0.96484243779E+02  0.92174079571E+02 0.  0.
         11    1    3    3    0    0  0.27206973783E+02  0.19827238660E+02  0.10522068676E+02  0.35271131890E+02  0.51100000000E-03 0. -1.
         22    1    1    0    0    0  0.20962665497E+02  0.17822766148E+02 -0.74875907284E+01  0.28515756221E+02  0.00000000000E+00 0.  1.
</event>
<event>
 5    1  0.1102386E-009  0.9118800E+02  0.7818608E-02  0.1130116E+00
         25   -1    0    0    0    0  0.00000000000E+00  0.00000000000E+00  0.99999998245E-14  0.12500000000E+03  0.12500000000E+03 0.  0.
        -11    1    3    3    0    0 -0.27757413922E+02 -0.15344496386E+02  0.37323817295E+02  0.48979535877E+02  0.51100000000E-03 0.  1.
         23    2    1    0    0    0 -0.28745893423E+02 -0.40703436628E+01 -0.73391568435E+01  0.95054093612E+02  0.90213765041E+02 0.  0.
         11    1    3    3    0    0 -0.98847950153E+00  0.11274152723E+02 -0.44662974138E+02  0.46074557735E+02  0.51100000000E-03 0. -1.
         22    1    1    0    0    0  0.28745893423E+02  0.40703436628E+01  0.73391568435E+01  0.29945906388E+02  0.00000000000E+00 0.  1.
</event>
<event>
 5    1  0.1102386E-009  0.9118800E+02  0.7818608E-02  0.1130116E+00
         25   -1    0    0    0    0  0.00000000000E+00  0.00000000000E+00  0.99999998245E-14  0.12500000000E+03  0.12500000000E+03 0.  0.
        -11    1    3    3    0    0 -0.33021483024E+02  0.15084515994E+02 -0.25472051758E+02  0.44348465418E+02  0.51100000000E-03 0. -1.
         23    2    1    0    0    0  0.67001551943E+01 -0.19425578799E+02 -0.18356393269E+02  0.97446372922E+02  0.93469745001E+02 0.  0.
         11    1    3    3    0    0  0.39721638218E+02 -0.34510094793E+02  0.71156584891E+01  0.53097907504E+02  0.51100000000E-03 0.  1.
         22    1    1    0    0    0 -0.67001551943E+01  0.19425578799E+02  0.18356393269E+02  0.27553627078E+02  0.00000000000E+00 0.  1.
</event>
<event>
 5    1  0.1102386E-009  0.9118800E+02  0.7818608E-02  0.1130116E+00
         25   -1    0    0    0    0  0.00000000000E+00  0.00000000000E+00  0.99999998245E-14  0.12500000000E+03  0.12500000000E+03 0.  0.
        -11    1    3    3    0    0 -0.13986566632E+02  0.17155754587E+02  0.16411480442E+02  0.27555047671E+02  0.51100000000E-03 0. -1.
         23    2    1    0    0    0  0.88907707972E+01  0.80716120273E+01 -0.36857219587E+02  0.86235952717E+02  0.77032383964E+02 0.  0.
         11    1    3    3    0    0  0.22877337430E+02 -0.90841425600E+01 -0.53268700029E+02  0.58680905045E+02  0.51100000000E-03 0.  1.
         22    1    1    0    0    0 -0.88907707972E+01 -0.80716120273E+01  0.36857219587E+02  0.38764047283E+02  0.00000000000E+00 0.  1.
</event>
<event>
 5    1  0.1102386E-009  0.9118800E+02  0.7818608E-02  0.1130116E+00
         25   -1    0    0    0    0  0.00000000000E+00  0.00000000000E+00  0.99999998245E-14  0.12500000000E+03  0.12500000000E+03 0.  0.
        -11    1    3    3    0    0  0.28957405022E+02 -0.42411870037E+02  0.20023846981E+02  0.55120345371E+02  0.51100000000E-03 0.  1.
         23    2    1    0    0    0  0.28378958578E+02 -0.43316070766E+01  0.62448127971E+01  0.95620997350E+02  0.90995875387E+02 0.  0.
         11    1    3    3    0    0 -0.57844644373E+00  0.38080262960E+02 -0.13779034184E+02  0.40500651979E+02  0.51100000000E-03 0. -1.
         22    1    1    0    0    0 -0.28378958578E+02  0.43316070766E+01 -0.62448127971E+01  0.29379002650E+02  0.00000000000E+00 0.  1.
</event>
<event>
 5    1  0.1102386E-009  0.9118800E+02  0.7818608E-02  0.1130116E+00
         25   -1    0    0    0    0  0.00000000000E+00  0.00000000000E+00  0.99999998245E-14  0.12500000000E+03  0.12500000000E+03 0.  0.
        -11    1    3    3    0    0  0.35226675907E+01  0.40718395468E+02  0.15966838853E+02  0.43878660641E+02  0.51100000000E-03 0.  1.
         23    2    1    0    0    0  0.25679191121E+02 -0.62730113875E+01  0.11960415765E+02  0.95985812543E+02  0.91495645447E+02 0.  0.
         11    1    3    3    0    0  0.22156523530E+02 -0.46991406855E+02 -0.40064230873E+01  0.52107151903E+02  0.51100000000E-03 0. -1.
         22    1    1    0    0    0 -0.25679191121E+02  0.62730113875E+01 -0.11960415765E+02  0.29014187457E+02  0.00000000000E+00 0. -1.
</event>
<event>
 5    1  0.1102386E-009  0.9118800E+02  0.7818608E-02  0.1130116E+00
         25   -1    0    0    0    0  0.00000000000E+00  0.00000000000E+00  0.99999998245E-14  0.12500000000E+03  0.12500000000E+03 0.  0.
        -11    1    3    3    0    0  0.50908695997E+02  0.70827710833E+00 -0.10670289616E+02  0.52019727656E+02  0.51100000000E-03 0. -1.
         23    2    1    0    0    0  0.19112325750E+02 -0.19105763829E+02  0.11586199731E+02  0.95596747948E+02  0.90962558160E+02 0.  0.
         11    1    3    3    0    0 -0.31796370248E+02 -0.19814040937E+02  0.22256489347E+02  0.43577020292E+02  0.51100000000E-03 0.  1.
         22    1    1    0    0    0 -0.19112325750E+02  0.19105763829E+02 -0.11586199731E+02  0.29403252052E+02  0.00000000000E+00 0. -1.
</event>
<event>
 5    1  0.1102386E-009  0.9118800E+02  0.7818608E-02  0.1130116E+00
         25   -1    0    0    0    0  0.00000000000E+00  0.00000000000E+00  0.99999998245E-14  0.12500000000E+03  0.12500000000E+03 0.  0.
        -11    1    3    3    0    0 -0.20432727285E+02 -0.28698697151E+02 -0.26796062431E+01  0.35331173945E+02  0.51100000000E-03 0.  1.
         23    2    1    0    0    0  0.20523884763E+02  0.11665677833E+02 -0.18540032287E+02  0.94982493737E+02  0.90114501797E+02 0.  0.
         11    1    3    3    0    0  0.40956612049E+02  0.40364374983E+02 -0.15860426044E+02  0.59651319791E+02  0.51100000000E-03 0. -1.
         22    1    1    0    0    0 -0.20523884763E+02 -0.11665677833E+02  0.18540032287E+02  0.30017506263E+02  0.00000000000E+00 0. -1.
</event>
<event>
 5    1  0.1102386E-009  0.9118800E+02  0.7818608E-02  0.1130116E+00
         25   -1    0    0    0    0  0.00000000000E+00  0.00000000000E+00  0.99999998245E-14  0.12500000000E+03  0.12500000000E+03 0.  0.
        -11    1    3    3    0    0  0.20699214872E+02 -0.18634443549E+02  0.23141434590E+02  0.36210854420E+02  0.51100000000E-03 0. -1.
         23    2    1    0    0    0  0.10528259645E+02  0.31785186515E+02  0.32472158380E+01  0.91359447929E+02  0.84940343666E+02 0.  0.
         11    1    3    3    0    0 -0.10170955227E+02  0.50419630064E+02 -0.19894218752E+02  0.55148593509E+02  0.51100000000E-03 0.  1.
         22    1    1    0    0    0 -0.10528259645E+02 -0.31785186515E+02 -0.32472158380E+01  0.33640552071E+02  0.00000000000E+00 0.  1.
</event>
<event>
 5    1  0.1102386E-009  0.9118800E+02  0.7818608E-02  0.1130116E+00
         25   -1    0    0    0    0  0.00000000000E+00  0.00000000000E+00  0.99999998245E-14  0.12500000000E+03  0.12500000000E+03 0.  0.
        -11    1    3    3    0    0  0.53183117620E+02 -0.12728658337E+02 -0.28241346915E+02  0.61547026075E+02  0.51100000000E-03 0.  1.
         23    2    1    0    0    0  0.20096819524E+02 -0.10366364791E+02 -0.17477131566E+02  0.96420395354E+02  0.92087452123E+02 0.  0.
         11    1    3    3    0    0 -0.33086298096E+02  0.23622935458E+01  0.10764215349E+02  0.34873369279E+02  0.51100000000E-03 0. -1.
         22    1    1    0    0    0 -0.20096819524E+02  0.10366364791E+02  0.17477131566E+02  0.28579604646E+02  0.00000000000E+00 0.  1.
</event>
<event>
 5    1  0.1102386E-009  0.9118800E+02  0.7818608E-02  0.1130116E+00
         25   -1    0    0    0    0  0.00000000000E+00  0.00000000000E+00  0.99999998245E-14  0.12500000000E+03  0.12500000000E+03 0.  0.
        -11    1    3    3    0    0  0.20517263374E+01 -0.14867609399E+02  0.54816518684E+01  0.15978231995E+02  0.51100000000E-03 0.  1.
         23    2    1    0    0    0  0.74066421064E+01  0.24852632099E+02 -0.40458118257E+02  0.76944084626E+02  0.60091772785E+02 0.  0.
         11    1    3    3    0    0  0.53549157690E+01  0.39720241499E+02 -0.45939770125E+02  0.60965852631E+02  0.51100000000E-03 0. -1.
         22    1    1    0    0    0 -0.74066421064E+01 -0.24852632099E+02  0.40458118257E+02  0.48055915374E+02  0.00000000000E+00 0. -1.
</event>
<event>
 5    1  0.1102386E-009  0.9118800E+02  0.7818608E-02  0.1130116E+00
         25   -1    0    0    0    0  0.00000000000E+00  0.00000000000E+00  0.99999998245E-14  0.12500000000E+03  0.12500000000E+03 0.  0.
        -11    1    3    3    0    0  0.42927890016E+02 -0.18968799877E+01  0.31719426657E+02  0.53409024730E+02  0.51100000000E-03 0.  1.
         23    2    1    0    0    0 -0.93094420956E+00 -0.10538866769E+02  0.23998269624E+02  0.98773080340E+02  0.95227464972E+02 0.  0.
         11    1    3    3    0    0 -0.43858834226E+02 -0.86419867815E+01 -0.77211570328E+01  0.45364055610E+02  0.51100000000E-03 0. -1.
         22    1    1    0    0    0  0.93094420956E+00  0.10538866769E+02 -0.23998269624E+02  0.26226919660E+02  0.00000000000E+00 0.  1.
</event>
<event>
 5    1  0.1102386E-009  0.9118800E+02  0.7818608E-02  0.1130116E+00
         25   -1    0    0    0    0  0.00000000000E+00  0.00000000000E+00  0.99999998245E-14  0.12500000000E+03  0.12500000000E+03 0.  0.
        -11    1    3    3    0    0 -0.19229129737E+02  0.33189856015E+02  0.39275033328E+02  0.54898581183E+02  0.51100000000E-03 0.  1.
         23    2    1    0    0    0 -0.17894275247E+02  0.21347425239E+02 -0.12271592192E+01  0.97117683549E+02  0.93029139990E+02 0.  0.
         11    1    3    3    0    0  0.13348544899E+01 -0.11842430776E+02 -0.40502192547E+02  0.42219102366E+02  0.51100000000E-03 0. -1.
         22    1    1    0    0    0  0.17894275247E+02 -0.21347425239E+02  0.12271592192E+01  0.27882316451E+02  0.00000000000E+00 0.  1.
</event>
<event>
 5    1  0.1102386E-009  0.9118800E+02  0.7818608E-02  0.1130116E+00
         25   -1    0    0    0    0  0.00000000000E+00  0.00000000000E+00  0.99999998245E-14  0.12500000000E+03  0.12500000000E+03 0.  0.
        -11    1    3    3    0    0 -0.52852106857E+02  0.15963918752E+02 -0.13444052303E+02  0.56823713745E+02  0.51100000000E-03 0. -1.
         23    2    1    0    0    0 -0.26892074424E+02 -0.11226749167E+02 -0.39980751529E+01  0.95585578901E+02  0.90947208452E+02 0.  0.
         11    1    3    3    0    0  0.25960032434E+02 -0.27190667919E+02  0.94459771502E+01  0.38761865156E+02  0.51100000000E-03 0.  1.
         22    1    1    0    0    0  0.26892074424E+02  0.11226749167E+02  0.39980751529E+01  0.29414421099E+02  0.00000000000E+00 0. -1.
</event>
<event>
 5    1  0.1102386E-009  0.9118800E+02  0.7818608E-02  0.1130116E+00
         25   -1    0    0    0    0  0.00000000000E+00  0.00000000000E+00  0.99999998245E-14  0.12500000000E+03  0.12500000000E+03 0.  0.
        -11    1    3    3    0    0 -0.22566135511E+01 -0.11418406584E+01 -0.40104507090E+02  0.40184170939E+02  0.51100000000E-03 0.  1.
         23    2    1    0    0    0 -0.22625079587E+01 -0.27307652873E+02  0.92781125323E+01  0.96070599386E+02  0.91611406749E+02 0.  0.
         11    1    3    3    0    0 -0.58944075815E-02 -0.26165812215E+02  0.49382619623E+02  0.55886428448E+02  0.51100000000E-03 0. -1.
         22    1    1    0    0    0  0.22625079587E+01  0.27307652873E+02 -0.92781125323E+01  0.28929400614E+02  0.00000000000E+00 0. -1.
</event>
<event>
 5    1  0.1102386E-009  0.9118800E+02  0.7818608E-02  0.1130116E+00
         25   -1    0    0    0    0  0.00000000000E+00  0.00000000000E+00  0.99999998245E-14  0.12500000000E+03  0.12500000000E+03 0.  0.
        -11    1    3    3    0    0  0.18019907750E+02 -0.96079085344E+01  0.49329190212E+02  0.53389118638E+02  0.51100000000E-03 0.  1.
         23    2    1    0    0    0  0.26528914094E+02  0.19976219398E+01  0.78979978412E+01  0.97248384798E+02  0.93204593232E+02 0.  0.
         11    1    3    3    0    0  0.85090063444E+01  0.11605530474E+02 -0.41431192371E+02  0.43859266160E+02  0.51100000000E-03 0. -1.
         22    1    1    0    0    0 -0.26528914094E+02 -0.19976219398E+01 -0.78979978412E+01  0.27751615202E+02  0.00000000000E+00 0.  1.
</event>
<event>
 5    1  0.1102386E-009  0.9118800E+02  0.7818608E-02  0.1130116E+00
         25   -1    0    0    0    0  0.00000000000E+00  0.00000000000E+00  0.99999998245E-14  0.12500000000E+03  0.12500000000E+03 0.  0.
        -11    1    3    3    0    0 -0.38396219683E+02  0.24057394739E+02  0.33957887956E+02  0.56623017248E+02  0.51100000000E-03 0. -1.
         23    2    1    0    0    0 -0.51888728313E+01  0.30664844557E+01  0.28001167203E+02  0.96357494996E+02  0.92002031222E+02 0.  0.
         11    1    3    3    0    0  0.33207346852E+02 -0.20990910283E+02 -0.59567207533E+01  0.39734477747E+02  0.51100000000E-03 0.  1.
         22    1    1    0    0    0  0.51888728313E+01 -0.30664844557E+01 -0.28001167203E+02  0.28642505004E+02  0.00000000000E+00 0. -1.
</event>
<event>
 5    1  0.1102386E-009  0.9118800E+02  0.7818608E-02  0.1130116E+00
         25   -1    0    0    0    0  0.00000000000E+00  0.00000000000E+00  0.99999998245E-14  0.12500000000E+03  0.12500000000E+03 0.  0.
        -11    1    3    3    0    0 -0.12170051840E+02 -0.67987259017E+01  0.51515594256E+02  0.53368429689E+02  0.51100000000E-03 0. -1.
         23    2    1    0    0    0 -0.42322378407E+01 -0.24599538583E+02  0.44300274682E+02  0.74151563716E+02  0.53971204629E+02 0.  0.
         11    1    3    3    0    0  0.79378139991E+01 -0.17800812681E+02 -0.72153195740E+01  0.20783134028E+02  0.51100000000E-03 0.  1.
         22    1    1    0    0    0  0.42322378407E+01  0.24599538583E+02 -0.44300274682E+02  0.50848436284E+02  0.00000000000E+00 0. -1.
</event>
<event>
 5    1  0.1102386E-009  0.9118800E+02  0.7818608E-02  0.1130116E+00
         25   -1    0    0    0    0  0.00000000000E+00  0.00000000000E+00  0.99999998245E-14  0.12500000000E+03  0.12500000000E+03 0.  0.
        -11    1    3    3    0    0 -0.23116697602E+00  0.39757879477E+02  0.12237052283E+02  0.41599133014E+02  0.51100000000E-03 0.  1.
         23    2    1    0    0    0 -0.12140496578E+02 -0.11486861196E+02  0.24235353082E+02  0.95560367252E+02  0.90912550360E+02 0.  0.
         11    1    3    3    0    0 -0.11909329602E+02 -0.51244740673E+02  0.11998300799E+02  0.53961234238E+02  0.51100000000E-03 0. -1.
         22    1    1    0    0    0  0.12140496578E+02  0.11486861196E+02 -0.24235353082E+02  0.29439632748E+02  0.00000000000E+00 0.  1.
</event>
<event>
 5    1  0.1102386E-009  0.9118800E+02  0.7818608E-02  0.1130116E+00
         25   -1    0    0    0    0  0.00000000000E+00  0.00000000000E+00  0.99999998245E-14  0.12500000000E+03  0.12500000000E+03 0.  0.
        -11    1    3    3    0    0 -0.69969412528E+01  0.28186899363E+02 -0.32670265220E+02  0.43712752286E+02  0.51100000000E-03 0. -1.
         23    2    1    0    0    0  0.13278026480E+02 -0.18148058859E+02 -0.17470610753E+02  0.96524040532E+02  0.92228033336E+02 0.  0.
         11    1    3    3    0    0  0.20274967732E+02 -0.46334958222E+02  0.15199654468E+02  0.52811288246E+02  0.51100000000E-03 0.  1.
         22    1    1    0    0    0 -0.13278026480E+02  0.18148058859E+02  0.17470610753E+02  0.28475959468E+02  0.00000000000E+00 0.  1.
</event>
<event>
 5    1  0.1102386E-009  0.9118800E+02  0.7818608E-02  0.1130116E+00
         25   -1    0    0    0    0  0.00000000000E+00  0.00000000000E+00  0.99999998245E-14  0.12500000000E+03  0.12500000000E+03 0.  0.
        -11    1    3    3    0    0  0.39453403052E+02  0.38948384703E+02  0.78735021961E+01  0.55995890211E+02  0.51100000000E-03 0.  1.
         23    2    1    0    0    0  0.13737892546E+02  0.31634803853E+02 -0.11087816878E+02  0.88772521624E+02  0.81044002899E+02 0.  0.
         11    1    3    3    0    0 -0.25715510506E+02 -0.73135808509E+01 -0.18961319074E+02  0.32776631413E+02  0.51100000000E-03 0. -1.
         22    1    1    0    0    0 -0.13737892546E+02 -0.31634803853E+02  0.11087816878E+02  0.36227478376E+02  0.00000000000E+00 0. -1.
</event>
<event>
 5    1  0.1102386E-009  0.9118800E+02  0.7818608E-02  0.1130116E+00
         25   -1    0    0    0    0  0.00000000000E+00  0.00000000000E+00  0.99999998245E-14  0.12500000000E+03  0.12500000000E+03 0.  0.
        -11    1    3    3    0    0 -0.22784900594E+02 -0.26268974208E+00  0.25556895813E+02  0.34239971157E+02  0.51100000000E-03 0.  1.
         23    2    1    0    0    0  0.11631626976E+01 -0.38530509772E+02 -0.66439001078E+00  0.86446212315E+02  0.77372818733E+02 0.  0.
         11    1    3    3    0    0  0.23948063292E+02 -0.38267820030E+02 -0.26221285824E+02  0.52206241158E+02  0.51100000000E-03 0. -1.
         22    1    1    0    0    0 -0.11631626976E+01  0.38530509772E+02  0.66439001078E+00  0.38553787685E+02  0.00000000000E+00 0. -1.
</event>
<event>
 5    1  0.1102386E-009  0.9118800E+02  0.7818608E-02  0.1130116E+00
         25   -1    0    0    0    0  0.00000000000E+00  0.00000000000E+00  0.99999998245E-14  0.12500000000E+03  0.12500000000E+03 0.  0.
        -11    1    3    3    0    0  0.42618002806E+01  0.33825028075E+02 -0.23674314163E+02  0.41506247931E+02  0.51100000000E-03 0. -1.
         23    2    1    0    0    0  0.11187662515E+02 -0.34470722010E+01  0.21524044933E+02  0.10049835496E+03  0.97465833708E+02 0.  0.
         11    1    3    3    0    0  0.69258622346E+01 -0.37272100276E+02  0.45198359096E+02  0.58992107031E+02  0.51100000000E-03 0.  1.
         22    1    1    0    0    0 -0.11187662515E+02  0.34470722010E+01 -0.21524044933E+02  0.24501645038E+02  0.00000000000E+00 0.  1.
</event>
<event>
 5    1  0.1102386E-009  0.9118800E+02  0.7818608E-02  0.1130116E+00
         25   -1    0    0    0    0  0.00000000000E+00  0.00000000000E+00  0.99999998245E-14  0.12500000000E+03  0.12500000000E+03 0.  0.
        -11    1    3    3    0    0 -0.14848610361E+02 -0.46448157355E+02 -0.66226463476E+01  0.49211502682E+02  0.51100000000E-03 0. -1.
         23    2    1    0    0    0 -0.20957519297E+00 -0.15033154344E+02  0.24803139369E+02  0.95995942115E+02  0.91509483272E+02 0.  0.
         11    1    3    3    0    0  0.14639035168E+02  0.31415003012E+02  0.31425785716E+02  0.46784439432E+02  0.51100000000E-03 0.  1.
         22    1    1    0    0    0  0.20957519297E+00  0.15033154344E+02 -0.24803139369E+02  0.29004057885E+02  0.00000000000E+00 0.  1.
</event>
<event>
 5    1  0.1102386E-009  0.9118800E+02  0.7818608E-02  0.1130116E+00
         25   -1    0    0    0    0  0.00000000000E+00  0.00000000000E+00  0.99999998245E-14  0.12500000000E+03  0.12500000000E+03 0.  0.
        -11    1    3    3    0    0 -0.23774899226E+02 -0.31978082173E+02 -0.21356758859E+02  0.45210117473E+02  0.51100000000E-03 0. -1.
         23    2    1    0    0    0 -0.41423563397E+01  0.12506220928E+02  0.14337315414E+02  0.10552891140E+03  0.10371705670E+03 0.  0.
         11    1    3    3    0    0  0.19632542887E+02  0.44484303101E+02  0.35694074273E+02  0.60318793929E+02  0.51100000000E-03 0.  1.
         22    1    1    0    0    0  0.41423563397E+01 -0.12506220928E+02 -0.14337315414E+02  0.19471088599E+02  0.00000000000E+00 0.  1.
</event>
<event>
 5    1  0.1102386E-009  0.9118800E+02  0.7818608E-02  0.1130116E+00
         25   -1    0    0    0    0  0.00000000000E+00  0.00000000000E+00  0.99999998245E-14  0.12500000000E+03  0.12500000000E+03 0.  0.
        -11    1    3    3    0    0 -0.42614458082E+02 -0.20278735374E+02 -0.36186992043E+02  0.59470308048E+02  0.51100000000E-03 0. -1.
         23    2    1    0    0    0 -0.23454403396E+02  0.38834199235E+01 -0.16660265653E+02  0.95969766784E+02  0.91473721341E+02 0.  0.
         11    1    3    3    0    0  0.19160054686E+02  0.24162155298E+02  0.19526726391E+02  0.36499458735E+02  0.51100000000E-03 0.  1.
         22    1    1    0    0    0  0.23454403396E+02 -0.38834199235E+01  0.16660265653E+02  0.29030233216E+02  0.00000000000E+00 0. -1.
</event>
<event>
 5    1  0.1102386E-009  0.9118800E+02  0.7818608E-02  0.1130116E+00
         25   -1    0    0    0    0  0.00000000000E+00  0.00000000000E+00  0.99999998245E-14  0.12500000000E+03  0.12500000000E+03 0.  0.
        -11    1    3    3    0    0 -0.15706930546E+02  0.22533508106E+01 -0.32608437189E+02  0.36264244557E+02  0.51100000000E-03 0. -1.
         23    2    1    0    0    0 -0.11213839869E+02 -0.63098432747E+01  0.26172624131E+02  0.95835456790E+02  0.91290000534E+02 0.  0.
         11    1    3    3    0    0  0.44930906772E+01 -0.85631940853E+01  0.58781061320E+02  0.59571212233E+02  0.51100000000E-03 0.  1.
         22    1    1    0    0    0  0.11213839869E+02  0.63098432747E+01 -0.26172624131E+02  0.29164543210E+02  0.00000000000E+00 0.  1.
</event>
<event>
 5    1  0.1102386E-009  0.9118800E+02  0.7818608E-02  0.1130116E+00
         25   -1    0    0    0    0  0.00000000000E+00  0.00000000000E+00  0.99999998245E-14  0.12500000000E+03  0.12500000000E+03 0.  0.
        -11    1    3    3    0    0  0.14869545283E+02 -0.32785266914E+02 -0.12920318051E+02  0.38248029000E+02  0.51100000000E-03 0.  1.
         23    2    1    0    0    0 -0.21261221251E+02  0.56377385085E+00  0.18677262249E+02  0.96694567745E+02  0.92458866185E+02 0.  0.
         11    1    3    3    0    0 -0.36130766534E+02  0.33349040765E+02  0.31597580300E+02  0.58446538745E+02  0.51100000000E-03 0. -1.
         22    1    1    0    0    0  0.21261221251E+02 -0.56377385085E+00 -0.18677262249E+02  0.28305432255E+02  0.00000000000E+00 0. -1.
</event>
<event>
 5    1  0.1102386E-009  0.9118800E+02  0.7818608E-02  0.1130116E+00
         25   -1    0    0    0    0  0.00000000000E+00  0.00000000000E+00  0.99999998245E-14  0.12500000000E+03  0.12500000000E+03 0.  0.
        -11    1    3    3    0    0  0.10818088652E+01 -0.20650180090E+02  0.53486078294E+02  0.57344230919E+02  0.51100000000E-03 0.  1.
         23    2    1    0    0    0  0.13295512661E+02  0.33297897750E+01  0.24710777302E+02  0.96742599700E+02  0.92523780322E+02 0.  0.
         11    1    3    3    0    0  0.12213703796E+02  0.23979969865E+02 -0.28775300992E+02  0.39398368781E+02  0.51100000000E-03 0. -1.
         22    1    1    0    0    0 -0.13295512661E+02 -0.33297897750E+01 -0.24710777302E+02  0.28257400300E+02  0.00000000000E+00 0.  1.
</event>
<event>
 5    1  0.1102386E-009  0.9118800E+02  0.7818608E-02  0.1130116E+00
         25   -1    0    0    0    0  0.00000000000E+00  0.00000000000E+00  0.99999998245E-14  0.12500000000E+03  0.12500000000E+03 0.  0.
        -11    1    3    3    0    0  0.82876027983E+01  0.27613673155E+02  0.44119333684E+02  0.52704031252E+02  0.51100000000E-03 0.  1.
         23    2    1    0    0    0  0.40367427027E+01  0.28556342139E+02  0.89629394728E+00  0.96145826804E+02  0.91713994030E+02 0.  0.
         11    1    3    3    0    0 -0.42508600957E+01  0.94266898398E+00 -0.43223039737E+02  0.43441795552E+02  0.51100000000E-03 0. -1.
         22    1    1    0    0    0 -0.40367427027E+01 -0.28556342139E+02 -0.89629394728E+00  0.28854173196E+02  0.00000000000E+00 0.  1.
</event>
<event>
 5    1  0.1102386E-009  0.9118800E+02  0.7818608E-02  0.1130116E+00
         25   -1    0    0    0    0  0.00000000000E+00  0.00000000000E+00  0.99999998245E-14  0.12500000000E+03  0.12500000000E+03 0.  0.
        -11    1    3    3    0    0  0.42675842119E+01 -0.12412627513E+02  0.39211324067E+02  0.41349891561E+02  0.51100000000E-03 0. -1.
         23    2    1    0    0    0 -0.28953717585E+02 -0.91934687341E+01 -0.22055892905E+01  0.94541794973E+02  0.89501110291E+02 0.  0.
         11    1    3    3    0    0 -0.33221301797E+02  0.32191587784E+01 -0.41416913357E+02  0.53191903412E+02  0.51100000000E-03 0.  1.
         22    1    1    0    0    0  0.28953717585E+02  0.91934687341E+01  0.22055892905E+01  0.30458205027E+02  0.00000000000E+00 0.  1.
</event>
<event>
 5    1  0.1102386E-009  0.9118800E+02  0.7818608E-02  0.1130116E+00
         25   -1    0    0    0    0  0.00000000000E+00  0.00000000000E+00  0.99999998245E-14  0.12500000000E+03  0.12500000000E+03 0.  0.
        -11    1    3    3    0    0 -0.25954767495E+02 -0.47699967478E+02 -0.71213074695E+01  0.54769059454E+02  0.51100000000E-03 0. -1.
         23    2    1    0    0    0  0.67877955197E+01 -0.23499614105E+02 -0.15093818488E+02  0.96257533376E+02  0.91866116409E+02 0.  0.
         11    1    3    3    0    0  0.32742563015E+02  0.24200353373E+02 -0.79725110186E+01  0.41488473922E+02  0.51100000000E-03 0.  1.
         22    1    1    0    0    0 -0.67877955197E+01  0.23499614105E+02  0.15093818488E+02  0.28742466624E+02  0.00000000000E+00 0. -1.
</event>
<event>
 5    1  0.1102386E-009  0.9118800E+02  0.7818608E-02  0.1130116E+00
         25   -1    0    0    0    0  0.00000000000E+00  0.00000000000E+00  0.99999998245E-14  0.12500000000E+03  0.12500000000E+03 0.  0.
        -11    1    3    3    0    0  0.10378835917E+02  0.17204416678E+02  0.53337307729E+02  0.56996320795E+02  0.51100000000E-03 0. -1.
         23    2    1    0    0    0  0.21739511363E+02  0.10042841336E+02  0.17291596875E+02  0.95462492676E+02  0.90777878192E+02 0.  0.
         11    1    3    3    0    0  0.11360675446E+02 -0.71615753417E+01 -0.36045710854E+02  0.38466171881E+02  0.51100000000E-03 0.  1.
         22    1    1    0    0    0 -0.21739511363E+02 -0.10042841336E+02 -0.17291596875E+02  0.29537507324E+02  0.00000000000E+00 0. -1.
</event>
<event>
 5    1  0.1102386E-009  0.9118800E+02  0.7818608E-02  0.1130116E+00
         25   -1    0    0    0    0  0.00000000000E+00  0.00000000000E+00  0.99999998245E-14  0.12500000000E+03  0.12500000000E+03 0.  0.
        -11    1    3    3    0    0 -0.30930419764E+02 -0.12560559604E+02 -0.97315398682E+01  0.34772998042E+02  0.51100000000E-03 0. -1.
         23    2    1    0    0    0  0.19610545456E+02 -0.11618939245E+02  0.21063101781E+02  0.93964093393E+02  0.88690604623E+02 0.  0.
         11    1    3    3    0    0  0.50540965220E+02  0.94162035895E+00  0.30794641650E+02  0.59191095351E+02  0.51100000000E-03 0.  1.
         22    1    1    0    0    0 -0.19610545456E+02  0.11618939245E+02 -0.21063101781E+02  0.31035906607E+02  0.00000000000E+00 0.  1.
</event>
<event>
 5    1  0.1102386E-009  0.9118800E+02  0.7818608E-02  0.1130116E+00
         25   -1    0    0    0    0  0.00000000000E+00  0.00000000000E+00  0.99999998245E-14  0.12500000000E+03  0.12500000000E+03 0.  0.
        -11    1    3    3    0    0 -0.34335363346E+02 -0.47114037763E+02 -0.18151490872E+02  0.61058384777E+02  0.51100000000E-03 0. -1.
         23    2    1    0    0    0 -0.22398596306E+02 -0.20648117929E+02 -0.15638471246E+01  0.94496106669E+02  0.89437277839E+02 0.  0.
         11    1    3    3    0    0  0.11936767040E+02  0.26465919833E+02  0.16587643748E+02  0.33437721892E+02  0.51100000000E-03 0.  1.
         22    1    1    0    0    0  0.22398596306E+02  0.20648117929E+02  0.15638471246E+01  0.30503893331E+02  0.00000000000E+00 0. -1.
</event>
<event>
 5    1  0.1102386E-009  0.9118800E+02  0.7818608E-02  0.1130116E+00
         25   -1    0    0    0    0  0.00000000000E+00  0.00000000000E+00  0.99999998245E-14  0.12500000000E+03  0.12500000000E+03 0.  0.
        -11    1    3    3    0    0  0.38146244951E+02  0.79168845987E+01 -0.36980708598E+01  0.39134240685E+02  0.51100000000E-03 0. -1.
         23    2    1    0    0    0 -0.97544985135E+01 -0.19896703158E+02 -0.18124835686E+02  0.96372413541E+02  0.92022298305E+02 0.  0.
         11    1    3    3    0    0 -0.47900743465E+02 -0.27813587757E+02 -0.14426764826E+02  0.57238172857E+02  0.51100000000E-03 0.  1.
         22    1    1    0    0    0  0.97544985135E+01  0.19896703158E+02  0.18124835686E+02  0.28627586459E+02  0.00000000000E+00 0.  1.
</event>
<event>
 5    1  0.1102386E-009  0.9118800E+02  0.7818608E-02  0.1130116E+00
         25   -1    0    0    0    0  0.00000000000E+00  0.00000000000E+00  0.99999998245E-14  0.12500000000E+03  0.12500000000E+03 0.  0.
        -11    1    3    3    0    0 -0.11111835199E+01 -0.28195386725E+02  0.20548895925E+02  0.34906613777E+02  0.51100000000E-03 0. -1.
         23    2    1    0    0    0 -0.17828839674E+02  0.21087409652E+02 -0.10443096358E+02  0.95477049072E+02  0.90797919955E+02 0.  0.
         11    1    3    3    0    0 -0.16717656154E+02  0.49282796376E+02 -0.30991992283E+02  0.60570435295E+02  0.51100000000E-03 0.  1.
         22    1    1    0    0    0  0.17828839674E+02 -0.21087409652E+02  0.10443096358E+02  0.29522950928E+02  0.00000000000E+00 0.  1.
</event>
<event>
 5    1  0.1102386E-009  0.9118800E+02  0.7818608E-02  0.1130116E+00
         25   -1    0    0    0    0  0.00000000000E+00  0.00000000000E+00  0.99999998245E-14  0.12500000000E+03  0.12500000000E+03 0.  0.
        -11    1    3    3    0    0  0.48034731899E+02  0.74254593170E+01 -0.95415338595E+01  0.49532956537E+02  0.51100000000E-03 0.  1.
         23    2    1    0    0    0  0.11286247806E+02  0.28195812445E+02  0.50834129097E+01  0.94206748860E+02  0.89031944912E+02 0.  0.
         11    1    3    3    0    0 -0.36748484093E+02  0.20770353128E+02  0.14624946769E+02  0.44673792322E+02  0.51100000000E-03 0. -1.
         22    1    1    0    0    0 -0.11286247806E+02 -0.28195812445E+02 -0.50834129097E+01  0.30793251140E+02  0.00000000000E+00 0. -1.
</event>
<event>
 5    1  0.1102386E-009  0.9118800E+02  0.7818608E-02  0.1130116E+00
         25   -1    0    0    0    0  0.00000000000E+00  0.00000000000E+00  0.99999998245E-14  0.12500000000E+03  0.12500000000E+03 0.  0.
        -11    1    3    3    0    0  0.34070693773E+02 -0.12583516186E+02 -0.39540080278E+02  0.53689617269E+02  0.51100000000E-03 0.  1.
         23    2    1    0    0    0 -0.21579727950E+01 -0.21197621412E+02 -0.20149367786E+02  0.95674362372E+02  0.91069152807E+02 0.  0.
         11    1    3    3    0    0 -0.36228666568E+02 -0.86141052261E+01  0.19390712492E+02  0.41984745103E+02  0.51100000000E-03 0. -1.
         22    1    1    0    0    0  0.21579727950E+01  0.21197621412E+02  0.20149367786E+02  0.29325637628E+02  0.00000000000E+00 0.  1.
</event>
<event>
 5    1  0.1102386E-009  0.9118800E+02  0.7818608E-02  0.1130116E+00
         25   -1    0    0    0    0  0.00000000000E+00  0.00000000000E+00  0.99999998245E-14  0.12500000000E+03  0.12500000000E+03 0.  0.
        -11    1    3    3    0    0 -0.14020095138E+01 -0.24433446129E+02  0.55603429909E+02  0.60751134461E+02  0.51100000000E-03 0.  1.
         23    2    1    0    0    0 -0.99581599580E+01 -0.14196144693E+02  0.21454376160E+02  0.97414030191E+02  0.93426482047E+02 0.  0.
         11    1    3    3    0    0 -0.85561504441E+01  0.10237301436E+02 -0.34149053749E+02  0.36662895730E+02  0.51100000000E-03 0. -1.
         22    1    1    0    0    0  0.99581599580E+01  0.14196144693E+02 -0.21454376160E+02  0.27585969809E+02  0.00000000000E+00 0.  1.
</event>
<event>
 5    1  0.1102386E-009  0.9118800E+02  0.7818608E-02  0.1130116E+00
         25   -1    0    0    0    0  0.00000000000E+00  0.00000000000E+00  0.99999998245E-14  0.12500000000E+03  0.12500000000E+03 0.  0.
        -11    1    3    3    0    0  0.17254185377E+02  0.32841459782E+02 -0.18201969921E+02  0.41322876266E+02  0.51100000000E-03 0. -1.
         23    2    1    0    0    0 -0.59367151492E+01  0.60154814597E+01  0.25809206845E+02  0.97842206240E+02  0.93997614651E+02 0.  0.
         11    1    3    3    0    0 -0.23190900526E+02 -0.26825978322E+02  0.44011176766E+02  0.56519329974E+02  0.51100000000E-03 0.  1.
         22    1    1    0    0    0  0.59367151492E+01 -0.60154814597E+01 -0.25809206845E+02  0.27157793760E+02  0.00000000000E+00 0.  1.
</event>
<event>
 5    1  0.1102386E-009  0.9118800E+02  0.7818608E-02  0.1130116E+00
         25   -1    0    0    0    0  0.00000000000E+00  0.00000000000E+00  0.99999998245E-14  0.12500000000E+03  0.12500000000E+03 0.  0.
        -11    1    3    3    0    0 -0.43240349059E+02  0.18935765891E+02 -0.21821346616E+02  0.52004443896E+02  0.51100000000E-03 0. -1.
         23    2    1    0    0    0 -0.24604752122E+02  0.23274007803E+01  0.14701834159E+02  0.96243182565E+02  0.91846587532E+02 0.  0.
         11    1    3    3    0    0  0.18635596937E+02 -0.16608365111E+02  0.36523180774E+02  0.44238738668E+02  0.51100000000E-03 0.  1.
         22    1    1    0    0    0  0.24604752122E+02 -0.23274007803E+01 -0.14701834159E+02  0.28756817435E+02  0.00000000000E+00 0. -1.
</event>
<event>
 5    1  0.1102386E-009  0.9118800E+02  0.7818608E-02  0.1130116E+00
         25   -1    0    0    0    0  0.00000000000E+00  0.00000000000E+00  0.99999998245E-14  0.12500000000E+03  0.12500000000E+03 0.  0.
        -11    1    3    3    0    0  0.85312804984E+01  0.16301054192E+02 -0.27830156663E+02  0.33362025341E+02  0.51100000000E-03 0.  1.
         23    2    1    0    0    0 -0.16413471304E+02 -0.88468592975E+01  0.23046852141E+02  0.95354994462E+02  0.90629733618E+02 0.  0.
         11    1    3    3    0    0 -0.24944751803E+02 -0.25147913490E+02  0.50877008804E+02  0.61992969122E+02  0.51100000000E-03 0. -1.
         22    1    1    0    0    0  0.16413471304E+02  0.88468592975E+01 -0.23046852141E+02  0.29645005538E+02  0.00000000000E+00 0. -1.
</event>
<event>
 5    1  0.1102386E-009  0.9118800E+02  0.7818608E-02  0.1130116E+00
         25   -1    0    0    0    0  0.00000000000E+00  0.00000000000E+00  0.99999998245E-14  0.12500000000E+03  0.12500000000E+03 0.  0.
        -11    1    3    3    0    0  0.25550928371E+02 -0.32257637338E+02 -0.21945323014E+02  0.46636920028E+02  0.51100000000E-03 0. -1.
         23    2    1    0    0    0  0.24409214565E+02  0.17470337793E+01  0.14547971539E+02  0.96530624198E+02  0.92236955985E+02 0.  0.
         11    1    3    3    0    0 -0.11417138063E+01  0.34004671118E+02  0.36493294552E+02  0.49893704170E+02  0.51100000000E-03 0.  1.
         22    1    1    0    0    0 -0.24409214565E+02 -0.17470337793E+01 -0.14547971539E+02  0.28469375802E+02  0.00000000000E+00 0.  1.
</event>
<event>
 5    1  0.1102386E-009  0.9118800E+02  0.7818608E-02  0.1130116E+00
         25   -1    0    0    0    0  0.00000000000E+00  0.00000000000E+00  0.99999998245E-14  0.12500000000E+03  0.12500000000E+03 0.  0.
        -11    1    3    3    0    0  0.57388960263E+02  0.39990552408E+01 -0.90680058419E+01  0.58238423168E+02  0.51100000000E-03 0.  1.
         23    2    1    0    0    0  0.12548222662E+02  0.30398026166E+01 -0.16863096091E+02  0.10376177263E+03  0.10156497013E+03 0.  0.
         11    1    3    3    0    0 -0.44840737601E+02 -0.95925262422E+00 -0.77950902494E+01  0.45523349465E+02  0.51100000000E-03 0. -1.
         22    1    1    0    0    0 -0.12548222662E+02 -0.30398026166E+01  0.16863096091E+02  0.21238227367E+02  0.00000000000E+00 0.  1.
</event>
<event>
 5    1  0.1102386E-009  0.9118800E+02  0.7818608E-02  0.1130116E+00
         25   -1    0    0    0    0  0.00000000000E+00  0.00000000000E+00  0.99999998245E-14  0.12500000000E+03  0.12500000000E+03 0.  0.
        -11    1    3    3    0    0  0.28515782111E+02  0.31810892477E+01  0.41987048793E+02  0.50854512335E+02  0.51100000000E-03 0.  1.
         23    2    1    0    0    0  0.19979191034E+01 -0.20785603907E+02  0.29787141817E+02  0.88622715492E+02  0.80812615804E+02 0.  0.
         11    1    3    3    0    0 -0.26517863008E+02 -0.23966693155E+02 -0.12199906976E+02  0.37768203158E+02  0.51100000000E-03 0. -1.
         22    1    1    0    0    0 -0.19979191034E+01  0.20785603907E+02 -0.29787141817E+02  0.36377284508E+02  0.00000000000E+00 0.  1.
</event>
<event>
 5    1  0.1102386E-009  0.9118800E+02  0.7818608E-02  0.1130116E+00
         25   -1    0    0    0    0  0.00000000000E+00  0.00000000000E+00  0.99999998245E-14  0.12500000000E+03  0.12500000000E+03 0.  0.
        -11    1    3    3    0    0 -0.28427570329E+02  0.39583894356E+02  0.94365772439E+01  0.49639303354E+02  0.51100000000E-03 0.  1.
         23    2    1    0    0    0 -0.19947392827E+02 -0.66245839516E+01  0.17919872914E+02  0.97379257099E+02  0.93379945785E+02 0.  0.
         11    1    3    3    0    0  0.84801775015E+01 -0.46208478307E+02  0.84832956701E+01  0.47739953745E+02  0.51100000000E-03 0. -1.
         22    1    1    0    0    0  0.19947392827E+02  0.66245839516E+01 -0.17919872914E+02  0.27620742901E+02  0.00000000000E+00 0.  1.
</event>
<event>
 5    1  0.1102386E-009  0.9118800E+02  0.7818608E-02  0.1130116E+00
         25   -1    0    0    0    0  0.00000000000E+00  0.00000000000E+00  0.99999998245E-14  0.12500000000E+03  0.12500000000E+03 0.  0.
        -11    1    3    3    0    0  0.72111039432E+01  0.41073748724E+02 -0.45954373187E+02  0.62055275921E+02  0.51100000000E-03 0.  1.
         23    2    1    0    0    0  0.59455148696E+01  0.22294985155E+02 -0.18093252307E+02  0.95677972629E+02  0.91074108051E+02 0.  0.
         11    1    3    3    0    0 -0.12655890736E+01 -0.18778763569E+02  0.27861120881E+02  0.33622696708E+02  0.51100000000E-03 0. -1.
         22    1    1    0    0    0 -0.59455148696E+01 -0.22294985155E+02  0.18093252307E+02  0.29322027371E+02  0.00000000000E+00 0.  1.
</event>
<event>
 5    1  0.1102386E-009  0.9118800E+02  0.7818608E-02  0.1130116E+00
         25   -1    0    0    0    0  0.00000000000E+00  0.00000000000E+00  0.99999998245E-14  0.12500000000E+03  0.12500000000E+03 0.  0.
        -11    1    3    3    0    0  0.27865884169E+02  0.11589032385E+02  0.21522193057E+02  0.37067748332E+02  0.51100000000E-03 0.  1.
         23    2    1    0    0    0  0.14916029276E+01 -0.78783625988E+01 -0.27675562102E+02  0.96186284269E+02  0.91769118266E+02 0.  0.
         11    1    3    3    0    0 -0.26374281242E+02 -0.19467394983E+02 -0.49197755159E+02  0.59118535938E+02  0.51100000000E-03 0. -1.
         22    1    1    0    0    0 -0.14916029276E+01  0.78783625988E+01  0.27675562102E+02  0.28813715731E+02  0.00000000000E+00 0. -1.
</event>
<event>
 5    1  0.1102386E-009  0.9118800E+02  0.7818608E-02  0.1130116E+00
         25   -1    0    0    0    0  0.00000000000E+00  0.00000000000E+00  0.99999998245E-14  0.12500000000E+03  0.12500000000E+03 0.  0.
        -11    1    3    3    0    0  0.12967722407E+02  0.29019921736E+02  0.18439255530E+02  0.36746752601E+02  0.51100000000E-03 0.  1.
         23    2    1    0    0    0 -0.11077262288E+02 -0.29122170048E+01 -0.26042436233E+02  0.96550127722E+02  0.92263383476E+02 0.  0.
         11    1    3    3    0    0 -0.24044984695E+02 -0.31932138740E+02 -0.44481691763E+02  0.59803375121E+02  0.51100000000E-03 0. -1.
         22    1    1    0    0    0  0.11077262288E+02  0.29122170048E+01  0.26042436233E+02  0.28449872278E+02  0.00000000000E+00 0. -1.
</event>
<event>
 5    1  0.1102386E-009  0.9118800E+02  0.7818608E-02  0.1130116E+00
         25   -1    0    0    0    0  0.00000000000E+00  0.00000000000E+00  0.99999998245E-14  0.12500000000E+03  0.12500000000E+03 0.  0.
        -11    1    3    3    0    0  0.27912904382E+02 -0.53344909682E+02  0.68292637669E+01  0.60592478608E+02  0.51100000000E-03 0. -1.
         23    2    1    0    0    0  0.22427932404E+02 -0.21700464740E+02 -0.14494832906E+01  0.93758628012E+02  0.88400548658E+02 0.  0.
         11    1    3    3    0    0 -0.54849719776E+01  0.31644444941E+02 -0.82787470575E+01  0.33166149405E+02  0.51100000000E-03 0.  1.
         22    1    1    0    0    0 -0.22427932404E+02  0.21700464740E+02  0.14494832906E+01  0.31241371988E+02  0.00000000000E+00 0. -1.
</event>
<event>
 5    1  0.1102386E-009  0.9118800E+02  0.7818608E-02  0.1130116E+00
         25   -1    0    0    0    0  0.00000000000E+00  0.00000000000E+00  0.99999998245E-14  0.12500000000E+03  0.12500000000E+03 0.  0.
        -11    1    3    3    0    0 -0.47441245342E+02 -0.77707558203E+01  0.89597835063E+01  0.48901269169E+02  0.51100000000E-03 0.  1.
         23    2    1    0    0    0 -0.17912393868E+02  0.16012011614E+02 -0.17620356789E+02  0.95205447757E+02  0.90423237827E+02 0.  0.
         11    1    3    3    0    0  0.29528851475E+02  0.23782767434E+02 -0.26580140295E+02  0.46304178587E+02  0.51100000000E-03 0. -1.
         22    1    1    0    0    0  0.17912393868E+02 -0.16012011614E+02  0.17620356789E+02  0.29794552243E+02  0.00000000000E+00 0. -1.
</event>
<event>
 5    1  0.1102386E-009  0.9118800E+02  0.7818608E-02  0.1130116E+00
         25   -1    0    0    0    0  0.00000000000E+00  0.00000000000E+00  0.99999998245E-14  0.12500000000E+03  0.12500000000E+03 0.  0.
        -11    1    3    3    0    0  0.21841917731E+02 -0.50339739555E+02 -0.20818925238E+02  0.58690598881E+02  0.51100000000E-03 0. -1.
         23    2    1    0    0    0 -0.45390457581E+01 -0.26969329597E+02 -0.55801113748E+01  0.97087900146E+02  0.92989112462E+02 0.  0.
         11    1    3    3    0    0 -0.26380963489E+02  0.23370409958E+02  0.15238813864E+02  0.38397301265E+02  0.51100000000E-03 0.  1.
         22    1    1    0    0    0  0.45390457581E+01  0.26969329597E+02  0.55801113748E+01  0.27912099854E+02  0.00000000000E+00 0. -1.
</event>
<event>
 5    1  0.1102386E-009  0.9118800E+02  0.7818608E-02  0.1130116E+00
         25   -1    0    0    0    0  0.00000000000E+00  0.00000000000E+00  0.99999998245E-14  0.12500000000E+03  0.12500000000E+03 0.  0.
        -11    1    3    3    0    0 -0.43607883947E+02 -0.69443961721E+01 -0.23782718071E+00  0.44157997492E+02  0.51100000000E-03 0.  1.
         23    2    1    0    0    0 -0.51875517479E+01  0.22563380426E+02  0.17742571701E+02  0.95831255085E+02  0.91284247114E+02 0.  0.
         11    1    3    3    0    0  0.38420332199E+02  0.29507776598E+02  0.17980398881E+02  0.51673257592E+02  0.51100000000E-03 0. -1.
         22    1    1    0    0    0  0.51875517479E+01 -0.22563380426E+02 -0.17742571701E+02  0.29168744915E+02  0.00000000000E+00 0.  1.
</event>
<event>
 5    1  0.1102386E-009  0.9118800E+02  0.7818608E-02  0.1130116E+00
         25   -1    0    0    0    0  0.00000000000E+00  0.00000000000E+00  0.99999998245E-14  0.12500000000E+03  0.12500000000E+03 0.  0.
        -11    1    3    3    0    0 -0.22851559165E+02  0.50019978829E+02  0.10753836549E+02  0.56034248805E+02  0.51100000000E-03 0. -1.
         23    2    1    0    0    0 -0.24735660769E+02  0.90744388572E+01  0.93345542362E+01  0.97047678862E+02  0.92935029539E+02 0.  0.
         11    1    3    3    0    0 -0.18841016040E+01 -0.40945539972E+02 -0.14192823133E+01  0.41013430057E+02  0.51100000000E-03 0.  1.
         22    1    1    0    0    0  0.24735660769E+02 -0.90744388572E+01 -0.93345542362E+01  0.27952321138E+02  0.00000000000E+00 0. -1.
</event>
<event>
 5    1  0.1102386E-009  0.9118800E+02  0.7818608E-02  0.1130116E+00
         25   -1    0    0    0    0  0.00000000000E+00  0.00000000000E+00  0.99999998245E-14  0.12500000000E+03  0.12500000000E+03 0.  0.
        -11    1    3    3    0    0 -0.46623718430E+02 -0.14652089983E+02  0.29480545864E+02  0.57075015951E+02  0.51100000000E-03 0.  1.
         23    2    1    0    0    0 -0.12110347181E+02 -0.19152757513E+01  0.28609531366E+02  0.93873900421E+02  0.88563395967E+02 0.  0.
         11    1    3    3    0    0  0.34513371249E+02  0.12736814232E+02 -0.87101449778E+00  0.36798884470E+02  0.51100000000E-03 0. -1.
         22    1    1    0    0    0  0.12110347181E+02  0.19152757513E+01 -0.28609531366E+02  0.31126099579E+02  0.00000000000E+00 0.  1.
</event>
<event>
 5    1  0.1102386E-009  0.9118800E+02  0.7818608E-02  0.1130116E+00
         25   -1    0    0    0    0  0.00000000000E+00  0.00000000000E+00  0.99999998245E-14  0.12500000000E+03  0.12500000000E+03 0.  0.
        -11    1    3    3    0    0 -0.39402088901E+01  0.57605471467E+02  0.93270825555E+01  0.58488546385E+02  0.51100000000E-03 0.  1.
         23    2    1    0    0    0 -0.91945649098E+01  0.26553056544E+02 -0.96871852704E+01  0.95277173853E+02  0.90522336820E+02 0.  0.
         11    1    3    3    0    0 -0.52543560197E+01 -0.31052414923E+02 -0.19014267826E+02  0.36788627468E+02  0.51100000000E-03 0. -1.
         22    1    1    0    0    0  0.91945649098E+01 -0.26553056544E+02  0.96871852704E+01  0.29722826147E+02  0.00000000000E+00 0.  1.
</event>
<event>
 5    1  0.1102386E-009  0.9118800E+02  0.7818608E-02  0.1130116E+00
         25   -1    0    0    0    0  0.00000000000E+00  0.00000000000E+00  0.99999998245E-14  0.12500000000E+03  0.12500000000E+03 0.  0.
        -11    1    3    3    0    0  0.41176170858E+02 -0.38597024730E+00 -0.31192906828E+01  0.41295956148E+02  0.51100000000E-03 0.  1.
         23    2    1    0    0    0 -0.11079738537E+02 -0.15577608104E+02 -0.19063517199E+02  0.98002960009E+02  0.94211145849E+02 0.  0.
         11    1    3    3    0    0 -0.52255909395E+02 -0.15191637856E+02 -0.15944226516E+02  0.56707003861E+02  0.51100000000E-03 0. -1.
         22    1    1    0    0    0  0.11079738537E+02  0.15577608104E+02  0.19063517199E+02  0.26997039991E+02  0.00000000000E+00 0. -1.
</event>
<event>
 5    1  0.1102386E-009  0.9118800E+02  0.7818608E-02  0.1130116E+00
         25   -1    0    0    0    0  0.00000000000E+00  0.00000000000E+00  0.99999998245E-14  0.12500000000E+03  0.12500000000E+03 0.  0.
        -11    1    3    3    0    0 -0.37348546294E+02 -0.19311498494E+01 -0.80088007136E+01  0.38246361123E+02  0.51100000000E-03 0. -1.
         23    2    1    0    0    0  0.11919491666E+02 -0.28115553216E+02 -0.14032200374E+01  0.94429955174E+02  0.89344774852E+02 0.  0.
         11    1    3    3    0    0  0.49268037960E+02 -0.26184403366E+02  0.66055806763E+01  0.56183594051E+02  0.51100000000E-03 0.  1.
         22    1    1    0    0    0 -0.11919491666E+02  0.28115553216E+02  0.14032200374E+01  0.30570044826E+02  0.00000000000E+00 0.  1.
</event>
<event>
 5    1  0.1102386E-009  0.9118800E+02  0.7818608E-02  0.1130116E+00
         25   -1    0    0    0    0  0.00000000000E+00  0.00000000000E+00  0.99999998245E-14  0.12500000000E+03  0.12500000000E+03 0.  0.
        -11    1    3    3    0    0 -0.91470903632E+01 -0.28490613629E+02  0.37788343338E+02  0.48201070730E+02  0.51100000000E-03 0. -1.
         23    2    1    0    0    0 -0.26291388956E+02  0.70230923759E+01  0.12459203171E+02  0.95070203753E+02  0.90236084457E+02 0.  0.
         11    1    3    3    0    0 -0.17144298592E+02  0.35513706005E+02 -0.25329140167E+02  0.46869133022E+02  0.51100000000E-03 0.  1.
         22    1    1    0    0    0  0.26291388956E+02 -0.70230923759E+01 -0.12459203171E+02  0.29929796247E+02  0.00000000000E+00 0. -1.
</event>
<event>
 5    1  0.1102386E-009  0.9118800E+02  0.7818608E-02  0.1130116E+00
         25   -1    0    0    0    0  0.00000000000E+00  0.00000000000E+00  0.99999998245E-14  0.12500000000E+03  0.12500000000E+03 0.  0.
        -11    1    3    3    0    0  0.54606973827E+01 -0.27545481973E+02  0.40261239139E+02  0.49087067240E+02  0.51100000000E-03 0.  1.
         23    2    1    0    0    0  0.25796144812E+02 -0.13810443445E+02  0.59106529488E+00  0.95733657668E+02  0.91150504206E+02 0.  0.
         11    1    3    3    0    0  0.20335447429E+02  0.13735038527E+02 -0.39670173844E+02  0.46646590428E+02  0.51100000000E-03 0. -1.
         22    1    1    0    0    0 -0.25796144812E+02  0.13810443445E+02 -0.59106529488E+00  0.29266342332E+02  0.00000000000E+00 0. -1.
</event>
<event>
 5    1  0.1102386E-009  0.9118800E+02  0.7818608E-02  0.1130116E+00
         25   -1    0    0    0    0  0.00000000000E+00  0.00000000000E+00  0.99999998245E-14  0.12500000000E+03  0.12500000000E+03 0.  0.
        -11    1    3    3    0    0 -0.21333139546E+02 -0.13167234970E+02 -0.15181999468E+02  0.29308224575E+02  0.51100000000E-03 0.  1.
         23    2    1    0    0    0  0.29872982055E+02  0.37100533454E+01  0.15287559009E+02  0.91238053772E+02  0.84761509206E+02 0.  0.
         11    1    3    3    0    0  0.51206121601E+02  0.16877288315E+02  0.30469558477E+02  0.61929829197E+02  0.51100000000E-03 0. -1.
         22    1    1    0    0    0 -0.29872982055E+02 -0.37100533454E+01 -0.15287559009E+02  0.33761946228E+02  0.00000000000E+00 0. -1.
</event>
<event>
 5    1  0.1102386E-009  0.9118800E+02  0.7818608E-02  0.1130116E+00
         25   -1    0    0    0    0  0.00000000000E+00  0.00000000000E+00  0.99999998245E-14  0.12500000000E+03  0.12500000000E+03 0.  0.
        -11    1    3    3    0    0  0.38949708471E+02 -0.36315548624E+02 -0.29864231896E+02  0.61055476485E+02  0.51100000000E-03 0. -1.
         23    2    1    0    0    0  0.24889750076E+02 -0.10235681612E+02 -0.14458270660E+02  0.94449870256E+02  0.89372633194E+02 0.  0.
         11    1    3    3    0    0 -0.14059958395E+02  0.26079867013E+02  0.15405961236E+02  0.33394393771E+02  0.51100000000E-03 0.  1.
         22    1    1    0    0    0 -0.24889750076E+02  0.10235681612E+02  0.14458270660E+02  0.30550129744E+02  0.00000000000E+00 0. -1.
</event>
<event>
 5    1  0.1102386E-009  0.9118800E+02  0.7818608E-02  0.1130116E+00
         25   -1    0    0    0    0  0.00000000000E+00  0.00000000000E+00  0.99999998245E-14  0.12500000000E+03  0.12500000000E+03 0.  0.
        -11    1    3    3    0    0  0.33462307713E+02  0.25454711518E+02  0.41367990038E+02  0.58982870192E+02  0.51100000000E-03 0.  1.
         23    2    1    0    0    0  0.25576262812E+02  0.17670409203E+01  0.14990645765E+02  0.95301732147E+02  0.90556242395E+02 0.  0.
         11    1    3    3    0    0 -0.78860449013E+01 -0.23687670598E+02 -0.26377344273E+02  0.36318861955E+02  0.51100000000E-03 0. -1.
         22    1    1    0    0    0 -0.25576262812E+02 -0.17670409203E+01 -0.14990645765E+02  0.29698267853E+02  0.00000000000E+00 0.  1.
</event>
<event>
 5    1  0.1102386E-009  0.9118800E+02  0.7818608E-02  0.1130116E+00
         25   -1    0    0    0    0  0.00000000000E+00  0.00000000000E+00  0.99999998245E-14  0.12500000000E+03  0.12500000000E+03 0.  0.
        -11    1    3    3    0    0  0.48662323362E+02 -0.25238357570E+02 -0.37923153188E+01  0.54948867718E+02  0.51100000000E-03 0.  1.
         23    2    1    0    0    0  0.10150272739E+02 -0.23322906731E+02 -0.15458975479E+02  0.95234820042E+02  0.90463832610E+02 0.  0.
         11    1    3    3    0    0 -0.38512050623E+02  0.19154508384E+01 -0.11666660160E+02  0.40285952324E+02  0.51100000000E-03 0. -1.
         22    1    1    0    0    0 -0.10150272739E+02  0.23322906731E+02  0.15458975479E+02  0.29765179958E+02  0.00000000000E+00 0.  1.
</event>
<event>
 5    1  0.1102386E-009  0.9118800E+02  0.7818608E-02  0.1130116E+00
         25   -1    0    0    0    0  0.00000000000E+00  0.00000000000E+00  0.99999998245E-14  0.12500000000E+03  0.12500000000E+03 0.  0.
        -11    1    3    3    0    0  0.49412822753E+01  0.44233680485E+02  0.25040859238E+02  0.51069358635E+02  0.51100000000E-03 0. -1.
         23    2    1    0    0    0 -0.21092428056E+02  0.76870853732E+01  0.17423618781E+02  0.96582324263E+02  0.92306993591E+02 0.  0.
         11    1    3    3    0    0 -0.26033710332E+02 -0.36546595111E+02 -0.76172404569E+01  0.45512965629E+02  0.51100000000E-03 0.  1.
         22    1    1    0    0    0  0.21092428056E+02 -0.76870853732E+01 -0.17423618781E+02  0.28417675737E+02  0.00000000000E+00 0.  1.
</event>
<event>
 5    1  0.1102386E-009  0.9118800E+02  0.7818608E-02  0.1130116E+00
         25   -1    0    0    0    0  0.00000000000E+00  0.00000000000E+00  0.99999998245E-14  0.12500000000E+03  0.12500000000E+03 0.  0.
        -11    1    3    3    0    0  0.12974745992E+02 -0.59288989787E+02  0.45432545443E+01  0.60861888778E+02  0.51100000000E-03 0. -1.
         23    2    1    0    0    0 -0.84943569516E-01 -0.29265036280E+02 -0.57342114853E+01  0.95178351065E+02  0.90385771923E+02 0.  0.
         11    1    3    3    0    0 -0.13059689561E+02  0.30023953507E+02 -0.10277466030E+02  0.34316462287E+02  0.51100000000E-03 0.  1.
         22    1    1    0    0    0  0.84943569516E-01  0.29265036280E+02  0.57342114853E+01  0.29821648935E+02  0.00000000000E+00 0. -1.
</event>
<event>
 5    1  0.1102386E-009  0.9118800E+02  0.7818608E-02  0.1130116E+00
         25   -1    0    0    0    0  0.00000000000E+00  0.00000000000E+00  0.99999998245E-14  0.12500000000E+03  0.12500000000E+03 0.  0.
        -11    1    3    3    0    0 -0.23102256650E+02  0.39321583154E+02 -0.10391684843E+02  0.46774868019E+02  0.51100000000E-03 0.  1.
         23    2    1    0    0    0 -0.28591118087E+02 -0.79772687392E+01 -0.10534910035E+01  0.95298170203E+02  0.90551325505E+02 0.  0.
         11    1    3    3    0    0 -0.54888614368E+01 -0.47298851893E+02  0.93381938394E+01  0.48523302183E+02  0.51100000000E-03 0. -1.
         22    1    1    0    0    0  0.28591118087E+02  0.79772687392E+01  0.10534910035E+01  0.29701829797E+02  0.00000000000E+00 0. -1.
</event>
<event>
 5    1  0.1102386E-009  0.9118800E+02  0.7818608E-02  0.1130116E+00
         25   -1    0    0    0    0  0.00000000000E+00  0.00000000000E+00  0.99999998245E-14  0.12500000000E+03  0.12500000000E+03 0.  0.
        -11    1    3    3    0    0 -0.16513453456E+02 -0.25083317210E+02 -0.13734458228E+02  0.33022754131E+02  0.51100000000E-03 0. -1.
         23    2    1    0    0    0 -0.26995844980E+01  0.26240216650E+02  0.16220900159E+02  0.94033012283E+02  0.88787685356E+02 0.  0.
         11    1    3    3    0    0  0.13813868958E+02  0.51323533860E+02  0.29955358387E+02  0.61010258152E+02  0.51100000000E-03 0.  1.
         22    1    1    0    0    0  0.26995844980E+01 -0.26240216650E+02 -0.16220900159E+02  0.30966987717E+02  0.00000000000E+00 0.  1.
</event>
<event>
 5    1  0.1102386E-009  0.9118800E+02  0.7818608E-02  0.1130116E+00
         25   -1    0    0    0    0  0.00000000000E+00  0.00000000000E+00  0.99999998245E-14  0.12500000000E+03  0.12500000000E+03 0.  0.
        -11    1    3    3    0    0  0.23980930275E+02 -0.32981005775E+02  0.10539807445E+01  0.40791452958E+02  0.51100000000E-03 0. -1.
         23    2    1    0    0    0 -0.17295168020E+01  0.42322780794E+01  0.30105869903E+02  0.94548944046E+02  0.89511094349E+02 0.  0.
         11    1    3    3    0    0 -0.25710447077E+02  0.37213283854E+02  0.29051889158E+02  0.53757491088E+02  0.51100000000E-03 0.  1.
         22    1    1    0    0    0  0.17295168020E+01 -0.42322780794E+01 -0.30105869903E+02  0.30451055954E+02  0.00000000000E+00 0.  1.
</event>
<event>
 5    1  0.1102386E-009  0.9118800E+02  0.7818608E-02  0.1130116E+00
         25   -1    0    0    0    0  0.00000000000E+00  0.00000000000E+00  0.99999998245E-14  0.12500000000E+03  0.12500000000E+03 0.  0.
        -11    1    3    3    0    0  0.32931886958E+02 -0.16024079812E+02 -0.14212265263E+01  0.36651059978E+02  0.51100000000E-03 0.  1.
         23    2    1    0    0    0 -0.15494410671E+02  0.11527918587E+02  0.20783980491E+02  0.96628473533E+02  0.92369466727E+02 0.  0.
         11    1    3    3    0    0 -0.48426297628E+02  0.27551998399E+02  0.22205207018E+02  0.59977413555E+02  0.51100000000E-03 0. -1.
         22    1    1    0    0    0  0.15494410671E+02 -0.11527918587E+02 -0.20783980491E+02  0.28371526467E+02  0.00000000000E+00 0. -1.
</event>
<event>
 5    1  0.1102386E-009  0.9118800E+02  0.7818608E-02  0.1130116E+00
         25   -1    0    0    0    0  0.00000000000E+00  0.00000000000E+00  0.99999998245E-14  0.12500000000E+03  0.12500000000E+03 0.  0.
        -11    1    3    3    0    0 -0.15490664705E+02 -0.17251604598E+02 -0.29096930094E+02  0.37204971380E+02  0.51100000000E-03 0. -1.
         23    2    1    0    0    0  0.17680899633E+02 -0.10647992189E+02  0.19627429929E+02  0.96517901146E+02  0.92219712028E+02 0.  0.
         11    1    3    3    0    0  0.33171564338E+02  0.66036124087E+01  0.48724360023E+02  0.59312929766E+02  0.51100000000E-03 0.  1.
         22    1    1    0    0    0 -0.17680899633E+02  0.10647992189E+02 -0.19627429929E+02  0.28482098854E+02  0.00000000000E+00 0.  1.
</event>
<event>
 5    1  0.1102386E-009  0.9118800E+02  0.7818608E-02  0.1130116E+00
         25   -1    0    0    0    0  0.00000000000E+00  0.00000000000E+00  0.99999998245E-14  0.12500000000E+03  0.12500000000E+03 0.  0.
        -11    1    3    3    0    0  0.10597449390E+02  0.42419144301E+02 -0.13735496681E+02  0.45829614946E+02  0.51100000000E-03 0. -1.
         23    2    1    0    0    0  0.24760602136E+02 -0.56701466140E+01 -0.14069467357E+02  0.95962302218E+02  0.91463520349E+02 0.  0.
         11    1    3    3    0    0  0.14163152746E+02 -0.48089290915E+02 -0.33397067592E+00  0.50132687272E+02  0.51100000000E-03 0.  1.
         22    1    1    0    0    0 -0.24760602136E+02  0.56701466140E+01  0.14069467357E+02  0.29037697782E+02  0.00000000000E+00 0.  1.
</event>
<event>
 5    1  0.1102386E-009  0.9118800E+02  0.7818608E-02  0.1130116E+00
         25   -1    0    0    0    0  0.00000000000E+00  0.00000000000E+00  0.99999998245E-14  0.12500000000E+03  0.12500000000E+03 0.  0.
        -11    1    3    3    0    0  0.35999433120E+02 -0.65157386397E+01 -0.35548988022E+01  0.36756650293E+02  0.51100000000E-03 0.  1.
         23    2    1    0    0    0 -0.16832584871E+02  0.64958546813E+01  0.21730484180E+02  0.96755602606E+02  0.92541345632E+02 0.  0.
         11    1    3    3    0    0 -0.52832017992E+02  0.13011593321E+02  0.25285382982E+02  0.59998952313E+02  0.51100000000E-03 0. -1.
         22    1    1    0    0    0  0.16832584871E+02 -0.64958546813E+01 -0.21730484180E+02  0.28244397394E+02  0.00000000000E+00 0. -1.
</event>
<event>
 5    1  0.1102386E-009  0.9118800E+02  0.7818608E-02  0.1130116E+00
         25   -1    0    0    0    0  0.00000000000E+00  0.00000000000E+00  0.99999998245E-14  0.12500000000E+03  0.12500000000E+03 0.  0.
        -11    1    3    3    0    0  0.39352141770E+01 -0.34293357842E+02  0.47026042308E+02  0.58334971999E+02  0.51100000000E-03 0.  1.
         23    2    1    0    0    0  0.12021815204E+02 -0.35333079008E+01  0.25040431518E+02  0.96999437217E+02  0.92870120622E+02 0.  0.
         11    1    3    3    0    0  0.80866010273E+01  0.30760049942E+02 -0.21985610790E+02  0.38664465218E+02  0.51100000000E-03 0. -1.
         22    1    1    0    0    0 -0.12021815204E+02  0.35333079008E+01 -0.25040431518E+02  0.28000562783E+02  0.00000000000E+00 0.  1.
</event>
<event>
 5    1  0.1102386E-009  0.9118800E+02  0.7818608E-02  0.1130116E+00
         25   -1    0    0    0    0  0.00000000000E+00  0.00000000000E+00  0.99999998245E-14  0.12500000000E+03  0.12500000000E+03 0.  0.
        -11    1    3    3    0    0  0.32158251614E+02 -0.70931661079E+01 -0.23561023181E+02  0.40491825915E+02  0.51100000000E-03 0. -1.
         23    2    1    0    0    0 -0.18818364632E+02 -0.20940096084E+02 -0.55275342390E+01  0.96309023958E+02  0.91936151701E+02 0.  0.
         11    1    3    3    0    0 -0.50976616247E+02 -0.13846929976E+02  0.18033488942E+02  0.55817198043E+02  0.51100000000E-03 0.  1.
         22    1    1    0    0    0  0.18818364632E+02  0.20940096084E+02  0.55275342390E+01  0.28690976042E+02  0.00000000000E+00 0.  1.
</event>
<event>
 5    1  0.1102386E-009  0.9118800E+02  0.7818608E-02  0.1130116E+00
         25   -1    0    0    0    0  0.00000000000E+00  0.00000000000E+00  0.99999998245E-14  0.12500000000E+03  0.12500000000E+03 0.  0.
        -11    1    3    3    0    0 -0.12408146998E+02  0.13205036587E+02  0.53984759870E+02  0.56944616968E+02  0.51100000000E-03 0.  1.
         23    2    1    0    0    0  0.50939772521E+01 -0.88365313068E+01  0.27804740965E+02  0.95383509493E+02  0.90669054111E+02 0.  0.
         11    1    3    3    0    0  0.17502124250E+02 -0.22041567893E+02 -0.26180018905E+02  0.38438892525E+02  0.51100000000E-03 0. -1.
         22    1    1    0    0    0 -0.50939772521E+01  0.88365313068E+01 -0.27804740965E+02  0.29616490507E+02  0.00000000000E+00 0.  1.
</event>
<event>
 5    1  0.1102386E-009  0.9118800E+02  0.7818608E-02  0.1130116E+00
         25   -1    0    0    0    0  0.00000000000E+00  0.00000000000E+00  0.99999998245E-14  0.12500000000E+03  0.12500000000E+03 0.  0.
        -11    1    3    3    0    0  0.33042504309E+02  0.44674571281E+02 -0.59008901547E+01  0.55878841390E+02  0.51100000000E-03 0. -1.
         23    2    1    0    0    0  0.23240247809E+02  0.14644610433E+02  0.14946778272E+02  0.93727329605E+02  0.88356281051E+02 0.  0.
         11    1    3    3    0    0 -0.98022564996E+01 -0.30029960849E+02  0.20847668427E+02  0.37848488215E+02  0.51100000000E-03 0.  1.
         22    1    1    0    0    0 -0.23240247809E+02 -0.14644610433E+02 -0.14946778272E+02  0.31272670395E+02  0.00000000000E+00 0. -1.
</event>
<event>
 5    1  0.1102386E-009  0.9118800E+02  0.7818608E-02  0.1130116E+00
         25   -1    0    0    0    0  0.00000000000E+00  0.00000000000E+00  0.99999998245E-14  0.12500000000E+03  0.12500000000E+03 0.  0.
        -11    1    3    3    0    0  0.55120268419E+02 -0.15686700741E+02 -0.23729004552E+02  0.62027270035E+02  0.51100000000E-03 0. -1.
         23    2    1    0    0    0  0.22794070001E+02 -0.69190784013E+01 -0.15700722152E+02  0.96470086764E+02  0.92154878824E+02 0.  0.
         11    1    3    3    0    0 -0.32326198418E+02  0.87676223402E+01  0.80282823994E+01  0.34442816729E+02  0.51100000000E-03 0.  1.
         22    1    1    0    0    0 -0.22794070001E+02  0.69190784013E+01  0.15700722152E+02  0.28529913236E+02  0.00000000000E+00 0. -1.
</event>
<event>
 5    1  0.1102386E-009  0.9118800E+02  0.7818608E-02  0.1130116E+00
         25   -1    0    0    0    0  0.00000000000E+00  0.00000000000E+00  0.99999998245E-14  0.12500000000E+03  0.12500000000E+03 0.  0.
        -11    1    3    3    0    0 -0.46740783477E+01 -0.29573468874E+02  0.29312027236E+02  0.41900262655E+02  0.51100000000E-03 0. -1.
         23    2    1    0    0    0 -0.11397450607E+02  0.22309034659E+02  0.13436539808E+02  0.96572275684E+02  0.92293385034E+02 0.  0.
         11    1    3    3    0    0 -0.67233722590E+01  0.51882503532E+02 -0.15875487428E+02  0.54672013029E+02  0.51100000000E-03 0.  1.
         22    1    1    0    0    0  0.11397450607E+02 -0.22309034659E+02 -0.13436539808E+02  0.28427724316E+02  0.00000000000E+00 0.  1.
</event>
<event>
 5    1  0.1102386E-009  0.9118800E+02  0.7818608E-02  0.1130116E+00
         25   -1    0    0    0    0  0.00000000000E+00  0.00000000000E+00  0.99999998245E-14  0.12500000000E+03  0.12500000000E+03 0.  0.
        -11    1    3    3    0    0  0.28868958328E+02  0.32683160845E+02 -0.23113308849E+02  0.49354136645E+02  0.51100000000E-03 0.  1.
         23    2    1    0    0    0  0.24439814038E+01 -0.87162982886E+01 -0.24904925444E+02  0.98500901669E+02  0.94869517851E+02 0.  0.
         11    1    3    3    0    0 -0.26424976924E+02 -0.41399459134E+02 -0.17916165955E+01  0.49146765024E+02  0.51100000000E-03 0. -1.
         22    1    1    0    0    0 -0.24439814038E+01  0.87162982886E+01  0.24904925444E+02  0.26499098331E+02  0.00000000000E+00 0. -1.
</event>
<event>
 5    1  0.1102386E-009  0.9118800E+02  0.7818608E-02  0.1130116E+00
         25   -1    0    0    0    0  0.00000000000E+00  0.00000000000E+00  0.99999998245E-14  0.12500000000E+03  0.12500000000E+03 0.  0.
        -11    1    3    3    0    0 -0.97656052391E+00  0.10680699333E+02 -0.15246787618E+02  0.18641232299E+02  0.51100000000E-03 0.  1.
         23    2    1    0    0    0  0.13150845386E+02 -0.18091944815E+02  0.38066667499E+02  0.80848733019E+02  0.67728747624E+02 0.  0.
         11    1    3    3    0    0  0.14127405910E+02 -0.28772644149E+02  0.53313455117E+02  0.62207500720E+02  0.51100000000E-03 0. -1.
         22    1    1    0    0    0 -0.13150845386E+02  0.18091944815E+02 -0.38066667499E+02  0.44151266981E+02  0.00000000000E+00 0. -1.
</event>
<event>
 5    1  0.1102386E-009  0.9118800E+02  0.7818608E-02  0.1130116E+00
         25   -1    0    0    0    0  0.00000000000E+00  0.00000000000E+00  0.99999998245E-14  0.12500000000E+03  0.12500000000E+03 0.  0.
        -11    1    3    3    0    0  0.13217539229E+02  0.34931100257E+01 -0.42740250576E+02  0.44873535413E+02  0.51100000000E-03 0.  1.
         23    2    1    0    0    0  0.30857246578E+02 -0.31790571643E+01  0.24914915597E+01  0.93879530835E+02  0.88571342480E+02 0.  0.
         11    1    3    3    0    0  0.17639707349E+02 -0.66721671901E+01  0.45231742136E+02  0.49005995422E+02  0.51100000000E-03 0. -1.
         22    1    1    0    0    0 -0.30857246578E+02  0.31790571643E+01 -0.24914915597E+01  0.31120469165E+02  0.00000000000E+00 0. -1.
</event>
<event>
 5    1  0.1102386E-009  0.9118800E+02  0.7818608E-02  0.1130116E+00
         25   -1    0    0    0    0  0.00000000000E+00  0.00000000000E+00  0.99999998245E-14  0.12500000000E+03  0.12500000000E+03 0.  0.
        -11    1    3    3    0    0 -0.18646749051E+02 -0.24483025417E+02  0.53408145170E+02  0.61640487948E+02  0.51100000000E-03 0.  1.
         23    2    1    0    0    0 -0.11061731103E+02 -0.16312463824E+02  0.19745633201E+02  0.97101103938E+02  0.93006859878E+02 0.  0.
         11    1    3    3    0    0  0.75850179478E+01  0.81705615933E+01 -0.33662511969E+02  0.35460615989E+02  0.51100000000E-03 0. -1.
         22    1    1    0    0    0  0.11061731103E+02  0.16312463824E+02 -0.19745633201E+02  0.27898896062E+02  0.00000000000E+00 0.  1.
</event>
<event>
 5    1  0.1102386E-009  0.9118800E+02  0.7818608E-02  0.1130116E+00
         25   -1    0    0    0    0  0.00000000000E+00  0.00000000000E+00  0.99999998245E-14  0.12500000000E+03  0.12500000000E+03 0.  0.
        -11    1    3    3    0    0  0.18565942500E+02  0.31906153024E+02  0.21578397570E+02  0.42758906250E+02  0.51100000000E-03 0. -1.
         23    2    1    0    0    0  0.25657339604E+02 -0.13866921908E+02 -0.38225051751E+01  0.95585681300E+02  0.90947349192E+02 0.  0.
         11    1    3    3    0    0  0.70913971042E+01 -0.45773074933E+02 -0.25400902745E+02  0.52826775050E+02  0.51100000000E-03 0.  1.
         22    1    1    0    0    0 -0.25657339604E+02  0.13866921908E+02  0.38225051751E+01  0.29414318700E+02  0.00000000000E+00 0.  1.
</event>
<event>
 5    1  0.1102386E-009  0.9118800E+02  0.7818608E-02  0.1130116E+00
         25   -1    0    0    0    0  0.00000000000E+00  0.00000000000E+00  0.99999998245E-14  0.12500000000E+03  0.12500000000E+03 0.  0.
        -11    1    3    3    0    0 -0.35392584973E+02  0.36612502784E+02 -0.31034767907E+02  0.59634446845E+02  0.51100000000E-03 0. -1.
         23    2    1    0    0    0 -0.12845374414E+02  0.22821780797E+02 -0.22466958340E+01  0.98715309309E+02  0.95151601811E+02 0.  0.
         11    1    3    3    0    0  0.22547210559E+02 -0.13790721988E+02  0.28788072073E+02  0.39080862464E+02  0.51100000000E-03 0.  1.
         22    1    1    0    0    0  0.12845374414E+02 -0.22821780797E+02  0.22466958340E+01  0.26284690691E+02  0.00000000000E+00 0. -1.
</event>
<event>
 5    1  0.1102386E-009  0.9118800E+02  0.7818608E-02  0.1130116E+00
         25   -1    0    0    0    0  0.00000000000E+00  0.00000000000E+00  0.99999998245E-14  0.12500000000E+03  0.12500000000E+03 0.  0.
        -11    1    3    3    0    0 -0.68320218324E+00 -0.46588596308E+02 -0.39768713754E+02  0.61257772283E+02  0.51100000000E-03 0.  1.
         23    2    1    0    0    0 -0.32378046375E+01 -0.16093331879E+02 -0.24632829628E+02  0.95398395224E+02  0.90689573855E+02 0.  0.
         11    1    3    3    0    0 -0.25546024543E+01  0.30495264428E+02  0.15135884127E+02  0.34140622941E+02  0.51100000000E-03 0. -1.
         22    1    1    0    0    0  0.32378046375E+01  0.16093331879E+02  0.24632829628E+02  0.29601604776E+02  0.00000000000E+00 0.  1.
</event>
<event>
 5    1  0.1102386E-009  0.9118800E+02  0.7818608E-02  0.1130116E+00
         25   -1    0    0    0    0  0.00000000000E+00  0.00000000000E+00  0.99999998245E-14  0.12500000000E+03  0.12500000000E+03 0.  0.
        -11    1    3    3    0    0 -0.37058797045E+02 -0.19338550994E+02 -0.21366361951E+02  0.46945238483E+02  0.51100000000E-03 0.  1.
         23    2    1    0    0    0  0.11382886486E+02 -0.13969628622E+02 -0.23085865795E+02  0.95713862869E+02  0.91123354400E+02 0.  0.
         11    1    3    3    0    0  0.48441683531E+02  0.53689223716E+01 -0.17195038437E+01  0.48768624386E+02  0.51100000000E-03 0. -1.
         22    1    1    0    0    0 -0.11382886486E+02  0.13969628622E+02  0.23085865795E+02  0.29286137131E+02  0.00000000000E+00 0. -1.
</event>
<event>
 5    1  0.1102386E-009  0.9118800E+02  0.7818608E-02  0.1130116E+00
         25   -1    0    0    0    0  0.00000000000E+00  0.00000000000E+00  0.99999998245E-14  0.12500000000E+03  0.12500000000E+03 0.  0.
        -11    1    3    3    0    0  0.23608863788E+02  0.15566068037E+02  0.11003577916E+02  0.30344021663E+02  0.51100000000E-03 0. -1.
         23    2    1    0    0    0 -0.22156825093E+02 -0.15209154617E+02 -0.17998057550E+02  0.92655396773E+02  0.86826546593E+02 0.  0.
         11    1    3    3    0    0 -0.45765688881E+02 -0.30775222653E+02 -0.29001635465E+02  0.62311375110E+02  0.51100000000E-03 0.  1.
         22    1    1    0    0    0  0.22156825093E+02  0.15209154617E+02  0.17998057550E+02  0.32344603227E+02  0.00000000000E+00 0.  1.
</event>
<event>
 5    1  0.1102386E-009  0.9118800E+02  0.7818608E-02  0.1130116E+00
         25   -1    0    0    0    0  0.00000000000E+00  0.00000000000E+00  0.99999998245E-14  0.12500000000E+03  0.12500000000E+03 0.  0.
        -11    1    3    3    0    0 -0.28116210468E+02  0.24899079022E+02  0.62585979525E+01  0.38074341437E+02  0.51100000000E-03 0. -1.
         23    2    1    0    0    0  0.20363161864E+02 -0.98536235372E+01  0.14261603047E+02  0.98257794044E+02  0.94548656844E+02 0.  0.
         11    1    3    3    0    0  0.48479372333E+02 -0.34752702559E+02  0.80030050948E+01  0.60183452607E+02  0.51100000000E-03 0.  1.
         22    1    1    0    0    0 -0.20363161864E+02  0.98536235372E+01 -0.14261603047E+02  0.26742205956E+02  0.00000000000E+00 0.  1.
</event>
<event>
 5    1  0.1102386E-009  0.9118800E+02  0.7818608E-02  0.1130116E+00
         25   -1    0    0    0    0  0.00000000000E+00  0.00000000000E+00  0.99999998245E-14  0.12500000000E+03  0.12500000000E+03 0.  0.
        -11    1    3    3    0    0  0.35335007724E+02  0.51151039121E+02 -0.39012723618E+01  0.62291343703E+02  0.51100000000E-03 0.  1.
         23    2    1    0    0    0  0.18525044159E+02  0.20795998555E+02 -0.28221236927E+01  0.97006872287E+02  0.92880127432E+02 0.  0.
         11    1    3    3    0    0 -0.16809963565E+02 -0.30355040565E+02  0.10791486691E+01  0.34715528585E+02  0.51100000000E-03 0. -1.
         22    1    1    0    0    0 -0.18525044159E+02 -0.20795998555E+02  0.28221236927E+01  0.27993127713E+02  0.00000000000E+00 0.  1.
</event>
<event>
 5    1  0.1102386E-009  0.9118800E+02  0.7818608E-02  0.1130116E+00
         25   -1    0    0    0    0  0.00000000000E+00  0.00000000000E+00  0.99999998245E-14  0.12500000000E+03  0.12500000000E+03 0.  0.
        -11    1    3    3    0    0  0.19978824292E+02 -0.45112909925E+02  0.26275239967E+02  0.55899161868E+02  0.51100000000E-03 0.  1.
         23    2    1    0    0    0  0.22200618401E+02 -0.67275900989E+01  0.18963235744E+02  0.95037819909E+02  0.90191213414E+02 0.  0.
         11    1    3    3    0    0  0.22217941091E+01  0.38385319826E+02 -0.73120042221E+01  0.39138658041E+02  0.51100000000E-03 0. -1.
         22    1    1    0    0    0 -0.22200618401E+02  0.67275900989E+01 -0.18963235744E+02  0.29962180091E+02  0.00000000000E+00 0. -1.
</event>
<event>
 5    1  0.1102386E-009  0.9118800E+02  0.7818608E-02  0.1130116E+00
         25   -1    0    0    0    0  0.00000000000E+00  0.00000000000E+00  0.99999998245E-14  0.12500000000E+03  0.12500000000E+03 0.  0.
        -11    1    3    3    0    0 -0.19694105548E+02 -0.47142185756E+02  0.32438406603E+02  0.60518540088E+02  0.51100000000E-03 0. -1.
         23    2    1    0    0    0 -0.18790408963E+02 -0.16770414117E+02  0.17117599476E+02  0.94547767397E+02  0.89509451173E+02 0.  0.
         11    1    3    3    0    0  0.90369658440E+00  0.30371771638E+02 -0.15320807127E+02  0.34029227309E+02  0.51100000000E-03 0.  1.
         22    1    1    0    0    0  0.18790408963E+02  0.16770414117E+02 -0.17117599476E+02  0.30452232603E+02  0.00000000000E+00 0. -1.
</event>
<event>
 5    1  0.1102386E-009  0.9118800E+02  0.7818608E-02  0.1130116E+00
         25   -1    0    0    0    0  0.00000000000E+00  0.00000000000E+00  0.99999998245E-14  0.12500000000E+03  0.12500000000E+03 0.  0.
        -11    1    3    3    0    0  0.13357011190E+02  0.25202448297E+01  0.47801638540E+02  0.49696660142E+02  0.51100000000E-03 0. -1.
         23    2    1    0    0    0 -0.17211046335E+01  0.27897294068E+02  0.17374106425E+02  0.92089807179E+02  0.86008440253E+02 0.  0.
         11    1    3    3    0    0 -0.15078115823E+02  0.25377049238E+02 -0.30427532115E+02  0.42393147037E+02  0.51100000000E-03 0.  1.
         22    1    1    0    0    0  0.17211046335E+01 -0.27897294068E+02 -0.17374106425E+02  0.32910192821E+02  0.00000000000E+00 0. -1.
</event>
<event>
 5    1  0.1102386E-009  0.9118800E+02  0.7818608E-02  0.1130116E+00
         25   -1    0    0    0    0  0.00000000000E+00  0.00000000000E+00  0.99999998245E-14  0.12500000000E+03  0.12500000000E+03 0.  0.
        -11    1    3    3    0    0 -0.21369594421E+02 -0.28106467146E+01  0.45182504049E+02  0.50060143558E+02  0.51100000000E-03 0.  1.
         23    2    1    0    0    0 -0.23045870926E+02  0.20818086375E+02  0.10193906401E+02  0.92313296055E+02  0.86332635856E+02 0.  0.
         11    1    3    3    0    0 -0.16762765055E+01  0.23628733090E+02 -0.34988597648E+02  0.42253152497E+02  0.51100000000E-03 0. -1.
         22    1    1    0    0    0  0.23045870926E+02 -0.20818086375E+02 -0.10193906401E+02  0.32686703945E+02  0.00000000000E+00 0.  1.
</event>
<event>
 5    1  0.1102386E-009  0.9118800E+02  0.7818608E-02  0.1130116E+00
         25   -1    0    0    0    0  0.00000000000E+00  0.00000000000E+00  0.99999998245E-14  0.12500000000E+03  0.12500000000E+03 0.  0.
        -11    1    3    3    0    0  0.14620831889E+02 -0.68072837549E+01 -0.52365118666E+02  0.54792458335E+02  0.51100000000E-03 0.  1.
         23    2    1    0    0    0  0.22756523638E+02 -0.10103763900E+02 -0.98182973281E+01  0.98235389495E+02  0.94519031808E+02 0.  0.
         11    1    3    3    0    0  0.81356917494E+01 -0.32964801448E+01  0.42546821338E+02  0.43442931160E+02  0.51100000000E-03 0. -1.
         22    1    1    0    0    0 -0.22756523638E+02  0.10103763900E+02  0.98182973281E+01  0.26764610505E+02  0.00000000000E+00 0.  1.
</event>
<event>
 5    1  0.1102386E-009  0.9118800E+02  0.7818608E-02  0.1130116E+00
         25   -1    0    0    0    0  0.00000000000E+00  0.00000000000E+00  0.99999998245E-14  0.12500000000E+03  0.12500000000E+03 0.  0.
        -11    1    3    3    0    0  0.30397696165E+02  0.12233554049E+02  0.54857537309E+01  0.33223083407E+02  0.51100000000E-03 0.  1.
         23    2    1    0    0    0 -0.27686307623E+02 -0.55821277950E+01  0.11973540412E+02  0.94323340297E+02  0.89195487970E+02 0.  0.
         11    1    3    3    0    0 -0.58084003789E+02 -0.17815681844E+02  0.64877866807E+01  0.61100256890E+02  0.51100000000E-03 0. -1.
         22    1    1    0    0    0  0.27686307623E+02  0.55821277950E+01 -0.11973540412E+02  0.30676659703E+02  0.00000000000E+00 0. -1.
</event>
<event>
 5    1  0.1102386E-009  0.9118800E+02  0.7818608E-02  0.1130116E+00
         25   -1    0    0    0    0  0.00000000000E+00  0.00000000000E+00  0.99999998245E-14  0.12500000000E+03  0.12500000000E+03 0.  0.
        -11    1    3    3    0    0  0.17508307476E+02 -0.29473021149E+02 -0.73009363272E+01  0.35050013950E+02  0.51100000000E-03 0.  1.
         23    2    1    0    0    0 -0.18350715264E+00  0.26733844118E+02  0.99899563835E+01  0.96460004822E+02  0.92141202541E+02 0.  0.
         11    1    3    3    0    0 -0.17691814629E+02  0.56206865267E+02  0.17290892711E+02  0.61409990873E+02  0.51100000000E-03 0. -1.
         22    1    1    0    0    0  0.18350715264E+00 -0.26733844118E+02 -0.99899563835E+01  0.28539995178E+02  0.00000000000E+00 0. -1.
</event>
<event>
 5    1  0.1102386E-009  0.9118800E+02  0.7818608E-02  0.1130116E+00
         25   -1    0    0    0    0  0.00000000000E+00  0.00000000000E+00  0.99999998245E-14  0.12500000000E+03  0.12500000000E+03 0.  0.
        -11    1    3    3    0    0  0.32260708741E+02  0.51221799949E+02 -0.11795774933E+02  0.61673060772E+02  0.51100000000E-03 0. -1.
         23    2    1    0    0    0  0.15545166188E+02  0.25446213654E+02  0.14900079328E+01  0.95143977077E+02  0.90338221531E+02 0.  0.
         11    1    3    3    0    0 -0.16715542553E+02 -0.25775586295E+02  0.13285782865E+02  0.33470916305E+02  0.51100000000E-03 0.  1.
         22    1    1    0    0    0 -0.15545166188E+02 -0.25446213654E+02 -0.14900079328E+01  0.29856022923E+02  0.00000000000E+00 0. -1.
</event>
<event>
 5    1  0.1102386E-009  0.9118800E+02  0.7818608E-02  0.1130116E+00
         25   -1    0    0    0    0  0.00000000000E+00  0.00000000000E+00  0.99999998245E-14  0.12500000000E+03  0.12500000000E+03 0.  0.
        -11    1    3    3    0    0 -0.10241280420E+02  0.45188328365E+02  0.20399002627E+02  0.50625963235E+02  0.51100000000E-03 0. -1.
         23    2    1    0    0    0 -0.27098726269E+02  0.17305347881E+02 -0.56661249146E+01  0.92351554367E+02  0.86388011852E+02 0.  0.
         11    1    3    3    0    0 -0.16857445850E+02 -0.27882980484E+02 -0.26065127542E+02  0.41725591132E+02  0.51100000000E-03 0.  1.
         22    1    1    0    0    0  0.27098726269E+02 -0.17305347881E+02  0.56661249146E+01  0.32648445633E+02  0.00000000000E+00 0. -1.
</event>
<event>
 5    1  0.1102386E-009  0.9118800E+02  0.7818608E-02  0.1130116E+00
         25   -1    0    0    0    0  0.00000000000E+00  0.00000000000E+00  0.99999998245E-14  0.12500000000E+03  0.12500000000E+03 0.  0.
        -11    1    3    3    0    0  0.10408082222E+02  0.25112721949E+02  0.33211435493E+02  0.42918252842E+02  0.51100000000E-03 0.  1.
         23    2    1    0    0    0 -0.24308143476E+02  0.17358738447E+02 -0.45384533288E+01  0.94787267612E+02  0.89843290806E+02 0.  0.
         11    1    3    3    0    0 -0.34716225698E+02 -0.77539835015E+01 -0.37749888822E+02  0.51869014770E+02  0.51100000000E-03 0. -1.
         22    1    1    0    0    0  0.24308143476E+02 -0.17358738447E+02  0.45384533288E+01  0.30212732388E+02  0.00000000000E+00 0. -1.
</event>
<event>
 5    1  0.1102386E-009  0.9118800E+02  0.7818608E-02  0.1130116E+00
         25   -1    0    0    0    0  0.00000000000E+00  0.00000000000E+00  0.99999998245E-14  0.12500000000E+03  0.12500000000E+03 0.  0.
        -11    1    3    3    0    0 -0.46228774017E+02 -0.23296279263E+02 -0.19992663481E+02  0.55493447974E+02  0.51100000000E-03 0.  1.
         23    2    1    0    0    0 -0.54723445182E+01 -0.25084865723E+02 -0.58869452037E+01  0.98658907260E+02  0.95077477959E+02 0.  0.
         11    1    3    3    0    0  0.40756429499E+02 -0.17885864600E+01  0.14105718277E+02  0.43165459287E+02  0.51100000000E-03 0. -1.
         22    1    1    0    0    0  0.54723445182E+01  0.25084865723E+02  0.58869452037E+01  0.26341092740E+02  0.00000000000E+00 0.  1.
</event>
<event>
 5    1  0.1102386E-009  0.9118800E+02  0.7818608E-02  0.1130116E+00
         25   -1    0    0    0    0  0.00000000000E+00  0.00000000000E+00  0.99999998245E-14  0.12500000000E+03  0.12500000000E+03 0.  0.
        -11    1    3    3    0    0  0.51022630809E+02  0.24026864095E+01 -0.35765211804E+02  0.62355690457E+02  0.51100000000E-03 0.  1.
         23    2    1    0    0    0  0.25388609155E+02 -0.97782060828E-01 -0.14453615274E+02  0.95785311389E+02  0.91221312462E+02 0.  0.
         11    1    3    3    0    0 -0.25634021655E+02 -0.25004684703E+01  0.21311596530E+02  0.33429620932E+02  0.51100000000E-03 0. -1.
         22    1    1    0    0    0 -0.25388609155E+02  0.97782060828E-01  0.14453615274E+02  0.29214688611E+02  0.00000000000E+00 0.  1.
</event>
<event>
 5    1  0.1102386E-009  0.9118800E+02  0.7818608E-02  0.1130116E+00
         25   -1    0    0    0    0  0.00000000000E+00  0.00000000000E+00  0.99999998245E-14  0.12500000000E+03  0.12500000000E+03 0.  0.
        -11    1    3    3    0    0  0.17160180217E+02 -0.20242917942E+02 -0.25555895269E+02  0.36842248780E+02  0.51100000000E-03 0.  1.
         23    2    1    0    0    0 -0.88679626403E+01  0.27217633679E+02 -0.80233999349E+00  0.96362889567E+02  0.92009360349E+02 0.  0.
         11    1    3    3    0    0 -0.26028142858E+02  0.47460551621E+02  0.24753555275E+02  0.59520640788E+02  0.51100000000E-03 0. -1.
         22    1    1    0    0    0  0.88679626403E+01 -0.27217633679E+02  0.80233999349E+00  0.28637110433E+02  0.00000000000E+00 0. -1.
</event>
<event>
 5    1  0.1102386E-009  0.9118800E+02  0.7818608E-02  0.1130116E+00
         25   -1    0    0    0    0  0.00000000000E+00  0.00000000000E+00  0.99999998245E-14  0.12500000000E+03  0.12500000000E+03 0.  0.
        -11    1    3    3    0    0  0.14760167218E+02 -0.29322843938E+02 -0.53539000749E+01  0.33261929577E+02  0.51100000000E-03 0.  1.
         23    2    1    0    0    0 -0.64469565630E+01  0.26552722199E+02  0.11495146550E+02  0.95356304223E+02  0.90631540072E+02 0.  0.
         11    1    3    3    0    0 -0.21207123781E+02  0.55875566138E+02  0.16849046625E+02  0.62094374646E+02  0.51100000000E-03 0. -1.
         22    1    1    0    0    0  0.64469565630E+01 -0.26552722199E+02 -0.11495146550E+02  0.29643695777E+02  0.00000000000E+00 0. -1.
</event>
<event>
 5    1  0.1102386E-009  0.9118800E+02  0.7818608E-02  0.1130116E+00
         25   -1    0    0    0    0  0.00000000000E+00  0.00000000000E+00  0.99999998245E-14  0.12500000000E+03  0.12500000000E+03 0.  0.
        -11    1    3    3    0    0  0.10612916163E+02 -0.71367649872E+01  0.32762946085E+02  0.35170698606E+02  0.51100000000E-03 0. -1.
         23    2    1    0    0    0 -0.17275534306E+02  0.28992678786E+01 -0.21661155087E+02  0.97142227665E+02  0.93062113216E+02 0.  0.
         11    1    3    3    0    0 -0.27888450469E+02  0.10036032866E+02 -0.54424101172E+02  0.61971529059E+02  0.51100000000E-03 0.  1.
         22    1    1    0    0    0  0.17275534306E+02 -0.28992678786E+01  0.21661155087E+02  0.27857772335E+02  0.00000000000E+00 0.  1.
</event>
<event>
 5    1  0.1102386E-009  0.9118800E+02  0.7818608E-02  0.1130116E+00
         25   -1    0    0    0    0  0.00000000000E+00  0.00000000000E+00  0.99999998245E-14  0.12500000000E+03  0.12500000000E+03 0.  0.
        -11    1    3    3    0    0 -0.45225971479E+02  0.98260997151E+01 -0.94879636864E+01  0.47243647054E+02  0.51100000000E-03 0.  1.
         23    2    1    0    0    0 -0.13673505652E+02  0.13868541068E+02  0.24438270903E+02  0.93750515638E+02  0.88389076867E+02 0.  0.
         11    1    3    3    0    0  0.31552465826E+02  0.40424413528E+01  0.33926234589E+02  0.46506868584E+02  0.51100000000E-03 0. -1.
         22    1    1    0    0    0  0.13673505652E+02 -0.13868541068E+02 -0.24438270903E+02  0.31249484362E+02  0.00000000000E+00 0.  1.
</event>
<event>
 5    1  0.1102386E-009  0.9118800E+02  0.7818608E-02  0.1130116E+00
         25   -1    0    0    0    0  0.00000000000E+00  0.00000000000E+00  0.99999998245E-14  0.12500000000E+03  0.12500000000E+03 0.  0.
        -11    1    3    3    0    0  0.30553920065E+02  0.19172319792E+02 -0.69901152620E+01  0.36742095602E+02  0.51100000000E-03 0.  1.
         23    2    1    0    0    0 -0.25639551986E+02  0.14628154143E+02  0.66403935686E+01  0.94743358639E+02  0.89782178965E+02 0.  0.
         11    1    3    3    0    0 -0.56193472052E+02 -0.45441656490E+01  0.13630508831E+02  0.58001263037E+02  0.51100000000E-03 0. -1.
         22    1    1    0    0    0  0.25639551986E+02 -0.14628154143E+02 -0.66403935686E+01  0.30256641361E+02  0.00000000000E+00 0. -1.
</event>
<event>
 5    1  0.1102386E-009  0.9118800E+02  0.7818608E-02  0.1130116E+00
         25   -1    0    0    0    0  0.00000000000E+00  0.00000000000E+00  0.99999998245E-14  0.12500000000E+03  0.12500000000E+03 0.  0.
        -11    1    3    3    0    0  0.36721890847E+02  0.37788716831E+01 -0.22684518774E+02  0.43328564837E+02  0.51100000000E-03 0. -1.
         23    2    1    0    0    0 -0.13300444067E+02 -0.12525247553E+02  0.88835946468E+01  0.10468493435E+03  0.10269485667E+03 0.  0.
         11    1    3    3    0    0 -0.50022334913E+02 -0.16304119236E+02  0.31568113421E+02  0.61356369510E+02  0.51100000000E-03 0.  1.
         22    1    1    0    0    0  0.13300444067E+02  0.12525247553E+02 -0.88835946468E+01  0.20315065653E+02  0.00000000000E+00 0.  1.
</event>
<event>
 5    1  0.1102386E-009  0.9118800E+02  0.7818608E-02  0.1130116E+00
         25   -1    0    0    0    0  0.00000000000E+00  0.00000000000E+00  0.99999998245E-14  0.12500000000E+03  0.12500000000E+03 0.  0.
        -11    1    3    3    0    0 -0.66069457865E+01 -0.51627722512E+01  0.30214090200E+02  0.31355975456E+02  0.51100000000E-03 0. -1.
         23    2    1    0    0    0  0.64811772407E+01  0.67299714931E+01 -0.29720677283E+02  0.93845275914E+02  0.88522985593E+02 0.  0.
         11    1    3    3    0    0  0.13088123027E+02  0.11892743744E+02 -0.59934767483E+02  0.62489300457E+02  0.51100000000E-03 0.  1.
         22    1    1    0    0    0 -0.64811772407E+01 -0.67299714931E+01  0.29720677283E+02  0.31154724086E+02  0.00000000000E+00 0.  1.
</event>
<event>
 5    1  0.1102386E-009  0.9118800E+02  0.7818608E-02  0.1130116E+00
         25   -1    0    0    0    0  0.00000000000E+00  0.00000000000E+00  0.99999998245E-14  0.12500000000E+03  0.12500000000E+03 0.  0.
        -11    1    3    3    0    0 -0.21121672009E+02  0.47596596321E+02  0.15343377325E+02  0.54286096174E+02  0.51100000000E-03 0.  1.
         23    2    1    0    0    0 -0.21216579544E+02  0.12776147890E+02 -0.10952104289E+02  0.97920085103E+02  0.94101122607E+02 0.  0.
         11    1    3    3    0    0 -0.94907534741E-01 -0.34820448430E+02 -0.26295481615E+02  0.43633988930E+02  0.51100000000E-03 0. -1.
         22    1    1    0    0    0  0.21216579544E+02 -0.12776147890E+02  0.10952104289E+02  0.27079914897E+02  0.00000000000E+00 0.  1.
</event>
<event>
 5    1  0.1102386E-009  0.9118800E+02  0.7818608E-02  0.1130116E+00
         25   -1    0    0    0    0  0.00000000000E+00  0.00000000000E+00  0.99999998245E-14  0.12500000000E+03  0.12500000000E+03 0.  0.
        -11    1    3    3    0    0  0.12712782727E+02 -0.47061944032E+02 -0.30620111468E+02  0.57567635415E+02  0.51100000000E-03 0. -1.
         23    2    1    0    0    0  0.14567973875E+02 -0.10886598232E+02 -0.24786543302E+02  0.94257251055E+02  0.89102821300E+02 0.  0.
         11    1    3    3    0    0  0.18551911483E+01  0.36175345800E+02  0.58335681665E+01  0.36689615639E+02  0.51100000000E-03 0.  1.
         22    1    1    0    0    0 -0.14567973875E+02  0.10886598232E+02  0.24786543302E+02  0.30742748945E+02  0.00000000000E+00 0. -1.
</event>
<event>
 5    1  0.1102386E-009  0.9118800E+02  0.7818608E-02  0.1130116E+00
         25   -1    0    0    0    0  0.00000000000E+00  0.00000000000E+00  0.99999998245E-14  0.12500000000E+03  0.12500000000E+03 0.  0.
        -11    1    3    3    0    0  0.34932741172E+02  0.90278769165E+01  0.19569050721E+02  0.41045666200E+02  0.51100000000E-03 0.  1.
         23    2    1    0    0    0 -0.12593469159E+02 -0.94692016600E+01  0.28129762048E+02  0.92758028000E+02  0.86974174328E+02 0.  0.
         11    1    3    3    0    0 -0.47526210331E+02 -0.18497078576E+02  0.85607113273E+01  0.51712361800E+02  0.51100000000E-03 0. -1.
         22    1    1    0    0    0  0.12593469159E+02  0.94692016600E+01 -0.28129762048E+02  0.32241972000E+02  0.00000000000E+00 0.  1.
</event>
<event>
 5    1  0.1102386E-009  0.9118800E+02  0.7818608E-02  0.1130116E+00
         25   -1    0    0    0    0  0.00000000000E+00  0.00000000000E+00  0.99999998245E-14  0.12500000000E+03  0.12500000000E+03 0.  0.
        -11    1    3    3    0    0  0.12283213378E+02 -0.88908095402E+01 -0.46926458271E+02  0.49315477401E+02  0.51100000000E-03 0.  1.
         23    2    1    0    0    0 -0.20692213141E+02 -0.14762752923E+02 -0.15600758808E+02  0.95175677142E+02  0.90382073917E+02 0.  0.
         11    1    3    3    0    0 -0.32975426519E+02 -0.58719433826E+01  0.31325699463E+02  0.45860199741E+02  0.51100000000E-03 0. -1.
         22    1    1    0    0    0  0.20692213141E+02  0.14762752923E+02  0.15600758808E+02  0.29824322858E+02  0.00000000000E+00 0. -1.
</event>
<event>
 5    1  0.1102386E-009  0.9118800E+02  0.7818608E-02  0.1130116E+00
         25   -1    0    0    0    0  0.00000000000E+00  0.00000000000E+00  0.99999998245E-14  0.12500000000E+03  0.12500000000E+03 0.  0.
        -11    1    3    3    0    0  0.32283046931E+02  0.41705950947E+02  0.10542128364E+02  0.53783993290E+02  0.51100000000E-03 0.  1.
         23    2    1    0    0    0  0.17889357565E+02 -0.12711661733E+01  0.17854304012E+02  0.99693456394E+02  0.96428025483E+02 0.  0.
         11    1    3    3    0    0 -0.14393689367E+02 -0.42977117120E+02  0.73121756484E+01  0.45909463104E+02  0.51100000000E-03 0. -1.
         22    1    1    0    0    0 -0.17889357565E+02  0.12711661733E+01 -0.17854304012E+02  0.25306543606E+02  0.00000000000E+00 0.  1.
</event>
<event>
 5    1  0.1102386E-009  0.9118800E+02  0.7818608E-02  0.1130116E+00
         25   -1    0    0    0    0  0.00000000000E+00  0.00000000000E+00  0.99999998245E-14  0.12500000000E+03  0.12500000000E+03 0.  0.
        -11    1    3    3    0    0  0.14049865252E+02  0.22515057266E+02 -0.34965193711E+02  0.43896369882E+02  0.51100000000E-03 0. -1.
         23    2    1    0    0    0  0.25159383982E+02 -0.10690533877E+02  0.51916360261E+01  0.97174917762E+02  0.93106011839E+02 0.  0.
         11    1    3    3    0    0  0.11109518729E+02 -0.33205591143E+02  0.40156829737E+02  0.53278547881E+02  0.51100000000E-03 0.  1.
         22    1    1    0    0    0 -0.25159383982E+02  0.10690533877E+02 -0.51916360261E+01  0.27825082238E+02  0.00000000000E+00 0.  1.
</event>
<event>
 5    1  0.1102386E-009  0.9118800E+02  0.7818608E-02  0.1130116E+00
         25   -1    0    0    0    0  0.00000000000E+00  0.00000000000E+00  0.99999998245E-14  0.12500000000E+03  0.12500000000E+03 0.  0.
        -11    1    3    3    0    0 -0.11422357781E+02  0.42182115815E+02 -0.31432067431E+02  0.53830994930E+02  0.51100000000E-03 0. -1.
         23    2    1    0    0    0  0.45411898642E+01  0.28548722819E+02  0.47913882823E+01  0.95697962841E+02  0.91101540658E+02 0.  0.
         11    1    3    3    0    0  0.15963547646E+02 -0.13633392996E+02  0.36223455713E+02  0.41866967911E+02  0.51100000000E-03 0.  1.
         22    1    1    0    0    0 -0.45411898642E+01 -0.28548722819E+02 -0.47913882823E+01  0.29302037159E+02  0.00000000000E+00 0. -1.
</event>
<event>
 5    1  0.1102386E-009  0.9118800E+02  0.7818608E-02  0.1130116E+00
         25   -1    0    0    0    0  0.00000000000E+00  0.00000000000E+00  0.99999998245E-14  0.12500000000E+03  0.12500000000E+03 0.  0.
        -11    1    3    3    0    0  0.37268360665E+02 -0.36817469836E+02  0.23050935596E+02  0.57234626092E+02  0.51100000000E-03 0.  1.
         23    2    1    0    0    0  0.15553375084E+02 -0.22491200654E+02 -0.67910717820E+01  0.96824119547E+02  0.92633848494E+02 0.  0.
         11    1    3    3    0    0 -0.21714985581E+02  0.14326269182E+02 -0.29842007377E+02  0.39589493455E+02  0.51100000000E-03 0. -1.
         22    1    1    0    0    0 -0.15553375084E+02  0.22491200654E+02  0.67910717820E+01  0.28175880453E+02  0.00000000000E+00 0.  1.
</event>
<event>
 5    1  0.1102386E-009  0.9118800E+02  0.7818608E-02  0.1130116E+00
         25   -1    0    0    0    0  0.00000000000E+00  0.00000000000E+00  0.99999998245E-14  0.12500000000E+03  0.12500000000E+03 0.  0.
        -11    1    3    3    0    0 -0.21602715379E+02 -0.99491648417E+01 -0.24120506401E+02  0.33874208804E+02  0.51100000000E-03 0. -1.
         23    2    1    0    0    0  0.26043798007E+02 -0.29743128861E+01  0.13992350860E+02  0.95286167626E+02  0.90534755241E+02 0.  0.
         11    1    3    3    0    0  0.47646513385E+02  0.69748519555E+01  0.38112857261E+02  0.61411958822E+02  0.51100000000E-03 0.  1.
         22    1    1    0    0    0 -0.26043798007E+02  0.29743128861E+01 -0.13992350860E+02  0.29713832374E+02  0.00000000000E+00 0.  1.
</event>
<event>
 5    1  0.1102386E-009  0.9118800E+02  0.7818608E-02  0.1130116E+00
         25   -1    0    0    0    0  0.00000000000E+00  0.00000000000E+00  0.99999998245E-14  0.12500000000E+03  0.12500000000E+03 0.  0.
        -11    1    3    3    0    0 -0.21127698720E+01  0.15200397503E+02 -0.35521997888E+02  0.38695325493E+02  0.51100000000E-03 0. -1.
         23    2    1    0    0    0  0.22114225476E+02  0.16113693029E+02  0.14317145723E+02  0.94118440242E+02  0.88907874007E+02 0.  0.
         11    1    3    3    0    0  0.24226995348E+02  0.91329552567E+00  0.49839143611E+02  0.55423114749E+02  0.51100000000E-03 0.  1.
         22    1    1    0    0    0 -0.22114225476E+02 -0.16113693029E+02 -0.14317145723E+02  0.30881559758E+02  0.00000000000E+00 0.  1.
</event>
<event>
 5    1  0.1102386E-009  0.9118800E+02  0.7818608E-02  0.1130116E+00
         25   -1    0    0    0    0  0.00000000000E+00  0.00000000000E+00  0.99999998245E-14  0.12500000000E+03  0.12500000000E+03 0.  0.
        -11    1    3    3    0    0  0.64643126966E-01 -0.36032149536E+02 -0.43270692214E+02  0.56308727422E+02  0.51100000000E-03 0.  1.
         23    2    1    0    0    0  0.12031656865E+02 -0.27570390315E+01 -0.27158516283E+02  0.95168019881E+02  0.90371483169E+02 0.  0.
         11    1    3    3    0    0  0.11967013738E+02  0.33275110505E+02  0.16112175931E+02  0.38859292459E+02  0.51100000000E-03 0. -1.
         22    1    1    0    0    0 -0.12031656865E+02  0.27570390315E+01  0.27158516283E+02  0.29831980119E+02  0.00000000000E+00 0.  1.
</event>
<event>
 5    1  0.1102386E-009  0.9118800E+02  0.7818608E-02  0.1130116E+00
         25   -1    0    0    0    0  0.00000000000E+00  0.00000000000E+00  0.99999998245E-14  0.12500000000E+03  0.12500000000E+03 0.  0.
        -11    1    3    3    0    0 -0.17908568583E+02  0.39683261593E+02 -0.10549958577E+02  0.44797094834E+02  0.51100000000E-03 0.  1.
         23    2    1    0    0    0 -0.52070800754E+01 -0.14830179938E+01 -0.31735758439E+02  0.92805724282E+02  0.87042696825E+02 0.  0.
         11    1    3    3    0    0  0.12701488507E+02 -0.41166279587E+02 -0.21185799863E+02  0.48008629448E+02  0.51100000000E-03 0. -1.
         22    1    1    0    0    0  0.52070800754E+01  0.14830179938E+01  0.31735758439E+02  0.32194275718E+02  0.00000000000E+00 0.  1.
</event>
<event>
 5    1  0.1102386E-009  0.9118800E+02  0.7818608E-02  0.1130116E+00
         25   -1    0    0    0    0  0.00000000000E+00  0.00000000000E+00  0.99999998245E-14  0.12500000000E+03  0.12500000000E+03 0.  0.
        -11    1    3    3    0    0 -0.21880651080E+02 -0.24600316084E+02  0.12131284466E+02  0.35087127357E+02  0.51100000000E-03 0. -1.
         23    2    1    0    0    0  0.29045846018E+01  0.28881469928E+02 -0.26324853734E+01  0.95853715569E+02  0.91314998178E+02 0.  0.
         11    1    3    3    0    0  0.24785235681E+02  0.53481786012E+02 -0.14763769840E+02  0.60766588212E+02  0.51100000000E-03 0.  1.
         22    1    1    0    0    0 -0.29045846018E+01 -0.28881469928E+02  0.26324853734E+01  0.29146284431E+02  0.00000000000E+00 0.  1.
</event>
<event>
 5    1  0.1102386E-009  0.9118800E+02  0.7818608E-02  0.1130116E+00
         25   -1    0    0    0    0  0.00000000000E+00  0.00000000000E+00  0.99999998245E-14  0.12500000000E+03  0.12500000000E+03 0.  0.
        -11    1    3    3    0    0 -0.13929616424E+02  0.20486324606E+02  0.43683406036E+02  0.50219156432E+02  0.51100000000E-03 0.  1.
         23    2    1    0    0    0 -0.68581699853E+01 -0.18635777735E+02  0.21447952838E+02  0.95770881158E+02  0.91201536662E+02 0.  0.
         11    1    3    3    0    0  0.70714464387E+01 -0.39122102341E+02 -0.22235453198E+02  0.45551724726E+02  0.51100000000E-03 0. -1.
         22    1    1    0    0    0  0.68581699853E+01  0.18635777735E+02 -0.21447952838E+02  0.29229118842E+02  0.00000000000E+00 0.  1.
</event>
<event>
 5    1  0.1102386E-009  0.9118800E+02  0.7818608E-02  0.1130116E+00
         25   -1    0    0    0    0  0.00000000000E+00  0.00000000000E+00  0.99999998245E-14  0.12500000000E+03  0.12500000000E+03 0.  0.
        -11    1    3    3    0    0  0.18023449759E+02  0.10432371528E+01 -0.47430695668E+02  0.50750408636E+02  0.51100000000E-03 0. -1.
         23    2    1    0    0    0  0.28592183432E+02 -0.59388683414E+01 -0.45719153113E+01  0.95441828199E+02  0.90749419005E+02 0.  0.
         11    1    3    3    0    0  0.10568733674E+02 -0.69821054942E+01  0.42858780357E+02  0.44691419563E+02  0.51100000000E-03 0.  1.
         22    1    1    0    0    0 -0.28592183432E+02  0.59388683414E+01  0.45719153113E+01  0.29558171801E+02  0.00000000000E+00 0.  1.
</event>
<event>
 5    1  0.1102386E-009  0.9118800E+02  0.7818608E-02  0.1130116E+00
         25   -1    0    0    0    0  0.00000000000E+00  0.00000000000E+00  0.99999998245E-14  0.12500000000E+03  0.12500000000E+03 0.  0.
        -11    1    3    3    0    0 -0.39914693539E+02  0.24023131528E+02 -0.15476766235E+02  0.49089957243E+02  0.51100000000E-03 0.  1.
         23    2    1    0    0    0  0.50298393827E+01  0.18475062953E+02 -0.23082112575E+02  0.95009815668E+02  0.90152392741E+02 0.  0.
         11    1    3    3    0    0  0.44944532922E+02 -0.55480685750E+01 -0.76053463400E+01  0.45919858424E+02  0.51100000000E-03 0. -1.
         22    1    1    0    0    0 -0.50298393827E+01 -0.18475062953E+02  0.23082112575E+02  0.29990184332E+02  0.00000000000E+00 0. -1.
</event>
<event>
 5    1  0.1102386E-009  0.9118800E+02  0.7818608E-02  0.1130116E+00
         25   -1    0    0    0    0  0.00000000000E+00  0.00000000000E+00  0.99999998245E-14  0.12500000000E+03  0.12500000000E+03 0.  0.
        -11    1    3    3    0    0 -0.26407481705E+02 -0.50731798183E+02 -0.28614782859E+01  0.57264810269E+02  0.51100000000E-03 0.  1.
         23    2    1    0    0    0 -0.71164491074E+00 -0.25728208962E+02 -0.15112226009E+02  0.95153282428E+02  0.90351096325E+02 0.  0.
         11    1    3    3    0    0  0.25695836795E+02  0.25003589221E+02 -0.12250747723E+02  0.37888472159E+02  0.51100000000E-03 0. -1.
         22    1    1    0    0    0  0.71164491074E+00  0.25728208962E+02  0.15112226009E+02  0.29846717572E+02  0.00000000000E+00 0.  1.
</event>
<event>
 5    1  0.1102386E-009  0.9118800E+02  0.7818608E-02  0.1130116E+00
         25   -1    0    0    0    0  0.00000000000E+00  0.00000000000E+00  0.99999998245E-14  0.12500000000E+03  0.12500000000E+03 0.  0.
        -11    1    3    3    0    0  0.16714550055E+01 -0.41642187953E+02 -0.20200179121E+02  0.46313203475E+02  0.51100000000E-03 0.  1.
         23    2    1    0    0    0 -0.28444817987E+02 -0.64883653283E+01 -0.31024788035E+01  0.95660062548E+02  0.91049522992E+02 0.  0.
         11    1    3    3    0    0 -0.30116272992E+02  0.35153822624E+02  0.17097700317E+02  0.49346859074E+02  0.51100000000E-03 0. -1.
         22    1    1    0    0    0  0.28444817987E+02  0.64883653283E+01  0.31024788035E+01  0.29339937452E+02  0.00000000000E+00 0.  1.
</event>
<event>
 5    1  0.1102386E-009  0.9118800E+02  0.7818608E-02  0.1130116E+00
         25   -1    0    0    0    0  0.00000000000E+00  0.00000000000E+00  0.99999998245E-14  0.12500000000E+03  0.12500000000E+03 0.  0.
        -11    1    3    3    0    0  0.10544446302E+02  0.34815923350E+02  0.36965925615E+01  0.36564992320E+02  0.51100000000E-03 0.  1.
         23    2    1    0    0    0  0.17758149960E+02 -0.23554547081E+02 -0.89242757569E-01  0.95501245069E+02  0.90831224077E+02 0.  0.
         11    1    3    3    0    0  0.72137036588E+01 -0.58370470431E+02 -0.37858353191E+01  0.58936252749E+02  0.51100000000E-03 0. -1.
         22    1    1    0    0    0 -0.17758149960E+02  0.23554547081E+02  0.89242757569E-01  0.29498754931E+02  0.00000000000E+00 0. -1.
</event>
<event>
 5    1  0.1102386E-009  0.9118800E+02  0.7818608E-02  0.1130116E+00
         25   -1    0    0    0    0  0.00000000000E+00  0.00000000000E+00  0.99999998245E-14  0.12500000000E+03  0.12500000000E+03 0.  0.
        -11    1    3    3    0    0 -0.27602496170E+01  0.56647352028E+02  0.22338324852E+02  0.60955247741E+02  0.51100000000E-03 0.  1.
         23    2    1    0    0    0 -0.92368404609E+01  0.22240640231E+02  0.14686312154E+02  0.96792677116E+02  0.92591410396E+02 0.  0.
         11    1    3    3    0    0 -0.64765908439E+01 -0.34406711797E+02 -0.76520126987E+01  0.35837429375E+02  0.51100000000E-03 0. -1.
         22    1    1    0    0    0  0.92368404609E+01 -0.22240640231E+02 -0.14686312154E+02  0.28207322884E+02  0.00000000000E+00 0.  1.
</event>
<event>
 5    1  0.1102386E-009  0.9118800E+02  0.7818608E-02  0.1130116E+00
         25   -1    0    0    0    0  0.00000000000E+00  0.00000000000E+00  0.99999998245E-14  0.12500000000E+03  0.12500000000E+03 0.  0.
        -11    1    3    3    0    0  0.22984467654E+02 -0.14709485281E+02  0.48129144740E+02  0.55326930912E+02  0.51100000000E-03 0.  1.
         23    2    1    0    0    0  0.59288974163E+01 -0.23344962732E+02  0.43930710584E+02  0.74899636309E+02  0.55676827113E+02 0.  0.
         11    1    3    3    0    0 -0.17055570238E+02 -0.86354774509E+01 -0.41984341557E+01  0.19572705397E+02  0.51100000000E-03 0. -1.
         22    1    1    0    0    0 -0.59288974163E+01  0.23344962732E+02 -0.43930710584E+02  0.50100363691E+02  0.00000000000E+00 0.  1.
</event>
<event>
 5    1  0.1102386E-009  0.9118800E+02  0.7818608E-02  0.1130116E+00
         25   -1    0    0    0    0  0.00000000000E+00  0.00000000000E+00  0.99999998245E-14  0.12500000000E+03  0.12500000000E+03 0.  0.
        -11    1    3    3    0    0  0.24287646763E+02  0.63276482440E+01  0.22834849191E+02  0.33931685125E+02  0.51100000000E-03 0.  1.
         23    2    1    0    0    0 -0.19301618459E+02 -0.10545615387E+02 -0.18447571853E+02  0.96293286738E+02  0.91914752268E+02 0.  0.
         11    1    3    3    0    0 -0.43589265223E+02 -0.16873263631E+02 -0.41282421044E+02  0.62361601613E+02  0.51100000000E-03 0. -1.
         22    1    1    0    0    0  0.19301618459E+02  0.10545615387E+02  0.18447571853E+02  0.28706713262E+02  0.00000000000E+00 0. -1.
</event>
<event>
 5    1  0.1102386E-009  0.9118800E+02  0.7818608E-02  0.1130116E+00
         25   -1    0    0    0    0  0.00000000000E+00  0.00000000000E+00  0.99999998245E-14  0.12500000000E+03  0.12500000000E+03 0.  0.
        -11    1    3    3    0    0 -0.29623218945E+01 -0.41212680036E+02  0.73245214407E+01  0.41963185786E+02  0.51100000000E-03 0.  1.
         23    2    1    0    0    0  0.43331432950E+01  0.88462801789E+01  0.27012809411E+02  0.96247179684E+02  0.91852027311E+02 0.  0.
         11    1    3    3    0    0  0.72954651895E+01  0.50058960214E+02  0.19688287971E+02  0.54283993898E+02  0.51100000000E-03 0. -1.
         22    1    1    0    0    0 -0.43331432950E+01 -0.88462801789E+01 -0.27012809411E+02  0.28752820316E+02  0.00000000000E+00 0. -1.
</event>
<event>
 5    1  0.1102386E-009  0.9118800E+02  0.7818608E-02  0.1130116E+00
         25   -1    0    0    0    0  0.00000000000E+00  0.00000000000E+00  0.99999998245E-14  0.12500000000E+03  0.12500000000E+03 0.  0.
        -11    1    3    3    0    0 -0.12092946493E+02  0.37909042740E+02 -0.47467042138E+02  0.61939123064E+02  0.51100000000E-03 0.  1.
         23    2    1    0    0    0 -0.35733742064E+01  0.13312131836E+02 -0.25556333243E+02  0.95963677470E+02  0.91465399838E+02 0.  0.
         11    1    3    3    0    0  0.85195722863E+01 -0.24596910904E+02  0.21910708895E+02  0.34024554406E+02  0.51100000000E-03 0. -1.
         22    1    1    0    0    0  0.35733742064E+01 -0.13312131836E+02  0.25556333243E+02  0.29036322530E+02  0.00000000000E+00 0.  1.
</event>
<event>
 5    1  0.1102386E-009  0.9118800E+02  0.7818608E-02  0.1130116E+00
         25   -1    0    0    0    0  0.00000000000E+00  0.00000000000E+00  0.99999998245E-14  0.12500000000E+03  0.12500000000E+03 0.  0.
        -11    1    3    3    0    0  0.52702356921E+02  0.28808661843E+02  0.42401977799E+01  0.60211765459E+02  0.51100000000E-03 0. -1.
         23    2    1    0    0    0  0.28056182947E+02  0.78704787767E+01 -0.79877414373E+01  0.94785800507E+02  0.89841249583E+02 0.  0.
         11    1    3    3    0    0 -0.24646173974E+02 -0.20938183067E+02 -0.12227939217E+02  0.34574035047E+02  0.51100000000E-03 0.  1.
         22    1    1    0    0    0 -0.28056182947E+02 -0.78704787767E+01  0.79877414373E+01  0.30214199493E+02  0.00000000000E+00 0. -1.
</event>
<event>
 5    1  0.1102386E-009  0.9118800E+02  0.7818608E-02  0.1130116E+00
         25   -1    0    0    0    0  0.00000000000E+00  0.00000000000E+00  0.99999998245E-14  0.12500000000E+03  0.12500000000E+03 0.  0.
        -11    1    3    3    0    0  0.47795548405E+02  0.12874585585E+02  0.37999411079E+01  0.49644828069E+02  0.51100000000E-03 0. -1.
         23    2    1    0    0    0  0.18604394826E+02 -0.22487812258E+02  0.42806373647E+01  0.95501710842E+02  0.90831865061E+02 0.  0.
         11    1    3    3    0    0 -0.29191153579E+02 -0.35362397843E+02  0.48069625673E+00  0.45856882773E+02  0.51100000000E-03 0.  1.
         22    1    1    0    0    0 -0.18604394826E+02  0.22487812258E+02 -0.42806373647E+01  0.29498289158E+02  0.00000000000E+00 0. -1.
</event>
<event>
 5    1  0.1102386E-009  0.9118800E+02  0.7818608E-02  0.1130116E+00
         25   -1    0    0    0    0  0.00000000000E+00  0.00000000000E+00  0.99999998245E-14  0.12500000000E+03  0.12500000000E+03 0.  0.
        -11    1    3    3    0    0 -0.22266483128E+02 -0.11308070054E+02  0.30245962605E+02  0.39223551259E+02  0.51100000000E-03 0.  1.
         23    2    1    0    0    0 -0.12339193324E+02  0.23054041570E+02 -0.13371535694E+02  0.95630926276E+02  0.91009513617E+02 0.  0.
         11    1    3    3    0    0  0.99272898038E+01  0.34362111625E+02 -0.43617498298E+02  0.56407375016E+02  0.51100000000E-03 0. -1.
         22    1    1    0    0    0  0.12339193324E+02 -0.23054041570E+02  0.13371535694E+02  0.29369073724E+02  0.00000000000E+00 0. -1.
</event>
<event>
 5    1  0.1102386E-009  0.9118800E+02  0.7818608E-02  0.1130116E+00
         25   -1    0    0    0    0  0.00000000000E+00  0.00000000000E+00  0.99999998245E-14  0.12500000000E+03  0.12500000000E+03 0.  0.
        -11    1    3    3    0    0  0.61083357269E+02  0.21000900964E+01  0.45652236996E+01  0.61289706978E+02  0.51100000000E-03 0. -1.
         23    2    1    0    0    0  0.27322347422E+02 -0.56467253876E+01  0.76648622051E+01  0.96066519586E+02  0.91605839860E+02 0.  0.
         11    1    3    3    0    0 -0.33761009848E+02 -0.77468154841E+01  0.30996385055E+01  0.34776812608E+02  0.51100000000E-03 0.  1.
         22    1    1    0    0    0 -0.27322347422E+02  0.56467253876E+01 -0.76648622051E+01  0.28933480414E+02  0.00000000000E+00 0. -1.
</event>
<event>
 5    1  0.1102386E-009  0.9118800E+02  0.7818608E-02  0.1130116E+00
         25   -1    0    0    0    0  0.00000000000E+00  0.00000000000E+00  0.99999998245E-14  0.12500000000E+03  0.12500000000E+03 0.  0.
        -11    1    3    3    0    0 -0.14035668004E+02 -0.31023413610E+02 -0.54546679692E+01  0.34484860029E+02  0.51100000000E-03 0.  1.
         23    2    1    0    0    0 -0.14495772759E+01  0.13760964051E+02 -0.33465691533E+02  0.88786495397E+02  0.81065552790E+02 0.  0.
         11    1    3    3    0    0  0.12586090728E+02  0.44784377661E+02 -0.28011023563E+02  0.54301635368E+02  0.51100000000E-03 0. -1.
         22    1    1    0    0    0  0.14495772759E+01 -0.13760964051E+02  0.33465691533E+02  0.36213504603E+02  0.00000000000E+00 0. -1.
</event>
<event>
 5    1  0.1102386E-009  0.9118800E+02  0.7818608E-02  0.1130116E+00
         25   -1    0    0    0    0  0.00000000000E+00  0.00000000000E+00  0.99999998245E-14  0.12500000000E+03  0.12500000000E+03 0.  0.
        -11    1    3    3    0    0 -0.16469639014E+02 -0.44469953609E+02  0.38510470204E+02  0.61089132412E+02  0.51100000000E-03 0.  1.
         23    2    1    0    0    0 -0.50175552453E+01 -0.25960335659E+02  0.10527612392E+02  0.96540458352E+02  0.92250282319E+02 0.  0.
         11    1    3    3    0    0  0.11452083769E+02  0.18509617950E+02 -0.27982857812E+02  0.35451325940E+02  0.51100000000E-03 0. -1.
         22    1    1    0    0    0  0.50175552453E+01  0.25960335659E+02 -0.10527612392E+02  0.28459541648E+02  0.00000000000E+00 0.  1.
</event>
<event>
 5    1  0.1102386E-009  0.9118800E+02  0.7818608E-02  0.1130116E+00
         25   -1    0    0    0    0  0.00000000000E+00  0.00000000000E+00  0.99999998245E-14  0.12500000000E+03  0.12500000000E+03 0.  0.
        -11    1    3    3    0    0 -0.14278127381E+02 -0.38779024153E+02  0.46214065543E+02  0.61995302161E+02  0.51100000000E-03 0. -1.
         23    2    1    0    0    0 -0.10109084652E+02 -0.16767703038E+02  0.27814514394E+02  0.90985346266E+02  0.84388011984E+02 0.  0.
         11    1    3    3    0    0  0.41690427289E+01  0.22011321115E+02 -0.18399551149E+02  0.28990044106E+02  0.51100000000E-03 0.  1.
         22    1    1    0    0    0  0.10109084652E+02  0.16767703038E+02 -0.27814514394E+02  0.34014653734E+02  0.00000000000E+00 0. -1.
</event>
<event>
 5    1  0.1102386E-009  0.9118800E+02  0.7818608E-02  0.1130116E+00
         25   -1    0    0    0    0  0.00000000000E+00  0.00000000000E+00  0.99999998245E-14  0.12500000000E+03  0.12500000000E+03 0.  0.
        -11    1    3    3    0    0 -0.32062937941E+02  0.37043887630E+02  0.38489231026E+02  0.62303310549E+02  0.51100000000E-03 0. -1.
         23    2    1    0    0    0 -0.15761561538E+02  0.13473820403E+02  0.18118442238E+02  0.97463685659E+02  0.93492894996E+02 0.  0.
         11    1    3    3    0    0  0.16301376403E+02 -0.23570067226E+02 -0.20370788789E+02  0.35160375109E+02  0.51100000000E-03 0.  1.
         22    1    1    0    0    0  0.15761561538E+02 -0.13473820403E+02 -0.18118442238E+02  0.27536314341E+02  0.00000000000E+00 0. -1.
</event>
<event>
 5    1  0.1102386E-009  0.9118800E+02  0.7818608E-02  0.1130116E+00
         25   -1    0    0    0    0  0.00000000000E+00  0.00000000000E+00  0.99999998245E-14  0.12500000000E+03  0.12500000000E+03 0.  0.
        -11    1    3    3    0    0 -0.15195209575E+02 -0.83378451715E+01 -0.29994509160E+02  0.34642237747E+02  0.51100000000E-03 0.  1.
         23    2    1    0    0    0  0.27646298450E+02  0.52482642101E+01  0.10329124898E+02  0.95024127763E+02  0.90172234866E+02 0.  0.
         11    1    3    3    0    0  0.42841508025E+02  0.13586109382E+02  0.40323634058E+02  0.60381890016E+02  0.51100000000E-03 0. -1.
         22    1    1    0    0    0 -0.27646298450E+02 -0.52482642101E+01 -0.10329124898E+02  0.29975872237E+02  0.00000000000E+00 0. -1.
</event>
<event>
 5    1  0.1102386E-009  0.9118800E+02  0.7818608E-02  0.1130116E+00
         25   -1    0    0    0    0  0.00000000000E+00  0.00000000000E+00  0.99999998245E-14  0.12500000000E+03  0.12500000000E+03 0.  0.
        -11    1    3    3    0    0  0.27025238832E+02  0.25424246123E+02  0.26542266671E+02  0.45620694264E+02  0.51100000000E-03 0.  1.
         23    2    1    0    0    0 -0.12314042350E+02 -0.97256265266E+01  0.21170172686E+02  0.98648535868E+02  0.95063841533E+02 0.  0.
         11    1    3    3    0    0 -0.39339281182E+02 -0.35149872649E+02 -0.53720939851E+01  0.53027841604E+02  0.51100000000E-03 0. -1.
         22    1    1    0    0    0  0.12314042350E+02  0.97256265266E+01 -0.21170172686E+02  0.26351464132E+02  0.00000000000E+00 0. -1.
</event>
<event>
 5    1  0.1102386E-009  0.9118800E+02  0.7818608E-02  0.1130116E+00
         25   -1    0    0    0    0  0.00000000000E+00  0.00000000000E+00  0.99999998245E-14  0.12500000000E+03  0.12500000000E+03 0.  0.
        -11    1    3    3    0    0 -0.67304749662E+01 -0.49955918593E+02 -0.27712992598E+02  0.57523065415E+02  0.51100000000E-03 0. -1.
         23    2    1    0    0    0 -0.19916504405E+02 -0.18940739522E+02 -0.89572023874E+01  0.96092384465E+02  0.91641126773E+02 0.  0.
         11    1    3    3    0    0 -0.13186029439E+02  0.31015179072E+02  0.18755790211E+02  0.38569319049E+02  0.51100000000E-03 0.  1.
         22    1    1    0    0    0  0.19916504405E+02  0.18940739522E+02  0.89572023874E+01  0.28907615535E+02  0.00000000000E+00 0. -1.
</event>
<event>
 5    1  0.1102386E-009  0.9118800E+02  0.7818608E-02  0.1130116E+00
         25   -1    0    0    0    0  0.00000000000E+00  0.00000000000E+00  0.99999998245E-14  0.12500000000E+03  0.12500000000E+03 0.  0.
        -11    1    3    3    0    0  0.32217630254E+02  0.10584077082E+02  0.60735076154E+01  0.34451210166E+02  0.51100000000E-03 0.  1.
         23    2    1    0    0    0 -0.21914653403E+02 -0.16740747788E+02  0.11046380949E+02  0.95292640603E+02  0.90543691943E+02 0.  0.
         11    1    3    3    0    0 -0.54132283658E+02 -0.27324824870E+02  0.49728733331E+01  0.60841430437E+02  0.51100000000E-03 0. -1.
         22    1    1    0    0    0  0.21914653403E+02  0.16740747788E+02 -0.11046380949E+02  0.29707359397E+02  0.00000000000E+00 0. -1.
</event>
<event>
 5    1  0.1102386E-009  0.9118800E+02  0.7818608E-02  0.1130116E+00
         25   -1    0    0    0    0  0.00000000000E+00  0.00000000000E+00  0.99999998245E-14  0.12500000000E+03  0.12500000000E+03 0.  0.
        -11    1    3    3    0    0  0.48948131426E+02  0.18278804718E+02 -0.47677626065E+01  0.52466806960E+02  0.51100000000E-03 0.  1.
         23    2    1    0    0    0  0.21882882059E+02 -0.15625368665E+02 -0.10311282090E+02  0.96201819303E+02  0.91790276314E+02 0.  0.
         11    1    3    3    0    0 -0.27065249368E+02 -0.33904173383E+02 -0.55435194833E+01  0.43735012343E+02  0.51100000000E-03 0. -1.
         22    1    1    0    0    0 -0.21882882059E+02  0.15625368665E+02  0.10311282090E+02  0.28798180697E+02  0.00000000000E+00 0.  1.
</event>
<event>
 5    1  0.1102386E-009  0.9118800E+02  0.7818608E-02  0.1130116E+00
         25   -1    0    0    0    0  0.00000000000E+00  0.00000000000E+00  0.99999998245E-14  0.12500000000E+03  0.12500000000E+03 0.  0.
        -11    1    3    3    0    0  0.37302351856E+02 -0.91675068679E+00  0.18074611073E+02  0.41460794149E+02  0.51100000000E-03 0.  1.
         23    2    1    0    0    0 -0.15478318766E+02 -0.13209148603E+02  0.21033267654E+02  0.95734691069E+02  0.91151921358E+02 0.  0.
         11    1    3    3    0    0 -0.52780670622E+02 -0.12292397916E+02  0.29586565809E+01  0.54273896920E+02  0.51100000000E-03 0. -1.
         22    1    1    0    0    0  0.15478318766E+02  0.13209148603E+02 -0.21033267654E+02  0.29265308931E+02  0.00000000000E+00 0. -1.
</event>
<event>
 5    1  0.1102386E-009  0.9118800E+02  0.7818608E-02  0.1130116E+00
         25   -1    0    0    0    0  0.00000000000E+00  0.00000000000E+00  0.99999998245E-14  0.12500000000E+03  0.12500000000E+03 0.  0.
        -11    1    3    3    0    0 -0.13935617217E+02 -0.56613199903E+02  0.54641227918E+01  0.58558624204E+02  0.51100000000E-03 0.  1.
         23    2    1    0    0    0  0.85683908333E+01 -0.26461324592E+02 -0.26903715900E+01  0.97056179217E+02  0.92946462032E+02 0.  0.
         11    1    3    3    0    0  0.22504008050E+02  0.30151875311E+02 -0.81544943819E+01  0.38497555013E+02  0.51100000000E-03 0. -1.
         22    1    1    0    0    0 -0.85683908333E+01  0.26461324592E+02  0.26903715900E+01  0.27943820783E+02  0.00000000000E+00 0.  1.
</event>
<event>
 5    1  0.1102386E-009  0.9118800E+02  0.7818608E-02  0.1130116E+00
         25   -1    0    0    0    0  0.00000000000E+00  0.00000000000E+00  0.99999998245E-14  0.12500000000E+03  0.12500000000E+03 0.  0.
        -11    1    3    3    0    0  0.50109490452E+02 -0.27872825567E+02  0.14829003140E+02  0.59226301360E+02  0.51100000000E-03 0.  1.
         23    2    1    0    0    0  0.14821847543E+02 -0.21654747664E+02 -0.17355551196E+01  0.98701189903E+02  0.95133051437E+02 0.  0.
         11    1    3    3    0    0 -0.35287642909E+02  0.62180779028E+01 -0.16564558259E+02  0.39474888543E+02  0.51100000000E-03 0. -1.
         22    1    1    0    0    0 -0.14821847543E+02  0.21654747664E+02  0.17355551196E+01  0.26298810097E+02  0.00000000000E+00 0.  1.
</event>
<event>
 5    1  0.1102386E-009  0.9118800E+02  0.7818608E-02  0.1130116E+00
         25   -1    0    0    0    0  0.00000000000E+00  0.00000000000E+00  0.99999998245E-14  0.12500000000E+03  0.12500000000E+03 0.  0.
        -11    1    3    3    0    0 -0.28085129378E+02 -0.40091816957E+02 -0.13381241128E+02  0.50746289455E+02  0.51100000000E-03 0. -1.
         23    2    1    0    0    0 -0.19373592507E+02  0.39170935610E+01 -0.20898940047E+02  0.96234649252E+02  0.91834973256E+02 0.  0.
         11    1    3    3    0    0  0.87115368712E+01  0.44008910518E+02 -0.75176989189E+01  0.45488359796E+02  0.51100000000E-03 0.  1.
         22    1    1    0    0    0  0.19373592507E+02 -0.39170935610E+01  0.20898940047E+02  0.28765350748E+02  0.00000000000E+00 0. -1.
</event>
<event>
 5    1  0.1102386E-009  0.9118800E+02  0.7818608E-02  0.1130116E+00
         25   -1    0    0    0    0  0.00000000000E+00  0.00000000000E+00  0.99999998245E-14  0.12500000000E+03  0.12500000000E+03 0.  0.
        -11    1    3    3    0    0 -0.29099668540E+02 -0.11384381315E+02  0.35393060308E+02  0.47212959718E+02  0.51100000000E-03 0.  1.
         23    2    1    0    0    0 -0.10531836614E+02  0.25553134303E+02  0.10734287853E+02  0.95350258165E+02  0.90623200899E+02 0.  0.
         11    1    3    3    0    0  0.18567831926E+02  0.36937515618E+02 -0.24658772456E+02  0.48137298447E+02  0.51100000000E-03 0. -1.
         22    1    1    0    0    0  0.10531836614E+02 -0.25553134303E+02 -0.10734287853E+02  0.29649741835E+02  0.00000000000E+00 0.  1.
</event>
<event>
 5    1  0.1102386E-009  0.9118800E+02  0.7818608E-02  0.1130116E+00
         25   -1    0    0    0    0  0.00000000000E+00  0.00000000000E+00  0.99999998245E-14  0.12500000000E+03  0.12500000000E+03 0.  0.
        -11    1    3    3    0    0  0.10308835954E+02 -0.27929035880E+02 -0.19427102829E+02  0.35548775908E+02  0.51100000000E-03 0.  1.
         23    2    1    0    0    0  0.62321674282E+01  0.10891396591E+02  0.26413801764E+02  0.95757028978E+02  0.91182549013E+02 0.  0.
         11    1    3    3    0    0 -0.40766685262E+01  0.38820432472E+02  0.45840904593E+02  0.60208253070E+02  0.51100000000E-03 0. -1.
         22    1    1    0    0    0 -0.62321674282E+01 -0.10891396591E+02 -0.26413801764E+02  0.29242971022E+02  0.00000000000E+00 0. -1.
</event>
<event>
 5    1  0.1102386E-009  0.9118800E+02  0.7818608E-02  0.1130116E+00
         25   -1    0    0    0    0  0.00000000000E+00  0.00000000000E+00  0.99999998245E-14  0.12500000000E+03  0.12500000000E+03 0.  0.
        -11    1    3    3    0    0  0.42641460674E+02 -0.16297211312E+02  0.82090491360E+01  0.46381911915E+02  0.51100000000E-03 0.  1.
         23    2    1    0    0    0  0.84845901272E+01  0.20880155686E+02 -0.10386377751E+02  0.10018375504E+03  0.97061520492E+02 0.  0.
         11    1    3    3    0    0 -0.34156870546E+02  0.37177366997E+02 -0.18595426887E+02  0.53801843126E+02  0.51100000000E-03 0. -1.
         22    1    1    0    0    0 -0.84845901272E+01 -0.20880155686E+02  0.10386377751E+02  0.24816244959E+02  0.00000000000E+00 0. -1.
</event>
<event>
 5    1  0.1102386E-009  0.9118800E+02  0.7818608E-02  0.1130116E+00
         25   -1    0    0    0    0  0.00000000000E+00  0.00000000000E+00  0.99999998245E-14  0.12500000000E+03  0.12500000000E+03 0.  0.
        -11    1    3    3    0    0 -0.37676570516E+02  0.36392913604E+01  0.94065595927E+01  0.39003227701E+02  0.51100000000E-03 0. -1.
         23    2    1    0    0    0  0.13003321924E+01  0.91554631938E+01 -0.29339290811E+02  0.94237890914E+02  0.89075657329E+02 0.  0.
         11    1    3    3    0    0  0.38976902709E+02  0.55161718334E+01 -0.38745850404E+02  0.55234663213E+02  0.51100000000E-03 0.  1.
         22    1    1    0    0    0 -0.13003321924E+01 -0.91554631938E+01  0.29339290811E+02  0.30762109086E+02  0.00000000000E+00 0.  1.
</event>
<event>
 5    1  0.1102386E-009  0.9118800E+02  0.7818608E-02  0.1130116E+00
         25   -1    0    0    0    0  0.00000000000E+00  0.00000000000E+00  0.99999998245E-14  0.12500000000E+03  0.12500000000E+03 0.  0.
        -11    1    3    3    0    0  0.30311518380E+02  0.17263405935E+02  0.48295843765E+02  0.59576017459E+02  0.51100000000E-03 0.  1.
         23    2    1    0    0    0  0.15352146798E+02 -0.50228204428E+01  0.25616872836E+02  0.94715658990E+02  0.89743605608E+02 0.  0.
         11    1    3    3    0    0 -0.14959371582E+02 -0.22286226378E+02 -0.22678970930E+02  0.35139641532E+02  0.51100000000E-03 0. -1.
         22    1    1    0    0    0 -0.15352146798E+02  0.50228204428E+01 -0.25616872836E+02  0.30284341010E+02  0.00000000000E+00 0.  1.
</event>
<event>
 5    1  0.1102386E-009  0.9118800E+02  0.7818608E-02  0.1130116E+00
         25   -1    0    0    0    0  0.00000000000E+00  0.00000000000E+00  0.99999998245E-14  0.12500000000E+03  0.12500000000E+03 0.  0.
        -11    1    3    3    0    0 -0.50391986768E+01  0.40344519460E+02  0.66811017002E+01  0.41203287417E+02  0.51100000000E-03 0.  1.
         23    2    1    0    0    0  0.10279380807E+02 -0.48998792237E+01  0.28938531898E+02  0.93901557682E+02  0.88602423333E+02 0.  0.
         11    1    3    3    0    0  0.15318579484E+02 -0.45244398683E+02  0.22257430198E+02  0.52698270265E+02  0.51100000000E-03 0. -1.
         22    1    1    0    0    0 -0.10279380807E+02  0.48998792237E+01 -0.28938531898E+02  0.31098442318E+02  0.00000000000E+00 0. -1.
</event>
<event>
 5    1  0.1102386E-009  0.9118800E+02  0.7818608E-02  0.1130116E+00
         25   -1    0    0    0    0  0.00000000000E+00  0.00000000000E+00  0.99999998245E-14  0.12500000000E+03  0.12500000000E+03 0.  0.
        -11    1    3    3    0    0  0.16803908196E+02 -0.17847339523E+02 -0.30052975796E+02  0.38782473015E+02  0.51100000000E-03 0.  1.
         23    2    1    0    0    0  0.15530488673E+02  0.10227418180E+02  0.20932602476E+02  0.97000535586E+02  0.92871598976E+02 0.  0.
         11    1    3    3    0    0 -0.12734195229E+01  0.28074757704E+02  0.50985578273E+02  0.58218062570E+02  0.51100000000E-03 0. -1.
         22    1    1    0    0    0 -0.15530488673E+02 -0.10227418180E+02 -0.20932602476E+02  0.27999464414E+02  0.00000000000E+00 0. -1.
</event>
<event>
 5    1  0.1102386E-009  0.9118800E+02  0.7818608E-02  0.1130116E+00
         25   -1    0    0    0    0  0.00000000000E+00  0.00000000000E+00  0.99999998245E-14  0.12500000000E+03  0.12500000000E+03 0.  0.
        -11    1    3    3    0    0 -0.37973670904E+02  0.33352380983E+02  0.33979958968E+02  0.60901712709E+02  0.51100000000E-03 0.  1.
         23    2    1    0    0    0 -0.17725218829E+02  0.69233551911E+01  0.21063916811E+02  0.96613298517E+02  0.92348928685E+02 0.  0.
         11    1    3    3    0    0  0.20248452075E+02 -0.26429025791E+02 -0.12916042157E+02  0.35711585809E+02  0.51100000000E-03 0. -1.
         22    1    1    0    0    0  0.17725218829E+02 -0.69233551911E+01 -0.21063916811E+02  0.28386701483E+02  0.00000000000E+00 0.  1.
</event>
<event>
 5    1  0.1102386E-009  0.9118800E+02  0.7818608E-02  0.1130116E+00
         25   -1    0    0    0    0  0.00000000000E+00  0.00000000000E+00  0.99999998245E-14  0.12500000000E+03  0.12500000000E+03 0.  0.
        -11    1    3    3    0    0  0.84629776880E+01  0.19954084197E+02 -0.37364627321E+02  0.43196097539E+02  0.51100000000E-03 0.  1.
         23    2    1    0    0    0 -0.23496355913E+02 -0.13010341399E+02 -0.13943109604E+02  0.94738505821E+02  0.89775422334E+02 0.  0.
         11    1    3    3    0    0 -0.31959333601E+02 -0.32964425596E+02  0.23421517718E+02  0.51542408282E+02  0.51100000000E-03 0. -1.
         22    1    1    0    0    0  0.23496355913E+02  0.13010341399E+02  0.13943109604E+02  0.30261494179E+02  0.00000000000E+00 0. -1.
</event>
<event>
 5    1  0.1102386E-009  0.9118800E+02  0.7818608E-02  0.1130116E+00
         25   -1    0    0    0    0  0.00000000000E+00  0.00000000000E+00  0.99999998245E-14  0.12500000000E+03  0.12500000000E+03 0.  0.
        -11    1    3    3    0    0  0.43373168661E+02 -0.32714962080E+02 -0.18645235376E+02  0.57438186828E+02  0.51100000000E-03 0.  1.
         23    2    1    0    0    0  0.60485057037E+01 -0.22149015302E+02 -0.17298294306E+02  0.96252925610E+02  0.91859846519E+02 0.  0.
         11    1    3    3    0    0 -0.37324662958E+02  0.10565946778E+02  0.13469410697E+01  0.38814738782E+02  0.51100000000E-03 0. -1.
         22    1    1    0    0    0 -0.60485057037E+01  0.22149015302E+02  0.17298294306E+02  0.28747074390E+02  0.00000000000E+00 0.  1.
</event>
<event>
 5    1  0.1102386E-009  0.9118800E+02  0.7818608E-02  0.1130116E+00
         25   -1    0    0    0    0  0.00000000000E+00  0.00000000000E+00  0.99999998245E-14  0.12500000000E+03  0.12500000000E+03 0.  0.
        -11    1    3    3    0    0 -0.30012448329E+02 -0.13043126691E+02 -0.85564548757E+01  0.33824297907E+02  0.51100000000E-03 0.  1.
         23    2    1    0    0    0  0.18540727681E+02  0.21136099133E+02  0.85440488870E+01  0.95614730886E+02  0.90987266810E+02 0.  0.
         11    1    3    3    0    0  0.48553176010E+02  0.34179225824E+02  0.17100503763E+02  0.61790432980E+02  0.51100000000E-03 0. -1.
         22    1    1    0    0    0 -0.18540727681E+02 -0.21136099133E+02 -0.85440488870E+01  0.29385269114E+02  0.00000000000E+00 0. -1.
</event>
<event>
 5    1  0.1102386E-009  0.9118800E+02  0.7818608E-02  0.1130116E+00
         25   -1    0    0    0    0  0.00000000000E+00  0.00000000000E+00  0.99999998245E-14  0.12500000000E+03  0.12500000000E+03 0.  0.
        -11    1    3    3    0    0 -0.54616988986E+01  0.24649704510E+02  0.29030269717E+02  0.38473297849E+02  0.51100000000E-03 0. -1.
         23    2    1    0    0    0  0.26872344769E+02 -0.32088559904E+01 -0.98423451373E+01  0.96202579492E+02  0.91791311533E+02 0.  0.
         11    1    3    3    0    0  0.32334043667E+02 -0.27858560500E+02 -0.38872614855E+02  0.57729281642E+02  0.51100000000E-03 0.  1.
         22    1    1    0    0    0 -0.26872344769E+02  0.32088559904E+01  0.98423451373E+01  0.28797420508E+02  0.00000000000E+00 0.  1.
</event>
<event>
 5    1  0.1102386E-009  0.9118800E+02  0.7818608E-02  0.1130116E+00
         25   -1    0    0    0    0  0.00000000000E+00  0.00000000000E+00  0.99999998245E-14  0.12500000000E+03  0.12500000000E+03 0.  0.
        -11    1    3    3    0    0 -0.57693926697E+02 -0.12067182150E+02 -0.12527806137E+02  0.60259040729E+02  0.51100000000E-03 0.  1.
         23    2    1    0    0    0 -0.22228813932E+02 -0.13343079569E+02 -0.13519053443E+02  0.95760937990E+02  0.91187907628E+02 0.  0.
         11    1    3    3    0    0  0.35465112765E+02 -0.12758974188E+01 -0.99124730653E+00  0.35501897261E+02  0.51100000000E-03 0. -1.
         22    1    1    0    0    0  0.22228813932E+02  0.13343079569E+02  0.13519053443E+02  0.29239062010E+02  0.00000000000E+00 0.  1.
</event>
<event>
 5    1  0.1102386E-009  0.9118800E+02  0.7818608E-02  0.1130116E+00
         25   -1    0    0    0    0  0.00000000000E+00  0.00000000000E+00  0.99999998245E-14  0.12500000000E+03  0.12500000000E+03 0.  0.
        -11    1    3    3    0    0 -0.15361374141E+02 -0.66149830702E+01 -0.15507088536E+02  0.22807884856E+02  0.51100000000E-03 0. -1.
         23    2    1    0    0    0  0.21648517706E+02  0.16963643733E+02  0.28806245556E+02  0.85172580919E+02  0.75287085412E+02 0.  0.
         11    1    3    3    0    0  0.37009891847E+02  0.23578626804E+02  0.44313334091E+02  0.62364696063E+02  0.51100000000E-03 0.  1.
         22    1    1    0    0    0 -0.21648517706E+02 -0.16963643733E+02 -0.28806245556E+02  0.39827419081E+02  0.00000000000E+00 0.  1.
</event>
<event>
 5    1  0.1102386E-009  0.9118800E+02  0.7818608E-02  0.1130116E+00
         25   -1    0    0    0    0  0.00000000000E+00  0.00000000000E+00  0.99999998245E-14  0.12500000000E+03  0.12500000000E+03 0.  0.
        -11    1    3    3    0    0 -0.66525774970E+01  0.48889129026E+02  0.36105417986E+02  0.61139225809E+02  0.51100000000E-03 0.  1.
         23    2    1    0    0    0  0.55343921188E+01  0.21331217620E+02  0.19661635879E+02  0.95466455230E+02  0.90783334414E+02 0.  0.
         11    1    3    3    0    0  0.12186969616E+02 -0.27557911406E+02 -0.16443782107E+02  0.34327229421E+02  0.51100000000E-03 0. -1.
         22    1    1    0    0    0 -0.55343921188E+01 -0.21331217620E+02 -0.19661635879E+02  0.29533544770E+02  0.00000000000E+00 0.  1.
</event>
<event>
 5    1  0.1102386E-009  0.9118800E+02  0.7818608E-02  0.1130116E+00
         25   -1    0    0    0    0  0.00000000000E+00  0.00000000000E+00  0.99999998245E-14  0.12500000000E+03  0.12500000000E+03 0.  0.
        -11    1    3    3    0    0 -0.20937354177E+02 -0.87343248386E+01 -0.45081663122E+02  0.50467985698E+02  0.51100000000E-03 0.  1.
         23    2    1    0    0    0 -0.32959545453E+01  0.22819109511E+02 -0.20127221160E+02  0.94394769943E+02  0.89295534523E+02 0.  0.
         11    1    3    3    0    0  0.17641399632E+02  0.31553434350E+02  0.24954441962E+02  0.43926784245E+02  0.51100000000E-03 0. -1.
         22    1    1    0    0    0  0.32959545453E+01 -0.22819109511E+02  0.20127221160E+02  0.30605230057E+02  0.00000000000E+00 0.  1.
</event>
<event>
 5    1  0.1102386E-009  0.9118800E+02  0.7818608E-02  0.1130116E+00
         25   -1    0    0    0    0  0.00000000000E+00  0.00000000000E+00  0.99999998245E-14  0.12500000000E+03  0.12500000000E+03 0.  0.
        -11    1    3    3    0    0 -0.25166626655E+01  0.40305000485E+02 -0.40605973393E+02  0.57268418264E+02  0.51100000000E-03 0.  1.
         23    2    1    0    0    0  0.15216309715E+02  0.22023197634E+02 -0.11723035762E+02  0.95776946039E+02  0.91209848754E+02 0.  0.
         11    1    3    3    0    0  0.17732972380E+02 -0.18281802851E+02  0.28882937631E+02  0.38508527775E+02  0.51100000000E-03 0. -1.
         22    1    1    0    0    0 -0.15216309715E+02 -0.22023197634E+02  0.11723035762E+02  0.29223053961E+02  0.00000000000E+00 0.  1.
</event>
<event>
 5    1  0.1102386E-009  0.9118800E+02  0.7818608E-02  0.1130116E+00
         25   -1    0    0    0    0  0.00000000000E+00  0.00000000000E+00  0.99999998245E-14  0.12500000000E+03  0.12500000000E+03 0.  0.
        -11    1    3    3    0    0 -0.34110392139E+02 -0.10073557065E+02  0.27007647987E+02  0.44658800408E+02  0.51100000000E-03 0.  1.
         23    2    1    0    0    0 -0.26483001802E+02  0.11564509722E+02 -0.14938359914E+02  0.92469370334E+02  0.86558318974E+02 0.  0.
         11    1    3    3    0    0  0.76273903373E+01  0.21638066787E+02 -0.41946007901E+02  0.47810569926E+02  0.51100000000E-03 0. -1.
         22    1    1    0    0    0  0.26483001802E+02 -0.11564509722E+02  0.14938359914E+02  0.32530629666E+02  0.00000000000E+00 0. -1.
</event>
<event>
 5    1  0.1102386E-009  0.9118800E+02  0.7818608E-02  0.1130116E+00
         25   -1    0    0    0    0  0.00000000000E+00  0.00000000000E+00  0.99999998245E-14  0.12500000000E+03  0.12500000000E+03 0.  0.
        -11    1    3    3    0    0  0.20959075362E+02 -0.44207593395E+02  0.17545262919E+02  0.51975286482E+02  0.51100000000E-03 0. -1.
         23    2    1    0    0    0  0.47146007400E+01 -0.24100223631E+02 -0.17008529916E+02  0.95127967443E+02  0.90316066459E+02 0.  0.
         11    1    3    3    0    0 -0.16244474622E+02  0.20107369764E+02 -0.34553792835E+02  0.43152680960E+02  0.51100000000E-03 0.  1.
         22    1    1    0    0    0 -0.47146007400E+01  0.24100223631E+02  0.17008529916E+02  0.29872032557E+02  0.00000000000E+00 0. -1.
</event>
<event>
 5    1  0.1102386E-009  0.9118800E+02  0.7818608E-02  0.1130116E+00
         25   -1    0    0    0    0  0.00000000000E+00  0.00000000000E+00  0.99999998245E-14  0.12500000000E+03  0.12500000000E+03 0.  0.
        -11    1    3    3    0    0 -0.47023197393E+01  0.29038886593E+02 -0.25895473718E+02  0.39191125333E+02  0.51100000000E-03 0.  1.
         23    2    1    0    0    0 -0.20087667422E+02 -0.43227944821E+01  0.18870320350E+02  0.97102151971E+02  0.93008268410E+02 0.  0.
         11    1    3    3    0    0 -0.15385347682E+02 -0.33361681075E+02  0.44765794068E+02  0.57911026638E+02  0.51100000000E-03 0. -1.
         22    1    1    0    0    0  0.20087667422E+02  0.43227944821E+01 -0.18870320350E+02  0.27897848029E+02  0.00000000000E+00 0. -1.
</event>
<event>
 5    1  0.1102386E-009  0.9118800E+02  0.7818608E-02  0.1130116E+00
         25   -1    0    0    0    0  0.00000000000E+00  0.00000000000E+00  0.99999998245E-14  0.12500000000E+03  0.12500000000E+03 0.  0.
        -11    1    3    3    0    0 -0.14751120270E+02 -0.14178398176E+02  0.31497947635E+02  0.37559861948E+02  0.51100000000E-03 0.  1.
         23    2    1    0    0    0  0.27415685752E+02  0.13812084133E+02  0.15300280766E+02  0.90699969608E+02  0.83964232874E+02 0.  0.
         11    1    3    3    0    0  0.42166806021E+02  0.27990482309E+02 -0.16197666869E+02  0.53140107661E+02  0.51100000000E-03 0. -1.
         22    1    1    0    0    0 -0.27415685752E+02 -0.13812084133E+02 -0.15300280766E+02  0.34300030392E+02  0.00000000000E+00 0. -1.
</event>
<event>
 5    1  0.1102386E-009  0.9118800E+02  0.7818608E-02  0.1130116E+00
         25   -1    0    0    0    0  0.00000000000E+00  0.00000000000E+00  0.99999998245E-14  0.12500000000E+03  0.12500000000E+03 0.  0.
        -11    1    3    3    0    0 -0.10087428966E+02 -0.17706255203E+02  0.48531831854E+02  0.52636550037E+02  0.51100000000E-03 0.  1.
         23    2    1    0    0    0  0.19926761040E+02 -0.27592667069E+01  0.19361240293E+02  0.97079631378E+02  0.92977996561E+02 0.  0.
         11    1    3    3    0    0  0.30014190006E+02  0.14946988496E+02 -0.29170591561E+02  0.44443081341E+02  0.51100000000E-03 0. -1.
         22    1    1    0    0    0 -0.19926761040E+02  0.27592667069E+01 -0.19361240293E+02  0.27920368622E+02  0.00000000000E+00 0.  1.
</event>
<event>
 5    1  0.1102386E-009  0.9118800E+02  0.7818608E-02  0.1130116E+00
         25   -1    0    0    0    0  0.00000000000E+00  0.00000000000E+00  0.99999998245E-14  0.12500000000E+03  0.12500000000E+03 0.  0.
        -11    1    3    3    0    0 -0.12490820398E+02 -0.38038430936E+02  0.16290167241E+02  0.43223979123E+02  0.51100000000E-03 0.  1.
         23    2    1    0    0    0 -0.11669740151E+02  0.10940765211E+02 -0.16379880403E+02  0.10210494244E+03  0.99504952693E+02 0.  0.
         11    1    3    3    0    0  0.82108024760E+00  0.48979196146E+02 -0.32670047644E+02  0.58880963318E+02  0.51100000000E-03 0. -1.
         22    1    1    0    0    0  0.11669740151E+02 -0.10940765211E+02  0.16379880403E+02  0.22895057558E+02  0.00000000000E+00 0. -1.
</event>
<event>
 5    1  0.1102386E-009  0.9118800E+02  0.7818608E-02  0.1130116E+00
         25   -1    0    0    0    0  0.00000000000E+00  0.00000000000E+00  0.99999998245E-14  0.12500000000E+03  0.12500000000E+03 0.  0.
        -11    1    3    3    0    0 -0.25557804948E+02  0.12984522741E+02  0.47516638466E+02  0.55494415538E+02  0.51100000000E-03 0.  1.
         23    2    1    0    0    0 -0.24510004011E+02 -0.61590241838E+01  0.96307918572E+01  0.97955110883E+02  0.94147637893E+02 0.  0.
         11    1    3    3    0    0  0.10478009363E+01 -0.19143546925E+02 -0.37885846609E+02  0.42460695345E+02  0.51100000000E-03 0. -1.
         22    1    1    0    0    0  0.24510004011E+02  0.61590241838E+01 -0.96307918572E+01  0.27044889117E+02  0.00000000000E+00 0.  1.
</event>
<event>
 5    1  0.1102386E-009  0.9118800E+02  0.7818608E-02  0.1130116E+00
         25   -1    0    0    0    0  0.00000000000E+00  0.00000000000E+00  0.99999998245E-14  0.12500000000E+03  0.12500000000E+03 0.  0.
        -11    1    3    3    0    0 -0.46616103458E+02  0.49221005723E+01 -0.15965455839E+02  0.49519531057E+02  0.51100000000E-03 0. -1.
         23    2    1    0    0    0 -0.35750756455E+01 -0.61242790275E+01 -0.28452866005E+02  0.95676740573E+02  0.91072417028E+02 0.  0.
         11    1    3    3    0    0  0.43041027813E+02 -0.11046379600E+02 -0.12487410166E+02  0.46157209517E+02  0.51100000000E-03 0.  1.
         22    1    1    0    0    0  0.35750756455E+01  0.61242790275E+01  0.28452866005E+02  0.29323259427E+02  0.00000000000E+00 0. -1.
</event>
<event>
 5    1  0.1102386E-009  0.9118800E+02  0.7818608E-02  0.1130116E+00
         25   -1    0    0    0    0  0.00000000000E+00  0.00000000000E+00  0.99999998245E-14  0.12500000000E+03  0.12500000000E+03 0.  0.
        -11    1    3    3    0    0 -0.46790915733E+02 -0.30798442230E+02 -0.23983725364E+01  0.56068583271E+02  0.51100000000E-03 0. -1.
         23    2    1    0    0    0 -0.71925870279E+01 -0.28165249289E+02  0.11142739061E+01  0.95909517329E+02  0.91391352612E+02 0.  0.
         11    1    3    3    0    0  0.39598328705E+02  0.26331929405E+01  0.35126464425E+01  0.39840934058E+02  0.51100000000E-03 0.  1.
         22    1    1    0    0    0  0.71925870279E+01  0.28165249289E+02 -0.11142739061E+01  0.29090482671E+02  0.00000000000E+00 0. -1.
</event>
<event>
 5    1  0.1102386E-009  0.9118800E+02  0.7818608E-02  0.1130116E+00
         25   -1    0    0    0    0  0.00000000000E+00  0.00000000000E+00  0.99999998245E-14  0.12500000000E+03  0.12500000000E+03 0.  0.
        -11    1    3    3    0    0  0.24922046913E+02  0.45181925248E+02 -0.20902242378E+02  0.55672421612E+02  0.51100000000E-03 0.  1.
         23    2    1    0    0    0  0.81636777387E+01  0.11345092236E+02 -0.27638810763E+02  0.94028067344E+02  0.88780723335E+02 0.  0.
         11    1    3    3    0    0 -0.16758369174E+02 -0.33836833012E+02 -0.67365683852E+01  0.38355645732E+02  0.51100000000E-03 0. -1.
         22    1    1    0    0    0 -0.81636777387E+01 -0.11345092236E+02  0.27638810763E+02  0.30971932656E+02  0.00000000000E+00 0.  1.
</event>
<event>
 5    1  0.1102386E-009  0.9118800E+02  0.7818608E-02  0.1130116E+00
         25   -1    0    0    0    0  0.00000000000E+00  0.00000000000E+00  0.99999998245E-14  0.12500000000E+03  0.12500000000E+03 0.  0.
        -11    1    3    3    0    0 -0.47736089254E+02  0.23624355777E+02 -0.73045848466E+01  0.53760593032E+02  0.51100000000E-03 0.  1.
         23    2    1    0    0    0 -0.10779916914E+02  0.22287374496E+02  0.14120126733E+02  0.96498918449E+02  0.92193978178E+02 0.  0.
         11    1    3    3    0    0  0.36956172340E+02 -0.13369812806E+01  0.21424711580E+02  0.42738325417E+02  0.51100000000E-03 0. -1.
         22    1    1    0    0    0  0.10779916914E+02 -0.22287374496E+02 -0.14120126733E+02  0.28501081551E+02  0.00000000000E+00 0.  1.
</event>
<event>
 5    1  0.1102386E-009  0.9118800E+02  0.7818608E-02  0.1130116E+00
         25   -1    0    0    0    0  0.00000000000E+00  0.00000000000E+00  0.99999998245E-14  0.12500000000E+03  0.12500000000E+03 0.  0.
        -11    1    3    3    0    0 -0.12517079647E+02  0.39337527588E+02 -0.13772149237E+02  0.43517702772E+02  0.51100000000E-03 0.  1.
         23    2    1    0    0    0 -0.36606456329E+01 -0.95823630667E+01 -0.27960044458E+02  0.95217688228E+02  0.90440157326E+02 0.  0.
         11    1    3    3    0    0  0.88564340145E+01 -0.48919890655E+02 -0.14187895221E+02  0.51699985457E+02  0.51100000000E-03 0. -1.
         22    1    1    0    0    0  0.36606456329E+01  0.95823630667E+01  0.27960044458E+02  0.29782311772E+02  0.00000000000E+00 0. -1.
</event>
<event>
 5    1  0.1102386E-009  0.9118800E+02  0.7818608E-02  0.1130116E+00
         25   -1    0    0    0    0  0.00000000000E+00  0.00000000000E+00  0.99999998245E-14  0.12500000000E+03  0.12500000000E+03 0.  0.
        -11    1    3    3    0    0 -0.17024896181E+02  0.57190714237E+02 -0.74452790456E+01  0.60133660002E+02  0.51100000000E-03 0.  1.
         23    2    1    0    0    0 -0.59254425058E+01  0.23057787398E+02 -0.15066378820E+02  0.96826107842E+02  0.92636531457E+02 0.  0.
         11    1    3    3    0    0  0.11099453675E+02 -0.34132926838E+02 -0.76210997746E+01  0.36692447840E+02  0.51100000000E-03 0. -1.
         22    1    1    0    0    0  0.59254425058E+01 -0.23057787398E+02  0.15066378820E+02  0.28173892158E+02  0.00000000000E+00 0.  1.
</event>
<event>
 5    1  0.1102386E-009  0.9118800E+02  0.7818608E-02  0.1130116E+00
         25   -1    0    0    0    0  0.00000000000E+00  0.00000000000E+00  0.99999998245E-14  0.12500000000E+03  0.12500000000E+03 0.  0.
        -11    1    3    3    0    0 -0.10444082527E+02  0.35849372534E+02 -0.26891470896E+02  0.46015297218E+02  0.51100000000E-03 0. -1.
         23    2    1    0    0    0 -0.91748156881E+01 -0.16024331284E+02 -0.19007696438E+02  0.98500019625E+02  0.94868355663E+02 0.  0.
         11    1    3    3    0    0  0.12692668384E+01 -0.51873703818E+02  0.78837744578E+01  0.52484722406E+02  0.51100000000E-03 0.  1.
         22    1    1    0    0    0  0.91748156881E+01  0.16024331284E+02  0.19007696438E+02  0.26499980375E+02  0.00000000000E+00 0. -1.
</event>
<event>
 5    1  0.1102386E-009  0.9118800E+02  0.7818608E-02  0.1130116E+00
         25   -1    0    0    0    0  0.00000000000E+00  0.00000000000E+00  0.99999998245E-14  0.12500000000E+03  0.12500000000E+03 0.  0.
        -11    1    3    3    0    0 -0.29209482184E+02 -0.16280825371E+02  0.62548325986E+01  0.34020318272E+02  0.51100000000E-03 0. -1.
         23    2    1    0    0    0  0.21833432440E+02 -0.72247759321E+01 -0.22096997354E+02  0.93106843188E+02  0.87474057852E+02 0.  0.
         11    1    3    3    0    0  0.51042914624E+02  0.90560494389E+01 -0.28351829952E+02  0.59086524916E+02  0.51100000000E-03 0.  1.
         22    1    1    0    0    0 -0.21833432440E+02  0.72247759321E+01  0.22096997354E+02  0.31893156812E+02  0.00000000000E+00 0.  1.
</event>
<event>
 5    1  0.1102386E-009  0.9118800E+02  0.7818608E-02  0.1130116E+00
         25   -1    0    0    0    0  0.00000000000E+00  0.00000000000E+00  0.99999998245E-14  0.12500000000E+03  0.12500000000E+03 0.  0.
        -11    1    3    3    0    0 -0.18861596121E+02  0.33499128784E+02 -0.22619716445E+02  0.44604966201E+02  0.51100000000E-03 0. -1.
         23    2    1    0    0    0  0.11696181727E+02 -0.73735866880E+01 -0.25791322024E+02  0.95736323891E+02  0.91154160480E+02 0.  0.
         11    1    3    3    0    0  0.30557777848E+02 -0.40872715472E+02 -0.31716055788E+01  0.51131357690E+02  0.51100000000E-03 0.  1.
         22    1    1    0    0    0 -0.11696181727E+02  0.73735866880E+01  0.25791322024E+02  0.29263676109E+02  0.00000000000E+00 0.  1.
</event>
<event>
 5    1  0.1102386E-009  0.9118800E+02  0.7818608E-02  0.1130116E+00
         25   -1    0    0    0    0  0.00000000000E+00  0.00000000000E+00  0.99999998245E-14  0.12500000000E+03  0.12500000000E+03 0.  0.
        -11    1    3    3    0    0  0.21067924542E+01 -0.15666253774E+02 -0.37126177435E+02  0.40351246982E+02  0.51100000000E-03 0.  1.
         23    2    1    0    0    0  0.17375674358E+02 -0.17407547484E+02  0.16001836234E+02  0.95657274638E+02  0.91045695447E+02 0.  0.
         11    1    3    3    0    0  0.15268881904E+02 -0.17412937097E+01  0.53128013670E+02  0.55306027656E+02  0.51100000000E-03 0. -1.
         22    1    1    0    0    0 -0.17375674358E+02  0.17407547484E+02 -0.16001836234E+02  0.29342725362E+02  0.00000000000E+00 0.  1.
</event>
<event>
 5    1  0.1102386E-009  0.9118800E+02  0.7818608E-02  0.1130116E+00
         25   -1    0    0    0    0  0.00000000000E+00  0.00000000000E+00  0.99999998245E-14  0.12500000000E+03  0.12500000000E+03 0.  0.
        -11    1    3    3    0    0 -0.14453825506E+02 -0.42281669259E+02 -0.21328455906E+02  0.49513186715E+02  0.51100000000E-03 0.  1.
         23    2    1    0    0    0 -0.27780627213E+02 -0.86985219400E+01  0.65650068275E+01  0.95158303552E+02  0.90358042741E+02 0.  0.
         11    1    3    3    0    0 -0.13326801706E+02  0.33583147319E+02  0.27893462733E+02  0.45645116837E+02  0.51100000000E-03 0. -1.
         22    1    1    0    0    0  0.27780627213E+02  0.86985219400E+01 -0.65650068275E+01  0.29841696448E+02  0.00000000000E+00 0. -1.
</event>
<event>
 5    1  0.1102386E-009  0.9118800E+02  0.7818608E-02  0.1130116E+00
         25   -1    0    0    0    0  0.00000000000E+00  0.00000000000E+00  0.99999998245E-14  0.12500000000E+03  0.12500000000E+03 0.  0.
        -11    1    3    3    0    0  0.51905773232E+02  0.12217231598E+00 -0.13359861347E+02  0.53597668945E+02  0.51100000000E-03 0.  1.
         23    2    1    0    0    0  0.18085458265E+02  0.22565709111E+02 -0.86024036115E+00  0.96068442112E+02  0.91608463189E+02 0.  0.
         11    1    3    3    0    0 -0.33820314966E+02  0.22443536795E+02  0.12499620986E+02  0.42470773167E+02  0.51100000000E-03 0. -1.
         22    1    1    0    0    0 -0.18085458265E+02 -0.22565709111E+02  0.86024036115E+00  0.28931557888E+02  0.00000000000E+00 0.  1.
</event>
<event>
 5    1  0.1102386E-009  0.9118800E+02  0.7818608E-02  0.1130116E+00
         25   -1    0    0    0    0  0.00000000000E+00  0.00000000000E+00  0.99999998245E-14  0.12500000000E+03  0.12500000000E+03 0.  0.
        -11    1    3    3    0    0 -0.17259283367E+02  0.59969723761E+02  0.13598617826E+01  0.62418746019E+02  0.51100000000E-03 0.  1.
         23    2    1    0    0    0 -0.67949153915E+01  0.27219798498E+02 -0.13965262557E+01  0.96910169259E+02  0.92749891185E+02 0.  0.
         11    1    3    3    0    0  0.10464367976E+02 -0.32749925262E+02 -0.27563880383E+01  0.34491423240E+02  0.51100000000E-03 0. -1.
         22    1    1    0    0    0  0.67949153915E+01 -0.27219798498E+02  0.13965262557E+01  0.28089830741E+02  0.00000000000E+00 0.  1.
</event>
<event>
 5    1  0.1102386E-009  0.9118800E+02  0.7818608E-02  0.1130116E+00
         25   -1    0    0    0    0  0.00000000000E+00  0.00000000000E+00  0.99999998245E-14  0.12500000000E+03  0.12500000000E+03 0.  0.
        -11    1    3    3    0    0 -0.44327361244E+02 -0.32908889237E+01  0.23260140959E+02  0.50167510028E+02  0.51100000000E-03 0.  1.
         23    2    1    0    0    0 -0.42066806747E+01 -0.23346536074E+02  0.17777431542E+02  0.95355540464E+02  0.90630486681E+02 0.  0.
         11    1    3    3    0    0  0.40120680569E+02 -0.20055647150E+02 -0.54827094169E+01  0.45188030436E+02  0.51100000000E-03 0. -1.
         22    1    1    0    0    0  0.42066806747E+01  0.23346536074E+02 -0.17777431542E+02  0.29644459536E+02  0.00000000000E+00 0.  1.
</event>
<event>
 5    1  0.1102386E-009  0.9118800E+02  0.7818608E-02  0.1130116E+00
         25   -1    0    0    0    0  0.00000000000E+00  0.00000000000E+00  0.99999998245E-14  0.12500000000E+03  0.12500000000E+03 0.  0.
        -11    1    3    3    0    0 -0.51066953983E+02 -0.69396129418E+01  0.47492081513E+01  0.51754680902E+02  0.51100000000E-03 0. -1.
         23    2    1    0    0    0 -0.10740352838E+02 -0.21068906293E+02  0.16610740544E+02  0.96100680062E+02  0.91652441405E+02 0.  0.
         11    1    3    3    0    0  0.40326601145E+02 -0.14129293351E+02  0.11861532393E+02  0.44345999160E+02  0.51100000000E-03 0.  1.
         22    1    1    0    0    0  0.10740352838E+02  0.21068906293E+02 -0.16610740544E+02  0.28899319938E+02  0.00000000000E+00 0. -1.
</event>
<event>
 5    1  0.1102386E-009  0.9118800E+02  0.7818608E-02  0.1130116E+00
         25   -1    0    0    0    0  0.00000000000E+00  0.00000000000E+00  0.99999998245E-14  0.12500000000E+03  0.12500000000E+03 0.  0.
        -11    1    3    3    0    0  0.81465049735E+01  0.89249382458E+01  0.20585256740E+02  0.23869915402E+02  0.51100000000E-03 0.  1.
         23    2    1    0    0    0 -0.32690173236E+02  0.34343509067E+02 -0.30959805794E+01  0.77484643146E+02  0.61205888495E+02 0.  0.
         11    1    3    3    0    0 -0.40836678210E+02  0.25418570821E+02 -0.23681237319E+02  0.53614727744E+02  0.51100000000E-03 0. -1.
         22    1    1    0    0    0  0.32690173236E+02 -0.34343509067E+02  0.30959805794E+01  0.47515356854E+02  0.00000000000E+00 0. -1.
</event>
<event>
 5    1  0.1102386E-009  0.9118800E+02  0.7818608E-02  0.1130116E+00
         25   -1    0    0    0    0  0.00000000000E+00  0.00000000000E+00  0.99999998245E-14  0.12500000000E+03  0.12500000000E+03 0.  0.
        -11    1    3    3    0    0 -0.89408962637E+01 -0.18650155760E+02 -0.47470988512E+02  0.51780910444E+02  0.51100000000E-03 0. -1.
         23    2    1    0    0    0  0.92795674046E+01 -0.28435458261E+02 -0.12142305891E+02  0.92718097174E+02  0.86916766469E+02 0.  0.
         11    1    3    3    0    0  0.18220463668E+02 -0.97853025009E+01  0.35328682621E+02  0.40937186729E+02  0.51100000000E-03 0.  1.
         22    1    1    0    0    0 -0.92795674046E+01  0.28435458261E+02  0.12142305891E+02  0.32281902826E+02  0.00000000000E+00 0.  1.
</event>
<event>
 5    1  0.1102386E-009  0.9118800E+02  0.7818608E-02  0.1130116E+00
         25   -1    0    0    0    0  0.00000000000E+00  0.00000000000E+00  0.99999998245E-14  0.12500000000E+03  0.12500000000E+03 0.  0.
        -11    1    3    3    0    0  0.37414772978E+02 -0.63726905602E+01  0.13484584648E+02  0.40277915107E+02  0.51100000000E-03 0. -1.
         23    2    1    0    0    0 -0.37126181101E+01  0.28435400840E+02 -0.17485364850E+01  0.96269999408E+02  0.91883077071E+02 0.  0.
         11    1    3    3    0    0 -0.41127391088E+02  0.34808091400E+02 -0.15233121133E+02  0.55992084301E+02  0.51100000000E-03 0.  1.
         22    1    1    0    0    0  0.37126181101E+01 -0.28435400840E+02  0.17485364850E+01  0.28730000592E+02  0.00000000000E+00 0.  1.
</event>
<event>
 5    1  0.1102386E-009  0.9118800E+02  0.7818608E-02  0.1130116E+00
         25   -1    0    0    0    0  0.00000000000E+00  0.00000000000E+00  0.99999998245E-14  0.12500000000E+03  0.12500000000E+03 0.  0.
        -11    1    3    3    0    0  0.13325549160E+02  0.27026661550E+02  0.54270191193E+02  0.62074667517E+02  0.51100000000E-03 0.  1.
         23    2    1    0    0    0  0.15007364976E+01  0.14658600055E+02  0.24735026129E+02  0.96208538015E+02  0.91799425400E+02 0.  0.
         11    1    3    3    0    0 -0.11824812662E+02 -0.12368061495E+02 -0.29535165063E+02  0.34133870499E+02  0.51100000000E-03 0. -1.
         22    1    1    0    0    0 -0.15007364976E+01 -0.14658600055E+02 -0.24735026129E+02  0.28791461985E+02  0.00000000000E+00 0.  1.
</event>
<event>
 5    1  0.1102386E-009  0.9118800E+02  0.7818608E-02  0.1130116E+00
         25   -1    0    0    0    0  0.00000000000E+00  0.00000000000E+00  0.99999998245E-14  0.12500000000E+03  0.12500000000E+03 0.  0.
        -11    1    3    3    0    0  0.64721800249E+01  0.33377350479E+02 -0.15942004618E+02  0.37551087211E+02  0.51100000000E-03 0. -1.
         23    2    1    0    0    0  0.96872439438E+01 -0.24845805145E+02 -0.11266878874E+02  0.96050055473E+02  0.91583371134E+02 0.  0.
         11    1    3    3    0    0  0.32150639189E+01 -0.58223155623E+02  0.46751257438E+01  0.58498968262E+02  0.51100000000E-03 0.  1.
         22    1    1    0    0    0 -0.96872439438E+01  0.24845805145E+02  0.11266878874E+02  0.28949944527E+02  0.00000000000E+00 0.  1.
</event>
<event>
 5    1  0.1102386E-009  0.9118800E+02  0.7818608E-02  0.1130116E+00
         25   -1    0    0    0    0  0.00000000000E+00  0.00000000000E+00  0.99999998245E-14  0.12500000000E+03  0.12500000000E+03 0.  0.
        -11    1    3    3    0    0  0.14975056288E+02 -0.52394150077E+02  0.21352423131E+01  0.54534012626E+02  0.51100000000E-03 0. -1.
         23    2    1    0    0    0  0.13110743452E+02 -0.24952262872E+02  0.22644379931E+02  0.88843742467E+02  0.81153777588E+02 0.  0.
         11    1    3    3    0    0 -0.18643128358E+01  0.27441887204E+02  0.20509137618E+02  0.34309729841E+02  0.51100000000E-03 0.  1.
         22    1    1    0    0    0 -0.13110743452E+02  0.24952262872E+02 -0.22644379931E+02  0.36156257533E+02  0.00000000000E+00 0. -1.
</event>
<event>
 5    1  0.1102386E-009  0.9118800E+02  0.7818608E-02  0.1130116E+00
         25   -1    0    0    0    0  0.00000000000E+00  0.00000000000E+00  0.99999998245E-14  0.12500000000E+03  0.12500000000E+03 0.  0.
        -11    1    3    3    0    0 -0.19116662406E+02 -0.17208444557E+02 -0.52357867552E+02  0.58334583572E+02  0.51100000000E-03 0.  1.
         23    2    1    0    0    0 -0.77254979820E+01 -0.22950420042E+02 -0.18468682121E+02  0.94545159359E+02  0.89505808972E+02 0.  0.
         11    1    3    3    0    0  0.11391164424E+02 -0.57419754847E+01  0.33889185431E+02  0.36210575787E+02  0.51100000000E-03 0. -1.
         22    1    1    0    0    0  0.77254979820E+01  0.22950420042E+02  0.18468682121E+02  0.30454840641E+02  0.00000000000E+00 0.  1.
</event>
<event>
 5    1  0.1102386E-009  0.9118800E+02  0.7818608E-02  0.1130116E+00
         25   -1    0    0    0    0  0.00000000000E+00  0.00000000000E+00  0.99999998245E-14  0.12500000000E+03  0.12500000000E+03 0.  0.
        -11    1    3    3    0    0 -0.23623694614E+01  0.37225314520E+02 -0.19016062854E+02  0.41867833444E+02  0.51100000000E-03 0.  1.
         23    2    1    0    0    0 -0.30400871498E+02 -0.41305116908E+01 -0.10624736512E+02  0.92532183001E+02  0.86648980088E+02 0.  0.
         11    1    3    3    0    0 -0.28038502037E+02 -0.41355826211E+02  0.83913263412E+01  0.50664349557E+02  0.51100000000E-03 0. -1.
         22    1    1    0    0    0  0.30400871498E+02  0.41305116908E+01  0.10624736512E+02  0.32467816999E+02  0.00000000000E+00 0.  1.
</event>
<event>
 5    1  0.1102386E-009  0.9118800E+02  0.7818608E-02  0.1130116E+00
         25   -1    0    0    0    0  0.00000000000E+00  0.00000000000E+00  0.99999998245E-14  0.12500000000E+03  0.12500000000E+03 0.  0.
        -11    1    3    3    0    0  0.75924773088E+01  0.31142839602E+02  0.28577426239E+02  0.42944050354E+02  0.51100000000E-03 0. -1.
         23    2    1    0    0    0 -0.24272632553E+02  0.13223003539E+02 -0.95400344364E+01  0.95759261796E+02  0.91185609879E+02 0.  0.
         11    1    3    3    0    0 -0.31865109862E+02 -0.17919836063E+02 -0.38117460675E+02  0.52815211442E+02  0.51100000000E-03 0.  1.
         22    1    1    0    0    0  0.24272632553E+02 -0.13223003539E+02  0.95400344364E+01  0.29240738204E+02  0.00000000000E+00 0. -1.
</event>
<event>
 5    1  0.1102386E-009  0.9118800E+02  0.7818608E-02  0.1130116E+00
         25   -1    0    0    0    0  0.00000000000E+00  0.00000000000E+00  0.99999998245E-14  0.12500000000E+03  0.12500000000E+03 0.  0.
        -11    1    3    3    0    0 -0.33563024228E+02  0.82489762760E+01  0.30550107702E+02  0.46128421670E+02  0.51100000000E-03 0. -1.
         23    2    1    0    0    0 -0.21127495921E+02 -0.21348931262E+01 -0.17907285359E+02  0.97222316124E+02  0.93169625046E+02 0.  0.
         11    1    3    3    0    0  0.12435528307E+02 -0.10383869402E+02 -0.48457393061E+02  0.51093894455E+02  0.51100000000E-03 0.  1.
         22    1    1    0    0    0  0.21127495921E+02  0.21348931262E+01  0.17907285359E+02  0.27777683876E+02  0.00000000000E+00 0.  1.
</event>
<event>
 5    1  0.1102386E-009  0.9118800E+02  0.7818608E-02  0.1130116E+00
         25   -1    0    0    0    0  0.00000000000E+00  0.00000000000E+00  0.99999998245E-14  0.12500000000E+03  0.12500000000E+03 0.  0.
        -11    1    3    3    0    0 -0.23113694381E+02  0.99102025466E+01  0.43206880562E+02  0.49992894601E+02  0.51100000000E-03 0.  1.
         23    2    1    0    0    0  0.10280898406E+02 -0.14310286145E+02  0.23270777947E+02  0.95810785076E+02  0.91256212222E+02 0.  0.
         11    1    3    3    0    0  0.33394592787E+02 -0.24220488692E+02 -0.19936102615E+02  0.45817890475E+02  0.51100000000E-03 0. -1.
         22    1    1    0    0    0 -0.10280898406E+02  0.14310286145E+02 -0.23270777947E+02  0.29189214924E+02  0.00000000000E+00 0.  1.
</event>
<event>
 5    1  0.1102386E-009  0.9118800E+02  0.7818608E-02  0.1130116E+00
         25   -1    0    0    0    0  0.00000000000E+00  0.00000000000E+00  0.99999998245E-14  0.12500000000E+03  0.12500000000E+03 0.  0.
        -11    1    3    3    0    0 -0.24137664455E+02  0.38595519744E+02 -0.25258223707E+02  0.52059762338E+02  0.51100000000E-03 0. -1.
         23    2    1    0    0    0  0.11738766765E+02  0.25805190252E+02 -0.22427411056E+01  0.96561709321E+02  0.92279073089E+02 0.  0.
         11    1    3    3    0    0  0.35876431220E+02 -0.12790329492E+02  0.23015482602E+02  0.44501946982E+02  0.51100000000E-03 0.  1.
         22    1    1    0    0    0 -0.11738766765E+02 -0.25805190252E+02  0.22427411056E+01  0.28438290679E+02  0.00000000000E+00 0. -1.
</event>
<event>
 5    1  0.1102386E-009  0.9118800E+02  0.7818608E-02  0.1130116E+00
         25   -1    0    0    0    0  0.00000000000E+00  0.00000000000E+00  0.99999998245E-14  0.12500000000E+03  0.12500000000E+03 0.  0.
        -11    1    3    3    0    0  0.19885368408E+02 -0.36543839606E+02 -0.43523104043E+02  0.60209141131E+02  0.51100000000E-03 0.  1.
         23    2    1    0    0    0  0.57926292422E+01 -0.25991897510E+02 -0.13185984241E+02  0.95284625694E+02  0.90532626293E+02 0.  0.
         11    1    3    3    0    0 -0.14092739166E+02  0.10551942096E+02  0.30337119803E+02  0.35075484564E+02  0.51100000000E-03 0. -1.
         22    1    1    0    0    0 -0.57926292422E+01  0.25991897510E+02  0.13185984241E+02  0.29715374306E+02  0.00000000000E+00 0.  1.
</event>
<event>
 5    1  0.1102386E-009  0.9118800E+02  0.7818608E-02  0.1130116E+00
         25   -1    0    0    0    0  0.00000000000E+00  0.00000000000E+00  0.99999998245E-14  0.12500000000E+03  0.12500000000E+03 0.  0.
        -11    1    3    3    0    0  0.78726986192E+01  0.37683957007E+02 -0.48336848212E+02  0.61794100808E+02  0.51100000000E-03 0. -1.
         23    2    1    0    0    0  0.68451607353E+01  0.12356341619E+02 -0.25184589272E+02  0.96124423114E+02  0.91684817601E+02 0.  0.
         11    1    3    3    0    0 -0.10275378839E+01 -0.25327615388E+02  0.23152258941E+02  0.34330322307E+02  0.51100000000E-03 0.  1.
         22    1    1    0    0    0 -0.68451607353E+01 -0.12356341619E+02  0.25184589272E+02  0.28875576886E+02  0.00000000000E+00 0. -1.
</event>
<event>
 5    1  0.1102386E-009  0.9118800E+02  0.7818608E-02  0.1130116E+00
         25   -1    0    0    0    0  0.00000000000E+00  0.00000000000E+00  0.99999998245E-14  0.12500000000E+03  0.12500000000E+03 0.  0.
        -11    1    3    3    0    0  0.37716618581E+02  0.16777467766E+02 -0.39492695403E+01  0.41468343010E+02  0.51100000000E-03 0.  1.
         23    2    1    0    0    0 -0.26103316062E+01 -0.15005776239E+02 -0.23986944318E+02  0.96585907558E+02  0.92311845878E+02 0.  0.
         11    1    3    3    0    0 -0.40326950187E+02 -0.31783244005E+02 -0.20037674777E+02  0.55117564548E+02  0.51100000000E-03 0. -1.
         22    1    1    0    0    0  0.26103316062E+01  0.15005776239E+02  0.23986944318E+02  0.28414092442E+02  0.00000000000E+00 0. -1.
</event>
<event>
 5    1  0.1102386E-009  0.9118800E+02  0.7818608E-02  0.1130116E+00
         25   -1    0    0    0    0  0.00000000000E+00  0.00000000000E+00  0.99999998245E-14  0.12500000000E+03  0.12500000000E+03 0.  0.
        -11    1    3    3    0    0 -0.58811531565E+01  0.27783609498E+02 -0.47053133235E+02  0.54959205477E+02  0.51100000000E-03 0. -1.
         23    2    1    0    0    0 -0.16656801519E+02  0.22442421325E+02 -0.78434792231E+01  0.95971884696E+02  0.91476615449E+02 0.  0.
         11    1    3    3    0    0 -0.10775648362E+02 -0.53411881726E+01  0.39209654012E+02  0.41012679219E+02  0.51100000000E-03 0.  1.
         22    1    1    0    0    0  0.16656801519E+02 -0.22442421325E+02  0.78434792231E+01  0.29028115304E+02  0.00000000000E+00 0. -1.
</event>
<event>
 5    1  0.1102386E-009  0.9118800E+02  0.7818608E-02  0.1130116E+00
         25   -1    0    0    0    0  0.00000000000E+00  0.00000000000E+00  0.99999998245E-14  0.12500000000E+03  0.12500000000E+03 0.  0.
        -11    1    3    3    0    0  0.46978196716E+02  0.15435238449E+02  0.36731831906E+02  0.61598904439E+02  0.51100000000E-03 0.  1.
         23    2    1    0    0    0  0.23484712163E+02  0.93053299913E+01  0.96828963371E+01  0.97946731194E+02  0.94136511506E+02 0.  0.
         11    1    3    3    0    0 -0.23493484553E+02 -0.61299084574E+01 -0.27048935569E+02  0.36347826755E+02  0.51100000000E-03 0. -1.
         22    1    1    0    0    0 -0.23484712163E+02 -0.93053299913E+01 -0.96828963371E+01  0.27053268806E+02  0.00000000000E+00 0.  1.
</event>
<event>
 5    1  0.1102386E-009  0.9118800E+02  0.7818608E-02  0.1130116E+00
         25   -1    0    0    0    0  0.00000000000E+00  0.00000000000E+00  0.99999998245E-14  0.12500000000E+03  0.12500000000E+03 0.  0.
        -11    1    3    3    0    0  0.15563929193E+02 -0.24510655632E+02 -0.30344143141E+02  0.41997323184E+02  0.51100000000E-03 0.  1.
         23    2    1    0    0    0  0.24818834794E+02  0.19652597818E+02 -0.17078801397E+02  0.89029392295E+02  0.81439229329E+02 0.  0.
         11    1    3    3    0    0  0.92549056018E+01  0.44163253450E+02  0.13265341743E+02  0.47032069111E+02  0.51100000000E-03 0. -1.
         22    1    1    0    0    0 -0.24818834794E+02 -0.19652597818E+02  0.17078801397E+02  0.35970607705E+02  0.00000000000E+00 0. -1.
</event>
<event>
 5    1  0.1102386E-009  0.9118800E+02  0.7818608E-02  0.1130116E+00
         25   -1    0    0    0    0  0.00000000000E+00  0.00000000000E+00  0.99999998245E-14  0.12500000000E+03  0.12500000000E+03 0.  0.
        -11    1    3    3    0    0  0.42797942448E+02  0.11208150209E+02 -0.27662346917E+02  0.52177504215E+02  0.51100000000E-03 0.  1.
         23    2    1    0    0    0  0.35363484503E+01  0.24896140324E+02 -0.15340174416E+02  0.95544193874E+02  0.90890310092E+02 0.  0.
         11    1    3    3    0    0 -0.39261593997E+02  0.13687990115E+02  0.12322172501E+02  0.43366689659E+02  0.51100000000E-03 0. -1.
         22    1    1    0    0    0 -0.35363484503E+01 -0.24896140324E+02  0.15340174416E+02  0.29455806126E+02  0.00000000000E+00 0.  1.
</event>
<event>
 5    1  0.1102386E-009  0.9118800E+02  0.7818608E-02  0.1130116E+00
         25   -1    0    0    0    0  0.00000000000E+00  0.00000000000E+00  0.99999998245E-14  0.12500000000E+03  0.12500000000E+03 0.  0.
        -11    1    3    3    0    0 -0.20609376401E+02  0.51413925156E+02  0.25784886756E+02  0.61098269050E+02  0.51100000000E-03 0. -1.
         23    2    1    0    0    0 -0.53804873803E+01  0.26245490622E+02  0.35472205995E+01  0.97974859919E+02  0.94173855075E+02 0.  0.
         11    1    3    3    0    0  0.15228889021E+02 -0.25168434535E+02 -0.22237666157E+02  0.36876590869E+02  0.51100000000E-03 0.  1.
         22    1    1    0    0    0  0.53804873803E+01 -0.26245490622E+02 -0.35472205995E+01  0.27025140081E+02  0.00000000000E+00 0. -1.
</event>
<event>
 5    1  0.1102386E-009  0.9118800E+02  0.7818608E-02  0.1130116E+00
         25   -1    0    0    0    0  0.00000000000E+00  0.00000000000E+00  0.99999998245E-14  0.12500000000E+03  0.12500000000E+03 0.  0.
        -11    1    3    3    0    0  0.30796049691E+02  0.56591506655E+01  0.46521794771E+02  0.56077625233E+02  0.51100000000E-03 0.  1.
         23    2    1    0    0    0  0.24667539072E+02  0.13832730579E+02  0.84690295381E+01  0.95477866262E+02  0.90799044959E+02 0.  0.
         11    1    3    3    0    0 -0.61285106192E+01  0.81735799134E+01 -0.38052765233E+02  0.39400241029E+02  0.51100000000E-03 0. -1.
         22    1    1    0    0    0 -0.24667539072E+02 -0.13832730579E+02 -0.84690295381E+01  0.29522133738E+02  0.00000000000E+00 0.  1.
</event>
<event>
 5    1  0.1102386E-009  0.9118800E+02  0.7818608E-02  0.1130116E+00
         25   -1    0    0    0    0  0.00000000000E+00  0.00000000000E+00  0.99999998245E-14  0.12500000000E+03  0.12500000000E+03 0.  0.
        -11    1    3    3    0    0 -0.18921248822E+02  0.50610097163E+02 -0.21565693594E+02  0.58176238554E+02  0.51100000000E-03 0.  1.
         23    2    1    0    0    0  0.81139443102E+01  0.22641573355E+02 -0.11410209101E+02  0.98379147122E+02  0.94708958290E+02 0.  0.
         11    1    3    3    0    0  0.27035193133E+02 -0.27968523808E+02  0.10155484493E+02  0.40202908567E+02  0.51100000000E-03 0. -1.
         22    1    1    0    0    0 -0.81139443102E+01 -0.22641573355E+02  0.11410209101E+02  0.26620852878E+02  0.00000000000E+00 0.  1.
</event>
<event>
 5    1  0.1102386E-009  0.9118800E+02  0.7818608E-02  0.1130116E+00
         25   -1    0    0    0    0  0.00000000000E+00  0.00000000000E+00  0.99999998245E-14  0.12500000000E+03  0.12500000000E+03 0.  0.
        -11    1    3    3    0    0  0.23113570274E+02 -0.15987551701E+02 -0.48443319744E+02  0.56005304822E+02  0.51100000000E-03 0.  1.
         23    2    1    0    0    0  0.61505974772E+01  0.12101765358E+02 -0.25714802290E+02  0.95921939010E+02  0.91408340717E+02 0.  0.
         11    1    3    3    0    0 -0.16962972797E+02  0.28089317060E+02  0.22728517454E+02  0.39916634188E+02  0.51100000000E-03 0. -1.
         22    1    1    0    0    0 -0.61505974772E+01 -0.12101765358E+02  0.25714802290E+02  0.29078060990E+02  0.00000000000E+00 0.  1.
</event>
<event>
 5    1  0.1102386E-009  0.9118800E+02  0.7818608E-02  0.1130116E+00
         25   -1    0    0    0    0  0.00000000000E+00  0.00000000000E+00  0.99999998245E-14  0.12500000000E+03  0.12500000000E+03 0.  0.
        -11    1    3    3    0    0  0.26929750808E+02  0.13033712856E+02 -0.50090719188E+02  0.58345259434E+02  0.51100000000E-03 0. -1.
         23    2    1    0    0    0  0.39253355966E+01 -0.63911719940E+01 -0.28846861746E+02  0.95194014500E+02  0.90407431249E+02 0.  0.
         11    1    3    3    0    0 -0.23004415212E+02 -0.19424884850E+02  0.21243857442E+02  0.36848755066E+02  0.51100000000E-03 0.  1.
         22    1    1    0    0    0 -0.39253355966E+01  0.63911719940E+01  0.28846861746E+02  0.29805985500E+02  0.00000000000E+00 0. -1.
</event>
<event>
 5    1  0.1102386E-009  0.9118800E+02  0.7818608E-02  0.1130116E+00
         25   -1    0    0    0    0  0.00000000000E+00  0.00000000000E+00  0.99999998245E-14  0.12500000000E+03  0.12500000000E+03 0.  0.
        -11    1    3    3    0    0  0.25647537195E+02  0.36695178956E+02  0.47680629271E+01  0.45022958001E+02  0.51100000000E-03 0. -1.
         23    2    1    0    0    0 -0.16669596480E+02  0.81646591994E+01  0.19434960653E+02  0.98125201355E+02  0.94373197141E+02 0.  0.
         11    1    3    3    0    0 -0.42317133675E+02 -0.28530519757E+02  0.14666897726E+02  0.53102243354E+02  0.51100000000E-03 0.  1.
         22    1    1    0    0    0  0.16669596480E+02 -0.81646591994E+01 -0.19434960653E+02  0.26874798645E+02  0.00000000000E+00 0.  1.
</event>
<event>
 5    1  0.1102386E-009  0.9118800E+02  0.7818608E-02  0.1130116E+00
         25   -1    0    0    0    0  0.00000000000E+00  0.00000000000E+00  0.99999998245E-14  0.12500000000E+03  0.12500000000E+03 0.  0.
        -11    1    3    3    0    0 -0.24467989797E+02  0.25404077365E+02  0.48716200586E+01  0.35605931440E+02  0.51100000000E-03 0.  1.
         23    2    1    0    0    0  0.23969780279E+02 -0.21209632180E+01 -0.17084541065E+02  0.95488470135E+02  0.90813641782E+02 0.  0.
         11    1    3    3    0    0  0.48437770075E+02 -0.27525040583E+02 -0.21956161123E+02  0.59882538695E+02  0.51100000000E-03 0. -1.
         22    1    1    0    0    0 -0.23969780279E+02  0.21209632180E+01  0.17084541065E+02  0.29511529865E+02  0.00000000000E+00 0. -1.
</event>
<event>
 5    1  0.1102386E-009  0.9118800E+02  0.7818608E-02  0.1130116E+00
         25   -1    0    0    0    0  0.00000000000E+00  0.00000000000E+00  0.99999998245E-14  0.12500000000E+03  0.12500000000E+03 0.  0.
        -11    1    3    3    0    0 -0.58854461901E+01  0.38499513382E+02  0.16682891099E+00  0.38947128773E+02  0.51100000000E-03 0.  1.
         23    2    1    0    0    0  0.20327837526E+02 -0.52632877354E+01 -0.22017284552E+02  0.94574944613E+02  0.89547396128E+02 0.  0.
         11    1    3    3    0    0  0.26213283716E+02 -0.43762801117E+02 -0.22184113463E+02  0.55627815840E+02  0.51100000000E-03 0. -1.
         22    1    1    0    0    0 -0.20327837526E+02  0.52632877354E+01  0.22017284552E+02  0.30425055387E+02  0.00000000000E+00 0. -1.
</event>
<event>
 5    1  0.1102386E-009  0.9118800E+02  0.7818608E-02  0.1130116E+00
         25   -1    0    0    0    0  0.00000000000E+00  0.00000000000E+00  0.99999998245E-14  0.12500000000E+03  0.12500000000E+03 0.  0.
        -11    1    3    3    0    0 -0.49344940984E+02 -0.20754556973E+02  0.78821198171E+01  0.54109173427E+02  0.51100000000E-03 0. -1.
         23    2    1    0    0    0 -0.95759288464E+01 -0.23140155455E+02  0.16681068439E+02  0.94909748223E+02  0.90013538180E+02 0.  0.
         11    1    3    3    0    0  0.39769012138E+02 -0.23855984813E+01  0.87989486223E+01  0.40800574796E+02  0.51100000000E-03 0.  1.
         22    1    1    0    0    0  0.95759288464E+01  0.23140155455E+02 -0.16681068439E+02  0.30090251777E+02  0.00000000000E+00 0.  1.
</event>
<event>
 5    1  0.1102386E-009  0.9118800E+02  0.7818608E-02  0.1130116E+00
         25   -1    0    0    0    0  0.00000000000E+00  0.00000000000E+00  0.99999998245E-14  0.12500000000E+03  0.12500000000E+03 0.  0.
        -11    1    3    3    0    0 -0.34762284689E+02 -0.17476991164E+02 -0.42987559844E+02  0.57980962036E+02  0.51100000000E-03 0. -1.
         23    2    1    0    0    0 -0.14160084301E+02 -0.22654737260E+02 -0.11616335715E+02  0.95867812249E+02  0.91334292914E+02 0.  0.
         11    1    3    3    0    0  0.20602200388E+02 -0.51777460955E+01  0.31371224129E+02  0.37886850213E+02  0.51100000000E-03 0.  1.
         22    1    1    0    0    0  0.14160084301E+02  0.22654737260E+02  0.11616335715E+02  0.29132187751E+02  0.00000000000E+00 0. -1.
</event>
<event>
 5    1  0.1102386E-009  0.9118800E+02  0.7818608E-02  0.1130116E+00
         25   -1    0    0    0    0  0.00000000000E+00  0.00000000000E+00  0.99999998245E-14  0.12500000000E+03  0.12500000000E+03 0.  0.
        -11    1    3    3    0    0 -0.18480328589E+02  0.90343222871E+00  0.36809688790E+02  0.41198202917E+02  0.51100000000E-03 0. -1.
         23    2    1    0    0    0  0.21492693939E+01  0.23285140188E+02 -0.11996397334E+02  0.98718244703E+02  0.95155457940E+02 0.  0.
         11    1    3    3    0    0  0.20629597983E+02  0.22381707959E+02 -0.48806086124E+02  0.57520041786E+02  0.51100000000E-03 0.  1.
         22    1    1    0    0    0 -0.21492693939E+01 -0.23285140188E+02  0.11996397334E+02  0.26281755297E+02  0.00000000000E+00 0.  1.
</event>
<event>
 5    1  0.1102386E-009  0.9118800E+02  0.7818608E-02  0.1130116E+00
         25   -1    0    0    0    0  0.00000000000E+00  0.00000000000E+00  0.99999998245E-14  0.12500000000E+03  0.12500000000E+03 0.  0.
        -11    1    3    3    0    0 -0.19043314798E+02 -0.23378642186E+02  0.30037626235E+02  0.42561340898E+02  0.51100000000E-03 0. -1.
         23    2    1    0    0    0 -0.24018829617E+01  0.25033593154E+02  0.14052554808E+02  0.96191596285E+02  0.91776353552E+02 0.  0.
         11    1    3    3    0    0  0.16641431836E+02  0.48412235340E+02 -0.15985071426E+02  0.53630255387E+02  0.51100000000E-03 0.  1.
         22    1    1    0    0    0  0.24018829617E+01 -0.25033593154E+02 -0.14052554808E+02  0.28808403715E+02  0.00000000000E+00 0.  1.
</event>
<event>
 5    1  0.1102386E-009  0.9118800E+02  0.7818608E-02  0.1130116E+00
         25   -1    0    0    0    0  0.00000000000E+00  0.00000000000E+00  0.99999998245E-14  0.12500000000E+03  0.12500000000E+03 0.  0.
        -11    1    3    3    0    0  0.35726087504E+02  0.36592517671E+02  0.49998019933E+01  0.51384469425E+02  0.51100000000E-03 0. -1.
         23    2    1    0    0    0  0.27634205626E+02 -0.68541988698E+01  0.71970301800E+01  0.95632899255E+02  0.91012223431E+02 0.  0.
         11    1    3    3    0    0 -0.80918818779E+01 -0.43446716541E+02  0.21972281867E+01  0.44248429830E+02  0.51100000000E-03 0.  1.
         22    1    1    0    0    0 -0.27634205626E+02  0.68541988698E+01 -0.71970301800E+01  0.29367100745E+02  0.00000000000E+00 0.  1.
</event>
<event>
 5    1  0.1102386E-009  0.9118800E+02  0.7818608E-02  0.1130116E+00
         25   -1    0    0    0    0  0.00000000000E+00  0.00000000000E+00  0.99999998245E-14  0.12500000000E+03  0.12500000000E+03 0.  0.
        -11    1    3    3    0    0 -0.58493086321E+02 -0.84414071973E+00 -0.13484690051E+02  0.60033245681E+02  0.51100000000E-03 0. -1.
         23    2    1    0    0    0 -0.22294496550E+02 -0.12370145020E+02 -0.39647989193E+01  0.99197195991E+02  0.95782561032E+02 0.  0.
         11    1    3    3    0    0  0.36198589771E+02 -0.11526004300E+02  0.95198911312E+01  0.39163950310E+02  0.51100000000E-03 0.  1.
         22    1    1    0    0    0  0.22294496550E+02  0.12370145020E+02  0.39647989193E+01  0.25802804009E+02  0.00000000000E+00 0. -1.
</event>
<event>
 5    1  0.1102386E-009  0.9118800E+02  0.7818608E-02  0.1130116E+00
         25   -1    0    0    0    0  0.00000000000E+00  0.00000000000E+00  0.99999998245E-14  0.12500000000E+03  0.12500000000E+03 0.  0.
        -11    1    3    3    0    0  0.14395473844E+02 -0.48108129029E+02 -0.75580207902E+01  0.50781349179E+02  0.51100000000E-03 0. -1.
         23    2    1    0    0    0  0.22356605291E+02 -0.37506442624E+01 -0.16798528643E+02  0.96785186567E+02  0.92581297472E+02 0.  0.
         11    1    3    3    0    0  0.79611314473E+01  0.44357484767E+02 -0.92405078525E+01  0.46003837388E+02  0.51100000000E-03 0.  1.
         22    1    1    0    0    0 -0.22356605291E+02  0.37506442624E+01  0.16798528643E+02  0.28214813433E+02  0.00000000000E+00 0.  1.
</event>
<event>
 5    1  0.1102386E-009  0.9118800E+02  0.7818608E-02  0.1130116E+00
         25   -1    0    0    0    0  0.00000000000E+00  0.00000000000E+00  0.99999998245E-14  0.12500000000E+03  0.12500000000E+03 0.  0.
        -11    1    3    3    0    0  0.22591882354E+01  0.36527424541E+02  0.28893512911E+02  0.46628229258E+02  0.51100000000E-03 0.  1.
         23    2    1    0    0    0  0.19467917572E+02 -0.10704607686E+02  0.52959279707E+01  0.10216066346E+03  0.99574925891E+02 0.  0.
         11    1    3    3    0    0  0.17208729337E+02 -0.47232032227E+02 -0.23597584941E+02  0.55532434207E+02  0.51100000000E-03 0. -1.
         22    1    1    0    0    0 -0.19467917572E+02  0.10704607686E+02 -0.52959279707E+01  0.22839336535E+02  0.00000000000E+00 0. -1.
</event>
<event>
 5    1  0.1102386E-009  0.9118800E+02  0.7818608E-02  0.1130116E+00
         25   -1    0    0    0    0  0.00000000000E+00  0.00000000000E+00  0.99999998245E-14  0.12500000000E+03  0.12500000000E+03 0.  0.
        -11    1    3    3    0    0 -0.31909980884E+01  0.11684203727E+02  0.44405173749E+02  0.46027410762E+02  0.51100000000E-03 0. -1.
         23    2    1    0    0    0  0.28318251631E+02  0.12762333005E+02  0.33321178419E+02  0.79446718555E+02  0.65089781370E+02 0.  0.
         11    1    3    3    0    0  0.31509249719E+02  0.10781292785E+01 -0.11083995330E+02  0.33419307793E+02  0.51100000000E-03 0.  1.
         22    1    1    0    0    0 -0.28318251631E+02 -0.12762333005E+02 -0.33321178419E+02  0.45553281445E+02  0.00000000000E+00 0. -1.
</event>
<event>
 5    1  0.1102386E-009  0.9118800E+02  0.7818608E-02  0.1130116E+00
         25   -1    0    0    0    0  0.00000000000E+00  0.00000000000E+00  0.99999998245E-14  0.12500000000E+03  0.12500000000E+03 0.  0.
        -11    1    3    3    0    0 -0.30662624690E+02 -0.12248782413E+02 -0.19878810174E+02  0.38540839608E+02  0.51100000000E-03 0.  1.
         23    2    1    0    0    0  0.14730490532E+02 -0.12794495685E+02  0.18594525567E+02  0.98047396188E+02  0.94270085642E+02 0.  0.
         11    1    3    3    0    0  0.45393115223E+02 -0.54571327191E+00  0.38473335742E+02  0.59506556580E+02  0.51100000000E-03 0. -1.
         22    1    1    0    0    0 -0.14730490532E+02  0.12794495685E+02 -0.18594525567E+02  0.26952603812E+02  0.00000000000E+00 0. -1.
</event>
<event>
 5    1  0.1102386E-009  0.9118800E+02  0.7818608E-02  0.1130116E+00
         25   -1    0    0    0    0  0.00000000000E+00  0.00000000000E+00  0.99999998245E-14  0.12500000000E+03  0.12500000000E+03 0.  0.
        -11    1    3    3    0    0 -0.16575633604E+02 -0.42409157813E+02 -0.33753551718E+02  0.56679719032E+02  0.51100000000E-03 0. -1.
         23    2    1    0    0    0 -0.70503469290E+01 -0.27179503987E+02  0.21629569759E+01  0.96837769768E+02  0.92652266253E+02 0.  0.
         11    1    3    3    0    0  0.95252866746E+01  0.15229653826E+02  0.35916508694E+02  0.40158050736E+02  0.51100000000E-03 0.  1.
         22    1    1    0    0    0  0.70503469290E+01  0.27179503987E+02 -0.21629569759E+01  0.28162230232E+02  0.00000000000E+00 0. -1.
</event>
<event>
 5    1  0.1102386E-009  0.9118800E+02  0.7818608E-02  0.1130116E+00
         25   -1    0    0    0    0  0.00000000000E+00  0.00000000000E+00  0.99999998245E-14  0.12500000000E+03  0.12500000000E+03 0.  0.
        -11    1    3    3    0    0 -0.44801206157E+02 -0.78993453075E+01 -0.16050779939E+02  0.48240804993E+02  0.51100000000E-03 0. -1.
         23    2    1    0    0    0 -0.18255106589E+02  0.29087936920E+01  0.22246377240E+02  0.96075766257E+02  0.91618456460E+02 0.  0.
         11    1    3    3    0    0  0.26546099568E+02  0.10808138999E+02  0.38297157179E+02  0.47834961264E+02  0.51100000000E-03 0.  1.
         22    1    1    0    0    0  0.18255106589E+02 -0.29087936920E+01 -0.22246377240E+02  0.28924233743E+02  0.00000000000E+00 0. -1.
</event>
<event>
 5    1  0.1102386E-009  0.9118800E+02  0.7818608E-02  0.1130116E+00
         25   -1    0    0    0    0  0.00000000000E+00  0.00000000000E+00  0.99999998245E-14  0.12500000000E+03  0.12500000000E+03 0.  0.
        -11    1    3    3    0    0  0.11277122779E+02 -0.20511306613E+02 -0.26538844501E+02  0.35386402259E+02  0.51100000000E-03 0.  1.
         23    2    1    0    0    0  0.12565946755E+02  0.27451915988E+02  0.71011687040E+01  0.93984885842E+02  0.88719904534E+02 0.  0.
         11    1    3    3    0    0  0.12888239755E+01  0.47963222601E+02  0.33640013205E+02  0.58598483583E+02  0.51100000000E-03 0. -1.
         22    1    1    0    0    0 -0.12565946755E+02 -0.27451915988E+02 -0.71011687040E+01  0.31015114158E+02  0.00000000000E+00 0. -1.
</event>
<event>
 5    1  0.1102386E-009  0.9118800E+02  0.7818608E-02  0.1130116E+00
         25   -1    0    0    0    0  0.00000000000E+00  0.00000000000E+00  0.99999998245E-14  0.12500000000E+03  0.12500000000E+03 0.  0.
        -11    1    3    3    0    0 -0.36242066660E+01  0.43174925422E+02 -0.41676173117E+02  0.60117488846E+02  0.51100000000E-03 0. -1.
         23    2    1    0    0    0 -0.16709767280E+01  0.89619935197E+01 -0.25318899728E+02  0.98089849973E+02  0.94326361603E+02 0.  0.
         11    1    3    3    0    0  0.19532299381E+01 -0.34212931902E+02  0.16357273390E+02  0.37972361127E+02  0.51100000000E-03 0.  1.
         22    1    1    0    0    0  0.16709767280E+01 -0.89619935197E+01  0.25318899728E+02  0.26910150027E+02  0.00000000000E+00 0. -1.
</event>
<event>
 5    1  0.1102386E-009  0.9118800E+02  0.7818608E-02  0.1130116E+00
         25   -1    0    0    0    0  0.00000000000E+00  0.00000000000E+00  0.99999998245E-14  0.12500000000E+03  0.12500000000E+03 0.  0.
        -11    1    3    3    0    0  0.25971203001E+02 -0.21589024759E+02 -0.43512861222E+01  0.34051770388E+02  0.51100000000E-03 0. -1.
         23    2    1    0    0    0 -0.26333847493E+02  0.11724469163E+02 -0.92876400434E+00  0.96159103629E+02  0.91732087664E+02 0.  0.
         11    1    3    3    0    0 -0.52305050494E+02  0.33313493921E+02  0.34225221179E+01  0.62107333241E+02  0.51100000000E-03 0.  1.
         22    1    1    0    0    0  0.26333847493E+02 -0.11724469163E+02  0.92876400434E+00  0.28840896371E+02  0.00000000000E+00 0.  1.
</event>
<event>
 5    1  0.1102386E-009  0.9118800E+02  0.7818608E-02  0.1130116E+00
         25   -1    0    0    0    0  0.00000000000E+00  0.00000000000E+00  0.99999998245E-14  0.12500000000E+03  0.12500000000E+03 0.  0.
        -11    1    3    3    0    0 -0.15205779651E+02 -0.58656736064E+02 -0.50352857176E+01  0.60804461374E+02  0.51100000000E-03 0. -1.
         23    2    1    0    0    0 -0.16260346306E+02 -0.22972877761E+02 -0.44247356955E+01  0.96509119695E+02  0.92207808366E+02 0.  0.
         11    1    3    3    0    0 -0.10545666545E+01  0.35683858303E+02  0.61055002211E+00  0.35704658321E+02  0.51100000000E-03 0.  1.
         22    1    1    0    0    0  0.16260346306E+02  0.22972877761E+02  0.44247356955E+01  0.28490880305E+02  0.00000000000E+00 0. -1.
</event>
<event>
 5    1  0.1102386E-009  0.9118800E+02  0.7818608E-02  0.1130116E+00
         25   -1    0    0    0    0  0.00000000000E+00  0.00000000000E+00  0.99999998245E-14  0.12500000000E+03  0.12500000000E+03 0.  0.
        -11    1    3    3    0    0 -0.49028988137E+02 -0.17656876551E+02  0.78543039028E+01  0.52700066957E+02  0.51100000000E-03 0.  1.
         23    2    1    0    0    0 -0.15863435295E+02 -0.84805551721E+01  0.27360751462E+02  0.92255853714E+02  0.86249425671E+02 0.  0.
         11    1    3    3    0    0  0.33165552841E+02  0.91763213792E+01  0.19506447559E+02  0.39555786757E+02  0.51100000000E-03 0. -1.
         22    1    1    0    0    0  0.15863435295E+02  0.84805551721E+01 -0.27360751462E+02  0.32744146286E+02  0.00000000000E+00 0. -1.
</event>
<event>
 5    1  0.1102386E-009  0.9118800E+02  0.7818608E-02  0.1130116E+00
         25   -1    0    0    0    0  0.00000000000E+00  0.00000000000E+00  0.99999998245E-14  0.12500000000E+03  0.12500000000E+03 0.  0.
        -11    1    3    3    0    0  0.21178556436E+02  0.39451235277E+02  0.19757338695E+02  0.48941635140E+02  0.51100000000E-03 0.  1.
         23    2    1    0    0    0  0.15206046298E+01  0.20509879166E+02 -0.19434689130E+02  0.96703807263E+02  0.92471356731E+02 0.  0.
         11    1    3    3    0    0 -0.19657951806E+02 -0.18941356111E+02 -0.39192027826E+02  0.47762172123E+02  0.51100000000E-03 0. -1.
         22    1    1    0    0    0 -0.15206046298E+01 -0.20509879166E+02  0.19434689130E+02  0.28296192737E+02  0.00000000000E+00 0.  1.
</event>
<event>
 5    1  0.1102386E-009  0.9118800E+02  0.7818608E-02  0.1130116E+00
         25   -1    0    0    0    0  0.00000000000E+00  0.00000000000E+00  0.99999998245E-14  0.12500000000E+03  0.12500000000E+03 0.  0.
        -11    1    3    3    0    0  0.37843965305E+02 -0.32546555728E+02 -0.15990260536E+02  0.52413094090E+02  0.51100000000E-03 0.  1.
         23    2    1    0    0    0  0.25511742617E+02  0.84679188165E+01 -0.12416930192E+02  0.95390291865E+02  0.90678404079E+02 0.  0.
         11    1    3    3    0    0 -0.12332222688E+02  0.41014474545E+02  0.35733303439E+01  0.42977197775E+02  0.51100000000E-03 0. -1.
         22    1    1    0    0    0 -0.25511742617E+02 -0.84679188165E+01  0.12416930192E+02  0.29609708135E+02  0.00000000000E+00 0. -1.
</event>
<event>
 5    1  0.1102386E-009  0.9118800E+02  0.7818608E-02  0.1130116E+00
         25   -1    0    0    0    0  0.00000000000E+00  0.00000000000E+00  0.99999998245E-14  0.12500000000E+03  0.12500000000E+03 0.  0.
        -11    1    3    3    0    0 -0.28387181489E+02 -0.21574494811E+02 -0.63830659761E+01  0.36222015829E+02  0.51100000000E-03 0.  1.
         23    2    1    0    0    0  0.17514997145E+02  0.13756148186E+02 -0.19254499498E+02  0.95559509365E+02  0.90911370803E+02 0.  0.
         11    1    3    3    0    0  0.45902178634E+02  0.35330642997E+02 -0.12871433522E+02  0.59337493536E+02  0.51100000000E-03 0. -1.
         22    1    1    0    0    0 -0.17514997145E+02 -0.13756148186E+02  0.19254499498E+02  0.29440490635E+02  0.00000000000E+00 0. -1.
</event>
<event>
 5    1  0.1102386E-009  0.9118800E+02  0.7818608E-02  0.1130116E+00
         25   -1    0    0    0    0  0.00000000000E+00  0.00000000000E+00  0.99999998245E-14  0.12500000000E+03  0.12500000000E+03 0.  0.
        -11    1    3    3    0    0  0.53891111966E+02  0.55528282269E+01  0.59034371038E+01  0.54497123044E+02  0.51100000000E-03 0. -1.
         23    2    1    0    0    0  0.20080347920E+02  0.24238380479E+02  0.36856812089E+00  0.93522145827E+02  0.88065523656E+02 0.  0.
         11    1    3    3    0    0 -0.33810764045E+02  0.18685552252E+02 -0.55348689830E+01  0.39025022783E+02  0.51100000000E-03 0.  1.
         22    1    1    0    0    0 -0.20080347920E+02 -0.24238380479E+02 -0.36856812089E+00  0.31477854173E+02  0.00000000000E+00 0. -1.
</event>
<event>
 5    1  0.1102386E-009  0.9118800E+02  0.7818608E-02  0.1130116E+00
         25   -1    0    0    0    0  0.00000000000E+00  0.00000000000E+00  0.99999998245E-14  0.12500000000E+03  0.12500000000E+03 0.  0.
        -11    1    3    3    0    0  0.45030913125E+02  0.18543654854E+02  0.96225171746E+01  0.49641143311E+02  0.51100000000E-03 0.  1.
         23    2    1    0    0    0  0.71213196820E+01  0.43436648309E+00  0.28442208353E+02  0.95676611992E+02  0.91072240546E+02 0.  0.
         11    1    3    3    0    0 -0.37909593443E+02 -0.18109288371E+02  0.18819691179E+02  0.46035468681E+02  0.51100000000E-03 0. -1.
         22    1    1    0    0    0 -0.71213196820E+01 -0.43436648309E+00 -0.28442208353E+02  0.29323388008E+02  0.00000000000E+00 0. -1.
</event>
<event>
 5    1  0.1102386E-009  0.9118800E+02  0.7818608E-02  0.1130116E+00
         25   -1    0    0    0    0  0.00000000000E+00  0.00000000000E+00  0.99999998245E-14  0.12500000000E+03  0.12500000000E+03 0.  0.
        -11    1    3    3    0    0 -0.36317011502E+02 -0.71693725505E+01 -0.34872374266E+02  0.50856737158E+02  0.51100000000E-03 0. -1.
         23    2    1    0    0    0  0.33095271191E+01  0.12128863508E+02 -0.26427572989E+02  0.95734338998E+02  0.91151438549E+02 0.  0.
         11    1    3    3    0    0  0.39626538621E+02  0.19298236058E+02  0.84448012765E+01  0.44877601840E+02  0.51100000000E-03 0.  1.
         22    1    1    0    0    0 -0.33095271191E+01 -0.12128863508E+02  0.26427572989E+02  0.29265661002E+02  0.00000000000E+00 0.  1.
</event>
<event>
 5    1  0.1102386E-009  0.9118800E+02  0.7818608E-02  0.1130116E+00
         25   -1    0    0    0    0  0.00000000000E+00  0.00000000000E+00  0.99999998245E-14  0.12500000000E+03  0.12500000000E+03 0.  0.
        -11    1    3    3    0    0  0.99737491451E+01 -0.57760677693E+01 -0.59488577052E+02  0.60594797061E+02  0.51100000000E-03 0.  1.
         23    2    1    0    0    0  0.10034190560E+02 -0.11229720591E+02 -0.22871966570E+02  0.97615360884E+02  0.93695465317E+02 0.  0.
         11    1    3    3    0    0  0.60441415368E-01 -0.54536528219E+01  0.36616610483E+02  0.37020563823E+02  0.51100000000E-03 0. -1.
         22    1    1    0    0    0 -0.10034190560E+02  0.11229720591E+02  0.22871966570E+02  0.27384639116E+02  0.00000000000E+00 0.  1.
</event>
<event>
 5    1  0.1102386E-009  0.9118800E+02  0.7818608E-02  0.1130116E+00
         25   -1    0    0    0    0  0.00000000000E+00  0.00000000000E+00  0.99999998245E-14  0.12500000000E+03  0.12500000000E+03 0.  0.
        -11    1    3    3    0    0  0.70493783579E+01  0.52516577474E+02 -0.15212745336E+02  0.55128144044E+02  0.51100000000E-03 0. -1.
         23    2    1    0    0    0  0.21161826813E+02  0.12334173582E+02  0.43994982542E+00  0.10050207544E+03  0.97470605104E+02 0.  0.
         11    1    3    3    0    0  0.14112448456E+02 -0.40182403892E+02  0.15652695161E+02  0.45373931393E+02  0.51100000000E-03 0.  1.
         22    1    1    0    0    0 -0.21161826813E+02 -0.12334173582E+02 -0.43994982542E+00  0.24497924563E+02  0.00000000000E+00 0. -1.
</event>
<event>
 5    1  0.1102386E-009  0.9118800E+02  0.7818608E-02  0.1130116E+00
         25   -1    0    0    0    0  0.00000000000E+00  0.00000000000E+00  0.99999998245E-14  0.12500000000E+03  0.12500000000E+03 0.  0.
        -11    1    3    3    0    0  0.40710404868E+02  0.42618393639E+02 -0.80683741614E+00  0.58943324709E+02  0.51100000000E-03 0.  1.
         23    2    1    0    0    0  0.27187045130E+02  0.84159663297E+01  0.47716992261E+01  0.96142886048E+02  0.91709985890E+02 0.  0.
         11    1    3    3    0    0 -0.13523359738E+02 -0.34202427309E+02  0.55785366422E+01  0.37199561339E+02  0.51100000000E-03 0. -1.
         22    1    1    0    0    0 -0.27187045130E+02 -0.84159663297E+01 -0.47716992261E+01  0.28857113952E+02  0.00000000000E+00 0.  1.
</event>
<event>
 5    1  0.1102386E-009  0.9118800E+02  0.7818608E-02  0.1130116E+00
         25   -1    0    0    0    0  0.00000000000E+00  0.00000000000E+00  0.99999998245E-14  0.12500000000E+03  0.12500000000E+03 0.  0.
        -11    1    3    3    0    0  0.21666101397E+02 -0.52563582293E+02 -0.92756932075E+01  0.57605456495E+02  0.51100000000E-03 0.  1.
         23    2    1    0    0    0 -0.42814257616E+01 -0.24865539295E+02 -0.14471922140E+02  0.95912851955E+02  0.91395913414E+02 0.  0.
         11    1    3    3    0    0 -0.25947527158E+02  0.27698042998E+02 -0.51962289323E+01  0.38307395460E+02  0.51100000000E-03 0. -1.
         22    1    1    0    0    0  0.42814257616E+01  0.24865539295E+02  0.14471922140E+02  0.29087148045E+02  0.00000000000E+00 0.  1.
</event>
<event>
 5    1  0.1102386E-009  0.9118800E+02  0.7818608E-02  0.1130116E+00
         25   -1    0    0    0    0  0.00000000000E+00  0.00000000000E+00  0.99999998245E-14  0.12500000000E+03  0.12500000000E+03 0.  0.
        -11    1    3    3    0    0 -0.26623295944E+02  0.32526395510E+02 -0.11150644759E+02  0.43486816055E+02  0.51100000000E-03 0.  1.
         23    2    1    0    0    0 -0.14178264773E+02 -0.58948971080E+01  0.23652574056E+02  0.96800403135E+02  0.92601840067E+02 0.  0.
         11    1    3    3    0    0  0.12445031171E+02 -0.38421292618E+02  0.34803218815E+02  0.53313587080E+02  0.51100000000E-03 0. -1.
         22    1    1    0    0    0  0.14178264773E+02  0.58948971080E+01 -0.23652574056E+02  0.28199596865E+02  0.00000000000E+00 0. -1.
</event>
<event>
 5    1  0.1102386E-009  0.9118800E+02  0.7818608E-02  0.1130116E+00
         25   -1    0    0    0    0  0.00000000000E+00  0.00000000000E+00  0.99999998245E-14  0.12500000000E+03  0.12500000000E+03 0.  0.
        -11    1    3    3    0    0 -0.19121285473E+02  0.39266657995E+02 -0.29433383229E+02  0.52667048871E+02  0.51100000000E-03 0. -1.
         23    2    1    0    0    0 -0.12261889272E+02 -0.26118759493E+01 -0.27068129036E+02  0.95169488204E+02  0.90373514101E+02 0.  0.
         11    1    3    3    0    0  0.68593962012E+01 -0.41878533944E+02  0.23652541928E+01  0.42502439333E+02  0.51100000000E-03 0.  1.
         22    1    1    0    0    0  0.12261889272E+02  0.26118759493E+01  0.27068129036E+02  0.29830511796E+02  0.00000000000E+00 0. -1.
</event>
<event>
 5    1  0.1102386E-009  0.9118800E+02  0.7818608E-02  0.1130116E+00
         25   -1    0    0    0    0  0.00000000000E+00  0.00000000000E+00  0.99999998245E-14  0.12500000000E+03  0.12500000000E+03 0.  0.
        -11    1    3    3    0    0  0.17381004088E+01  0.77431077715E+01  0.52446843890E+02  0.53043832302E+02  0.51100000000E-03 0.  1.
         23    2    1    0    0    0  0.46648482002E+01 -0.20354960431E+02  0.19709494019E+02  0.96285032172E+02  0.91903525738E+02 0.  0.
         11    1    3    3    0    0  0.29267477914E+01 -0.28098068203E+02 -0.32737349871E+02  0.43241199870E+02  0.51100000000E-03 0. -1.
         22    1    1    0    0    0 -0.46648482002E+01  0.20354960431E+02 -0.19709494019E+02  0.28714967828E+02  0.00000000000E+00 0. -1.
</event>
<event>
 5    1  0.1102386E-009  0.9118800E+02  0.7818608E-02  0.1130116E+00
         25   -1    0    0    0    0  0.00000000000E+00  0.00000000000E+00  0.99999998245E-14  0.12500000000E+03  0.12500000000E+03 0.  0.
        -11    1    3    3    0    0 -0.42315951650E+02  0.30426694797E+02  0.12130422230E+02  0.53512341231E+02  0.51100000000E-03 0.  1.
         23    2    1    0    0    0 -0.15770423916E+02  0.33546216675E+02 -0.81288735833E+01  0.87050908978E+02  0.78343648399E+02 0.  0.
         11    1    3    3    0    0  0.26545527734E+02  0.31195218783E+01 -0.20259295813E+02  0.33538567747E+02  0.51100000000E-03 0. -1.
         22    1    1    0    0    0  0.15770423916E+02 -0.33546216675E+02  0.81288735833E+01  0.37949091022E+02  0.00000000000E+00 0.  1.
</event>
<event>
 5    1  0.1102386E-009  0.9118800E+02  0.7818608E-02  0.1130116E+00
         25   -1    0    0    0    0  0.00000000000E+00  0.00000000000E+00  0.99999998245E-14  0.12500000000E+03  0.12500000000E+03 0.  0.
        -11    1    3    3    0    0  0.28079720190E+02  0.23337577549E+02 -0.10283688048E+02  0.37932406356E+02  0.51100000000E-03 0.  1.
         23    2    1    0    0    0 -0.18272044025E+02 -0.88379145043E+01 -0.21469132512E+02  0.95455119285E+02  0.90767724557E+02 0.  0.
         11    1    3    3    0    0 -0.46351764214E+02 -0.32175492053E+02 -0.11185444464E+02  0.57522712930E+02  0.51100000000E-03 0. -1.
         22    1    1    0    0    0  0.18272044025E+02  0.88379145043E+01  0.21469132512E+02  0.29544880715E+02  0.00000000000E+00 0. -1.
</event>
<event>
 5    1  0.1102386E-009  0.9118800E+02  0.7818608E-02  0.1130116E+00
         25   -1    0    0    0    0  0.00000000000E+00  0.00000000000E+00  0.99999998245E-14  0.12500000000E+03  0.12500000000E+03 0.  0.
        -11    1    3    3    0    0 -0.59683670365E+02 -0.25946580880E+01  0.15374238976E+01  0.59759822886E+02  0.51100000000E-03 0. -1.
         23    2    1    0    0    0 -0.26741220218E+02  0.15544730672E+01 -0.12041004396E+02  0.95631734268E+02  0.91010623374E+02 0.  0.
         11    1    3    3    0    0  0.32942450147E+02  0.41491311551E+01 -0.13578428294E+02  0.35871911382E+02  0.51100000000E-03 0.  1.
         22    1    1    0    0    0  0.26741220218E+02 -0.15544730672E+01  0.12041004396E+02  0.29368265732E+02  0.00000000000E+00 0. -1.
</event>
<event>
 5    1  0.1102386E-009  0.9118800E+02  0.7818608E-02  0.1130116E+00
         25   -1    0    0    0    0  0.00000000000E+00  0.00000000000E+00  0.99999998245E-14  0.12500000000E+03  0.12500000000E+03 0.  0.
        -11    1    3    3    0    0  0.30260661224E+02 -0.39982456490E+02  0.30915600390E+02  0.58907374687E+02  0.51100000000E-03 0. -1.
         23    2    1    0    0    0  0.25281214180E+02 -0.14393253426E+02  0.53492253128E+01  0.95420957655E+02  0.90720666960E+02 0.  0.
         11    1    3    3    0    0 -0.49794470443E+01  0.25589203064E+02 -0.25566375077E+02  0.36513582968E+02  0.51100000000E-03 0.  1.
         22    1    1    0    0    0 -0.25281214180E+02  0.14393253426E+02 -0.53492253128E+01  0.29579042345E+02  0.00000000000E+00 0. -1.
</event>
<event>
 5    1  0.1102386E-009  0.9118800E+02  0.7818608E-02  0.1130116E+00
         25   -1    0    0    0    0  0.00000000000E+00  0.00000000000E+00  0.99999998245E-14  0.12500000000E+03  0.12500000000E+03 0.  0.
        -11    1    3    3    0    0  0.20374579259E+02 -0.28994135856E+02 -0.94590761289E+01  0.36677752323E+02  0.51100000000E-03 0. -1.
         23    2    1    0    0    0 -0.18058858868E+02 -0.90884894942E+01 -0.33263789617E+02  0.86074395001E+02  0.76769777583E+02 0.  0.
         11    1    3    3    0    0 -0.38433438127E+02  0.19905646362E+02 -0.23804713488E+02  0.49396642678E+02  0.51100000000E-03 0.  1.
         22    1    1    0    0    0  0.18058858868E+02  0.90884894942E+01  0.33263789617E+02  0.38925604999E+02  0.00000000000E+00 0.  1.
</event>
<event>
 5    1  0.1102386E-009  0.9118800E+02  0.7818608E-02  0.1130116E+00
         25   -1    0    0    0    0  0.00000000000E+00  0.00000000000E+00  0.99999998245E-14  0.12500000000E+03  0.12500000000E+03 0.  0.
        -11    1    3    3    0    0 -0.27284829771E+01  0.58387885914E+00  0.19367148047E+02  0.19567114187E+02  0.51100000000E-03 0.  1.
         23    2    1    0    0    0  0.11533590614E+02  0.59383440751E+00 -0.41417484183E+02  0.82002507657E+02  0.69825689500E+02 0.  0.
         11    1    3    3    0    0  0.14262073591E+02  0.99555483695E-02 -0.60784632230E+02  0.62435393470E+02  0.51100000000E-03 0. -1.
         22    1    1    0    0    0 -0.11533590614E+02 -0.59383440751E+00  0.41417484183E+02  0.42997492343E+02  0.00000000000E+00 0. -1.
</event>
<event>
 5    1  0.1102386E-009  0.9118800E+02  0.7818608E-02  0.1130116E+00
         25   -1    0    0    0    0  0.00000000000E+00  0.00000000000E+00  0.99999998245E-14  0.12500000000E+03  0.12500000000E+03 0.  0.
        -11    1    3    3    0    0  0.12550090525E+02  0.30758798934E+02  0.16446295533E+02  0.37068708112E+02  0.51100000000E-03 0.  1.
         23    2    1    0    0    0 -0.17360127857E+02 -0.21329501438E+01 -0.22726371047E+02  0.96322282927E+02  0.91954177348E+02 0.  0.
         11    1    3    3    0    0 -0.29910218383E+02 -0.32891749078E+02 -0.39172666580E+02  0.59253574815E+02  0.51100000000E-03 0. -1.
         22    1    1    0    0    0  0.17360127857E+02  0.21329501438E+01  0.22726371047E+02  0.28677717073E+02  0.00000000000E+00 0. -1.
</event>
<event>
 5    1  0.1102386E-009  0.9118800E+02  0.7818608E-02  0.1130116E+00
         25   -1    0    0    0    0  0.00000000000E+00  0.00000000000E+00  0.99999998245E-14  0.12500000000E+03  0.12500000000E+03 0.  0.
        -11    1    3    3    0    0  0.17830283824E+02 -0.49976191841E+02  0.32636451886E+02  0.62295078169E+02  0.51100000000E-03 0.  1.
         23    2    1    0    0    0  0.46203618400E+01 -0.23509061247E+02  0.14926180220E+02  0.96772096071E+02  0.92563621460E+02 0.  0.
         11    1    3    3    0    0 -0.13209921984E+02  0.26467130593E+02 -0.17710271666E+02  0.34477017902E+02  0.51100000000E-03 0. -1.
         22    1    1    0    0    0 -0.46203618400E+01  0.23509061247E+02 -0.14926180220E+02  0.28227903929E+02  0.00000000000E+00 0.  1.
</event>
<event>
 5    1  0.1102386E-009  0.9118800E+02  0.7818608E-02  0.1130116E+00
         25   -1    0    0    0    0  0.00000000000E+00  0.00000000000E+00  0.99999998245E-14  0.12500000000E+03  0.12500000000E+03 0.  0.
        -11    1    3    3    0    0 -0.29413614992E+01 -0.28879708803E+02 -0.27978655183E+02  0.40317419736E+02  0.51100000000E-03 0. -1.
         23    2    1    0    0    0 -0.29339475963E+01  0.25153775370E+02 -0.42924451788E+01  0.99314487557E+02  0.95935509011E+02 0.  0.
         11    1    3    3    0    0  0.74139029416E-02  0.54033484173E+02  0.23686210004E+02  0.58997067821E+02  0.51100000000E-03 0.  1.
         22    1    1    0    0    0  0.29339475963E+01 -0.25153775370E+02  0.42924451788E+01  0.25685512443E+02  0.00000000000E+00 0.  1.
</event>
<event>
 5    1  0.1102386E-009  0.9118800E+02  0.7818608E-02  0.1130116E+00
         25   -1    0    0    0    0  0.00000000000E+00  0.00000000000E+00  0.99999998245E-14  0.12500000000E+03  0.12500000000E+03 0.  0.
        -11    1    3    3    0    0 -0.45783765500E+02 -0.25262660797E+02 -0.23442435119E+02  0.57305348603E+02  0.51100000000E-03 0.  1.
         23    2    1    0    0    0 -0.15642882532E+02 -0.19870501733E+02  0.51419583565E+01  0.99193482436E+02  0.95777714574E+02 0.  0.
         11    1    3    3    0    0  0.30140882968E+02  0.53921590643E+01  0.28584393475E+02  0.41888133834E+02  0.51100000000E-03 0. -1.
         22    1    1    0    0    0  0.15642882532E+02  0.19870501733E+02 -0.51419583565E+01  0.25806517564E+02  0.00000000000E+00 0.  1.
</event>
<event>
 5    1  0.1102386E-009  0.9118800E+02  0.7818608E-02  0.1130116E+00
         25   -1    0    0    0    0  0.00000000000E+00  0.00000000000E+00  0.99999998245E-14  0.12500000000E+03  0.12500000000E+03 0.  0.
        -11    1    3    3    0    0  0.48835031920E+02 -0.21602807870E+02  0.25815491446E+02  0.59312572439E+02  0.51100000000E-03 0.  1.
         23    2    1    0    0    0  0.23675897872E+02 -0.17250725857E+02 -0.11798215482E+00  0.95705809408E+02  0.91112306260E+02 0.  0.
         11    1    3    3    0    0 -0.25159134047E+02  0.43520820129E+01 -0.25933473601E+02  0.36393236969E+02  0.51100000000E-03 0. -1.
         22    1    1    0    0    0 -0.23675897872E+02  0.17250725857E+02  0.11798215482E+00  0.29294190592E+02  0.00000000000E+00 0.  1.
</event>
<event>
 5    1  0.1102386E-009  0.9118800E+02  0.7818608E-02  0.1130116E+00
         25   -1    0    0    0    0  0.00000000000E+00  0.00000000000E+00  0.99999998245E-14  0.12500000000E+03  0.12500000000E+03 0.  0.
        -11    1    3    3    0    0  0.39572770449E+02 -0.22590377257E+02  0.11003352423E+01  0.45580039968E+02  0.51100000000E-03 0. -1.
         23    2    1    0    0    0  0.86918512951E+01  0.79681800648E+01  0.26563437495E+02  0.95937027268E+02  0.91428971432E+02 0.  0.
         11    1    3    3    0    0 -0.30880919153E+02  0.30558557322E+02  0.25463102252E+02  0.50356987300E+02  0.51100000000E-03 0.  1.
         22    1    1    0    0    0 -0.86918512951E+01 -0.79681800648E+01 -0.26563437495E+02  0.29062972732E+02  0.00000000000E+00 0.  1.
</event>
<event>
 5    1  0.1102386E-009  0.9118800E+02  0.7818608E-02  0.1130116E+00
         25   -1    0    0    0    0  0.00000000000E+00  0.00000000000E+00  0.99999998245E-14  0.12500000000E+03  0.12500000000E+03 0.  0.
        -11    1    3    3    0    0 -0.34551721553E+02  0.14622729096E+02 -0.15801472992E+02  0.40710345337E+02  0.51100000000E-03 0.  1.
         23    2    1    0    0    0 -0.35525678615E+01 -0.28895331205E+02 -0.24444105412E+01  0.95784660763E+02  0.91220420908E+02 0.  0.
         11    1    3    3    0    0  0.30999153692E+02 -0.43518060301E+02  0.13357062451E+02  0.55074315425E+02  0.51100000000E-03 0. -1.
         22    1    1    0    0    0  0.35525678615E+01  0.28895331205E+02  0.24444105412E+01  0.29215339237E+02  0.00000000000E+00 0. -1.
</event>
<event>
 5    1  0.1102386E-009  0.9118800E+02  0.7818608E-02  0.1130116E+00
         25   -1    0    0    0    0  0.00000000000E+00  0.00000000000E+00  0.99999998245E-14  0.12500000000E+03  0.12500000000E+03 0.  0.
        -11    1    3    3    0    0 -0.63958371291E+01  0.51401819559E+02  0.18532336868E+01  0.51831344397E+02  0.51100000000E-03 0.  1.
         23    2    1    0    0    0 -0.26014996791E+02  0.12755182136E+02 -0.46423434467E+01  0.95656754064E+02  0.91044980730E+02 0.  0.
         11    1    3    3    0    0 -0.19619159662E+02 -0.38646637423E+02 -0.64955771336E+01  0.43825409668E+02  0.51100000000E-03 0. -1.
         22    1    1    0    0    0  0.26014996791E+02 -0.12755182136E+02  0.46423434467E+01  0.29343245936E+02  0.00000000000E+00 0. -1.
</event>
<event>
 5    1  0.1102386E-009  0.9118800E+02  0.7818608E-02  0.1130116E+00
         25   -1    0    0    0    0  0.00000000000E+00  0.00000000000E+00  0.99999998245E-14  0.12500000000E+03  0.12500000000E+03 0.  0.
        -11    1    3    3    0    0  0.34379127335E+02  0.42159956212E+02 -0.21685910712E+02  0.58563342013E+02  0.51100000000E-03 0. -1.
         23    2    1    0    0    0  0.20592542937E+02  0.11606507714E+02 -0.22877005456E+02  0.92104388977E+02  0.86029630037E+02 0.  0.
         11    1    3    3    0    0 -0.13786584398E+02 -0.30553448498E+02 -0.11910947438E+01  0.33541046964E+02  0.51100000000E-03 0.  1.
         22    1    1    0    0    0 -0.20592542937E+02 -0.11606507714E+02  0.22877005456E+02  0.32895611023E+02  0.00000000000E+00 0. -1.
</event>
<event>
 5    1  0.1102386E-009  0.9118800E+02  0.7818608E-02  0.1130116E+00
         25   -1    0    0    0    0  0.00000000000E+00  0.00000000000E+00  0.99999998245E-14  0.12500000000E+03  0.12500000000E+03 0.  0.
        -11    1    3    3    0    0 -0.24747110250E+02 -0.48264042288E+02  0.20836707033E+02  0.58103404409E+02  0.51100000000E-03 0. -1.
         23    2    1    0    0    0 -0.14232981216E+02 -0.24787701721E+02 -0.65495182498E+01  0.95675878526E+02  0.91071233831E+02 0.  0.
         11    1    3    3    0    0  0.10514129034E+02  0.23476340567E+02 -0.27386225283E+02  0.37572474117E+02  0.51100000000E-03 0.  1.
         22    1    1    0    0    0  0.14232981216E+02  0.24787701721E+02  0.65495182498E+01  0.29324121474E+02  0.00000000000E+00 0. -1.
</event>
<event>
 5    1  0.1102386E-009  0.9118800E+02  0.7818608E-02  0.1130116E+00
         25   -1    0    0    0    0  0.00000000000E+00  0.00000000000E+00  0.99999998245E-14  0.12500000000E+03  0.12500000000E+03 0.  0.
        -11    1    3    3    0    0  0.19524803453E+02 -0.23822037025E+02 -0.35963656930E+02  0.47350734080E+02  0.51100000000E-03 0.  1.
         23    2    1    0    0    0  0.21717511596E+02 -0.20152267356E+02  0.10165427544E+02  0.93677482434E+02  0.88285732758E+02 0.  0.
         11    1    3    3    0    0  0.21927081436E+01  0.36697696692E+01  0.46129084474E+02  0.46326748354E+02  0.51100000000E-03 0. -1.
         22    1    1    0    0    0 -0.21717511596E+02  0.20152267356E+02 -0.10165427544E+02  0.31322517566E+02  0.00000000000E+00 0.  1.
</event>
<event>
 5    1  0.1102386E-009  0.9118800E+02  0.7818608E-02  0.1130116E+00
         25   -1    0    0    0    0  0.00000000000E+00  0.00000000000E+00  0.99999998245E-14  0.12500000000E+03  0.12500000000E+03 0.  0.
        -11    1    3    3    0    0  0.31364048288E+01  0.23237730659E+02 -0.42712814379E+02  0.48725903521E+02  0.51100000000E-03 0.  1.
         23    2    1    0    0    0 -0.23722135198E+02 -0.49730591136E+01 -0.16777113018E+02  0.95522168728E+02  0.90860014208E+02 0.  0.
         11    1    3    3    0    0 -0.26858540027E+02 -0.28210789773E+02  0.25935701361E+02  0.46796265207E+02  0.51100000000E-03 0. -1.
         22    1    1    0    0    0  0.23722135198E+02  0.49730591136E+01  0.16777113018E+02  0.29477831272E+02  0.00000000000E+00 0. -1.
</event>
<event>
 5    1  0.1102386E-009  0.9118800E+02  0.7818608E-02  0.1130116E+00
         25   -1    0    0    0    0  0.00000000000E+00  0.00000000000E+00  0.99999998245E-14  0.12500000000E+03  0.12500000000E+03 0.  0.
        -11    1    3    3    0    0  0.10893025133E+01  0.53138243593E+02 -0.28219743469E+02  0.60176518957E+02  0.51100000000E-03 0. -1.
         23    2    1    0    0    0  0.12189856317E+02  0.23420458484E+02 -0.15706642628E+02  0.94278523876E+02  0.89132659385E+02 0.  0.
         11    1    3    3    0    0  0.11100553803E+02 -0.29717785109E+02  0.12513100841E+02  0.34102004919E+02  0.51100000000E-03 0.  1.
         22    1    1    0    0    0 -0.12189856317E+02 -0.23420458484E+02  0.15706642628E+02  0.30721476124E+02  0.00000000000E+00 0. -1.
</event>
<event>
 5    1  0.1102386E-009  0.9118800E+02  0.7818608E-02  0.1130116E+00
         25   -1    0    0    0    0  0.00000000000E+00  0.00000000000E+00  0.99999998245E-14  0.12500000000E+03  0.12500000000E+03 0.  0.
        -11    1    3    3    0    0  0.12926793823E+02 -0.30508430821E+02  0.34185634359E+02  0.47608023971E+02  0.51100000000E-03 0. -1.
         23    2    1    0    0    0 -0.96672996390E+01  0.10867442239E+02  0.25643633486E+02  0.95518583455E+02  0.90855081662E+02 0.  0.
         11    1    3    3    0    0 -0.22594093462E+02  0.41375873061E+02 -0.85420008732E+01  0.47910559484E+02  0.51100000000E-03 0.  1.
         22    1    1    0    0    0  0.96672996390E+01 -0.10867442239E+02 -0.25643633486E+02  0.29481416545E+02  0.00000000000E+00 0. -1.
</event>
<event>
 5    1  0.1102386E-009  0.9118800E+02  0.7818608E-02  0.1130116E+00
         25   -1    0    0    0    0  0.00000000000E+00  0.00000000000E+00  0.99999998245E-14  0.12500000000E+03  0.12500000000E+03 0.  0.
        -11    1    3    3    0    0 -0.41436345245E+02 -0.31783684780E+02  0.19305826127E+02  0.55676640058E+02  0.51100000000E-03 0.  1.
         23    2    1    0    0    0 -0.31341642785E+02  0.16427854923E+01  0.59791435794E+01  0.93050861129E+02  0.87394023149E+02 0.  0.
         11    1    3    3    0    0  0.10094702460E+02  0.33426470273E+02 -0.13326682548E+02  0.37374221071E+02  0.51100000000E-03 0. -1.
         22    1    1    0    0    0  0.31341642785E+02 -0.16427854923E+01 -0.59791435794E+01  0.31949138871E+02  0.00000000000E+00 0.  1.
</event>
<event>
 5    1  0.1102386E-009  0.9118800E+02  0.7818608E-02  0.1130116E+00
         25   -1    0    0    0    0  0.00000000000E+00  0.00000000000E+00  0.99999998245E-14  0.12500000000E+03  0.12500000000E+03 0.  0.
        -11    1    3    3    0    0  0.38795740454E+02 -0.32509156388E+02  0.20551137837E+02  0.54628783559E+02  0.51100000000E-03 0.  1.
         23    2    1    0    0    0  0.20435615161E+02  0.30860921735E+01  0.22141350013E+02  0.94711756203E+02  0.89738169419E+02 0.  0.
         11    1    3    3    0    0 -0.18360125293E+02  0.35595248562E+02  0.15902121762E+01  0.40082972644E+02  0.51100000000E-03 0. -1.
         22    1    1    0    0    0 -0.20435615161E+02 -0.30860921735E+01 -0.22141350013E+02  0.30288243797E+02  0.00000000000E+00 0.  1.
</event>
<event>
 5    1  0.1102386E-009  0.9118800E+02  0.7818608E-02  0.1130116E+00
         25   -1    0    0    0    0  0.00000000000E+00  0.00000000000E+00  0.99999998245E-14  0.12500000000E+03  0.12500000000E+03 0.  0.
        -11    1    3    3    0    0 -0.13252180025E+02  0.50801188136E+02 -0.11322330835E+02  0.53708250458E+02  0.51100000000E-03 0. -1.
         23    2    1    0    0    0 -0.23952081806E+02  0.97324340028E+01 -0.12752532066E+02  0.96172069645E+02  0.91749754284E+02 0.  0.
         11    1    3    3    0    0 -0.10699901781E+02 -0.41068754133E+02 -0.14302012307E+01  0.42463819187E+02  0.51100000000E-03 0.  1.
         22    1    1    0    0    0  0.23952081806E+02 -0.97324340028E+01  0.12752532066E+02  0.28827930355E+02  0.00000000000E+00 0. -1.
</event>
<event>
 5    1  0.1102386E-009  0.9118800E+02  0.7818608E-02  0.1130116E+00
         25   -1    0    0    0    0  0.00000000000E+00  0.00000000000E+00  0.99999998245E-14  0.12500000000E+03  0.12500000000E+03 0.  0.
        -11    1    3    3    0    0  0.86429008346E+01  0.61777592449E+01 -0.34826469754E+02  0.36410814875E+02  0.51100000000E-03 0. -1.
         23    2    1    0    0    0  0.17094426333E+01  0.11381561807E+02  0.25324290976E+02  0.97183065289E+02  0.93116949705E+02 0.  0.
         11    1    3    3    0    0 -0.69334582013E+01  0.52038025618E+01  0.60150760730E+02  0.60772250414E+02  0.51100000000E-03 0.  1.
         22    1    1    0    0    0 -0.17094426333E+01 -0.11381561807E+02 -0.25324290976E+02  0.27816934711E+02  0.00000000000E+00 0.  1.
</event>
<event>
 5    1  0.1102386E-009  0.9118800E+02  0.7818608E-02  0.1130116E+00
         25   -1    0    0    0    0  0.00000000000E+00  0.00000000000E+00  0.99999998245E-14  0.12500000000E+03  0.12500000000E+03 0.  0.
        -11    1    3    3    0    0  0.26497307918E+02 -0.42835070701E+02 -0.19858721535E+02  0.54141660762E+02  0.51100000000E-03 0. -1.
         23    2    1    0    0    0  0.28789372226E+02 -0.45356953141E+01 -0.43181927185E+01  0.95537358002E+02  0.90880908339E+02 0.  0.
         11    1    3    3    0    0  0.22920643079E+01  0.38299375387E+02  0.15540528816E+02  0.41395697240E+02  0.51100000000E-03 0.  1.
         22    1    1    0    0    0 -0.28789372226E+02  0.45356953141E+01  0.43181927185E+01  0.29462641998E+02  0.00000000000E+00 0. -1.
</event>
<event>
 5    1  0.1102386E-009  0.9118800E+02  0.7818608E-02  0.1130116E+00
         25   -1    0    0    0    0  0.00000000000E+00  0.00000000000E+00  0.99999998245E-14  0.12500000000E+03  0.12500000000E+03 0.  0.
        -11    1    3    3    0    0 -0.13871620541E+02 -0.12293869435E+02 -0.40150155180E+02  0.44222121652E+02  0.51100000000E-03 0. -1.
         23    2    1    0    0    0 -0.15850379806E+02  0.24482901216E+02 -0.44835467171E+01  0.95491540482E+02  0.90817867849E+02 0.  0.
         11    1    3    3    0    0 -0.19787592651E+01  0.36776770651E+02  0.35666608463E+02  0.51269418831E+02  0.51100000000E-03 0.  1.
         22    1    1    0    0    0  0.15850379806E+02 -0.24482901216E+02  0.44835467171E+01  0.29508459518E+02  0.00000000000E+00 0. -1.
</event>
<event>
 5    1  0.1102386E-009  0.9118800E+02  0.7818608E-02  0.1130116E+00
         25   -1    0    0    0    0  0.00000000000E+00  0.00000000000E+00  0.99999998245E-14  0.12500000000E+03  0.12500000000E+03 0.  0.
        -11    1    3    3    0    0 -0.37055442077E+02 -0.12125004174E+02  0.33671038430E+02  0.51515632025E+02  0.51100000000E-03 0.  1.
         23    2    1    0    0    0 -0.42926664031E+01 -0.27659885086E+02  0.81812268374E+01  0.95837889302E+02  0.91293331222E+02 0.  0.
         11    1    3    3    0    0  0.32762775674E+02 -0.15534880912E+02 -0.25489811593E+02  0.44322257277E+02  0.51100000000E-03 0. -1.
         22    1    1    0    0    0  0.42926664031E+01  0.27659885086E+02 -0.81812268374E+01  0.29162110698E+02  0.00000000000E+00 0.  1.
</event>
<event>
 5    1  0.1102386E-009  0.9118800E+02  0.7818608E-02  0.1130116E+00
         25   -1    0    0    0    0  0.00000000000E+00  0.00000000000E+00  0.99999998245E-14  0.12500000000E+03  0.12500000000E+03 0.  0.
        -11    1    3    3    0    0 -0.19639197426E+02 -0.22701556667E+02  0.16820279277E+02  0.34409018380E+02  0.51100000000E-03 0. -1.
         23    2    1    0    0    0  0.90694377744E+01  0.10002661349E+02 -0.26152351409E+02  0.95567816598E+02  0.90922792244E+02 0.  0.
         11    1    3    3    0    0  0.28708635200E+02  0.32704218016E+02 -0.42972630686E+02  0.61158798218E+02  0.51100000000E-03 0.  1.
         22    1    1    0    0    0 -0.90694377744E+01 -0.10002661349E+02  0.26152351409E+02  0.29432183402E+02  0.00000000000E+00 0.  1.
</event>
<event>
 5    1  0.1102386E-009  0.9118800E+02  0.7818608E-02  0.1130116E+00
         25   -1    0    0    0    0  0.00000000000E+00  0.00000000000E+00  0.99999998245E-14  0.12500000000E+03  0.12500000000E+03 0.  0.
        -11    1    3    3    0    0 -0.19717587139E+02  0.22630983398E+02  0.49453292457E+02  0.57849570329E+02  0.51100000000E-03 0.  1.
         23    2    1    0    0    0 -0.30725288320E+01 -0.46733234300E+01  0.28211077684E+02  0.96239866318E+02  0.91842074124E+02 0.  0.
         11    1    3    3    0    0  0.16645058307E+02 -0.27304306828E+02 -0.21242214773E+02  0.38390295989E+02  0.51100000000E-03 0. -1.
         22    1    1    0    0    0  0.30725288320E+01  0.46733234300E+01 -0.28211077684E+02  0.28760133682E+02  0.00000000000E+00 0.  1.
</event>
<event>
 5    1  0.1102386E-009  0.9118800E+02  0.7818608E-02  0.1130116E+00
         25   -1    0    0    0    0  0.00000000000E+00  0.00000000000E+00  0.99999998245E-14  0.12500000000E+03  0.12500000000E+03 0.  0.
        -11    1    3    3    0    0 -0.36743424712E+01  0.13381576374E+00  0.37920661204E+02  0.38098494008E+02  0.51100000000E-03 0. -1.
         23    2    1    0    0    0 -0.27000439547E+02 -0.48371589247E+01 -0.13237250208E+02  0.94542708011E+02  0.89502385459E+02 0.  0.
         11    1    3    3    0    0 -0.23326097076E+02 -0.49709746884E+01 -0.51157911412E+02  0.56444214003E+02  0.51100000000E-03 0.  1.
         22    1    1    0    0    0  0.27000439547E+02  0.48371589247E+01  0.13237250208E+02  0.30457291989E+02  0.00000000000E+00 0.  1.
</event>
<event>
 5    1  0.1102386E-009  0.9118800E+02  0.7818608E-02  0.1130116E+00
         25   -1    0    0    0    0  0.00000000000E+00  0.00000000000E+00  0.99999998245E-14  0.12500000000E+03  0.12500000000E+03 0.  0.
        -11    1    3    3    0    0  0.10150839179E+02 -0.39049926423E+01 -0.57841939960E+02  0.58855573417E+02  0.51100000000E-03 0.  1.
         23    2    1    0    0    0  0.46866499084E+01  0.13230160729E+02 -0.27426163442E+02  0.94190970781E+02  0.89009789884E+02 0.  0.
         11    1    3    3    0    0 -0.54641892702E+01  0.17135153371E+02  0.30415776518E+02  0.35335397365E+02  0.51100000000E-03 0. -1.
         22    1    1    0    0    0 -0.46866499084E+01 -0.13230160729E+02  0.27426163442E+02  0.30809029219E+02  0.00000000000E+00 0.  1.
</event>
<event>
 5    1  0.1102386E-009  0.9118800E+02  0.7818608E-02  0.1130116E+00
         25   -1    0    0    0    0  0.00000000000E+00  0.00000000000E+00  0.99999998245E-14  0.12500000000E+03  0.12500000000E+03 0.  0.
        -11    1    3    3    0    0 -0.32029698665E+02 -0.16242633216E+02 -0.81284747643E+01  0.36821146541E+02  0.51100000000E-03 0. -1.
         23    2    1    0    0    0  0.19046753151E+02 -0.32088955679E+01  0.20522578593E+02  0.96817522315E+02  0.92624945769E+02 0.  0.
         11    1    3    3    0    0  0.51076451816E+02  0.13033737648E+02  0.28651053358E+02  0.59996375773E+02  0.51100000000E-03 0.  1.
         22    1    1    0    0    0 -0.19046753151E+02  0.32088955679E+01 -0.20522578593E+02  0.28182477685E+02  0.00000000000E+00 0.  1.
</event>
<event>
 5    1  0.1102386E-009  0.9118800E+02  0.7818608E-02  0.1130116E+00
         25   -1    0    0    0    0  0.00000000000E+00  0.00000000000E+00  0.99999998245E-14  0.12500000000E+03  0.12500000000E+03 0.  0.
        -11    1    3    3    0    0 -0.54164856807E+02 -0.11442839085E+02  0.10805719010E+02  0.56405087030E+02  0.51100000000E-03 0. -1.
         23    2    1    0    0    0 -0.25081250465E+02  0.14034652817E+02  0.12560649427E+01  0.96231644056E+02  0.91830882681E+02 0.  0.
         11    1    3    3    0    0  0.29083606342E+02  0.25477491902E+02 -0.95496540673E+01  0.39826557026E+02  0.51100000000E-03 0.  1.
         22    1    1    0    0    0  0.25081250465E+02 -0.14034652817E+02 -0.12560649427E+01  0.28768355944E+02  0.00000000000E+00 0.  1.
</event>
<event>
 5    1  0.1102386E-009  0.9118800E+02  0.7818608E-02  0.1130116E+00
         25   -1    0    0    0    0  0.00000000000E+00  0.00000000000E+00  0.99999998245E-14  0.12500000000E+03  0.12500000000E+03 0.  0.
        -11    1    3    3    0    0  0.24971850906E+02 -0.65588822651E+01 -0.39088882263E+02  0.46846056302E+02  0.51100000000E-03 0. -1.
         23    2    1    0    0    0  0.20805712833E+02 -0.17472729510E+02  0.90351748139E+01  0.96367704476E+02  0.92015901447E+02 0.  0.
         11    1    3    3    0    0 -0.41661380732E+01 -0.10913847245E+02  0.48124057077E+02  0.49521648174E+02  0.51100000000E-03 0.  1.
         22    1    1    0    0    0 -0.20805712833E+02  0.17472729510E+02 -0.90351748139E+01  0.28632295524E+02  0.00000000000E+00 0.  1.
</event>
<event>
 5    1  0.1102386E-009  0.9118800E+02  0.7818608E-02  0.1130116E+00
         25   -1    0    0    0    0  0.00000000000E+00  0.00000000000E+00  0.99999998245E-14  0.12500000000E+03  0.12500000000E+03 0.  0.
        -11    1    3    3    0    0 -0.51640114267E+02 -0.77791834287E+01  0.22565374255E+02  0.56889482436E+02  0.51100000000E-03 0. -1.
         23    2    1    0    0    0 -0.31730767448E+02  0.12847075246E+02  0.52872465446E+01  0.90361236725E+02  0.83458427862E+02 0.  0.
         11    1    3    3    0    0  0.19909346820E+02  0.20626258675E+02 -0.17278127710E+02  0.33471754289E+02  0.51100000000E-03 0.  1.
         22    1    1    0    0    0  0.31730767448E+02 -0.12847075246E+02 -0.52872465446E+01  0.34638763275E+02  0.00000000000E+00 0. -1.
</event>
<event>
 5    1  0.1102386E-009  0.9118800E+02  0.7818608E-02  0.1130116E+00
         25   -1    0    0    0    0  0.00000000000E+00  0.00000000000E+00  0.99999998245E-14  0.12500000000E+03  0.12500000000E+03 0.  0.
        -11    1    3    3    0    0 -0.30968290427E+02  0.47421395509E+02  0.11567621944E+02  0.57806865005E+02  0.51100000000E-03 0.  1.
         23    2    1    0    0    0 -0.30844915411E+00  0.29138453805E+02 -0.15015036040E+01  0.95821255268E+02  0.91270552847E+02 0.  0.
         11    1    3    3    0    0  0.30659841273E+02 -0.18282941704E+02 -0.13069125548E+02  0.38014390263E+02  0.51100000000E-03 0. -1.
         22    1    1    0    0    0  0.30844915411E+00 -0.29138453805E+02  0.15015036040E+01  0.29178744732E+02  0.00000000000E+00 0.  1.
</event>
<event>
 5    1  0.1102386E-009  0.9118800E+02  0.7818608E-02  0.1130116E+00
         25   -1    0    0    0    0  0.00000000000E+00  0.00000000000E+00  0.99999998245E-14  0.12500000000E+03  0.12500000000E+03 0.  0.
        -11    1    3    3    0    0 -0.54434401870E+00  0.38744613028E+02  0.26510389380E+02  0.46949356699E+02  0.51100000000E-03 0.  1.
         23    2    1    0    0    0 -0.27785123314E+02  0.73366368342E+01 -0.89019918501E-02  0.96262578459E+02  0.91872980874E+02 0.  0.
         11    1    3    3    0    0 -0.27240779295E+02 -0.31407976194E+02 -0.26519291372E+02  0.49313221760E+02  0.51100000000E-03 0. -1.
         22    1    1    0    0    0  0.27785123314E+02 -0.73366368342E+01  0.89019918501E-02  0.28737421541E+02  0.00000000000E+00 0.  1.
</event>
<event>
 5    1  0.1102386E-009  0.9118800E+02  0.7818608E-02  0.1130116E+00
         25   -1    0    0    0    0  0.00000000000E+00  0.00000000000E+00  0.99999998245E-14  0.12500000000E+03  0.12500000000E+03 0.  0.
        -11    1    3    3    0    0 -0.15706652187E+02 -0.35099580431E+02  0.27646014533E+02  0.47360126575E+02  0.51100000000E-03 0. -1.
         23    2    1    0    0    0  0.22617399923E+02 -0.76089931129E+01  0.16971716150E+02  0.95717194388E+02  0.91127924353E+02 0.  0.
         11    1    3    3    0    0  0.38324052110E+02  0.27490587318E+02 -0.10674298383E+02  0.48357067813E+02  0.51100000000E-03 0.  1.
         22    1    1    0    0    0 -0.22617399923E+02  0.76089931129E+01 -0.16971716150E+02  0.29282805612E+02  0.00000000000E+00 0.  1.
</event>
<event>
 5    1  0.1102386E-009  0.9118800E+02  0.7818608E-02  0.1130116E+00
         25   -1    0    0    0    0  0.00000000000E+00  0.00000000000E+00  0.99999998245E-14  0.12500000000E+03  0.12500000000E+03 0.  0.
        -11    1    3    3    0    0 -0.19198122232E+02  0.14479482816E+02 -0.40386332978E+02  0.47002970241E+02  0.51100000000E-03 0. -1.
         23    2    1    0    0    0 -0.14200414431E+02 -0.23644208486E+02 -0.11394326679E+02  0.95158233206E+02  0.90357945426E+02 0.  0.
         11    1    3    3    0    0  0.49977078010E+01 -0.38123691302E+02  0.28992006299E+02  0.48155262965E+02  0.51100000000E-03 0.  1.
         22    1    1    0    0    0  0.14200414431E+02  0.23644208486E+02  0.11394326679E+02  0.29841766794E+02  0.00000000000E+00 0.  1.
</event>
<event>
 5    1  0.1102386E-009  0.9118800E+02  0.7818608E-02  0.1130116E+00
         25   -1    0    0    0    0  0.00000000000E+00  0.00000000000E+00  0.99999998245E-14  0.12500000000E+03  0.12500000000E+03 0.  0.
        -11    1    3    3    0    0 -0.24781413865E+02 -0.47642837231E+02 -0.21579285257E+02  0.57875935975E+02  0.51100000000E-03 0.  1.
         23    2    1    0    0    0 -0.25197749969E+02 -0.12496579143E+02 -0.12762217277E+02  0.94113671574E+02  0.88901169248E+02 0.  0.
         11    1    3    3    0    0 -0.41633610377E+00  0.35146258088E+02  0.88170679802E+01  0.36237735599E+02  0.51100000000E-03 0. -1.
         22    1    1    0    0    0  0.25197749969E+02  0.12496579143E+02  0.12762217277E+02  0.30886328426E+02  0.00000000000E+00 0.  1.
</event>
<event>
 5    1  0.1102386E-009  0.9118800E+02  0.7818608E-02  0.1130116E+00
         25   -1    0    0    0    0  0.00000000000E+00  0.00000000000E+00  0.99999998245E-14  0.12500000000E+03  0.12500000000E+03 0.  0.
        -11    1    3    3    0    0 -0.23923222310E+02  0.17372572964E+02  0.19015056154E+02  0.35152513678E+02  0.51100000000E-03 0.  1.
         23    2    1    0    0    0  0.47072236019E+01 -0.11314327208E+02 -0.26322464950E+02  0.95964778023E+02  0.91466903882E+02 0.  0.
         11    1    3    3    0    0  0.28630445912E+02 -0.28686900172E+02 -0.45337521104E+02  0.60812264345E+02  0.51100000000E-03 0. -1.
         22    1    1    0    0    0 -0.47072236019E+01  0.11314327208E+02  0.26322464950E+02  0.29035221977E+02  0.00000000000E+00 0. -1.
</event>
<event>
 5    1  0.1102386E-009  0.9118800E+02  0.7818608E-02  0.1130116E+00
         25   -1    0    0    0    0  0.00000000000E+00  0.00000000000E+00  0.99999998245E-14  0.12500000000E+03  0.12500000000E+03 0.  0.
        -11    1    3    3    0    0 -0.27997049783E+00 -0.40675274428E+02 -0.25229508755E+01  0.40754406077E+02  0.51100000000E-03 0. -1.
         23    2    1    0    0    0  0.23785446059E+02  0.29747910923E+01  0.18369198088E+02  0.94800260520E+02  0.89861366171E+02 0.  0.
         11    1    3    3    0    0  0.24065416557E+02  0.43650065520E+02  0.20892148963E+02  0.54045854444E+02  0.51100000000E-03 0.  1.
         22    1    1    0    0    0 -0.23785446059E+02 -0.29747910923E+01 -0.18369198088E+02  0.30199739480E+02  0.00000000000E+00 0.  1.
</event>
<event>
 5    1  0.1102386E-009  0.9118800E+02  0.7818608E-02  0.1130116E+00
         25   -1    0    0    0    0  0.00000000000E+00  0.00000000000E+00  0.99999998245E-14  0.12500000000E+03  0.12500000000E+03 0.  0.
        -11    1    3    3    0    0 -0.53720504846E+02  0.29445724670E+01 -0.31765014343E+02  0.62478630621E+02  0.51100000000E-03 0.  1.
         23    2    1    0    0    0 -0.25119627200E+02  0.29400845416E+00 -0.15285382227E+02  0.95593792807E+02  0.90958497139E+02 0.  0.
         11    1    3    3    0    0  0.28600877645E+02 -0.26505640128E+01  0.16479632116E+02  0.33115162186E+02  0.51100000000E-03 0. -1.
         22    1    1    0    0    0  0.25119627200E+02 -0.29400845416E+00  0.15285382227E+02  0.29406207193E+02  0.00000000000E+00 0.  1.
</event>
<event>
 5    1  0.1102386E-009  0.9118800E+02  0.7818608E-02  0.1130116E+00
         25   -1    0    0    0    0  0.00000000000E+00  0.00000000000E+00  0.99999998245E-14  0.12500000000E+03  0.12500000000E+03 0.  0.
        -11    1    3    3    0    0 -0.32940421752E+02 -0.15361468545E+02  0.37523975698E+01  0.36539384079E+02  0.51100000000E-03 0. -1.
         23    2    1    0    0    0  0.21789431872E+02 -0.28103180649E+01  0.20310230605E+02  0.95080396123E+02  0.90250202386E+02 0.  0.
         11    1    3    3    0    0  0.54729853624E+02  0.12551150481E+02  0.16557833035E+02  0.58541012044E+02  0.51100000000E-03 0.  1.
         22    1    1    0    0    0 -0.21789431872E+02  0.28103180649E+01 -0.20310230605E+02  0.29919603877E+02  0.00000000000E+00 0.  1.
</event>
<event>
 5    1  0.1102386E-009  0.9118800E+02  0.7818608E-02  0.1130116E+00
         25   -1    0    0    0    0  0.00000000000E+00  0.00000000000E+00  0.99999998245E-14  0.12500000000E+03  0.12500000000E+03 0.  0.
        -11    1    3    3    0    0 -0.26170990131E+02  0.41248475541E+02 -0.34307868615E+02  0.59694114518E+02  0.51100000000E-03 0.  1.
         23    2    1    0    0    0 -0.14123759525E+02  0.94686490424E+01 -0.24700324554E+02  0.95012637147E+02  0.90156304754E+02 0.  0.
         11    1    3    3    0    0  0.12047230606E+02 -0.31779826499E+02  0.96075440616E+01  0.35318522629E+02  0.51100000000E-03 0. -1.
         22    1    1    0    0    0  0.14123759525E+02 -0.94686490424E+01  0.24700324554E+02  0.29987362853E+02  0.00000000000E+00 0.  1.
</event>
<event>
 5    1  0.1102386E-009  0.9118800E+02  0.7818608E-02  0.1130116E+00
         25   -1    0    0    0    0  0.00000000000E+00  0.00000000000E+00  0.99999998245E-14  0.12500000000E+03  0.12500000000E+03 0.  0.
        -11    1    3    3    0    0  0.28264253185E+02 -0.71749455071E+01  0.30686755437E+02  0.42332314025E+02  0.51100000000E-03 0. -1.
         23    2    1    0    0    0  0.10863334195E+02  0.29830757405E+02  0.34723969018E+00  0.93250878869E+02  0.87679642547E+02 0.  0.
         11    1    3    3    0    0 -0.17400918990E+02  0.37005702912E+02 -0.30339515747E+02  0.50918564844E+02  0.51100000000E-03 0.  1.
         22    1    1    0    0    0 -0.10863334195E+02 -0.29830757405E+02 -0.34723969018E+00  0.31749121131E+02  0.00000000000E+00 0.  1.
</event>
<event>
 5    1  0.1102386E-009  0.9118800E+02  0.7818608E-02  0.1130116E+00
         25   -1    0    0    0    0  0.00000000000E+00  0.00000000000E+00  0.99999998245E-14  0.12500000000E+03  0.12500000000E+03 0.  0.
        -11    1    3    3    0    0 -0.42292722656E+02 -0.89836297107E+01  0.19147583212E+02  0.47286466728E+02  0.51100000000E-03 0.  1.
         23    2    1    0    0    0 -0.33372255210E+01  0.19081839490E+02  0.22371546900E+02  0.95407099108E+02  0.90701569870E+02 0.  0.
         11    1    3    3    0    0  0.38955497135E+02  0.28065469201E+02  0.32239636875E+01  0.48120632380E+02  0.51100000000E-03 0. -1.
         22    1    1    0    0    0  0.33372255210E+01 -0.19081839490E+02 -0.22371546900E+02  0.29592900892E+02  0.00000000000E+00 0. -1.
</event>
<event>
 5    1  0.1102386E-009  0.9118800E+02  0.7818608E-02  0.1130116E+00
         25   -1    0    0    0    0  0.00000000000E+00  0.00000000000E+00  0.99999998245E-14  0.12500000000E+03  0.12500000000E+03 0.  0.
        -11    1    3    3    0    0 -0.23934529395E+02  0.31090925439E+02 -0.32854779451E+01  0.39373870874E+02  0.51100000000E-03 0. -1.
         23    2    1    0    0    0 -0.12243714844E+02 -0.25158312055E+02  0.11567561435E+01  0.96996655496E+02  0.92866376444E+02 0.  0.
         11    1    3    3    0    0  0.11690814551E+02 -0.56249237494E+02  0.44422340886E+01  0.57622784621E+02  0.51100000000E-03 0.  1.
         22    1    1    0    0    0  0.12243714844E+02  0.25158312055E+02 -0.11567561435E+01  0.28003344504E+02  0.00000000000E+00 0.  1.
</event>
<event>
 5    1  0.1102386E-009  0.9118800E+02  0.7818608E-02  0.1130116E+00
         25   -1    0    0    0    0  0.00000000000E+00  0.00000000000E+00  0.99999998245E-14  0.12500000000E+03  0.12500000000E+03 0.  0.
        -11    1    3    3    0    0 -0.38387201601E+02 -0.36609902768E+02 -0.96622069598E+01  0.53918646784E+02  0.51100000000E-03 0.  1.
         23    2    1    0    0    0  0.12137206486E+01 -0.23395001789E+02 -0.16666555746E+02  0.96249812054E+02  0.91855609591E+02 0.  0.
         11    1    3    3    0    0  0.39600922249E+02  0.13214900979E+02 -0.70043487860E+01  0.42331165269E+02  0.51100000000E-03 0. -1.
         22    1    1    0    0    0 -0.12137206486E+01  0.23395001789E+02  0.16666555746E+02  0.28750187946E+02  0.00000000000E+00 0.  1.
</event>
<event>
 5    1  0.1102386E-009  0.9118800E+02  0.7818608E-02  0.1130116E+00
         25   -1    0    0    0    0  0.00000000000E+00  0.00000000000E+00  0.99999998245E-14  0.12500000000E+03  0.12500000000E+03 0.  0.
        -11    1    3    3    0    0 -0.12566474255E+02 -0.49649009857E+02 -0.31086202042E+02  0.59910703657E+02  0.51100000000E-03 0. -1.
         23    2    1    0    0    0 -0.76348067425E+01 -0.28476353898E+02 -0.30898015370E+01  0.95356452998E+02  0.90631745263E+02 0.  0.
         11    1    3    3    0    0  0.49316675122E+01  0.21172655959E+02  0.27996400505E+02  0.35445749341E+02  0.51100000000E-03 0.  1.
         22    1    1    0    0    0  0.76348067425E+01  0.28476353898E+02  0.30898015370E+01  0.29643547002E+02  0.00000000000E+00 0. -1.
</event>
<event>
 5    1  0.1102386E-009  0.9118800E+02  0.7818608E-02  0.1130116E+00
         25   -1    0    0    0    0  0.00000000000E+00  0.00000000000E+00  0.99999998245E-14  0.12500000000E+03  0.12500000000E+03 0.  0.
        -11    1    3    3    0    0  0.31590050776E+02  0.24389956897E+02  0.15109502230E+02  0.42674329091E+02  0.51100000000E-03 0.  1.
         23    2    1    0    0    0  0.38482575294E+01  0.10273702730E+02 -0.27471349740E+02  0.95419041423E+02  0.90718026630E+02 0.  0.
         11    1    3    3    0    0 -0.27741793246E+02 -0.14116254168E+02 -0.42580851970E+02  0.52744712332E+02  0.51100000000E-03 0. -1.
         22    1    1    0    0    0 -0.38482575294E+01 -0.10273702730E+02  0.27471349740E+02  0.29580958577E+02  0.00000000000E+00 0. -1.
</event>
<event>
 5    1  0.1102386E-009  0.9118800E+02  0.7818608E-02  0.1130116E+00
         25   -1    0    0    0    0  0.00000000000E+00  0.00000000000E+00  0.99999998245E-14  0.12500000000E+03  0.12500000000E+03 0.  0.
        -11    1    3    3    0    0  0.43603132092E-01 -0.42696090325E+02 -0.37028191344E+02  0.56515882589E+02  0.51100000000E-03 0. -1.
         23    2    1    0    0    0  0.99221476075E+01 -0.36152312450E+02 -0.97392411642E+01  0.86266403122E+02  0.77081779822E+02 0.  0.
         11    1    3    3    0    0  0.98785444754E+01  0.65437778751E+01  0.27288950180E+02  0.29750520533E+02  0.51100000000E-03 0.  1.
         22    1    1    0    0    0 -0.99221476075E+01  0.36152312450E+02  0.97392411642E+01  0.38733596878E+02  0.00000000000E+00 0. -1.
</event>
<event>
 5    1  0.1102386E-009  0.9118800E+02  0.7818608E-02  0.1130116E+00
         25   -1    0    0    0    0  0.00000000000E+00  0.00000000000E+00  0.99999998245E-14  0.12500000000E+03  0.12500000000E+03 0.  0.
        -11    1    3    3    0    0  0.88127268594E+01 -0.44899285288E+01  0.54317959066E+02  0.55211088472E+02  0.51100000000E-03 0.  1.
         23    2    1    0    0    0  0.21149886531E+02 -0.13166960334E+02  0.18831267885E+02  0.93770155382E+02  0.88416847069E+02 0.  0.
         11    1    3    3    0    0  0.12337159671E+02 -0.86770318053E+01 -0.35486691182E+02  0.38559066910E+02  0.51100000000E-03 0. -1.
         22    1    1    0    0    0 -0.21149886531E+02  0.13166960334E+02 -0.18831267885E+02  0.31229844618E+02  0.00000000000E+00 0. -1.
</event>
<event>
 5    1  0.1102386E-009  0.9118800E+02  0.7818608E-02  0.1130116E+00
         25   -1    0    0    0    0  0.00000000000E+00  0.00000000000E+00  0.99999998245E-14  0.12500000000E+03  0.12500000000E+03 0.  0.
        -11    1    3    3    0    0  0.19142273617E+00 -0.40463915832E+02 -0.41047726755E+02  0.57639231424E+02  0.51100000000E-03 0. -1.
         23    2    1    0    0    0 -0.14051701007E+02 -0.91462062488E+01 -0.23137767589E+02  0.96426241428E+02  0.92095387273E+02 0.  0.
         11    1    3    3    0    0 -0.14243123743E+02  0.31317709583E+02  0.17909959166E+02  0.38787010004E+02  0.51100000000E-03 0.  1.
         22    1    1    0    0    0  0.14051701007E+02  0.91462062488E+01  0.23137767589E+02  0.28573758572E+02  0.00000000000E+00 0. -1.
</event>
<event>
 5    1  0.1102386E-009  0.9118800E+02  0.7818608E-02  0.1130116E+00
         25   -1    0    0    0    0  0.00000000000E+00  0.00000000000E+00  0.99999998245E-14  0.12500000000E+03  0.12500000000E+03 0.  0.
        -11    1    3    3    0    0  0.70807243301E+01 -0.30250729773E+02  0.12964745772E+02  0.33664936388E+02  0.51100000000E-03 0.  1.
         23    2    1    0    0    0  0.59009598869E+01  0.25208285490E+02 -0.14244446424E+02  0.95450325910E+02  0.90761123161E+02 0.  0.
         11    1    3    3    0    0 -0.11797644433E+01  0.55459015263E+02 -0.27209192196E+02  0.61785389521E+02  0.51100000000E-03 0. -1.
         22    1    1    0    0    0 -0.59009598869E+01 -0.25208285490E+02  0.14244446424E+02  0.29549674090E+02  0.00000000000E+00 0. -1.
</event>
<event>
 5    1  0.1102386E-009  0.9118800E+02  0.7818608E-02  0.1130116E+00
         25   -1    0    0    0    0  0.00000000000E+00  0.00000000000E+00  0.99999998245E-14  0.12500000000E+03  0.12500000000E+03 0.  0.
        -11    1    3    3    0    0  0.21689920872E+02 -0.41891010178E+02 -0.10648142123E+02  0.48360028248E+02  0.51100000000E-03 0. -1.
         23    2    1    0    0    0  0.44254387981E+01 -0.28441013630E+02  0.22764849377E+02  0.88302396100E+02  0.80315621301E+02 0.  0.
         11    1    3    3    0    0 -0.17264482074E+02  0.13449996548E+02  0.33412991499E+02  0.39942367852E+02  0.51100000000E-03 0.  1.
         22    1    1    0    0    0 -0.44254387981E+01  0.28441013630E+02 -0.22764849377E+02  0.36697603900E+02  0.00000000000E+00 0. -1.
</event>
<event>
 5    1  0.1102386E-009  0.9118800E+02  0.7818608E-02  0.1130116E+00
         25   -1    0    0    0    0  0.00000000000E+00  0.00000000000E+00  0.99999998245E-14  0.12500000000E+03  0.12500000000E+03 0.  0.
        -11    1    3    3    0    0  0.19486423677E+02 -0.51377036958E+02  0.22711841996E+02  0.59457113968E+02  0.51100000000E-03 0. -1.
         23    2    1    0    0    0  0.63610148247E+01 -0.29363157340E+02 -0.17739313175E+01  0.94903416292E+02  0.90004744725E+02 0.  0.
         11    1    3    3    0    0 -0.13125408852E+02  0.22013879618E+02 -0.24485773314E+02  0.35446302324E+02  0.51100000000E-03 0.  1.
         22    1    1    0    0    0 -0.63610148247E+01  0.29363157340E+02  0.17739313175E+01  0.30096583708E+02  0.00000000000E+00 0. -1.
</event>
<event>
 5    1  0.1102386E-009  0.9118800E+02  0.7818608E-02  0.1130116E+00
         25   -1    0    0    0    0  0.00000000000E+00  0.00000000000E+00  0.99999998245E-14  0.12500000000E+03  0.12500000000E+03 0.  0.
        -11    1    3    3    0    0  0.17650969130E+01  0.21347499044E+02  0.26248817136E+02  0.33879664754E+02  0.51100000000E-03 0. -1.
         23    2    1    0    0    0  0.97194354317E+01 -0.22309350255E+02 -0.16581390226E+02  0.95553148967E+02  0.90902625054E+02 0.  0.
         11    1    3    3    0    0  0.79543385187E+01 -0.43656849299E+02 -0.42830207363E+02  0.61673484213E+02  0.51100000000E-03 0.  1.
         22    1    1    0    0    0 -0.97194354317E+01  0.22309350255E+02  0.16581390226E+02  0.29446851033E+02  0.00000000000E+00 0.  1.
</event>
<event>
 5    1  0.1102386E-009  0.9118800E+02  0.7818608E-02  0.1130116E+00
         25   -1    0    0    0    0  0.00000000000E+00  0.00000000000E+00  0.99999998245E-14  0.12500000000E+03  0.12500000000E+03 0.  0.
        -11    1    3    3    0    0 -0.51772727392E+02 -0.17366764807E+02 -0.21725016153E+02  0.58770708253E+02  0.51100000000E-03 0.  1.
         23    2    1    0    0    0 -0.14434821835E+02 -0.13664780214E+02 -0.20694560146E+02  0.96305834751E+02  0.91931815427E+02 0.  0.
         11    1    3    3    0    0  0.37337905558E+02  0.37019845933E+01  0.10304560063E+01  0.37535126498E+02  0.51100000000E-03 0. -1.
         22    1    1    0    0    0  0.14434821835E+02  0.13664780214E+02  0.20694560146E+02  0.28694165249E+02  0.00000000000E+00 0.  1.
</event>
<event>
 5    1  0.1102386E-009  0.9118800E+02  0.7818608E-02  0.1130116E+00
         25   -1    0    0    0    0  0.00000000000E+00  0.00000000000E+00  0.99999998245E-14  0.12500000000E+03  0.12500000000E+03 0.  0.
        -11    1    3    3    0    0 -0.16734448732E+02  0.52911001009E+02 -0.16889558773E+02  0.58007525356E+02  0.51100000000E-03 0. -1.
         23    2    1    0    0    0 -0.15992198055E+02  0.15585570205E+02 -0.19392540649E+02  0.95424147855E+02  0.90725062490E+02 0.  0.
         11    1    3    3    0    0  0.74225067655E+00 -0.37325430803E+02 -0.25029818765E+01  0.37416622499E+02  0.51100000000E-03 0.  1.
         22    1    1    0    0    0  0.15992198055E+02 -0.15585570205E+02  0.19392540649E+02  0.29575852145E+02  0.00000000000E+00 0. -1.
</event>
<event>
 5    1  0.1102386E-009  0.9118800E+02  0.7818608E-02  0.1130116E+00
         25   -1    0    0    0    0  0.00000000000E+00  0.00000000000E+00  0.99999998245E-14  0.12500000000E+03  0.12500000000E+03 0.  0.
        -11    1    3    3    0    0  0.22451197269E+02  0.35535544996E+02  0.46163857574E+01  0.42286430858E+02  0.51100000000E-03 0. -1.
         23    2    1    0    0    0 -0.15004080244E+02  0.55588102630E+01  0.25729652761E+02  0.94700860958E+02  0.89722991699E+02 0.  0.
         11    1    3    3    0    0 -0.37455277513E+02 -0.29976734733E+02  0.21113267003E+02  0.52414430100E+02  0.51100000000E-03 0.  1.
         22    1    1    0    0    0  0.15004080244E+02 -0.55588102630E+01 -0.25729652761E+02  0.30299139042E+02  0.00000000000E+00 0.  1.
</event>
<event>
 5    1  0.1102386E-009  0.9118800E+02  0.7818608E-02  0.1130116E+00
         25   -1    0    0    0    0  0.00000000000E+00  0.00000000000E+00  0.99999998245E-14  0.12500000000E+03  0.12500000000E+03 0.  0.
        -11    1    3    3    0    0 -0.38277292074E+02  0.19767757668E+02  0.22979520977E+02  0.48825953307E+02  0.51100000000E-03 0. -1.
         23    2    1    0    0    0 -0.12805492134E+02  0.20932559010E+02 -0.16217218469E+02  0.95586553579E+02  0.90948548063E+02 0.  0.
         11    1    3    3    0    0  0.25471799940E+02  0.11648013413E+01 -0.39196739446E+02  0.46760600272E+02  0.51100000000E-03 0.  1.
         22    1    1    0    0    0  0.12805492134E+02 -0.20932559010E+02  0.16217218469E+02  0.29413446421E+02  0.00000000000E+00 0.  1.
</event>
<event>
 5    1  0.1102386E-009  0.9118800E+02  0.7818608E-02  0.1130116E+00
         25   -1    0    0    0    0  0.00000000000E+00  0.00000000000E+00  0.99999998245E-14  0.12500000000E+03  0.12500000000E+03 0.  0.
        -11    1    3    3    0    0  0.18518688045E+02 -0.45709044096E+02 -0.83552506169E+01  0.50020683044E+02  0.51100000000E-03 0. -1.
         23    2    1    0    0    0 -0.15948169760E+02 -0.16910914310E+02  0.11426708123E+02  0.99098401593E+02  0.95653543574E+02 0.  0.
         11    1    3    3    0    0 -0.34466857805E+02  0.28798129786E+02  0.19781958740E+02  0.49077718549E+02  0.51100000000E-03 0.  1.
         22    1    1    0    0    0  0.15948169760E+02  0.16910914310E+02 -0.11426708123E+02  0.25901598407E+02  0.00000000000E+00 0.  1.
</event>
<event>
 5    1  0.1102386E-009  0.9118800E+02  0.7818608E-02  0.1130116E+00
         25   -1    0    0    0    0  0.00000000000E+00  0.00000000000E+00  0.99999998245E-14  0.12500000000E+03  0.12500000000E+03 0.  0.
        -11    1    3    3    0    0  0.30494797655E+01 -0.18970256616E+02  0.27083342091E+02  0.33206586425E+02  0.51100000000E-03 0.  1.
         23    2    1    0    0    0 -0.15306395778E+00  0.78022975938E+01 -0.28749993387E+02  0.95209709702E+02  0.90429129297E+02 0.  0.
         11    1    3    3    0    0 -0.32025437233E+01  0.26772554209E+02 -0.55833335478E+02  0.62003123277E+02  0.51100000000E-03 0. -1.
         22    1    1    0    0    0  0.15306395778E+00 -0.78022975938E+01  0.28749993387E+02  0.29790290298E+02  0.00000000000E+00 0. -1.
</event>
<event>
 5    1  0.1102386E-009  0.9118800E+02  0.7818608E-02  0.1130116E+00
         25   -1    0    0    0    0  0.00000000000E+00  0.00000000000E+00  0.99999998245E-14  0.12500000000E+03  0.12500000000E+03 0.  0.
        -11    1    3    3    0    0  0.49013245743E+02  0.22544359930E+02  0.26080589855E+02  0.59922813605E+02  0.51100000000E-03 0.  1.
         23    2    1    0    0    0  0.28318056403E+02  0.20623588641E+01  0.43037026348E+01  0.96282627229E+02  0.91900254663E+02 0.  0.
         11    1    3    3    0    0 -0.20695189340E+02 -0.20482001066E+02 -0.21776887220E+02  0.36359813624E+02  0.51100000000E-03 0. -1.
         22    1    1    0    0    0 -0.28318056403E+02 -0.20623588641E+01 -0.43037026348E+01  0.28717372771E+02  0.00000000000E+00 0.  1.
</event>
<event>
 5    1  0.1102386E-009  0.9118800E+02  0.7818608E-02  0.1130116E+00
         25   -1    0    0    0    0  0.00000000000E+00  0.00000000000E+00  0.99999998245E-14  0.12500000000E+03  0.12500000000E+03 0.  0.
        -11    1    3    3    0    0 -0.58219177213E+02  0.13767376257E+02 -0.16167058804E+02  0.61970856336E+02  0.51100000000E-03 0. -1.
         23    2    1    0    0    0 -0.27157803697E+02  0.37067612956E+01 -0.21385338807E+01  0.97507097132E+02  0.93550918130E+02 0.  0.
         11    1    3    3    0    0  0.31061373516E+02 -0.10060614962E+02  0.14028524924E+02  0.35536240796E+02  0.51100000000E-03 0.  1.
         22    1    1    0    0    0  0.27157803697E+02 -0.37067612956E+01  0.21385338807E+01  0.27492902868E+02  0.00000000000E+00 0. -1.
</event>
<event>
 5    1  0.1102386E-009  0.9118800E+02  0.7818608E-02  0.1130116E+00
         25   -1    0    0    0    0  0.00000000000E+00  0.00000000000E+00  0.99999998245E-14  0.12500000000E+03  0.12500000000E+03 0.  0.
        -11    1    3    3    0    0  0.10960289717E+02 -0.26787627016E+01 -0.36377411014E+02  0.38087002411E+02  0.51100000000E-03 0. -1.
         23    2    1    0    0    0 -0.16062737724E+02 -0.18860521951E+02  0.13280090849E+02  0.96891431121E+02  0.92724634161E+02 0.  0.
         11    1    3    3    0    0 -0.27023027441E+02 -0.16181759249E+02  0.49657501863E+02  0.58804428711E+02  0.51100000000E-03 0.  1.
         22    1    1    0    0    0  0.16062737724E+02  0.18860521951E+02 -0.13280090849E+02  0.28108568879E+02  0.00000000000E+00 0.  1.
</event>
<event>
 5    1  0.1102386E-009  0.9118800E+02  0.7818608E-02  0.1130116E+00
         25   -1    0    0    0    0  0.00000000000E+00  0.00000000000E+00  0.99999998245E-14  0.12500000000E+03  0.12500000000E+03 0.  0.
        -11    1    3    3    0    0 -0.40166079729E+02  0.33777069872E+02  0.58990916155E+01  0.52811018661E+02  0.51100000000E-03 0.  1.
         23    2    1    0    0    0 -0.15461720369E+01  0.26362104292E+02  0.16902162162E+02  0.93646622568E+02  0.88242028773E+02 0.  0.
         11    1    3    3    0    0  0.38619907692E+02 -0.74149655798E+01  0.11003070546E+02  0.40835603906E+02  0.51100000000E-03 0. -1.
         22    1    1    0    0    0  0.15461720369E+01 -0.26362104292E+02 -0.16902162162E+02  0.31353377432E+02  0.00000000000E+00 0.  1.
</event>
<event>
 5    1  0.1102386E-009  0.9118800E+02  0.7818608E-02  0.1130116E+00
         25   -1    0    0    0    0  0.00000000000E+00  0.00000000000E+00  0.99999998245E-14  0.12500000000E+03  0.12500000000E+03 0.  0.
        -11    1    3    3    0    0  0.91346823259E+01 -0.21086166151E+02  0.27702618640E+02  0.35993109117E+02  0.51100000000E-03 0. -1.
         23    2    1    0    0    0 -0.74496723350E+01 -0.23895177138E+01 -0.27403441644E+02  0.96501648701E+02  0.92197679880E+02 0.  0.
         11    1    3    3    0    0 -0.16584354661E+02  0.18696648437E+02 -0.55106060284E+02  0.60508539584E+02  0.51100000000E-03 0.  1.
         22    1    1    0    0    0  0.74496723350E+01  0.23895177138E+01  0.27403441644E+02  0.28498351299E+02  0.00000000000E+00 0.  1.
</event>
<event>
 5    1  0.1102386E-009  0.9118800E+02  0.7818608E-02  0.1130116E+00
         25   -1    0    0    0    0  0.00000000000E+00  0.00000000000E+00  0.99999998245E-14  0.12500000000E+03  0.12500000000E+03 0.  0.
        -11    1    3    3    0    0 -0.35799754113E+02 -0.39318105164E+02  0.18268564926E+02  0.56225227905E+02  0.51100000000E-03 0.  1.
         23    2    1    0    0    0  0.53622348653E+00 -0.26283585969E+02  0.14409758906E+02  0.95020747528E+02  0.90167548942E+02 0.  0.
         11    1    3    3    0    0  0.36335977599E+02  0.13034519195E+02 -0.38588060199E+01  0.38795519624E+02  0.51100000000E-03 0. -1.
         22    1    1    0    0    0 -0.53622348653E+00  0.26283585969E+02 -0.14409758906E+02  0.29979252472E+02  0.00000000000E+00 0.  1.
</event>
<event>
 5    1  0.1102386E-009  0.9118800E+02  0.7818608E-02  0.1130116E+00
         25   -1    0    0    0    0  0.00000000000E+00  0.00000000000E+00  0.99999998245E-14  0.12500000000E+03  0.12500000000E+03 0.  0.
        -11    1    3    3    0    0 -0.66303255149E+01 -0.47433569905E+02 -0.14263259458E+01  0.47915959516E+02  0.51100000000E-03 0. -1.
         23    2    1    0    0    0 -0.29316983734E+02 -0.61369108695E+01 -0.41813796280E+00  0.95044665757E+02  0.90200700880E+02 0.  0.
         11    1    3    3    0    0 -0.22686658219E+02  0.41296659036E+02  0.10081879830E+01  0.47128706241E+02  0.51100000000E-03 0.  1.
         22    1    1    0    0    0  0.29316983734E+02  0.61369108695E+01  0.41813796280E+00  0.29955334243E+02  0.00000000000E+00 0. -1.
</event>
<event>
 5    1  0.1102386E-009  0.9118800E+02  0.7818608E-02  0.1130116E+00
         25   -1    0    0    0    0  0.00000000000E+00  0.00000000000E+00  0.99999998245E-14  0.12500000000E+03  0.12500000000E+03 0.  0.
        -11    1    3    3    0    0 -0.33246549324E+02 -0.19996740678E+02  0.11015474702E+02  0.40330427259E+02  0.51100000000E-03 0.  1.
         23    2    1    0    0    0 -0.55877440523E+00  0.24143189436E+02  0.16832121125E+02  0.95563184165E+02  0.90916423386E+02 0.  0.
         11    1    3    3    0    0  0.32687774919E+02  0.44139930113E+02  0.58166464222E+01  0.55232756906E+02  0.51100000000E-03 0. -1.
         22    1    1    0    0    0  0.55877440523E+00 -0.24143189436E+02 -0.16832121125E+02  0.29436815835E+02  0.00000000000E+00 0. -1.
</event>
<event>
 5    1  0.1102386E-009  0.9118800E+02  0.7818608E-02  0.1130116E+00
         25   -1    0    0    0    0  0.00000000000E+00  0.00000000000E+00  0.99999998245E-14  0.12500000000E+03  0.12500000000E+03 0.  0.
        -11    1    3    3    0    0  0.17395086518E+02  0.33817646761E+02 -0.50927650946E+01  0.38368718039E+02  0.51100000000E-03 0. -1.
         23    2    1    0    0    0 -0.26605803817E+02  0.19495275360E+02  0.14937813704E+02  0.88791260221E+02  0.81072899635E+02 0.  0.
         11    1    3    3    0    0 -0.44000890335E+02 -0.14322371401E+02  0.20030578799E+02  0.50422542182E+02  0.51100000000E-03 0.  1.
         22    1    1    0    0    0  0.26605803817E+02 -0.19495275360E+02 -0.14937813704E+02  0.36208739779E+02  0.00000000000E+00 0. -1.
</event>
<event>
 5    1  0.1102386E-009  0.9118800E+02  0.7818608E-02  0.1130116E+00
         25   -1    0    0    0    0  0.00000000000E+00  0.00000000000E+00  0.99999998245E-14  0.12500000000E+03  0.12500000000E+03 0.  0.
        -11    1    3    3    0    0  0.43533728397E+02 -0.11669198771E+02  0.45179490203E+01  0.45296441049E+02  0.51100000000E-03 0. -1.
         23    2    1    0    0    0  0.11326150404E+02  0.26949559253E+02  0.31032508091E+01  0.95602881221E+02  0.90970986063E+02 0.  0.
         11    1    3    3    0    0 -0.32207577993E+02  0.38618758024E+02 -0.14146982111E+01  0.50306440172E+02  0.51100000000E-03 0.  1.
         22    1    1    0    0    0 -0.11326150404E+02 -0.26949559253E+02 -0.31032508091E+01  0.29397118779E+02  0.00000000000E+00 0.  1.
</event>
<event>
 5    1  0.1102386E-009  0.9118800E+02  0.7818608E-02  0.1130116E+00
         25   -1    0    0    0    0  0.00000000000E+00  0.00000000000E+00  0.99999998245E-14  0.12500000000E+03  0.12500000000E+03 0.  0.
        -11    1    3    3    0    0 -0.32674866977E+02  0.27255513580E+02  0.32384568913E+02  0.53472144678E+02  0.51100000000E-03 0.  1.
         23    2    1    0    0    0 -0.22052497303E+02  0.17267225695E+02 -0.75554473737E+01  0.95990441136E+02  0.91501968743E+02 0.  0.
         11    1    3    3    0    0  0.10622369674E+02 -0.99882878852E+01 -0.39940016287E+02  0.42518296458E+02  0.51100000000E-03 0. -1.
         22    1    1    0    0    0  0.22052497303E+02 -0.17267225695E+02  0.75554473737E+01  0.29009558864E+02  0.00000000000E+00 0.  1.
</event>
<event>
 5    1  0.1102386E-009  0.9118800E+02  0.7818608E-02  0.1130116E+00
         25   -1    0    0    0    0  0.00000000000E+00  0.00000000000E+00  0.99999998245E-14  0.12500000000E+03  0.12500000000E+03 0.  0.
        -11    1    3    3    0    0  0.34226964827E+02  0.13092629077E+02 -0.14193888244E+02  0.39298454437E+02  0.51100000000E-03 0.  1.
         23    2    1    0    0    0 -0.21420913219E+02  0.18900366588E+02 -0.46266096318E+01  0.96060668685E+02  0.91597855713E+02 0.  0.
         11    1    3    3    0    0 -0.55647878046E+02  0.58077375112E+01  0.95672786117E+01  0.56762214248E+02  0.51100000000E-03 0. -1.
         22    1    1    0    0    0  0.21420913219E+02 -0.18900366588E+02  0.46266096318E+01  0.28939331315E+02  0.00000000000E+00 0. -1.
</event>
<event>
 5    1  0.1102386E-009  0.9118800E+02  0.7818608E-02  0.1130116E+00
         25   -1    0    0    0    0  0.00000000000E+00  0.00000000000E+00  0.99999998245E-14  0.12500000000E+03  0.12500000000E+03 0.  0.
        -11    1    3    3    0    0 -0.35864305303E+01 -0.10415395382E+01 -0.41958452050E+02  0.42124327736E+02  0.51100000000E-03 0. -1.
         23    2    1    0    0    0 -0.83102581012E+01  0.30531010750E+02 -0.19643008393E+01  0.93297295306E+02  0.87745790933E+02 0.  0.
         11    1    3    3    0    0 -0.47238275710E+01  0.31572550288E+02  0.39994151210E+02  0.51172967570E+02  0.51100000000E-03 0.  1.
         22    1    1    0    0    0  0.83102581012E+01 -0.30531010750E+02  0.19643008393E+01  0.31702704694E+02  0.00000000000E+00 0. -1.
</event>
<event>
 5    1  0.1102386E-009  0.9118800E+02  0.7818608E-02  0.1130116E+00
         25   -1    0    0    0    0  0.00000000000E+00  0.00000000000E+00  0.99999998245E-14  0.12500000000E+03  0.12500000000E+03 0.  0.
        -11    1    3    3    0    0 -0.46831284898E+01  0.25806659980E+02 -0.33121805800E+02  0.42248898346E+02  0.51100000000E-03 0. -1.
         23    2    1    0    0    0 -0.12245908700E+02  0.14040633035E+02  0.20285428601E+02  0.97457300978E+02  0.93484358287E+02 0.  0.
         11    1    3    3    0    0 -0.75627802104E+01 -0.11766026945E+02  0.53407234400E+02  0.55208402632E+02  0.51100000000E-03 0.  1.
         22    1    1    0    0    0  0.12245908700E+02 -0.14040633035E+02 -0.20285428601E+02  0.27542699022E+02  0.00000000000E+00 0.  1.
</event>
<event>
 5    1  0.1102386E-009  0.9118800E+02  0.7818608E-02  0.1130116E+00
         25   -1    0    0    0    0  0.00000000000E+00  0.00000000000E+00  0.99999998245E-14  0.12500000000E+03  0.12500000000E+03 0.  0.
        -11    1    3    3    0    0  0.82118272907E+01 -0.46743895866E+02  0.72442278723E+01  0.48009423511E+02  0.51100000000E-03 0.  1.
         23    2    1    0    0    0 -0.15381054295E+02 -0.15773041717E+02 -0.19771590220E+02  0.95397948448E+02  0.90688958049E+02 0.  0.
         11    1    3    3    0    0 -0.23592881586E+02  0.30970854149E+02 -0.27015818093E+02  0.47388524937E+02  0.51100000000E-03 0. -1.
         22    1    1    0    0    0  0.15381054295E+02  0.15773041717E+02  0.19771590220E+02  0.29602051552E+02  0.00000000000E+00 0.  1.
</event>
<event>
 5    1  0.1102386E-009  0.9118800E+02  0.7818608E-02  0.1130116E+00
         25   -1    0    0    0    0  0.00000000000E+00  0.00000000000E+00  0.99999998245E-14  0.12500000000E+03  0.12500000000E+03 0.  0.
        -11    1    3    3    0    0  0.17877416717E+02  0.16284601864E+02  0.21598234520E+02  0.32423356103E+02  0.51100000000E-03 0. -1.
         23    2    1    0    0    0 -0.17159894836E+02 -0.23620321303E+02 -0.99067018762E+01  0.94169425706E+02  0.88979528131E+02 0.  0.
         11    1    3    3    0    0 -0.35037311553E+02 -0.39904923167E+02 -0.31504936396E+02  0.61746069603E+02  0.51100000000E-03 0.  1.
         22    1    1    0    0    0  0.17159894836E+02  0.23620321303E+02  0.99067018762E+01  0.30830574294E+02  0.00000000000E+00 0.  1.
</event>
<event>
 5    1  0.1102386E-009  0.9118800E+02  0.7818608E-02  0.1130116E+00
         25   -1    0    0    0    0  0.00000000000E+00  0.00000000000E+00  0.99999998245E-14  0.12500000000E+03  0.12500000000E+03 0.  0.
        -11    1    3    3    0    0  0.10870232257E+02 -0.28105051294E+02 -0.19650169645E+02  0.35974783181E+02  0.51100000000E-03 0. -1.
         23    2    1    0    0    0 -0.95181620654E+01 -0.99087858127E+01  0.29638173590E+02  0.92331960893E+02  0.86359656224E+02 0.  0.
         11    1    3    3    0    0 -0.20388394322E+02  0.18196265482E+02  0.49288343235E+02  0.56357177712E+02  0.51100000000E-03 0.  1.
         22    1    1    0    0    0  0.95181620654E+01  0.99087858127E+01 -0.29638173590E+02  0.32668039107E+02  0.00000000000E+00 0.  1.
</event>
<event>
 5    1  0.1102386E-009  0.9118800E+02  0.7818608E-02  0.1130116E+00
         25   -1    0    0    0    0  0.00000000000E+00  0.00000000000E+00  0.99999998245E-14  0.12500000000E+03  0.12500000000E+03 0.  0.
        -11    1    3    3    0    0 -0.51411926961E+02 -0.44900021173E+01 -0.35147941766E+02  0.62439764281E+02  0.51100000000E-03 0.  1.
         23    2    1    0    0    0 -0.33745953553E+02 -0.19302454934E+01 -0.24844670234E+02  0.83050353185E+02  0.71676971868E+02 0.  0.
         11    1    3    3    0    0  0.17665973408E+02  0.25597566239E+01  0.10303271532E+02  0.20610588903E+02  0.51100000000E-03 0. -1.
         22    1    1    0    0    0  0.33745953553E+02  0.19302454934E+01  0.24844670234E+02  0.41949646815E+02  0.00000000000E+00 0.  1.
</event>
<event>
 5    1  0.1102386E-009  0.9118800E+02  0.7818608E-02  0.1130116E+00
         25   -1    0    0    0    0  0.00000000000E+00  0.00000000000E+00  0.99999998245E-14  0.12500000000E+03  0.12500000000E+03 0.  0.
        -11    1    3    3    0    0 -0.28991599048E+02  0.11858234977E+02  0.10370078361E+02  0.32994985644E+02  0.51100000000E-03 0.  1.
         23    2    1    0    0    0  0.27853277106E+02 -0.62462497234E+01 -0.78888444086E+01  0.95384893259E+02  0.90670961806E+02 0.  0.
         11    1    3    3    0    0  0.56844876154E+02 -0.18104484701E+02 -0.18258922770E+02  0.62389907615E+02  0.51100000000E-03 0. -1.
         22    1    1    0    0    0 -0.27853277106E+02  0.62462497234E+01  0.78888444086E+01  0.29615106741E+02  0.00000000000E+00 0. -1.
</event>
<event>
 5    1  0.1102386E-009  0.9118800E+02  0.7818608E-02  0.1130116E+00
         25   -1    0    0    0    0  0.00000000000E+00  0.00000000000E+00  0.99999998245E-14  0.12500000000E+03  0.12500000000E+03 0.  0.
        -11    1    3    3    0    0 -0.87383902126E+01 -0.36021207548E+02  0.27320031450E+02  0.46046400244E+02  0.51100000000E-03 0. -1.
         23    2    1    0    0    0 -0.12106690704E+02 -0.16821610888E+02 -0.19363771214E+02  0.96636393242E+02  0.92380183538E+02 0.  0.
         11    1    3    3    0    0 -0.33683004915E+01  0.19199596660E+02 -0.46683802664E+02  0.50589992998E+02  0.51100000000E-03 0.  1.
         22    1    1    0    0    0  0.12106690704E+02  0.16821610888E+02  0.19363771214E+02  0.28363606758E+02  0.00000000000E+00 0. -1.
</event>
<event>
 5    1  0.1102386E-009  0.9118800E+02  0.7818608E-02  0.1130116E+00
         25   -1    0    0    0    0  0.00000000000E+00  0.00000000000E+00  0.99999998245E-14  0.12500000000E+03  0.12500000000E+03 0.  0.
        -11    1    3    3    0    0  0.37917428810E+02 -0.25101169849E+02 -0.12470330030E+02  0.47151980517E+02  0.51100000000E-03 0.  1.
         23    2    1    0    0    0  0.96021886835E+01  0.13389828125E+02 -0.23602108101E+02  0.96215472359E+02  0.91808867163E+02 0.  0.
         11    1    3    3    0    0 -0.28315240126E+02  0.38490997974E+02 -0.11131778071E+02  0.49063491842E+02  0.51100000000E-03 0. -1.
         22    1    1    0    0    0 -0.96021886835E+01 -0.13389828125E+02  0.23602108101E+02  0.28784527641E+02  0.00000000000E+00 0.  1.
</event>
<event>
 5    1  0.1102386E-009  0.9118800E+02  0.7818608E-02  0.1130116E+00
         25   -1    0    0    0    0  0.00000000000E+00  0.00000000000E+00  0.99999998245E-14  0.12500000000E+03  0.12500000000E+03 0.  0.
        -11    1    3    3    0    0 -0.12263165243E+02 -0.14400023165E+02  0.53498597862E+02  0.56743685660E+02  0.51100000000E-03 0.  1.
         23    2    1    0    0    0 -0.69784935386E+01  0.12485965885E+02  0.24428734369E+02  0.96691665909E+02  0.92454942957E+02 0.  0.
         11    1    3    3    0    0  0.52846717046E+01  0.26885989049E+02 -0.29069863493E+02  0.39947980248E+02  0.51100000000E-03 0. -1.
         22    1    1    0    0    0  0.69784935386E+01 -0.12485965885E+02 -0.24428734369E+02  0.28308334091E+02  0.00000000000E+00 0.  1.
</event>
<event>
 5    1  0.1102386E-009  0.9118800E+02  0.7818608E-02  0.1130116E+00
         25   -1    0    0    0    0  0.00000000000E+00  0.00000000000E+00  0.99999998245E-14  0.12500000000E+03  0.12500000000E+03 0.  0.
        -11    1    3    3    0    0 -0.20591548579E+02  0.21246460605E+00  0.49928208027E+02  0.54008175040E+02  0.51100000000E-03 0.  1.
         23    2    1    0    0    0  0.71577967431E+01 -0.16283302545E+02  0.22116234566E+02  0.96618530211E+02  0.92356009835E+02 0.  0.
         11    1    3    3    0    0  0.27749345323E+02 -0.16495767151E+02 -0.27811973461E+02  0.42610355171E+02  0.51100000000E-03 0. -1.
         22    1    1    0    0    0 -0.71577967431E+01  0.16283302545E+02 -0.22116234566E+02  0.28381469789E+02  0.00000000000E+00 0.  1.
</event>
<event>
 5    1  0.1102386E-009  0.9118800E+02  0.7818608E-02  0.1130116E+00
         25   -1    0    0    0    0  0.00000000000E+00  0.00000000000E+00  0.99999998245E-14  0.12500000000E+03  0.12500000000E+03 0.  0.
        -11    1    3    3    0    0  0.19242820718E+02 -0.21342084363E+02 -0.19824623643E+02  0.34911121680E+02  0.51100000000E-03 0.  1.
         23    2    1    0    0    0 -0.27565439098E+02  0.11916539984E+02 -0.26150535387E+01  0.94855417354E+02  0.89938058343E+02 0.  0.
         11    1    3    3    0    0 -0.46808259816E+02  0.33258624347E+02  0.17209570105E+02  0.59944295674E+02  0.51100000000E-03 0. -1.
         22    1    1    0    0    0  0.27565439098E+02 -0.11916539984E+02  0.26150535387E+01  0.30144582646E+02  0.00000000000E+00 0. -1.
</event>
<event>
 5    1  0.1102386E-009  0.9118800E+02  0.7818608E-02  0.1130116E+00
         25   -1    0    0    0    0  0.00000000000E+00  0.00000000000E+00  0.99999998245E-14  0.12500000000E+03  0.12500000000E+03 0.  0.
        -11    1    3    3    0    0  0.38692189422E+02 -0.18849733182E+02  0.36374398651E+02  0.56351529178E+02  0.51100000000E-03 0.  1.
         23    2    1    0    0    0  0.14488748925E+01  0.11948928938E+00  0.25392272213E+02  0.99566144526E+02  0.96262849176E+02 0.  0.
         11    1    3    3    0    0 -0.37243314529E+02  0.18969222471E+02 -0.10982126437E+02  0.43214615348E+02  0.51100000000E-03 0. -1.
         22    1    1    0    0    0 -0.14488748925E+01 -0.11948928938E+00 -0.25392272213E+02  0.25433855474E+02  0.00000000000E+00 0.  1.
</event>
<event>
 5    1  0.1102386E-009  0.9118800E+02  0.7818608E-02  0.1130116E+00
         25   -1    0    0    0    0  0.00000000000E+00  0.00000000000E+00  0.99999998245E-14  0.12500000000E+03  0.12500000000E+03 0.  0.
        -11    1    3    3    0    0 -0.11528297070E+02 -0.52188212403E+02 -0.23340579720E+02  0.58320612214E+02  0.51100000000E-03 0. -1.
         23    2    1    0    0    0 -0.11779473076E+02 -0.25369745778E+02  0.41454634689E+01  0.96723422163E+02  0.92497867764E+02 0.  0.
         11    1    3    3    0    0 -0.25117600671E+00  0.26818466625E+02  0.27486043189E+02  0.38402809949E+02  0.51100000000E-03 0.  1.
         22    1    1    0    0    0  0.11779473076E+02  0.25369745778E+02 -0.41454634689E+01  0.28276577837E+02  0.00000000000E+00 0. -1.
</event>
<event>
 5    1  0.1102386E-009  0.9118800E+02  0.7818608E-02  0.1130116E+00
         25   -1    0    0    0    0  0.00000000000E+00  0.00000000000E+00  0.99999998245E-14  0.12500000000E+03  0.12500000000E+03 0.  0.
        -11    1    3    3    0    0 -0.51619355329E+02 -0.26056717686E+02 -0.70306231558E+00  0.57827369628E+02  0.51100000000E-03 0. -1.
         23    2    1    0    0    0 -0.14011534478E+02 -0.25496360986E+02 -0.42172801719E+01  0.95603180886E+02  0.90971397821E+02 0.  0.
         11    1    3    3    0    0  0.37607820852E+02  0.56035670028E+00 -0.35142178563E+01  0.37775811258E+02  0.51100000000E-03 0.  1.
         22    1    1    0    0    0  0.14011534478E+02  0.25496360986E+02  0.42172801719E+01  0.29396819114E+02  0.00000000000E+00 0. -1.
</event>
<event>
 5    1  0.1102386E-009  0.9118800E+02  0.7818608E-02  0.1130116E+00
         25   -1    0    0    0    0  0.00000000000E+00  0.00000000000E+00  0.99999998245E-14  0.12500000000E+03  0.12500000000E+03 0.  0.
        -11    1    3    3    0    0 -0.28578649807E+02  0.16333265481E+02  0.26821706865E+02  0.42460790683E+02  0.51100000000E-03 0. -1.
         23    2    1    0    0    0 -0.12373989443E+02 -0.19176403914E+02 -0.13421666070E+02  0.98523761560E+02  0.94899633245E+02 0.  0.
         11    1    3    3    0    0  0.16204660363E+02 -0.35509669395E+02 -0.40243372936E+02  0.56062970877E+02  0.51100000000E-03 0.  1.
         22    1    1    0    0    0  0.12373989443E+02  0.19176403914E+02  0.13421666070E+02  0.26476238440E+02  0.00000000000E+00 0.  1.
</event>
<event>
 5    1  0.1102386E-009  0.9118800E+02  0.7818608E-02  0.1130116E+00
         25   -1    0    0    0    0  0.00000000000E+00  0.00000000000E+00  0.99999998245E-14  0.12500000000E+03  0.12500000000E+03 0.  0.
        -11    1    3    3    0    0 -0.13246252937E+02 -0.51379569368E+01 -0.48681820629E+02  0.50712734874E+02  0.51100000000E-03 0. -1.
         23    2    1    0    0    0  0.21113693983E+02 -0.50829594918E+01 -0.20159306257E+02  0.95368560960E+02  0.90648443120E+02 0.  0.
         11    1    3    3    0    0  0.34359946920E+02  0.54997445068E-01  0.28522514372E+02  0.44655826086E+02  0.51100000000E-03 0.  1.
         22    1    1    0    0    0 -0.21113693983E+02  0.50829594918E+01  0.20159306257E+02  0.29631439040E+02  0.00000000000E+00 0. -1.
</event>
<event>
 5    1  0.1102386E-009  0.9118800E+02  0.7818608E-02  0.1130116E+00
         25   -1    0    0    0    0  0.00000000000E+00  0.00000000000E+00  0.99999998245E-14  0.12500000000E+03  0.12500000000E+03 0.  0.
        -11    1    3    3    0    0  0.33613515593E+01 -0.48650742789E+02  0.33830492282E+02  0.59352301274E+02  0.51100000000E-03 0. -1.
         23    2    1    0    0    0  0.10130031989E+02 -0.29723244498E+02  0.70866112668E+01  0.92808248404E+02  0.87046321582E+02 0.  0.
         11    1    3    3    0    0  0.67686804300E+01  0.18927498291E+02 -0.26743881015E+02  0.33455947129E+02  0.51100000000E-03 0.  1.
         22    1    1    0    0    0 -0.10130031989E+02  0.29723244498E+02 -0.70866112668E+01  0.32191751596E+02  0.00000000000E+00 0. -1.
</event>
<event>
 5    1  0.1102386E-009  0.9118800E+02  0.7818608E-02  0.1130116E+00
         25   -1    0    0    0    0  0.00000000000E+00  0.00000000000E+00  0.99999998245E-14  0.12500000000E+03  0.12500000000E+03 0.  0.
        -11    1    3    3    0    0 -0.21285365444E+02  0.25540616209E+02  0.24373752508E+02  0.41224624559E+02  0.51100000000E-03 0. -1.
         23    2    1    0    0    0 -0.40587456940E+01  0.16362005859E+02 -0.25301261459E+02  0.94596998770E+02  0.89578176431E+02 0.  0.
         11    1    3    3    0    0  0.17226619750E+02 -0.91786103507E+01 -0.49675013968E+02  0.53372374211E+02  0.51100000000E-03 0.  1.
         22    1    1    0    0    0  0.40587456940E+01 -0.16362005859E+02  0.25301261459E+02  0.30403001230E+02  0.00000000000E+00 0.  1.
</event>
<event>
 5    1  0.1102386E-009  0.9118800E+02  0.7818608E-02  0.1130116E+00
         25   -1    0    0    0    0  0.00000000000E+00  0.00000000000E+00  0.99999998245E-14  0.12500000000E+03  0.12500000000E+03 0.  0.
        -11    1    3    3    0    0 -0.60531008414E+02  0.52563093787E+00 -0.41511503165E+00  0.60534713911E+02  0.51100000000E-03 0.  1.
         23    2    1    0    0    0 -0.27593956316E+02 -0.93287608538E+01  0.53215849955E+01  0.95389672897E+02  0.90677550829E+02 0.  0.
         11    1    3    3    0    0  0.32937052098E+02 -0.98543917916E+01  0.57367000272E+01  0.34854958986E+02  0.51100000000E-03 0. -1.
         22    1    1    0    0    0  0.27593956316E+02  0.93287608538E+01 -0.53215849955E+01  0.29610327103E+02  0.00000000000E+00 0.  1.
</event>
<event>
 5    1  0.1102386E-009  0.9118800E+02  0.7818608E-02  0.1130116E+00
         25   -1    0    0    0    0  0.00000000000E+00  0.00000000000E+00  0.99999998245E-14  0.12500000000E+03  0.12500000000E+03 0.  0.
        -11    1    3    3    0    0 -0.12310767742E+02 -0.13997128073E+02 -0.26564278392E+02  0.32452048987E+02  0.51100000000E-03 0. -1.
         23    2    1    0    0    0  0.11742553102E+02  0.20810983114E+02  0.18881930110E+02  0.94544920683E+02  0.89505475647E+02 0.  0.
         11    1    3    3    0    0  0.24053320844E+02  0.34808111187E+02  0.45446208502E+02  0.62092871696E+02  0.51100000000E-03 0.  1.
         22    1    1    0    0    0 -0.11742553102E+02 -0.20810983114E+02 -0.18881930110E+02  0.30455079317E+02  0.00000000000E+00 0.  1.
</event>
<event>
 5    1  0.1102386E-009  0.9118800E+02  0.7818608E-02  0.1130116E+00
         25   -1    0    0    0    0  0.00000000000E+00  0.00000000000E+00  0.99999998245E-14  0.12500000000E+03  0.12500000000E+03 0.  0.
        -11    1    3    3    0    0 -0.33056930017E+02 -0.18631716127E+02  0.62220798220E+01  0.38452772924E+02  0.51100000000E-03 0.  1.
         23    2    1    0    0    0  0.61626429952E+01  0.23347460307E+02 -0.11053302866E+02  0.98443313917E+02  0.94793609907E+02 0.  0.
         11    1    3    3    0    0  0.39219573012E+02  0.41979176434E+02 -0.17275382688E+02  0.59990540993E+02  0.51100000000E-03 0. -1.
         22    1    1    0    0    0 -0.61626429952E+01 -0.23347460307E+02  0.11053302866E+02  0.26556686083E+02  0.00000000000E+00 0. -1.
</event>
<event>
 5    1  0.1102386E-009  0.9118800E+02  0.7818608E-02  0.1130116E+00
         25   -1    0    0    0    0  0.00000000000E+00  0.00000000000E+00  0.99999998245E-14  0.12500000000E+03  0.12500000000E+03 0.  0.
        -11    1    3    3    0    0 -0.49779365673E+02 -0.30045582876E+02  0.16412188075E+02  0.60415910279E+02  0.51100000000E-03 0.  1.
         23    2    1    0    0    0 -0.26243651862E+02 -0.34845944049E+01  0.29895147772E+01  0.98357761734E+02  0.94680728944E+02 0.  0.
         11    1    3    3    0    0  0.23535713810E+02  0.26560988471E+02 -0.13422673298E+02  0.37941851455E+02  0.51100000000E-03 0. -1.
         22    1    1    0    0    0  0.26243651862E+02  0.34845944049E+01 -0.29895147772E+01  0.26642238266E+02  0.00000000000E+00 0.  1.
</event>
<event>
 5    1  0.1102386E-009  0.9118800E+02  0.7818608E-02  0.1130116E+00
         25   -1    0    0    0    0  0.00000000000E+00  0.00000000000E+00  0.99999998245E-14  0.12500000000E+03  0.12500000000E+03 0.  0.
        -11    1    3    3    0    0 -0.18433785420E+02 -0.13422118561E+02 -0.57222489227E+02  0.61598465769E+02  0.51100000000E-03 0. -1.
         23    2    1    0    0    0 -0.30691380963E+01 -0.11342173526E+02 -0.26506184610E+02  0.96006167354E+02  0.91523449664E+02 0.  0.
         11    1    3    3    0    0  0.15364647324E+02  0.20799450352E+01  0.30716304617E+02  0.34407701584E+02  0.51100000000E-03 0.  1.
         22    1    1    0    0    0  0.30691380963E+01  0.11342173526E+02  0.26506184610E+02  0.28993832646E+02  0.00000000000E+00 0. -1.
</event>
<event>
 5    1  0.1102386E-009  0.9118800E+02  0.7818608E-02  0.1130116E+00
         25   -1    0    0    0    0  0.00000000000E+00  0.00000000000E+00  0.99999998245E-14  0.12500000000E+03  0.12500000000E+03 0.  0.
        -11    1    3    3    0    0  0.33313942297E+02 -0.16080778139E+02 -0.20834426049E+02  0.42455664946E+02  0.51100000000E-03 0. -1.
         23    2    1    0    0    0 -0.18514511116E+02 -0.14793984560E+02 -0.19487470691E+02  0.94317584597E+02  0.89187421474E+02 0.  0.
         11    1    3    3    0    0 -0.51828453413E+02  0.12867935782E+01  0.13469553583E+01  0.51861919651E+02  0.51100000000E-03 0.  1.
         22    1    1    0    0    0  0.18514511116E+02  0.14793984560E+02  0.19487470691E+02  0.30682415403E+02  0.00000000000E+00 0.  1.
</event>
<event>
 5    1  0.1102386E-009  0.9118800E+02  0.7818608E-02  0.1130116E+00
         25   -1    0    0    0    0  0.00000000000E+00  0.00000000000E+00  0.99999998245E-14  0.12500000000E+03  0.12500000000E+03 0.  0.
        -11    1    3    3    0    0 -0.20432739798E+01 -0.53931557119E+02 -0.63159278791E+01  0.54338556910E+02  0.51100000000E-03 0.  1.
         23    2    1    0    0    0  0.20996088031E+02 -0.17796907892E+02 -0.24766378651E+01  0.97364888669E+02  0.93360709977E+02 0.  0.
         11    1    3    3    0    0  0.23039362011E+02  0.36134649227E+02  0.38392900140E+01  0.43026331760E+02  0.51100000000E-03 0. -1.
         22    1    1    0    0    0 -0.20996088031E+02  0.17796907892E+02  0.24766378651E+01  0.27635111331E+02  0.00000000000E+00 0.  1.
</event>
<event>
 5    1  0.1102386E-009  0.9118800E+02  0.7818608E-02  0.1130116E+00
         25   -1    0    0    0    0  0.00000000000E+00  0.00000000000E+00  0.99999998245E-14  0.12500000000E+03  0.12500000000E+03 0.  0.
        -11    1    3    3    0    0  0.14120246040E+01  0.34556739210E+01  0.32723079292E+02  0.32935321683E+02  0.51100000000E-03 0.  1.
         23    2    1    0    0    0  0.74952077849E+00 -0.10168512415E+02 -0.28015543917E+02  0.95186729011E+02  0.90397357554E+02 0.  0.
         11    1    3    3    0    0 -0.66250382548E+00 -0.13624186336E+02 -0.60738623209E+02  0.62251407328E+02  0.51100000000E-03 0. -1.
         22    1    1    0    0    0 -0.74952077849E+00  0.10168512415E+02  0.28015543917E+02  0.29813270989E+02  0.00000000000E+00 0. -1.
</event>
<event>
 5    1  0.1102386E-009  0.9118800E+02  0.7818608E-02  0.1130116E+00
         25   -1    0    0    0    0  0.00000000000E+00  0.00000000000E+00  0.99999998245E-14  0.12500000000E+03  0.12500000000E+03 0.  0.
        -11    1    3    3    0    0  0.19738049443E+02 -0.30295004385E+02 -0.85222983399E+01  0.37148451592E+02  0.51100000000E-03 0. -1.
         23    2    1    0    0    0 -0.13812736406E+02  0.60473688397E+01 -0.30271949993E+02  0.91180577869E+02  0.84676705576E+02 0.  0.
         11    1    3    3    0    0 -0.33550785848E+02  0.36342373224E+02 -0.21749651654E+02  0.54032126276E+02  0.51100000000E-03 0.  1.
         22    1    1    0    0    0  0.13812736406E+02 -0.60473688397E+01  0.30271949993E+02  0.33819422131E+02  0.00000000000E+00 0.  1.
</event>
<event>
 5    1  0.1102386E-009  0.9118800E+02  0.7818608E-02  0.1130116E+00
         25   -1    0    0    0    0  0.00000000000E+00  0.00000000000E+00  0.99999998245E-14  0.12500000000E+03  0.12500000000E+03 0.  0.
        -11    1    3    3    0    0 -0.32571319782E+01 -0.16066027099E+01  0.43904090906E+02  0.44054049525E+02  0.51100000000E-03 0.  1.
         23    2    1    0    0    0  0.65579904945E+01 -0.29835307897E+02  0.35837579282E+01  0.94242949467E+02  0.89082755720E+02 0.  0.
         11    1    3    3    0    0  0.98151224727E+01 -0.28228705187E+02 -0.40320332978E+02  0.50188899942E+02  0.51100000000E-03 0. -1.
         22    1    1    0    0    0 -0.65579904945E+01  0.29835307897E+02 -0.35837579282E+01  0.30757050533E+02  0.00000000000E+00 0. -1.
</event>
<event>
 5    1  0.1102386E-009  0.9118800E+02  0.7818608E-02  0.1130116E+00
         25   -1    0    0    0    0  0.00000000000E+00  0.00000000000E+00  0.99999998245E-14  0.12500000000E+03  0.12500000000E+03 0.  0.
        -11    1    3    3    0    0 -0.33936871136E+02 -0.17720588619E+02 -0.24731973046E+02  0.45578514396E+02  0.51100000000E-03 0.  1.
         23    2    1    0    0    0 -0.27264205031E+02  0.68463055399E+01  0.15281964374E+02  0.93003950078E+02  0.87326900320E+02 0.  0.
         11    1    3    3    0    0  0.66726661052E+01  0.24566894159E+02  0.40013937420E+02  0.47425435682E+02  0.51100000000E-03 0. -1.
         22    1    1    0    0    0  0.27264205031E+02 -0.68463055399E+01 -0.15281964374E+02  0.31996049922E+02  0.00000000000E+00 0. -1.
</event>
<event>
 5    1  0.1102386E-009  0.9118800E+02  0.7818608E-02  0.1130116E+00
         25   -1    0    0    0    0  0.00000000000E+00  0.00000000000E+00  0.99999998245E-14  0.12500000000E+03  0.12500000000E+03 0.  0.
        -11    1    3    3    0    0  0.36428256947E+02  0.39480808531E+02 -0.31472019937E+02  0.62259458604E+02  0.51100000000E-03 0.  1.
         23    2    1    0    0    0  0.15264267406E+02  0.17745237875E+02 -0.18090784559E+02  0.95416764669E+02  0.90714889446E+02 0.  0.
         11    1    3    3    0    0 -0.21163989541E+02 -0.21735570655E+02  0.13381235378E+02  0.33157306065E+02  0.51100000000E-03 0. -1.
         22    1    1    0    0    0 -0.15264267406E+02 -0.17745237875E+02  0.18090784559E+02  0.29583235331E+02  0.00000000000E+00 0.  1.
</event>
<event>
 5    1  0.1102386E-009  0.9118800E+02  0.7818608E-02  0.1130116E+00
         25   -1    0    0    0    0  0.00000000000E+00  0.00000000000E+00  0.99999998245E-14  0.12500000000E+03  0.12500000000E+03 0.  0.
        -11    1    3    3    0    0  0.13216222259E+02 -0.19186068817E+02 -0.40735742849E+02  0.46927332262E+02  0.51100000000E-03 0.  1.
         23    2    1    0    0    0  0.52370936359E+01  0.22785286795E+02 -0.19067007111E+02  0.94831353953E+02  0.89904607715E+02 0.  0.
         11    1    3    3    0    0 -0.79791286235E+01  0.41971355612E+02  0.21668735738E+02  0.47904021692E+02  0.51100000000E-03 0. -1.
         22    1    1    0    0    0 -0.52370936359E+01 -0.22785286795E+02  0.19067007111E+02  0.30168646047E+02  0.00000000000E+00 0. -1.
</event>
<event>
 5    1  0.1102386E-009  0.9118800E+02  0.7818608E-02  0.1130116E+00
         25   -1    0    0    0    0  0.00000000000E+00  0.00000000000E+00  0.99999998245E-14  0.12500000000E+03  0.12500000000E+03 0.  0.
        -11    1    3    3    0    0  0.45330806668E+02  0.82019462394E+01 -0.19316102013E+02  0.49952635091E+02  0.51100000000E-03 0. -1.
         23    2    1    0    0    0  0.12234338918E+02 -0.23405321592E+02 -0.10612639150E+02  0.96537459051E+02  0.92246218148E+02 0.  0.
         11    1    3    3    0    0 -0.33096467750E+02 -0.31607267831E+02  0.87034628636E+01  0.46584823960E+02  0.51100000000E-03 0.  1.
         22    1    1    0    0    0 -0.12234338918E+02  0.23405321592E+02  0.10612639150E+02  0.28462540949E+02  0.00000000000E+00 0. -1.
</event>
<event>
 5    1  0.1102386E-009  0.9118800E+02  0.7818608E-02  0.1130116E+00
         25   -1    0    0    0    0  0.00000000000E+00  0.00000000000E+00  0.99999998245E-14  0.12500000000E+03  0.12500000000E+03 0.  0.
        -11    1    3    3    0    0  0.51470849084E-01 -0.14003881830E+02 -0.56987471847E+02  0.58682904695E+02  0.51100000000E-03 0.  1.
         23    2    1    0    0    0  0.93620674962E+01  0.59972967608E+01 -0.26006838233E+02  0.96716232374E+02  0.92488151098E+02 0.  0.
         11    1    3    3    0    0  0.93105966471E+01  0.20001178591E+02  0.30980633615E+02  0.38033327680E+02  0.51100000000E-03 0. -1.
         22    1    1    0    0    0 -0.93620674962E+01 -0.59972967608E+01  0.26006838233E+02  0.28283767626E+02  0.00000000000E+00 0.  1.
</event>
<event>
 5    1  0.1102386E-009  0.9118800E+02  0.7818608E-02  0.1130116E+00
         25   -1    0    0    0    0  0.00000000000E+00  0.00000000000E+00  0.99999998245E-14  0.12500000000E+03  0.12500000000E+03 0.  0.
        -11    1    3    3    0    0  0.18661834302E+02 -0.24123447708E+02 -0.20306852082E+02  0.36641138500E+02  0.51100000000E-03 0.  1.
         23    2    1    0    0    0 -0.26335962747E+02  0.96791956849E+01  0.12640242224E+01  0.96913214492E+02  0.92753995187E+02 0.  0.
         11    1    3    3    0    0 -0.44997797048E+02  0.33802643393E+02  0.21570876305E+02  0.60272075992E+02  0.51100000000E-03 0. -1.
         22    1    1    0    0    0  0.26335962747E+02 -0.96791956849E+01 -0.12640242224E+01  0.28086785508E+02  0.00000000000E+00 0. -1.
</event>
<event>
 5    1  0.1102386E-009  0.9118800E+02  0.7818608E-02  0.1130116E+00
         25   -1    0    0    0    0  0.00000000000E+00  0.00000000000E+00  0.99999998245E-14  0.12500000000E+03  0.12500000000E+03 0.  0.
        -11    1    3    3    0    0  0.87559647760E+01 -0.29244347726E+01  0.52385903497E+02  0.53193064617E+02  0.51100000000E-03 0. -1.
         23    2    1    0    0    0  0.76804605938E+00 -0.24630062099E+02  0.18649764119E+02  0.94096221017E+02  0.88876629404E+02 0.  0.
         11    1    3    3    0    0 -0.79879187167E+01 -0.21705627326E+02 -0.33736139378E+02  0.40903156400E+02  0.51100000000E-03 0.  1.
         22    1    1    0    0    0 -0.76804605938E+00  0.24630062099E+02 -0.18649764119E+02  0.30903778983E+02  0.00000000000E+00 0. -1.
</event>
<event>
 5    1  0.1102386E-009  0.9118800E+02  0.7818608E-02  0.1130116E+00
         25   -1    0    0    0    0  0.00000000000E+00  0.00000000000E+00  0.99999998245E-14  0.12500000000E+03  0.12500000000E+03 0.  0.
        -11    1    3    3    0    0  0.14776433063E+02 -0.11846823136E+01 -0.29439082780E+02  0.32960674165E+02  0.51100000000E-03 0.  1.
         23    2    1    0    0    0 -0.74884689567E+01  0.81285434806E+01  0.27802107250E+02  0.95081651885E+02  0.90251941648E+02 0.  0.
         11    1    3    3    0    0 -0.22264902019E+02  0.93132257942E+01  0.57241190029E+02  0.62120977720E+02  0.51100000000E-03 0. -1.
         22    1    1    0    0    0  0.74884689567E+01 -0.81285434806E+01 -0.27802107250E+02  0.29918348115E+02  0.00000000000E+00 0. -1.
</event>
<event>
 5    1  0.1102386E-009  0.9118800E+02  0.7818608E-02  0.1130116E+00
         25   -1    0    0    0    0  0.00000000000E+00  0.00000000000E+00  0.99999998245E-14  0.12500000000E+03  0.12500000000E+03 0.  0.
        -11    1    3    3    0    0 -0.45733244248E+02 -0.12342919454E+02 -0.95956283479E+01  0.48331701540E+02  0.51100000000E-03 0. -1.
         23    2    1    0    0    0 -0.13406480291E+02 -0.10602558471E+01  0.24752377270E+02  0.96830192816E+02  0.92642043393E+02 0.  0.
         11    1    3    3    0    0  0.32326763956E+02  0.11282663607E+02  0.34348005618E+02  0.48498491277E+02  0.51100000000E-03 0.  1.
         22    1    1    0    0    0  0.13406480291E+02  0.10602558471E+01 -0.24752377270E+02  0.28169807184E+02  0.00000000000E+00 0. -1.
</event>
<event>
 5    1  0.1102386E-009  0.9118800E+02  0.7818608E-02  0.1130116E+00
         25   -1    0    0    0    0  0.00000000000E+00  0.00000000000E+00  0.99999998245E-14  0.12500000000E+03  0.12500000000E+03 0.  0.
        -11    1    3    3    0    0 -0.34704158044E+02  0.53185771756E+01  0.31035458955E+02  0.46860063610E+02  0.51100000000E-03 0.  1.
         23    2    1    0    0    0  0.13066744590E+02  0.79901199317E+01  0.25806792758E+02  0.94990461797E+02  0.90125553809E+02 0.  0.
         11    1    3    3    0    0  0.47770902634E+02  0.26715427561E+01 -0.52286661976E+01  0.48130398187E+02  0.51100000000E-03 0. -1.
         22    1    1    0    0    0 -0.13066744590E+02 -0.79901199317E+01 -0.25806792758E+02  0.30009538203E+02  0.00000000000E+00 0. -1.
</event>
<event>
 5    1  0.1102386E-009  0.9118800E+02  0.7818608E-02  0.1130116E+00
         25   -1    0    0    0    0  0.00000000000E+00  0.00000000000E+00  0.99999998245E-14  0.12500000000E+03  0.12500000000E+03 0.  0.
        -11    1    3    3    0    0  0.11770019352E+02 -0.54762276947E+02 -0.49104560437E+01  0.56227688115E+02  0.51100000000E-03 0. -1.
         23    2    1    0    0    0 -0.61235426773E+00 -0.19078697179E+02 -0.20409647335E+02  0.97054958076E+02  0.92944819754E+02 0.  0.
         11    1    3    3    0    0 -0.12382373620E+02  0.35683579768E+02 -0.15499191291E+02  0.40827269961E+02  0.51100000000E-03 0.  1.
         22    1    1    0    0    0  0.61235426773E+00  0.19078697179E+02  0.20409647335E+02  0.27945041924E+02  0.00000000000E+00 0. -1.
</event>
<event>
 5    1  0.1102386E-009  0.9118800E+02  0.7818608E-02  0.1130116E+00
         25   -1    0    0    0    0  0.00000000000E+00  0.00000000000E+00  0.99999998245E-14  0.12500000000E+03  0.12500000000E+03 0.  0.
        -11    1    3    3    0    0 -0.37282845939E+02 -0.69245601469E+01 -0.74090085462E+01  0.38637462940E+02  0.51100000000E-03 0.  1.
         23    2    1    0    0    0  0.16137718002E+02  0.85259094891E+01 -0.22277262295E+02  0.96200807471E+02  0.91788898391E+02 0.  0.
         11    1    3    3    0    0  0.53420563941E+02  0.15450469636E+02 -0.14868253749E+02  0.57563344531E+02  0.51100000000E-03 0. -1.
         22    1    1    0    0    0 -0.16137718002E+02 -0.85259094891E+01  0.22277262295E+02  0.28799192529E+02  0.00000000000E+00 0. -1.
</event>
<event>
 5    1  0.1102386E-009  0.9118800E+02  0.7818608E-02  0.1130116E+00
         25   -1    0    0    0    0  0.00000000000E+00  0.00000000000E+00  0.99999998245E-14  0.12500000000E+03  0.12500000000E+03 0.  0.
        -11    1    3    3    0    0 -0.11815446835E+02  0.33288505041E+02  0.35668262355E+02  0.50199146322E+02  0.51100000000E-03 0. -1.
         23    2    1    0    0    0 -0.33490753563E+02  0.18489263111E+02  0.13899799369E+02  0.84297569518E+02  0.73819999862E+02 0.  0.
         11    1    3    3    0    0 -0.21675306728E+02 -0.14799241930E+02 -0.21768462986E+02  0.34098423196E+02  0.51100000000E-03 0.  1.
         22    1    1    0    0    0  0.33490753563E+02 -0.18489263111E+02 -0.13899799369E+02  0.40702430482E+02  0.00000000000E+00 0. -1.
</event>
<event>
 5    1  0.1102386E-009  0.9118800E+02  0.7818608E-02  0.1130116E+00
         25   -1    0    0    0    0  0.00000000000E+00  0.00000000000E+00  0.99999998245E-14  0.12500000000E+03  0.12500000000E+03 0.  0.
        -11    1    3    3    0    0 -0.25999371309E+02  0.31133836641E+02 -0.50194806128E+00  0.40565194990E+02  0.51100000000E-03 0.  1.
         23    2    1    0    0    0  0.25034291498E+02  0.95519822067E+01 -0.92346310672E+01  0.96658607553E+02  0.92410236924E+02 0.  0.
         11    1    3    3    0    0  0.51033662807E+02 -0.21581854434E+02 -0.87326830059E+01  0.56093412564E+02  0.51100000000E-03 0. -1.
         22    1    1    0    0    0 -0.25034291498E+02 -0.95519822067E+01  0.92346310672E+01  0.28341392447E+02  0.00000000000E+00 0. -1.
</event>
<event>
 5    1  0.1102386E-009  0.9118800E+02  0.7818608E-02  0.1130116E+00
         25   -1    0    0    0    0  0.00000000000E+00  0.00000000000E+00  0.99999998245E-14  0.12500000000E+03  0.12500000000E+03 0.  0.
        -11    1    3    3    0    0  0.34248604482E+02  0.92402638865E+01 -0.36909625930E+01  0.35664724740E+02  0.51100000000E-03 0.  1.
         23    2    1    0    0    0 -0.13762533108E+02 -0.21155833514E+02  0.15189290351E+02  0.95543402257E+02  0.90889221387E+02 0.  0.
         11    1    3    3    0    0 -0.48011137589E+02 -0.30396097400E+02  0.18880252944E+02  0.59878677518E+02  0.51100000000E-03 0. -1.
         22    1    1    0    0    0  0.13762533108E+02  0.21155833514E+02 -0.15189290351E+02  0.29456597743E+02  0.00000000000E+00 0. -1.
</event>
<event>
 5    1  0.1102386E-009  0.9118800E+02  0.7818608E-02  0.1130116E+00
         25   -1    0    0    0    0  0.00000000000E+00  0.00000000000E+00  0.99999998245E-14  0.12500000000E+03  0.12500000000E+03 0.  0.
        -11    1    3    3    0    0  0.20643055429E+02 -0.11086137859E+02  0.23458076807E+02  0.33155988264E+02  0.51100000000E-03 0. -1.
         23    2    1    0    0    0 -0.28886060391E+02  0.10840633471E+02 -0.40081995587E+01  0.93887470648E+02  0.88582547164E+02 0.  0.
         11    1    3    3    0    0 -0.49529115820E+02  0.21926771330E+02 -0.27466276365E+02  0.60731482384E+02  0.51100000000E-03 0.  1.
         22    1    1    0    0    0  0.28886060391E+02 -0.10840633471E+02  0.40081995587E+01  0.31112529352E+02  0.00000000000E+00 0.  1.
</event>
<event>
 5    1  0.1102386E-009  0.9118800E+02  0.7818608E-02  0.1130116E+00
         25   -1    0    0    0    0  0.00000000000E+00  0.00000000000E+00  0.99999998245E-14  0.12500000000E+03  0.12500000000E+03 0.  0.
        -11    1    3    3    0    0 -0.46622239260E+02 -0.19324787389E+02  0.24516504714E+02  0.56108284637E+02  0.51100000000E-03 0. -1.
         23    2    1    0    0    0 -0.22185179323E+02  0.10331130012E+02  0.16835786635E+02  0.95295486193E+02  0.90547620334E+02 0.  0.
         11    1    3    3    0    0  0.24437059938E+02  0.29655917401E+02 -0.76807180789E+01  0.39187201556E+02  0.51100000000E-03 0.  1.
         22    1    1    0    0    0  0.22185179323E+02 -0.10331130012E+02 -0.16835786635E+02  0.29704513807E+02  0.00000000000E+00 0. -1.
</event>
<event>
 5    1  0.1102386E-009  0.9118800E+02  0.7818608E-02  0.1130116E+00
         25   -1    0    0    0    0  0.00000000000E+00  0.00000000000E+00  0.99999998245E-14  0.12500000000E+03  0.12500000000E+03 0.  0.
        -11    1    3    3    0    0 -0.28410062780E+02 -0.44417981136E+02  0.11573030067E+02  0.53981698200E+02  0.51100000000E-03 0. -1.
         23    2    1    0    0    0 -0.53375871504E+01 -0.13461193101E+02  0.26033659361E+02  0.95209985297E+02  0.90429510251E+02 0.  0.
         11    1    3    3    0    0  0.23072475630E+02  0.30956788035E+02  0.14460629294E+02  0.41228287097E+02  0.51100000000E-03 0.  1.
         22    1    1    0    0    0  0.53375871504E+01  0.13461193101E+02 -0.26033659361E+02  0.29790014703E+02  0.00000000000E+00 0. -1.
</event>
<event>
 5    1  0.1102386E-009  0.9118800E+02  0.7818608E-02  0.1130116E+00
         25   -1    0    0    0    0  0.00000000000E+00  0.00000000000E+00  0.99999998245E-14  0.12500000000E+03  0.12500000000E+03 0.  0.
        -11    1    3    3    0    0 -0.40760489055E+02 -0.12095789336E+02 -0.39972089420E+02  0.58356606485E+02  0.51100000000E-03 0. -1.
         23    2    1    0    0    0 -0.53641001844E+01  0.42233610610E+01 -0.23248096054E+02  0.10077017706E+03  0.97813824512E+02 0.  0.
         11    1    3    3    0    0  0.35396388870E+02  0.16319150398E+02  0.16723993366E+02  0.42413570577E+02  0.51100000000E-03 0.  1.
         22    1    1    0    0    0  0.53641001844E+01 -0.42233610610E+01  0.23248096054E+02  0.24229822937E+02  0.00000000000E+00 0. -1.
</event>
<event>
 5    1  0.1102386E-009  0.9118800E+02  0.7818608E-02  0.1130116E+00
         25   -1    0    0    0    0  0.00000000000E+00  0.00000000000E+00  0.99999998245E-14  0.12500000000E+03  0.12500000000E+03 0.  0.
        -11    1    3    3    0    0  0.43375144511E+02  0.86707116850E+01 -0.18144131300E+02  0.47809977028E+02  0.51100000000E-03 0.  1.
         23    2    1    0    0    0  0.62131000586E+01 -0.23131267895E+02 -0.14819531532E+02  0.96834832122E+02  0.92648302902E+02 0.  0.
         11    1    3    3    0    0 -0.37162044453E+02 -0.31801979580E+02  0.33245997689E+01  0.49024855094E+02  0.51100000000E-03 0. -1.
         22    1    1    0    0    0 -0.62131000586E+01  0.23131267895E+02  0.14819531532E+02  0.28165167878E+02  0.00000000000E+00 0.  1.
</event>
<event>
 5    1  0.1102386E-009  0.9118800E+02  0.7818608E-02  0.1130116E+00
         25   -1    0    0    0    0  0.00000000000E+00  0.00000000000E+00  0.99999998245E-14  0.12500000000E+03  0.12500000000E+03 0.  0.
        -11    1    3    3    0    0 -0.12606869048E+02  0.29935104003E+02  0.19280628624E+02  0.37772824084E+02  0.51100000000E-03 0. -1.
         23    2    1    0    0    0  0.24449945489E+02 -0.80427674627E+01 -0.87897257829E+01  0.97801742294E+02  0.93943789436E+02 0.  0.
         11    1    3    3    0    0  0.37056814538E+02 -0.37977871466E+02 -0.28070354407E+02  0.60028918210E+02  0.51100000000E-03 0.  1.
         22    1    1    0    0    0 -0.24449945489E+02  0.80427674627E+01  0.87897257829E+01  0.27198257706E+02  0.00000000000E+00 0.  1.
</event>
<event>
 5    1  0.1102386E-009  0.9118800E+02  0.7818608E-02  0.1130116E+00
         25   -1    0    0    0    0  0.00000000000E+00  0.00000000000E+00  0.99999998245E-14  0.12500000000E+03  0.12500000000E+03 0.  0.
        -11    1    3    3    0    0  0.76001937032E+01 -0.23392263890E+02 -0.47371758806E+02  0.53376441310E+02  0.51100000000E-03 0. -1.
         23    2    1    0    0    0 -0.31823193235E+01 -0.28192729178E+02 -0.65340631259E+01  0.95885551427E+02  0.91358567505E+02 0.  0.
         11    1    3    3    0    0 -0.10782513027E+02 -0.48004652879E+01  0.40837695680E+02  0.42509110117E+02  0.51100000000E-03 0.  1.
         22    1    1    0    0    0  0.31823193235E+01  0.28192729178E+02  0.65340631259E+01  0.29114448573E+02  0.00000000000E+00 0. -1.
</event>
<event>
 5    1  0.1102386E-009  0.9118800E+02  0.7818608E-02  0.1130116E+00
         25   -1    0    0    0    0  0.00000000000E+00  0.00000000000E+00  0.99999998245E-14  0.12500000000E+03  0.12500000000E+03 0.  0.
        -11    1    3    3    0    0  0.63701911767E+01  0.17729568153E+02  0.30699602178E+02  0.36019196224E+02  0.51100000000E-03 0. -1.
         23    2    1    0    0    0  0.76034942083E+01 -0.30611539583E+02 -0.29566448115E+00  0.93456904126E+02  0.87972870998E+02 0.  0.
         11    1    3    3    0    0  0.12333030316E+01 -0.48341107736E+02 -0.30995266659E+02  0.57437707902E+02  0.51100000000E-03 0.  1.
         22    1    1    0    0    0 -0.76034942083E+01  0.30611539583E+02  0.29566448115E+00  0.31543095874E+02  0.00000000000E+00 0.  1.
</event>
<event>
 5    1  0.1102386E-009  0.9118800E+02  0.7818608E-02  0.1130116E+00
         25   -1    0    0    0    0  0.00000000000E+00  0.00000000000E+00  0.99999998245E-14  0.12500000000E+03  0.12500000000E+03 0.  0.
        -11    1    3    3    0    0  0.28702313654E+02 -0.37218915097E+02 -0.47823353345E+01  0.47243424745E+02  0.51100000000E-03 0.  1.
         23    2    1    0    0    0  0.16805938706E+02  0.79871663120E+01  0.17881783488E+02  0.99193167916E+02  0.95777304092E+02 0.  0.
         11    1    3    3    0    0 -0.11896374948E+02  0.45206081409E+02  0.22664118823E+02  0.51949743171E+02  0.51100000000E-03 0. -1.
         22    1    1    0    0    0 -0.16805938706E+02 -0.79871663120E+01 -0.17881783488E+02  0.25806832084E+02  0.00000000000E+00 0.  1.
</event>
<event>
 5    1  0.1102386E-009  0.9118800E+02  0.7818608E-02  0.1130116E+00
         25   -1    0    0    0    0  0.00000000000E+00  0.00000000000E+00  0.99999998245E-14  0.12500000000E+03  0.12500000000E+03 0.  0.
        -11    1    3    3    0    0  0.38650226382E+01 -0.19704581315E+02 -0.56552086972E+02  0.60011227832E+02  0.51100000000E-03 0. -1.
         23    2    1    0    0    0  0.39098053536E+01  0.27322658244E+01 -0.29314176350E+02  0.95300289740E+02  0.90554251336E+02 0.  0.
         11    1    3    3    0    0  0.44782715356E-01  0.22436847140E+02  0.27237910622E+02  0.35289061908E+02  0.51100000000E-03 0.  1.
         22    1    1    0    0    0 -0.39098053536E+01 -0.27322658244E+01  0.29314176350E+02  0.29699710260E+02  0.00000000000E+00 0. -1.
</event>
<event>
 5    1  0.1102386E-009  0.9118800E+02  0.7818608E-02  0.1130116E+00
         25   -1    0    0    0    0  0.00000000000E+00  0.00000000000E+00  0.99999998245E-14  0.12500000000E+03  0.12500000000E+03 0.  0.
        -11    1    3    3    0    0  0.35293799764E+02  0.10229345660E+01  0.27877331367E+01  0.35418500154E+02  0.51100000000E-03 0.  1.
         23    2    1    0    0    0 -0.21842847888E+02 -0.57851115365E+01 -0.17488036493E+02  0.96427129306E+02  0.92096592371E+02 0.  0.
         11    1    3    3    0    0 -0.57136647651E+02 -0.68080461025E+01 -0.20275769630E+02  0.61008629151E+02  0.51100000000E-03 0. -1.
         22    1    1    0    0    0  0.21842847888E+02  0.57851115365E+01  0.17488036493E+02  0.28572870694E+02  0.00000000000E+00 0. -1.
</event>
<event>
 5    1  0.1102386E-009  0.9118800E+02  0.7818608E-02  0.1130116E+00
         25   -1    0    0    0    0  0.00000000000E+00  0.00000000000E+00  0.99999998245E-14  0.12500000000E+03  0.12500000000E+03 0.  0.
        -11    1    3    3    0    0  0.22329783602E+02 -0.34187053095E+02 -0.22126246919E+02  0.46442918061E+02  0.51100000000E-03 0. -1.
         23    2    1    0    0    0  0.62731673558E+01  0.10665751866E+02 -0.27945844910E+02  0.94437258970E+02  0.89354992823E+02 0.  0.
         11    1    3    3    0    0 -0.16056616246E+02  0.44852804961E+02 -0.58195979915E+01  0.47994340908E+02  0.51100000000E-03 0.  1.
         22    1    1    0    0    0 -0.62731673558E+01 -0.10665751866E+02  0.27945844910E+02  0.30562741030E+02  0.00000000000E+00 0. -1.
</event>
<event>
 5    1  0.1102386E-009  0.9118800E+02  0.7818608E-02  0.1130116E+00
         25   -1    0    0    0    0  0.00000000000E+00  0.00000000000E+00  0.99999998245E-14  0.12500000000E+03  0.12500000000E+03 0.  0.
        -11    1    3    3    0    0 -0.42069637667E+02  0.30283484793E+02  0.25927384620E+00  0.51836387681E+02  0.51100000000E-03 0. -1.
         23    2    1    0    0    0 -0.25791127852E+02 -0.85705284070E+01  0.11581016167E+02  0.95457553105E+02  0.90771076210E+02 0.  0.
         11    1    3    3    0    0  0.16278509815E+02 -0.38854013200E+02  0.11321742321E+02  0.43621165424E+02  0.51100000000E-03 0.  1.
         22    1    1    0    0    0  0.25791127852E+02  0.85705284070E+01 -0.11581016167E+02  0.29542446895E+02  0.00000000000E+00 0. -1.
</event>
<event>
 5    1  0.1102386E-009  0.9118800E+02  0.7818608E-02  0.1130116E+00
         25   -1    0    0    0    0  0.00000000000E+00  0.00000000000E+00  0.99999998245E-14  0.12500000000E+03  0.12500000000E+03 0.  0.
        -11    1    3    3    0    0 -0.15853578686E+02  0.24303868162E+02 -0.35894480070E+02  0.46156556030E+02  0.51100000000E-03 0. -1.
         23    2    1    0    0    0  0.21639336833E+02  0.20105986098E+02 -0.47414445135E+01  0.95083568534E+02  0.90254596191E+02 0.  0.
         11    1    3    3    0    0  0.37492915519E+02 -0.41978820633E+01  0.31153035557E+02  0.48927012504E+02  0.51100000000E-03 0.  1.
         22    1    1    0    0    0 -0.21639336833E+02 -0.20105986098E+02  0.47414445135E+01  0.29916431466E+02  0.00000000000E+00 0. -1.
</event>
<event>
 5    1  0.1102386E-009  0.9118800E+02  0.7818608E-02  0.1130116E+00
         25   -1    0    0    0    0  0.00000000000E+00  0.00000000000E+00  0.99999998245E-14  0.12500000000E+03  0.12500000000E+03 0.  0.
        -11    1    3    3    0    0 -0.11794506720E+01  0.57776244036E+01 -0.36584859681E+02  0.37057037196E+02  0.51100000000E-03 0.  1.
         23    2    1    0    0    0 -0.12534730502E+02 -0.25453423083E+02  0.10550786398E+02  0.94729299495E+02  0.89762602869E+02 0.  0.
         11    1    3    3    0    0 -0.11355279830E+02 -0.31231047487E+02  0.47135646079E+02  0.57672262299E+02  0.51100000000E-03 0. -1.
         22    1    1    0    0    0  0.12534730502E+02  0.25453423083E+02 -0.10550786398E+02  0.30270700505E+02  0.00000000000E+00 0. -1.
</event>
<event>
 5    1  0.1102386E-009  0.9118800E+02  0.7818608E-02  0.1130116E+00
         25   -1    0    0    0    0  0.00000000000E+00  0.00000000000E+00  0.99999998245E-14  0.12500000000E+03  0.12500000000E+03 0.  0.
        -11    1    3    3    0    0  0.22320560057E+02  0.26840392820E+02  0.17425741970E+02  0.39016285977E+02  0.51100000000E-03 0. -1.
         23    2    1    0    0    0  0.98585796088E+01 -0.67850858282E+01 -0.26619578769E+02  0.95813856790E+02  0.91260419666E+02 0.  0.
         11    1    3    3    0    0 -0.12461980448E+02 -0.33625478648E+02 -0.44045320740E+02  0.56797570813E+02  0.51100000000E-03 0.  1.
         22    1    1    0    0    0 -0.98585796088E+01  0.67850858282E+01  0.26619578769E+02  0.29186143210E+02  0.00000000000E+00 0.  1.
</event>
<event>
 5    1  0.1102386E-009  0.9118800E+02  0.7818608E-02  0.1130116E+00
         25   -1    0    0    0    0  0.00000000000E+00  0.00000000000E+00  0.99999998245E-14  0.12500000000E+03  0.12500000000E+03 0.  0.
        -11    1    3    3    0    0 -0.21552572815E+02 -0.14925607450E+02 -0.24219324264E+02  0.35691214896E+02  0.51100000000E-03 0.  1.
         23    2    1    0    0    0  0.10220001625E+02  0.27940703390E+02  0.20766250260E+01  0.95176457107E+02  0.90383152616E+02 0.  0.
         11    1    3    3    0    0  0.31772574440E+02  0.42866310840E+02  0.26295949290E+02  0.59485242211E+02  0.51100000000E-03 0. -1.
         22    1    1    0    0    0 -0.10220001625E+02 -0.27940703390E+02 -0.20766250260E+01  0.29823542893E+02  0.00000000000E+00 0. -1.
</event>
<event>
 5    1  0.1102386E-009  0.9118800E+02  0.7818608E-02  0.1130116E+00
         25   -1    0    0    0    0  0.00000000000E+00  0.00000000000E+00  0.99999998245E-14  0.12500000000E+03  0.12500000000E+03 0.  0.
        -11    1    3    3    0    0  0.64550870050E+01  0.44374394028E+02  0.26102541160E+02  0.51885428097E+02  0.51100000000E-03 0.  1.
         23    2    1    0    0    0 -0.17938668011E+01  0.27845228569E+02 -0.12304734266E+02  0.94504406916E+02  0.89448877741E+02 0.  0.
         11    1    3    3    0    0 -0.82489538062E+01 -0.16529165459E+02 -0.38407275426E+02  0.42618978819E+02  0.51100000000E-03 0. -1.
         22    1    1    0    0    0  0.17938668011E+01 -0.27845228569E+02  0.12304734266E+02  0.30495593084E+02  0.00000000000E+00 0. -1.
</event>
<event>
 5    1  0.1102386E-009  0.9118800E+02  0.7818608E-02  0.1130116E+00
         25   -1    0    0    0    0  0.00000000000E+00  0.00000000000E+00  0.99999998245E-14  0.12500000000E+03  0.12500000000E+03 0.  0.
        -11    1    3    3    0    0 -0.49044654301E+02  0.12094475232E+02  0.31454002606E+02  0.59506375514E+02  0.51100000000E-03 0.  1.
         23    2    1    0    0    0 -0.28202397195E+02 -0.10398445091E+01  0.38301464416E+01  0.96519717243E+02  0.92222173639E+02 0.  0.
         11    1    3    3    0    0  0.20842257105E+02 -0.13134319741E+02 -0.27623856164E+02  0.37013341729E+02  0.51100000000E-03 0. -1.
         22    1    1    0    0    0  0.28202397195E+02  0.10398445091E+01 -0.38301464416E+01  0.28480282757E+02  0.00000000000E+00 0.  1.
</event>
<event>
 5    1  0.1102386E-009  0.9118800E+02  0.7818608E-02  0.1130116E+00
         25   -1    0    0    0    0  0.00000000000E+00  0.00000000000E+00  0.99999998245E-14  0.12500000000E+03  0.12500000000E+03 0.  0.
        -11    1    3    3    0    0  0.37833611402E+02 -0.32868230816E+02 -0.36706409937E+02  0.62121359285E+02  0.51100000000E-03 0.  1.
         23    2    1    0    0    0  0.25787772956E+02 -0.19668849225E+02 -0.18364542814E+02  0.87728975106E+02  0.79418157725E+02 0.  0.
         11    1    3    3    0    0 -0.12045838446E+02  0.13199381591E+02  0.18341867122E+02  0.25607615821E+02  0.51100000000E-03 0. -1.
         22    1    1    0    0    0 -0.25787772956E+02  0.19668849225E+02  0.18364542814E+02  0.37271024894E+02  0.00000000000E+00 0.  1.
</event>
<event>
 5    1  0.1102386E-009  0.9118800E+02  0.7818608E-02  0.1130116E+00
         25   -1    0    0    0    0  0.00000000000E+00  0.00000000000E+00  0.99999998245E-14  0.12500000000E+03  0.12500000000E+03 0.  0.
        -11    1    3    3    0    0  0.33527377063E+02  0.16780781321E+02 -0.45554379249E+02  0.58998992394E+02  0.51100000000E-03 0. -1.
         23    2    1    0    0    0  0.23923117398E+02 -0.34753680996E+01 -0.16348263219E+02  0.95816795246E+02  0.91264444399E+02 0.  0.
         11    1    3    3    0    0 -0.96042596656E+01 -0.20256149420E+02  0.29206116030E+02  0.36817802852E+02  0.51100000000E-03 0.  1.
         22    1    1    0    0    0 -0.23923117398E+02  0.34753680996E+01  0.16348263219E+02  0.29183204754E+02  0.00000000000E+00 0. -1.
</event>
<event>
 5    1  0.1102386E-009  0.9118800E+02  0.7818608E-02  0.1130116E+00
         25   -1    0    0    0    0  0.00000000000E+00  0.00000000000E+00  0.99999998245E-14  0.12500000000E+03  0.12500000000E+03 0.  0.
        -11    1    3    3    0    0  0.14366453744E+02  0.45145398171E+02  0.38878661868E+02  0.61286640616E+02  0.51100000000E-03 0.  1.
         23    2    1    0    0    0  0.37894249850E+01  0.21260015329E+02  0.28136331444E+02  0.89531688219E+02  0.82206581578E+02 0.  0.
         11    1    3    3    0    0 -0.10577028759E+02 -0.23885382842E+02 -0.10742330424E+02  0.28245047602E+02  0.51100000000E-03 0. -1.
         22    1    1    0    0    0 -0.37894249850E+01 -0.21260015329E+02 -0.28136331444E+02  0.35468311781E+02  0.00000000000E+00 0.  1.
</event>
<event>
 5    1  0.1102386E-009  0.9118800E+02  0.7818608E-02  0.1130116E+00
         25   -1    0    0    0    0  0.00000000000E+00  0.00000000000E+00  0.99999998245E-14  0.12500000000E+03  0.12500000000E+03 0.  0.
        -11    1    3    3    0    0  0.32112648240E+02 -0.15261392830E+02  0.21120482621E+02  0.41354649974E+02  0.51100000000E-03 0. -1.
         23    2    1    0    0    0 -0.98609395017E+01  0.14380245028E+02  0.26773165012E+02  0.93049539288E+02  0.87392132495E+02 0.  0.
         11    1    3    3    0    0 -0.41973587741E+02  0.29641637857E+02  0.56526823914E+01  0.51694889315E+02  0.51100000000E-03 0.  1.
         22    1    1    0    0    0  0.98609395017E+01 -0.14380245028E+02 -0.26773165012E+02  0.31950460712E+02  0.00000000000E+00 0.  1.
</event>
<event>
 5    1  0.1102386E-009  0.9118800E+02  0.7818608E-02  0.1130116E+00
         25   -1    0    0    0    0  0.00000000000E+00  0.00000000000E+00  0.99999998245E-14  0.12500000000E+03  0.12500000000E+03 0.  0.
        -11    1    3    3    0    0 -0.15587651159E+02  0.37924849794E+02  0.32730711120E+02  0.52464926868E+02  0.51100000000E-03 0.  1.
         23    2    1    0    0    0 -0.26676018210E+02  0.96059366888E+01  0.69310971250E+00  0.96638681831E+02  0.92383280185E+02 0.  0.
         11    1    3    3    0    0 -0.11088367051E+02 -0.28318913105E+02 -0.32037601408E+02  0.44173754963E+02  0.51100000000E-03 0. -1.
         22    1    1    0    0    0  0.26676018210E+02 -0.96059366888E+01 -0.69310971250E+00  0.28361318169E+02  0.00000000000E+00 0.  1.
</event>
<event>
 5    1  0.1102386E-009  0.9118800E+02  0.7818608E-02  0.1130116E+00
         25   -1    0    0    0    0  0.00000000000E+00  0.00000000000E+00  0.99999998245E-14  0.12500000000E+03  0.12500000000E+03 0.  0.
        -11    1    3    3    0    0  0.42430178343E+02 -0.27365160748E+02  0.19980581280E+02  0.54299131536E+02  0.51100000000E-03 0. -1.
         23    2    1    0    0    0  0.85913701886E+01 -0.27820347258E+02 -0.37652491170E+01  0.95640836793E+02  0.91023124525E+02 0.  0.
         11    1    3    3    0    0 -0.33838808155E+02 -0.45518651038E+00 -0.23745830397E+02  0.41341705257E+02  0.51100000000E-03 0.  1.
         22    1    1    0    0    0 -0.85913701886E+01  0.27820347258E+02  0.37652491170E+01  0.29359163207E+02  0.00000000000E+00 0. -1.
</event>
<event>
 5    1  0.1102386E-009  0.9118800E+02  0.7818608E-02  0.1130116E+00
         25   -1    0    0    0    0  0.00000000000E+00  0.00000000000E+00  0.99999998245E-14  0.12500000000E+03  0.12500000000E+03 0.  0.
        -11    1    3    3    0    0  0.12950736775E+02  0.31750128662E+02  0.54235482854E+01  0.34716093233E+02  0.51100000000E-03 0. -1.
         23    2    1    0    0    0 -0.21436476639E+02 -0.18179174020E+02 -0.56138087192E+01  0.96337834222E+02  0.91975314925E+02 0.  0.
         11    1    3    3    0    0 -0.34387213414E+02 -0.49929302682E+02 -0.11037357005E+02  0.61621740990E+02  0.51100000000E-03 0.  1.
         22    1    1    0    0    0  0.21436476639E+02  0.18179174020E+02  0.56138087192E+01  0.28662165778E+02  0.00000000000E+00 0.  1.
</event>
<event>
 5    1  0.1102386E-009  0.9118800E+02  0.7818608E-02  0.1130116E+00
         25   -1    0    0    0    0  0.00000000000E+00  0.00000000000E+00  0.99999998245E-14  0.12500000000E+03  0.12500000000E+03 0.  0.
        -11    1    3    3    0    0  0.36367514661E+02  0.38277204697E+02 -0.29833348921E+02  0.60644614189E+02  0.51100000000E-03 0.  1.
         23    2    1    0    0    0  0.20675731267E+02  0.28358221333E+02 -0.29406397955E+02  0.79213420948E+02  0.64640198305E+02 0.  0.
         11    1    3    3    0    0 -0.15691783394E+02 -0.99189833637E+01  0.42695096608E+00  0.18568806759E+02  0.51100000000E-03 0. -1.
         22    1    1    0    0    0 -0.20675731267E+02 -0.28358221333E+02  0.29406397955E+02  0.45786579052E+02  0.00000000000E+00 0.  1.
</event>
<event>
 5    1  0.1102386E-009  0.9118800E+02  0.7818608E-02  0.1130116E+00
         25   -1    0    0    0    0  0.00000000000E+00  0.00000000000E+00  0.99999998245E-14  0.12500000000E+03  0.12500000000E+03 0.  0.
        -11    1    3    3    0    0 -0.11861775161E+02  0.78761822764E+01 -0.33726013414E+02  0.36608468123E+02  0.51100000000E-03 0.  1.
         23    2    1    0    0    0 -0.65328820808E+00  0.15046488637E+02  0.24448352210E+02  0.96285099137E+02  0.91903616818E+02 0.  0.
         11    1    3    3    0    0  0.11208486953E+02  0.71703063611E+01  0.58174365624E+02  0.59676631014E+02  0.51100000000E-03 0. -1.
         22    1    1    0    0    0  0.65328820808E+00 -0.15046488637E+02 -0.24448352210E+02  0.28714900863E+02  0.00000000000E+00 0. -1.
</event>
<event>
 5    1  0.1102386E-009  0.9118800E+02  0.7818608E-02  0.1130116E+00
         25   -1    0    0    0    0  0.00000000000E+00  0.00000000000E+00  0.99999998245E-14  0.12500000000E+03  0.12500000000E+03 0.  0.
        -11    1    3    3    0    0  0.94140390426E+01  0.28377771143E+02  0.38889337780E+02  0.49054078519E+02  0.51100000000E-03 0.  1.
         23    2    1    0    0    0 -0.11070158931E+02  0.27317987063E+02 -0.26740399671E+01  0.95403187237E+02  0.90696178582E+02 0.  0.
         11    1    3    3    0    0 -0.20484197974E+02 -0.10597840797E+01 -0.41563377747E+02  0.46349108718E+02  0.51100000000E-03 0. -1.
         22    1    1    0    0    0  0.11070158931E+02 -0.27317987063E+02  0.26740399671E+01  0.29596812763E+02  0.00000000000E+00 0. -1.
</event>
<event>
 5    1  0.1102386E-009  0.9118800E+02  0.7818608E-02  0.1130116E+00
         25   -1    0    0    0    0  0.00000000000E+00  0.00000000000E+00  0.99999998245E-14  0.12500000000E+03  0.12500000000E+03 0.  0.
        -11    1    3    3    0    0  0.19844733976E+02  0.21705258810E+01 -0.31593436018E+02  0.37372046356E+02  0.51100000000E-03 0. -1.
         23    2    1    0    0    0 -0.19021714915E+02 -0.26298712282E+02 -0.57697518563E+01  0.92034291416E+02  0.85927718775E+02 0.  0.
         11    1    3    3    0    0 -0.38866448891E+02 -0.28469238163E+02  0.25823684162E+02  0.54662245059E+02  0.51100000000E-03 0.  1.
         22    1    1    0    0    0  0.19021714915E+02  0.26298712282E+02  0.57697518563E+01  0.32965708584E+02  0.00000000000E+00 0. -1.
</event>
<event>
 5    1  0.1102386E-009  0.9118800E+02  0.7818608E-02  0.1130116E+00
         25   -1    0    0    0    0  0.00000000000E+00  0.00000000000E+00  0.99999998245E-14  0.12500000000E+03  0.12500000000E+03 0.  0.
        -11    1    3    3    0    0 -0.10220792271E+02 -0.29999305093E+02  0.27355349656E+02  0.41865714562E+02  0.51100000000E-03 0.  1.
         23    2    1    0    0    0  0.20999361596E+02 -0.78379328896E+01 -0.14276012384E+02  0.98425370952E+02  0.94769946386E+02 0.  0.
         11    1    3    3    0    0  0.31220153868E+02  0.22161372203E+02 -0.41631362040E+02  0.56559656391E+02  0.51100000000E-03 0. -1.
         22    1    1    0    0    0 -0.20999361596E+02  0.78379328896E+01  0.14276012384E+02  0.26574629048E+02  0.00000000000E+00 0. -1.
</event>
<event>
 5    1  0.1102386E-009  0.9118800E+02  0.7818608E-02  0.1130116E+00
         25   -1    0    0    0    0  0.00000000000E+00  0.00000000000E+00  0.99999998245E-14  0.12500000000E+03  0.12500000000E+03 0.  0.
        -11    1    3    3    0    0  0.94529359224E+01 -0.59861552797E+01  0.32172488003E+02  0.34062604673E+02  0.51100000000E-03 0.  1.
         23    2    1    0    0    0 -0.69377534290E+01 -0.10922196190E+02 -0.26676703429E+02  0.95350829723E+02  0.90623989268E+02 0.  0.
         11    1    3    3    0    0 -0.16390689351E+02 -0.49360409101E+01 -0.58849191432E+02  0.61288225050E+02  0.51100000000E-03 0. -1.
         22    1    1    0    0    0  0.69377534290E+01  0.10922196190E+02  0.26676703429E+02  0.29649170277E+02  0.00000000000E+00 0. -1.
</event>
<event>
 5    1  0.1102386E-009  0.9118800E+02  0.7818608E-02  0.1130116E+00
         25   -1    0    0    0    0  0.00000000000E+00  0.00000000000E+00  0.99999998245E-14  0.12500000000E+03  0.12500000000E+03 0.  0.
        -11    1    3    3    0    0 -0.49468169316E+01  0.25341977836E+02 -0.48026126682E+02  0.54527017915E+02  0.51100000000E-03 0. -1.
         23    2    1    0    0    0  0.44552020957E+00  0.24016461982E+02 -0.19896835810E+01  0.10089714176E+03  0.97975943175E+02 0.  0.
         11    1    3    3    0    0  0.53923371412E+01 -0.13255158542E+01  0.46036443101E+02  0.46370123849E+02  0.51100000000E-03 0.  1.
         22    1    1    0    0    0 -0.44552020957E+00 -0.24016461982E+02  0.19896835810E+01  0.24102858236E+02  0.00000000000E+00 0. -1.
</event>
<event>
 5    1  0.1102386E-009  0.9118800E+02  0.7818608E-02  0.1130116E+00
         25   -1    0    0    0    0  0.00000000000E+00  0.00000000000E+00  0.99999998245E-14  0.12500000000E+03  0.12500000000E+03 0.  0.
        -11    1    3    3    0    0  0.26607622007E+02 -0.10101626486E+02  0.22733445262E+02  0.36425512217E+02  0.51100000000E-03 0.  1.
         23    2    1    0    0    0 -0.11847577247E+02  0.28620988553E+02  0.66699653868E+01  0.93313811990E+02  0.87769316948E+02 0.  0.
         11    1    3    3    0    0 -0.38455199254E+02  0.38722615039E+02 -0.16063479876E+02  0.56888299773E+02  0.51100000000E-03 0. -1.
         22    1    1    0    0    0  0.11847577247E+02 -0.28620988553E+02 -0.66699653868E+01  0.31686188010E+02  0.00000000000E+00 0. -1.
</event>
<event>
 5    1  0.1102386E-009  0.9118800E+02  0.7818608E-02  0.1130116E+00
         25   -1    0    0    0    0  0.00000000000E+00  0.00000000000E+00  0.99999998245E-14  0.12500000000E+03  0.12500000000E+03 0.  0.
        -11    1    3    3    0    0  0.32073274136E+01 -0.42096907467E+02 -0.41922833914E+02  0.59497567774E+02  0.51100000000E-03 0. -1.
         23    2    1    0    0    0 -0.11510058244E+02 -0.21558978400E+02 -0.15482447599E+02  0.96069442209E+02  0.91609827815E+02 0.  0.
         11    1    3    3    0    0 -0.14717385657E+02  0.20537929066E+02  0.26440386315E+02  0.36571874435E+02  0.51100000000E-03 0.  1.
         22    1    1    0    0    0  0.11510058244E+02  0.21558978400E+02  0.15482447599E+02  0.28930557791E+02  0.00000000000E+00 0. -1.
</event>
<event>
 5    1  0.1102386E-009  0.9118800E+02  0.7818608E-02  0.1130116E+00
         25   -1    0    0    0    0  0.00000000000E+00  0.00000000000E+00  0.99999998245E-14  0.12500000000E+03  0.12500000000E+03 0.  0.
        -11    1    3    3    0    0 -0.24826214906E+02 -0.51870741200E+02  0.22660539971E+02  0.61809504215E+02  0.51100000000E-03 0. -1.
         23    2    1    0    0    0 -0.87548601245E+01 -0.21474566123E+02  0.15982539056E+02  0.96835374658E+02  0.92649034882E+02 0.  0.
         11    1    3    3    0    0  0.16071354782E+02  0.30396175077E+02 -0.66780009151E+01  0.35025870443E+02  0.51100000000E-03 0.  1.
         22    1    1    0    0    0  0.87548601245E+01  0.21474566123E+02 -0.15982539056E+02  0.28164625342E+02  0.00000000000E+00 0. -1.
</event>
<event>
 5    1  0.1102386E-009  0.9118800E+02  0.7818608E-02  0.1130116E+00
         25   -1    0    0    0    0  0.00000000000E+00  0.00000000000E+00  0.99999998245E-14  0.12500000000E+03  0.12500000000E+03 0.  0.
        -11    1    3    3    0    0  0.25172630948E+01  0.17556792926E+02  0.37945642757E+02  0.41886148019E+02  0.51100000000E-03 0.  1.
         23    2    1    0    0    0 -0.19362024751E+02 -0.20215700173E+02  0.50242220573E+01  0.96560496783E+02  0.92277430587E+02 0.  0.
         11    1    3    3    0    0 -0.21879287846E+02 -0.37772493099E+02 -0.32921420700E+02  0.54674348764E+02  0.51100000000E-03 0. -1.
         22    1    1    0    0    0  0.19362024751E+02  0.20215700173E+02 -0.50242220573E+01  0.28439503217E+02  0.00000000000E+00 0. -1.
</event>
<event>
 5    1  0.1102386E-009  0.9118800E+02  0.7818608E-02  0.1130116E+00
         25   -1    0    0    0    0  0.00000000000E+00  0.00000000000E+00  0.99999998245E-14  0.12500000000E+03  0.12500000000E+03 0.  0.
        -11    1    3    3    0    0  0.14122099940E+02  0.12362802414E+02  0.54782772194E+02  0.57908762029E+02  0.51100000000E-03 0.  1.
         23    2    1    0    0    0 -0.49215256858E+01  0.17956179600E+02  0.22616625906E+02  0.95705673446E+02  0.91112119729E+02 0.  0.
         11    1    3    3    0    0 -0.19043625626E+02  0.55933771858E+01 -0.32166146288E+02  0.37796911417E+02  0.51100000000E-03 0. -1.
         22    1    1    0    0    0  0.49215256858E+01 -0.17956179600E+02 -0.22616625906E+02  0.29294326554E+02  0.00000000000E+00 0.  1.
</event>
<event>
 5    1  0.1102386E-009  0.9118800E+02  0.7818608E-02  0.1130116E+00
         25   -1    0    0    0    0  0.00000000000E+00  0.00000000000E+00  0.99999998245E-14  0.12500000000E+03  0.12500000000E+03 0.  0.
        -11    1    3    3    0    0  0.69531246039E+01 -0.58830254626E+02  0.13663066581E+02  0.60794935561E+02  0.51100000000E-03 0. -1.
         23    2    1    0    0    0 -0.23790349709E+01 -0.26392775694E+02  0.14952526377E+02  0.94572767769E+02  0.89544357400E+02 0.  0.
         11    1    3    3    0    0 -0.93321595748E+01  0.32437478933E+02  0.12894597957E+01  0.33777832208E+02  0.51100000000E-03 0.  1.
         22    1    1    0    0    0  0.23790349709E+01  0.26392775694E+02 -0.14952526377E+02  0.30427232231E+02  0.00000000000E+00 0. -1.
</event>
<event>
 5    1  0.1102386E-009  0.9118800E+02  0.7818608E-02  0.1130116E+00
         25   -1    0    0    0    0  0.00000000000E+00  0.00000000000E+00  0.99999998245E-14  0.12500000000E+03  0.12500000000E+03 0.  0.
        -11    1    3    3    0    0  0.90790838080E+01  0.28558891149E+02  0.25807890233E+02  0.39548542641E+02  0.51100000000E-03 0. -1.
         23    2    1    0    0    0  0.23910233311E+02 -0.15457477420E+02 -0.60767656824E+01  0.95887117176E+02  0.91360709794E+02 0.  0.
         11    1    3    3    0    0  0.14831149503E+02 -0.44016368569E+02 -0.31884655915E+02  0.56338574535E+02  0.51100000000E-03 0.  1.
         22    1    1    0    0    0 -0.23910233311E+02  0.15457477420E+02  0.60767656824E+01  0.29112882824E+02  0.00000000000E+00 0.  1.
</event>
<event>
 5    1  0.1102386E-009  0.9118800E+02  0.7818608E-02  0.1130116E+00
         25   -1    0    0    0    0  0.00000000000E+00  0.00000000000E+00  0.99999998245E-14  0.12500000000E+03  0.12500000000E+03 0.  0.
        -11    1    3    3    0    0  0.57484606691E+02  0.54517155819E+01  0.15509468776E+02  0.59789169849E+02  0.51100000000E-03 0.  1.
         23    2    1    0    0    0  0.24934524984E+02  0.15004122757E+02  0.10411117181E+02  0.94092952311E+02  0.88872032034E+02 0.  0.
         11    1    3    3    0    0 -0.32550081708E+02  0.95524071749E+01 -0.50983515944E+01  0.34303782463E+02  0.51100000000E-03 0. -1.
         22    1    1    0    0    0 -0.24934524984E+02 -0.15004122757E+02 -0.10411117181E+02  0.30907047689E+02  0.00000000000E+00 0.  1.
</event>
<event>
 5    1  0.1102386E-009  0.9118800E+02  0.7818608E-02  0.1130116E+00
         25   -1    0    0    0    0  0.00000000000E+00  0.00000000000E+00  0.99999998245E-14  0.12500000000E+03  0.12500000000E+03 0.  0.
        -11    1    3    3    0    0  0.89038032087E+01 -0.55475262642E+02  0.18754455242E+02  0.59232694252E+02  0.51100000000E-03 0.  1.
         23    2    1    0    0    0 -0.23856449176E+01 -0.26705703571E+02 -0.43733001941E+01  0.97833629991E+02  0.93986209082E+02 0.  0.
         11    1    3    3    0    0 -0.11289448126E+02  0.28769559071E+02 -0.23127755436E+02  0.38600935738E+02  0.51100000000E-03 0. -1.
         22    1    1    0    0    0  0.23856449176E+01  0.26705703571E+02  0.43733001941E+01  0.27166370009E+02  0.00000000000E+00 0.  1.
</event>
<event>
 5    1  0.1102386E-009  0.9118800E+02  0.7818608E-02  0.1130116E+00
         25   -1    0    0    0    0  0.00000000000E+00  0.00000000000E+00  0.99999998245E-14  0.12500000000E+03  0.12500000000E+03 0.  0.
        -11    1    3    3    0    0  0.31015715728E+01 -0.19339643672E+02 -0.58004959663E+02  0.61222682965E+02  0.51100000000E-03 0.  1.
         23    2    1    0    0    0 -0.85227760389E+00 -0.16924296791E+02 -0.23554904213E+02  0.95982906564E+02  0.91491675256E+02 0.  0.
         11    1    3    3    0    0 -0.39538491767E+01  0.24153468807E+01  0.34450055451E+02  0.34760223600E+02  0.51100000000E-03 0. -1.
         22    1    1    0    0    0  0.85227760389E+00  0.16924296791E+02  0.23554904213E+02  0.29017093436E+02  0.00000000000E+00 0.  1.
</event>
<event>
 5    1  0.1102386E-009  0.9118800E+02  0.7818608E-02  0.1130116E+00
         25   -1    0    0    0    0  0.00000000000E+00  0.00000000000E+00  0.99999998245E-14  0.12500000000E+03  0.12500000000E+03 0.  0.
        -11    1    3    3    0    0  0.15026838475E+02  0.21175448948E+02  0.52282450037E+02  0.58375166765E+02  0.51100000000E-03 0.  1.
         23    2    1    0    0    0  0.11998066709E+02  0.22483070771E+02  0.15781179730E+02  0.95025215435E+02  0.90173742623E+02 0.  0.
         11    1    3    3    0    0 -0.30287717659E+01  0.13076218229E+01 -0.36501270307E+02  0.36650048670E+02  0.51100000000E-03 0. -1.
         22    1    1    0    0    0 -0.11998066709E+02 -0.22483070771E+02 -0.15781179730E+02  0.29974784565E+02  0.00000000000E+00 0. -1.
</event>
<event>
 5    1  0.1102386E-009  0.9118800E+02  0.7818608E-02  0.1130116E+00
         25   -1    0    0    0    0  0.00000000000E+00  0.00000000000E+00  0.99999998245E-14  0.12500000000E+03  0.12500000000E+03 0.  0.
        -11    1    3    3    0    0 -0.44316859074E+02 -0.13893127373E+02 -0.18763905401E+02  0.50090788899E+02  0.51100000000E-03 0. -1.
         23    2    1    0    0    0 -0.13112767537E+02  0.19641089077E+02 -0.16945494540E+02  0.95933406842E+02  0.91424021518E+02 0.  0.
         11    1    3    3    0    0  0.31204091537E+02  0.33534216450E+02  0.18184108615E+01  0.45842617943E+02  0.51100000000E-03 0.  1.
         22    1    1    0    0    0  0.13112767537E+02 -0.19641089077E+02  0.16945494540E+02  0.29066593158E+02  0.00000000000E+00 0. -1.
</event>
<event>
 5    1  0.1102386E-009  0.9118800E+02  0.7818608E-02  0.1130116E+00
         25   -1    0    0    0    0  0.00000000000E+00  0.00000000000E+00  0.99999998245E-14  0.12500000000E+03  0.12500000000E+03 0.  0.
        -11    1    3    3    0    0  0.29215351894E+01 -0.28928751713E+02  0.30196538521E+02  0.41919434424E+02  0.51100000000E-03 0. -1.
         23    2    1    0    0    0  0.16122664173E+02 -0.14692651823E+02 -0.19792111470E+02  0.95545934167E+02  0.90892703458E+02 0.  0.
         11    1    3    3    0    0  0.13201128984E+02  0.14236099891E+02 -0.49988649991E+02  0.53626499743E+02  0.51100000000E-03 0.  1.
         22    1    1    0    0    0 -0.16122664173E+02  0.14692651823E+02  0.19792111470E+02  0.29454065833E+02  0.00000000000E+00 0.  1.
</event>
<event>
 5    1  0.1102386E-009  0.9118800E+02  0.7818608E-02  0.1130116E+00
         25   -1    0    0    0    0  0.00000000000E+00  0.00000000000E+00  0.99999998245E-14  0.12500000000E+03  0.12500000000E+03 0.  0.
        -11    1    3    3    0    0  0.43150062297E+02  0.44530286705E+01  0.27180261060E+02  0.51191053243E+02  0.51100000000E-03 0. -1.
         23    2    1    0    0    0  0.75774217838E+01  0.24898028388E+02  0.30343277879E+01  0.98798162590E+02  0.95260383411E+02 0.  0.
         11    1    3    3    0    0 -0.35572640514E+02  0.20444999718E+02 -0.24145933272E+02  0.47607109347E+02  0.51100000000E-03 0.  1.
         22    1    1    0    0    0 -0.75774217838E+01 -0.24898028388E+02 -0.30343277879E+01  0.26201837410E+02  0.00000000000E+00 0.  1.
</event>
<event>
 5    1  0.1102386E-009  0.9118800E+02  0.7818608E-02  0.1130116E+00
         25   -1    0    0    0    0  0.00000000000E+00  0.00000000000E+00  0.99999998245E-14  0.12500000000E+03  0.12500000000E+03 0.  0.
        -11    1    3    3    0    0  0.20837687436E+02  0.19847261119E+02  0.46955738757E+02  0.55072355988E+02  0.51100000000E-03 0. -1.
         23    2    1    0    0    0  0.13984175298E+02  0.24836720819E+02  0.73645441814E+01  0.95560971980E+02  0.90913381825E+02 0.  0.
         11    1    3    3    0    0 -0.68535121380E+01  0.49894596996E+01 -0.39591194576E+02  0.40488615991E+02  0.51100000000E-03 0.  1.
         22    1    1    0    0    0 -0.13984175298E+02 -0.24836720819E+02 -0.73645441814E+01  0.29439028020E+02  0.00000000000E+00 0.  1.
</event>
<event>
 5    1  0.1102386E-009  0.9118800E+02  0.7818608E-02  0.1130116E+00
         25   -1    0    0    0    0  0.00000000000E+00  0.00000000000E+00  0.99999998245E-14  0.12500000000E+03  0.12500000000E+03 0.  0.
        -11    1    3    3    0    0 -0.48716400705E+02 -0.53421070309E+01  0.24213611197E+02  0.54663742761E+02  0.51100000000E-03 0. -1.
         23    2    1    0    0    0 -0.18182096035E+02 -0.21084196920E+02 -0.78123132687E+00  0.97147849304E+02  0.93069663834E+02 0.  0.
         11    1    3    3    0    0  0.30534304670E+02 -0.15742089889E+02 -0.24994842524E+02  0.42484106543E+02  0.51100000000E-03 0.  1.
         22    1    1    0    0    0  0.18182096035E+02  0.21084196920E+02  0.78123132687E+00  0.27852150696E+02  0.00000000000E+00 0. -1.
</event>
<event>
 5    1  0.1102386E-009  0.9118800E+02  0.7818608E-02  0.1130116E+00
         25   -1    0    0    0    0  0.00000000000E+00  0.00000000000E+00  0.99999998245E-14  0.12500000000E+03  0.12500000000E+03 0.  0.
        -11    1    3    3    0    0  0.40031014705E+01  0.46494875664E+01 -0.59530723494E+02  0.59846049126E+02  0.51100000000E-03 0.  1.
         23    2    1    0    0    0  0.73590489887E+01 -0.65245118189E+01 -0.47059190787E+02  0.76924098615E+02  0.60050184461E+02 0.  0.
         11    1    3    3    0    0  0.33559475182E+01 -0.11173999385E+02  0.12471532708E+02  0.17078049489E+02  0.51100000000E-03 0. -1.
         22    1    1    0    0    0 -0.73590489887E+01  0.65245118189E+01  0.47059190787E+02  0.48075901385E+02  0.00000000000E+00 0.  1.
</event>
<event>
 5    1  0.1102386E-009  0.9118800E+02  0.7818608E-02  0.1130116E+00
         25   -1    0    0    0    0  0.00000000000E+00  0.00000000000E+00  0.99999998245E-14  0.12500000000E+03  0.12500000000E+03 0.  0.
        -11    1    3    3    0    0  0.62418375472E+01  0.23526467161E+02 -0.28075662724E+02  0.37157745232E+02  0.51100000000E-03 0.  1.
         23    2    1    0    0    0 -0.24496543373E+02 -0.15738506910E+02  0.27042679603E+01  0.95758004477E+02  0.91183886291E+02 0.  0.
         11    1    3    3    0    0 -0.30738380920E+02 -0.39264974071E+02  0.30779930684E+02  0.58600259245E+02  0.51100000000E-03 0. -1.
         22    1    1    0    0    0  0.24496543373E+02  0.15738506910E+02 -0.27042679603E+01  0.29241995523E+02  0.00000000000E+00 0. -1.
</event>
<event>
 5    1  0.1102386E-009  0.9118800E+02  0.7818608E-02  0.1130116E+00
         25   -1    0    0    0    0  0.00000000000E+00  0.00000000000E+00  0.99999998245E-14  0.12500000000E+03  0.12500000000E+03 0.  0.
        -11    1    3    3    0    0  0.35154580601E+02 -0.26250732147E+02 -0.37944108953E+01  0.44037972589E+02  0.51100000000E-03 0.  1.
         23    2    1    0    0    0 -0.10368438133E+02 -0.12828331898E+02 -0.24211453418E+02  0.95703838388E+02  0.91109602112E+02 0.  0.
         11    1    3    3    0    0 -0.45523018733E+02  0.13422400249E+02 -0.20417042523E+02  0.51665865798E+02  0.51100000000E-03 0. -1.
         22    1    1    0    0    0  0.10368438133E+02  0.12828331898E+02  0.24211453418E+02  0.29296161612E+02  0.00000000000E+00 0. -1.
</event>
<event>
 5    1  0.1102386E-009  0.9118800E+02  0.7818608E-02  0.1130116E+00
         25   -1    0    0    0    0  0.00000000000E+00  0.00000000000E+00  0.99999998245E-14  0.12500000000E+03  0.12500000000E+03 0.  0.
        -11    1    3    3    0    0  0.43270283228E+02  0.26974267569E+02  0.25535852047E+02  0.57026382154E+02  0.51100000000E-03 0. -1.
         23    2    1    0    0    0  0.51163199860E+01  0.16121899761E+02  0.22557571053E+02  0.96805383601E+02  0.92608562780E+02 0.  0.
         11    1    3    3    0    0 -0.38153963242E+02 -0.10852367808E+02 -0.29782809946E+01  0.39779001446E+02  0.51100000000E-03 0.  1.
         22    1    1    0    0    0 -0.51163199860E+01 -0.16121899761E+02 -0.22557571053E+02  0.28194616399E+02  0.00000000000E+00 0. -1.
</event>
<event>
 5    1  0.1102386E-009  0.9118800E+02  0.7818608E-02  0.1130116E+00
         25   -1    0    0    0    0  0.00000000000E+00  0.00000000000E+00  0.99999998245E-14  0.12500000000E+03  0.12500000000E+03 0.  0.
        -11    1    3    3    0    0 -0.41478909336E+02  0.21781304034E+02  0.36293273963E+02  0.59263199883E+02  0.51100000000E-03 0.  1.
         23    2    1    0    0    0 -0.27981645146E+02  0.70965322680E+01  0.60277187682E+01  0.95509889304E+02  0.90843119310E+02 0.  0.
         11    1    3    3    0    0  0.13497264190E+02 -0.14684771766E+02 -0.30265555195E+02  0.36246689421E+02  0.51100000000E-03 0. -1.
         22    1    1    0    0    0  0.27981645146E+02 -0.70965322680E+01 -0.60277187682E+01  0.29490110696E+02  0.00000000000E+00 0.  1.
</event>
<event>
 5    1  0.1102386E-009  0.9118800E+02  0.7818608E-02  0.1130116E+00
         25   -1    0    0    0    0  0.00000000000E+00  0.00000000000E+00  0.99999998245E-14  0.12500000000E+03  0.12500000000E+03 0.  0.
        -11    1    3    3    0    0 -0.24205929210E+02  0.14278309113E+02 -0.43361085651E+01  0.28435874486E+02  0.51100000000E-03 0. -1.
         23    2    1    0    0    0 -0.20504507701E+02 -0.38321440032E+02  0.16635306640E+01  0.81505920674E+02  0.68930981194E+02 0.  0.
         11    1    3    3    0    0  0.37014215083E+01 -0.52599749145E+02  0.59996392291E+01  0.53070046188E+02  0.51100000000E-03 0.  1.
         22    1    1    0    0    0  0.20504507701E+02  0.38321440032E+02 -0.16635306640E+01  0.43494079326E+02  0.00000000000E+00 0.  1.
</event>
<event>
 5    1  0.1102386E-009  0.9118800E+02  0.7818608E-02  0.1130116E+00
         25   -1    0    0    0    0  0.00000000000E+00  0.00000000000E+00  0.99999998245E-14  0.12500000000E+03  0.12500000000E+03 0.  0.
        -11    1    3    3    0    0 -0.82647157291E+01  0.48362253106E+02  0.11070003772E+02  0.50296700044E+02  0.51100000000E-03 0.  1.
         23    2    1    0    0    0 -0.15671617762E+02  0.45730038330E+01  0.23473708906E+02  0.96407571332E+02  0.92070043081E+02 0.  0.
         11    1    3    3    0    0 -0.74069020330E+01 -0.43789249273E+02  0.12403705134E+02  0.46110871288E+02  0.51100000000E-03 0. -1.
         22    1    1    0    0    0  0.15671617762E+02 -0.45730038330E+01 -0.23473708906E+02  0.28592428668E+02  0.00000000000E+00 0.  1.
</event>
<event>
 5    1  0.1102386E-009  0.9118800E+02  0.7818608E-02  0.1130116E+00
         25   -1    0    0    0    0  0.00000000000E+00  0.00000000000E+00  0.99999998245E-14  0.12500000000E+03  0.12500000000E+03 0.  0.
        -11    1    3    3    0    0  0.37999237474E+02 -0.40604350542E+01 -0.38828849538E+01  0.38412315437E+02  0.51100000000E-03 0.  1.
         23    2    1    0    0    0 -0.15736393643E+02 -0.18242779582E+01 -0.24344172702E+02  0.95955192900E+02  0.91453803775E+02 0.  0.
         11    1    3    3    0    0 -0.53735631117E+02  0.22361570960E+01 -0.20461287748E+02  0.57542877462E+02  0.51100000000E-03 0. -1.
         22    1    1    0    0    0  0.15736393643E+02  0.18242779582E+01  0.24344172702E+02  0.29044807100E+02  0.00000000000E+00 0. -1.
</event>
<event>
 5    1  0.1102386E-009  0.9118800E+02  0.7818608E-02  0.1130116E+00
         25   -1    0    0    0    0  0.00000000000E+00  0.00000000000E+00  0.99999998245E-14  0.12500000000E+03  0.12500000000E+03 0.  0.
        -11    1    3    3    0    0  0.76307174684E+01 -0.24679208606E+02 -0.34065360972E+02  0.42752076030E+02  0.51100000000E-03 0. -1.
         23    2    1    0    0    0  0.51404057103E+01 -0.23943975867E+02  0.17826825263E+02  0.94709185383E+02  0.89734588347E+02 0.  0.
         11    1    3    3    0    0 -0.24903117581E+01  0.73523273904E+00  0.51892186235E+02  0.51957109353E+02  0.51100000000E-03 0.  1.
         22    1    1    0    0    0 -0.51404057103E+01  0.23943975867E+02 -0.17826825263E+02  0.30290814617E+02  0.00000000000E+00 0.  1.
</event>
<event>
 5    1  0.1102386E-009  0.9118800E+02  0.7818608E-02  0.1130116E+00
         25   -1    0    0    0    0  0.00000000000E+00  0.00000000000E+00  0.99999998245E-14  0.12500000000E+03  0.12500000000E+03 0.  0.
        -11    1    3    3    0    0 -0.16864817616E+02  0.35995093163E+02 -0.12973452211E+01  0.39771244762E+02  0.51100000000E-03 0.  1.
         23    2    1    0    0    0  0.58873122514E+01 -0.11569925760E+02 -0.24419071735E+02  0.97344716743E+02  0.93333698018E+02 0.  0.
         11    1    3    3    0    0  0.22752129868E+02 -0.47565018923E+02 -0.23121726514E+02  0.57573471981E+02  0.51100000000E-03 0. -1.
         22    1    1    0    0    0 -0.58873122514E+01  0.11569925760E+02  0.24419071735E+02  0.27655283257E+02  0.00000000000E+00 0. -1.
</event>
<event>
 5    1  0.1102386E-009  0.9118800E+02  0.7818608E-02  0.1130116E+00
         25   -1    0    0    0    0  0.00000000000E+00  0.00000000000E+00  0.99999998245E-14  0.12500000000E+03  0.12500000000E+03 0.  0.
        -11    1    3    3    0    0  0.38455154002E+02 -0.39436639983E+01  0.40727750002E+02  0.56152479692E+02  0.51100000000E-03 0.  1.
         23    2    1    0    0    0  0.70622201246E+01  0.14559921852E+02  0.23518410820E+02  0.96452111726E+02  0.92130494037E+02 0.  0.
         11    1    3    3    0    0 -0.31392933877E+02  0.18503585850E+02 -0.17209339183E+02  0.40299632034E+02  0.51100000000E-03 0. -1.
         22    1    1    0    0    0 -0.70622201246E+01 -0.14559921852E+02 -0.23518410820E+02  0.28547888274E+02  0.00000000000E+00 0.  1.
</event>
<event>
 5    1  0.1102386E-009  0.9118800E+02  0.7818608E-02  0.1130116E+00
         25   -1    0    0    0    0  0.00000000000E+00  0.00000000000E+00  0.99999998245E-14  0.12500000000E+03  0.12500000000E+03 0.  0.
        -11    1    3    3    0    0  0.43870697158E+02  0.15418922444E+02 -0.36261142309E+02  0.58968226022E+02  0.51100000000E-03 0. -1.
         23    2    1    0    0    0  0.11686272733E+02  0.12957590067E+02  0.48397123138E-01  0.10755091828E+03  0.10612600798E+03 0.  0.
         11    1    3    3    0    0 -0.32184424425E+02 -0.24613323778E+01  0.36309539432E+02  0.48582692254E+02  0.51100000000E-03 0.  1.
         22    1    1    0    0    0 -0.11686272733E+02 -0.12957590067E+02 -0.48397123138E-01  0.17449081724E+02  0.00000000000E+00 0. -1.
</event>
<event>
 5    1  0.1102386E-009  0.9118800E+02  0.7818608E-02  0.1130116E+00
         25   -1    0    0    0    0  0.00000000000E+00  0.00000000000E+00  0.99999998245E-14  0.12500000000E+03  0.12500000000E+03 0.  0.
        -11    1    3    3    0    0 -0.60032998260E+01  0.37875950896E+01 -0.39564040804E+02  0.40195756124E+02  0.51100000000E-03 0. -1.
         23    2    1    0    0    0  0.20646006358E+02  0.12827941848E+02  0.11199297280E+02  0.98237378115E+02  0.94521661691E+02 0.  0.
         11    1    3    3    0    0  0.26649306184E+02  0.90403467586E+01  0.50763338085E+02  0.58041621991E+02  0.51100000000E-03 0.  1.
         22    1    1    0    0    0 -0.20646006358E+02 -0.12827941848E+02 -0.11199297280E+02  0.26762621885E+02  0.00000000000E+00 0.  1.
</event>
<event>
 5    1  0.1102386E-009  0.9118800E+02  0.7818608E-02  0.1130116E+00
         25   -1    0    0    0    0  0.00000000000E+00  0.00000000000E+00  0.99999998245E-14  0.12500000000E+03  0.12500000000E+03 0.  0.
        -11    1    3    3    0    0 -0.19623199750E+02 -0.28017176311E+02  0.51207583425E+02  0.61581236894E+02  0.51100000000E-03 0.  1.
         23    2    1    0    0    0 -0.14467460866E+02 -0.76731650044E+01  0.24068581168E+02  0.95888464751E+02  0.91362553531E+02 0.  0.
         11    1    3    3    0    0  0.51557388839E+01  0.20344011307E+02 -0.27139002257E+02  0.34307227857E+02  0.51100000000E-03 0. -1.
         22    1    1    0    0    0  0.14467460866E+02  0.76731650044E+01 -0.24068581168E+02  0.29111535249E+02  0.00000000000E+00 0.  1.
</event>
<event>
 5    1  0.1102386E-009  0.9118800E+02  0.7818608E-02  0.1130116E+00
         25   -1    0    0    0    0  0.00000000000E+00  0.00000000000E+00  0.99999998245E-14  0.12500000000E+03  0.12500000000E+03 0.  0.
        -11    1    3    3    0    0  0.11013379948E+02 -0.22083145510E+02 -0.26401174752E+02  0.36138371325E+02  0.51100000000E-03 0.  1.
         23    2    1    0    0    0  0.92637646195E+01  0.18451413085E+02  0.18940237669E+02  0.96982066766E+02  0.92846737646E+02 0.  0.
         11    1    3    3    0    0 -0.17496153288E+01  0.40534558595E+02  0.45341412421E+02  0.60843695441E+02  0.51100000000E-03 0. -1.
         22    1    1    0    0    0 -0.92637646195E+01 -0.18451413085E+02 -0.18940237669E+02  0.28017933234E+02  0.00000000000E+00 0. -1.
</event>
<event>
 5    1  0.1102386E-009  0.9118800E+02  0.7818608E-02  0.1130116E+00
         25   -1    0    0    0    0  0.00000000000E+00  0.00000000000E+00  0.99999998245E-14  0.12500000000E+03  0.12500000000E+03 0.  0.
        -11    1    3    3    0    0  0.45871279692E+02 -0.13496478261E+02 -0.20580827856E+02  0.52056696990E+02  0.51100000000E-03 0. -1.
         23    2    1    0    0    0  0.17844174051E+02 -0.19825790654E+02  0.12218238532E+02  0.95661256410E+02  0.91051162005E+02 0.  0.
         11    1    3    3    0    0 -0.28027105641E+02 -0.63293123929E+01  0.32799066388E+02  0.43604559420E+02  0.51100000000E-03 0.  1.
         22    1    1    0    0    0 -0.17844174051E+02  0.19825790654E+02 -0.12218238532E+02  0.29338743590E+02  0.00000000000E+00 0.  1.
</event>
<event>
 5    1  0.1102386E-009  0.9118800E+02  0.7818608E-02  0.1130116E+00
         25   -1    0    0    0    0  0.00000000000E+00  0.00000000000E+00  0.99999998245E-14  0.12500000000E+03  0.12500000000E+03 0.  0.
        -11    1    3    3    0    0  0.36882733233E+02 -0.19281347522E+00 -0.25959442139E+02  0.45102836100E+02  0.51100000000E-03 0. -1.
         23    2    1    0    0    0 -0.33736261766E+01  0.26816565032E+02 -0.10782216840E+02  0.95900760943E+02  0.91379375330E+02 0.  0.
         11    1    3    3    0    0 -0.40256359410E+02  0.27009378508E+02  0.15177225299E+02  0.50797924843E+02  0.51100000000E-03 0.  1.
         22    1    1    0    0    0  0.33736261766E+01 -0.26816565032E+02  0.10782216840E+02  0.29099239057E+02  0.00000000000E+00 0. -1.
</event>
<event>
 5    1  0.1102386E-009  0.9118800E+02  0.7818608E-02  0.1130116E+00
         25   -1    0    0    0    0  0.00000000000E+00  0.00000000000E+00  0.99999998245E-14  0.12500000000E+03  0.12500000000E+03 0.  0.
        -11    1    3    3    0    0  0.30277099802E+02  0.28269562584E+02  0.26780805282E+02  0.49326285821E+02  0.51100000000E-03 0.  1.
         23    2    1    0    0    0 -0.12411390862E+02  0.25013260312E+02  0.93210278941E+01  0.95562143836E+02  0.90914993037E+02 0.  0.
         11    1    3    3    0    0 -0.42688490664E+02 -0.32563022722E+01 -0.17459777388E+02  0.46235858014E+02  0.51100000000E-03 0. -1.
         22    1    1    0    0    0  0.12411390862E+02 -0.25013260312E+02 -0.93210278941E+01  0.29437856164E+02  0.00000000000E+00 0.  1.
</event>
<event>
 5    1  0.1102386E-009  0.9118800E+02  0.7818608E-02  0.1130116E+00
         25   -1    0    0    0    0  0.00000000000E+00  0.00000000000E+00  0.99999998245E-14  0.12500000000E+03  0.12500000000E+03 0.  0.
        -11    1    3    3    0    0 -0.38715453900E+02  0.35169911925E+02  0.17125097700E+02  0.55037060668E+02  0.51100000000E-03 0.  1.
         23    2    1    0    0    0 -0.38776920203E+01  0.28153344091E+02 -0.38787930675E+01  0.96317386546E+02  0.91947521100E+02 0.  0.
         11    1    3    3    0    0  0.34837761880E+02 -0.70165678341E+01 -0.21003890768E+02  0.41280325878E+02  0.51100000000E-03 0. -1.
         22    1    1    0    0    0  0.38776920203E+01 -0.28153344091E+02  0.38787930675E+01  0.28682613454E+02  0.00000000000E+00 0.  1.
</event>
<event>
 5    1  0.1102386E-009  0.9118800E+02  0.7818608E-02  0.1130116E+00
         25   -1    0    0    0    0  0.00000000000E+00  0.00000000000E+00  0.99999998245E-14  0.12500000000E+03  0.12500000000E+03 0.  0.
        -11    1    3    3    0    0  0.93068344342E+01 -0.27524348720E+02  0.38938747704E+02  0.48584287714E+02  0.51100000000E-03 0.  1.
         23    2    1    0    0    0  0.11040828140E+02 -0.11028044873E+02 -0.13984278309E+02  0.10404581904E+03  0.10191395764E+03 0.  0.
         11    1    3    3    0    0  0.17339937060E+01  0.16496303847E+02 -0.52923026013E+02  0.55461531329E+02  0.51100000000E-03 0. -1.
         22    1    1    0    0    0 -0.11040828140E+02  0.11028044873E+02  0.13984278309E+02  0.20954180957E+02  0.00000000000E+00 0.  1.
</event>
<event>
 5    1  0.1102386E-009  0.9118800E+02  0.7818608E-02  0.1130116E+00
         25   -1    0    0    0    0  0.00000000000E+00  0.00000000000E+00  0.99999998245E-14  0.12500000000E+03  0.12500000000E+03 0.  0.
        -11    1    3    3    0    0 -0.32500237314E+02 -0.24541793023E+02  0.85397349396E+01  0.41611201657E+02  0.51100000000E-03 0. -1.
         23    2    1    0    0    0  0.50057620810E+01 -0.82805210277E+01 -0.27336953412E+02  0.96001143051E+02  0.91516587364E+02 0.  0.
         11    1    3    3    0    0  0.37505999395E+02  0.16261271995E+02 -0.35876688352E+02  0.54389941394E+02  0.51100000000E-03 0.  1.
         22    1    1    0    0    0 -0.50057620810E+01  0.82805210277E+01  0.27336953412E+02  0.28998856949E+02  0.00000000000E+00 0.  1.
</event>
<event>
 5    1  0.1102386E-009  0.9118800E+02  0.7818608E-02  0.1130116E+00
         25   -1    0    0    0    0  0.00000000000E+00  0.00000000000E+00  0.99999998245E-14  0.12500000000E+03  0.12500000000E+03 0.  0.
        -11    1    3    3    0    0  0.44812945593E+02  0.27613435069E+02 -0.31312075515E+01  0.52730506825E+02  0.51100000000E-03 0.  1.
         23    2    1    0    0    0  0.24752877354E+02 -0.10167845776E+02 -0.10716000120E+02  0.96174270458E+02  0.91752752626E+02 0.  0.
         11    1    3    3    0    0 -0.20060068239E+02 -0.37781280845E+02 -0.75847925688E+01  0.43443763633E+02  0.51100000000E-03 0. -1.
         22    1    1    0    0    0 -0.24752877354E+02  0.10167845776E+02  0.10716000120E+02  0.28825729542E+02  0.00000000000E+00 0.  1.
</event>
<event>
 5    1  0.1102386E-009  0.9118800E+02  0.7818608E-02  0.1130116E+00
         25   -1    0    0    0    0  0.00000000000E+00  0.00000000000E+00  0.99999998245E-14  0.12500000000E+03  0.12500000000E+03 0.  0.
        -11    1    3    3    0    0  0.55726243287E+02 -0.11118241127E+01 -0.24326396082E+02  0.60814668382E+02  0.51100000000E-03 0.  1.
         23    2    1    0    0    0  0.28834873262E+02 -0.16451170383E+01 -0.15209689642E+01  0.96078214566E+02  0.91621796760E+02 0.  0.
         11    1    3    3    0    0 -0.26891370026E+02 -0.53329292564E+00  0.22805427118E+02  0.35263546184E+02  0.51100000000E-03 0. -1.
         22    1    1    0    0    0 -0.28834873262E+02  0.16451170383E+01  0.15209689642E+01  0.28921785434E+02  0.00000000000E+00 0.  1.
</event>
<event>
 5    1  0.1102386E-009  0.9118800E+02  0.7818608E-02  0.1130116E+00
         25   -1    0    0    0    0  0.00000000000E+00  0.00000000000E+00  0.99999998245E-14  0.12500000000E+03  0.12500000000E+03 0.  0.
        -11    1    3    3    0    0  0.38871982633E+02 -0.17331736903E+02  0.28177981792E+02  0.51043303146E+02  0.51100000000E-03 0. -1.
         23    2    1    0    0    0  0.91446165953E+01  0.15332170839E+02  0.23545771157E+02  0.95451686771E+02  0.90762997376E+02 0.  0.
         11    1    3    3    0    0 -0.29727366038E+02  0.32663907743E+02 -0.46322106351E+01  0.44408383625E+02  0.51100000000E-03 0.  1.
         22    1    1    0    0    0 -0.91446165953E+01 -0.15332170839E+02 -0.23545771157E+02  0.29548313229E+02  0.00000000000E+00 0. -1.
</event>
<event>
 5    1  0.1102386E-009  0.9118800E+02  0.7818608E-02  0.1130116E+00
         25   -1    0    0    0    0  0.00000000000E+00  0.00000000000E+00  0.99999998245E-14  0.12500000000E+03  0.12500000000E+03 0.  0.
        -11    1    3    3    0    0 -0.42908863724E+02 -0.99941188945E+01 -0.93545636484E+01  0.45039547732E+02  0.51100000000E-03 0.  1.
         23    2    1    0    0    0  0.58328183578E+01 -0.11897592995E+02 -0.25368221225E+02  0.96379707597E+02  0.92032205773E+02 0.  0.
         11    1    3    3    0    0  0.48741682082E+02 -0.19034741008E+01 -0.16013657577E+02  0.51340159866E+02  0.51100000000E-03 0. -1.
         22    1    1    0    0    0 -0.58328183578E+01  0.11897592995E+02  0.25368221225E+02  0.28620292403E+02  0.00000000000E+00 0.  1.
</event>
<event>
 5    1  0.1102386E-009  0.9118800E+02  0.7818608E-02  0.1130116E+00
         25   -1    0    0    0    0  0.00000000000E+00  0.00000000000E+00  0.99999998245E-14  0.12500000000E+03  0.12500000000E+03 0.  0.
        -11    1    3    3    0    0 -0.15909301757E+02 -0.15818136453E+00  0.14258351344E+02  0.21364257231E+02  0.51100000000E-03 0.  1.
         23    2    1    0    0    0  0.29127015767E+02 -0.33684852622E+02  0.16384676671E+02  0.77549921251E+02  0.61339060254E+02 0.  0.
         11    1    3    3    0    0  0.45036317524E+02 -0.33526671257E+02  0.21263253270E+01  0.56185664020E+02  0.51100000000E-03 0. -1.
         22    1    1    0    0    0 -0.29127015767E+02  0.33684852622E+02 -0.16384676671E+02  0.47450078749E+02  0.00000000000E+00 0. -1.
</event>
<event>
 5    1  0.1102386E-009  0.9118800E+02  0.7818608E-02  0.1130116E+00
         25   -1    0    0    0    0  0.00000000000E+00  0.00000000000E+00  0.99999998245E-14  0.12500000000E+03  0.12500000000E+03 0.  0.
        -11    1    3    3    0    0  0.20126170514E+02  0.23257659585E+02 -0.45707368826E+02  0.55092150386E+02  0.51100000000E-03 0. -1.
         23    2    1    0    0    0 -0.62626049167E+01 -0.24333255568E+01 -0.28455967682E+02  0.95761611017E+02  0.91188830206E+02 0.  0.
         11    1    3    3    0    0 -0.26388775430E+02 -0.25690985142E+02  0.17251401145E+02  0.40669460631E+02  0.51100000000E-03 0.  1.
         22    1    1    0    0    0  0.62626049167E+01  0.24333255568E+01  0.28455967682E+02  0.29238388983E+02  0.00000000000E+00 0. -1.
</event>
<event>
 5    1  0.1102386E-009  0.9118800E+02  0.7818608E-02  0.1130116E+00
         25   -1    0    0    0    0  0.00000000000E+00  0.00000000000E+00  0.99999998245E-14  0.12500000000E+03  0.12500000000E+03 0.  0.
        -11    1    3    3    0    0 -0.14007268732E+02  0.97159951130E+01  0.32284522575E+02  0.36508828200E+02  0.51100000000E-03 0.  1.
         23    2    1    0    0    0  0.80335846504E+01 -0.26729086576E+02 -0.88491336240E+01  0.95720489803E+02  0.91132444555E+02 0.  0.
         11    1    3    3    0    0  0.22040853383E+02 -0.36445081689E+02 -0.41133656199E+02  0.59211661602E+02  0.51100000000E-03 0. -1.
         22    1    1    0    0    0 -0.80335846504E+01  0.26729086576E+02  0.88491336240E+01  0.29279510197E+02  0.00000000000E+00 0. -1.
</event>
<event>
 5    1  0.1102386E-009  0.9118800E+02  0.7818608E-02  0.1130116E+00
         25   -1    0    0    0    0  0.00000000000E+00  0.00000000000E+00  0.99999998245E-14  0.12500000000E+03  0.12500000000E+03 0.  0.
        -11    1    3    3    0    0 -0.19809201771E+02  0.49759202498E+02 -0.19476526700E+02  0.56988751527E+02  0.51100000000E-03 0.  1.
         23    2    1    0    0    0 -0.24596063578E+02  0.16857898316E+02 -0.69789680103E+00  0.95173130584E+02  0.90378551914E+02 0.  0.
         11    1    3    3    0    0 -0.47868618077E+01 -0.32901304182E+02  0.18778629899E+02  0.38184379057E+02  0.51100000000E-03 0. -1.
         22    1    1    0    0    0  0.24596063578E+02 -0.16857898316E+02  0.69789680103E+00  0.29826869416E+02  0.00000000000E+00 0.  1.
</event>
<event>
 5    1  0.1102386E-009  0.9118800E+02  0.7818608E-02  0.1130116E+00
         25   -1    0    0    0    0  0.00000000000E+00  0.00000000000E+00  0.99999998245E-14  0.12500000000E+03  0.12500000000E+03 0.  0.
        -11    1    3    3    0    0 -0.39161893550E+02 -0.31396760352E+01 -0.40519074074E+01  0.39495941892E+02  0.51100000000E-03 0. -1.
         23    2    1    0    0    0  0.12309813862E+02 -0.23081145237E+01 -0.26525690956E+02  0.95666210768E+02  0.91057963365E+02 0.  0.
         11    1    3    3    0    0  0.51471707412E+02  0.83156151148E+00 -0.22473783549E+02  0.56170268877E+02  0.51100000000E-03 0.  1.
         22    1    1    0    0    0 -0.12309813862E+02  0.23081145237E+01  0.26525690956E+02  0.29333789232E+02  0.00000000000E+00 0.  1.
</event>
<event>
 5    1  0.1102386E-009  0.9118800E+02  0.7818608E-02  0.1130116E+00
         25   -1    0    0    0    0  0.00000000000E+00  0.00000000000E+00  0.99999998245E-14  0.12500000000E+03  0.12500000000E+03 0.  0.
        -11    1    3    3    0    0 -0.80434312126E+01 -0.56096455629E+02 -0.15778457723E+02  0.58825749873E+02  0.51100000000E-03 0. -1.
         23    2    1    0    0    0 -0.17260445936E+02 -0.22944836039E+02 -0.10104871923E+01  0.96270057795E+02  0.91883156501E+02 0.  0.
         11    1    3    3    0    0 -0.92170147235E+01  0.33151619590E+02  0.14767970531E+02  0.37444307921E+02  0.51100000000E-03 0.  1.
         22    1    1    0    0    0  0.17260445936E+02  0.22944836039E+02  0.10104871923E+01  0.28729942205E+02  0.00000000000E+00 0. -1.
</event>
<event>
 5    1  0.1102386E-009  0.9118800E+02  0.7818608E-02  0.1130116E+00
         25   -1    0    0    0    0  0.00000000000E+00  0.00000000000E+00  0.99999998245E-14  0.12500000000E+03  0.12500000000E+03 0.  0.
        -11    1    3    3    0    0  0.25328545156E+02 -0.30696430432E+02  0.13978041852E+02  0.42180465802E+02  0.51100000000E-03 0. -1.
         23    2    1    0    0    0 -0.14115589880E+02  0.45343205375E+01  0.24745939188E+02  0.96152618027E+02  0.91723249544E+02 0.  0.
         11    1    3    3    0    0 -0.39444135036E+02  0.35230750969E+02  0.10767897336E+02  0.53972152226E+02  0.51100000000E-03 0.  1.
         22    1    1    0    0    0  0.14115589880E+02 -0.45343205375E+01 -0.24745939188E+02  0.28847381973E+02  0.00000000000E+00 0. -1.
</event>
<event>
 5    1  0.1102386E-009  0.9118800E+02  0.7818608E-02  0.1130116E+00
         25   -1    0    0    0    0  0.00000000000E+00  0.00000000000E+00  0.99999998245E-14  0.12500000000E+03  0.12500000000E+03 0.  0.
        -11    1    3    3    0    0 -0.25710024423E+02 -0.13185074554E+02  0.38778428123E+02  0.48359260072E+02  0.51100000000E-03 0. -1.
         23    2    1    0    0    0  0.11890147995E+02 -0.23621781231E+02  0.10518061126E+02  0.96539610373E+02  0.92249133293E+02 0.  0.
         11    1    3    3    0    0  0.37600172418E+02 -0.10436706676E+02 -0.28260366996E+02  0.48180350301E+02  0.51100000000E-03 0.  1.
         22    1    1    0    0    0 -0.11890147995E+02  0.23621781231E+02 -0.10518061126E+02  0.28460389627E+02  0.00000000000E+00 0. -1.
</event>
<event>
 5    1  0.1102386E-009  0.9118800E+02  0.7818608E-02  0.1130116E+00
         25   -1    0    0    0    0  0.00000000000E+00  0.00000000000E+00  0.99999998245E-14  0.12500000000E+03  0.12500000000E+03 0.  0.
        -11    1    3    3    0    0 -0.46688246886E+01  0.12745170375E+02 -0.37464277561E+02  0.39847325949E+02  0.51100000000E-03 0.  1.
         23    2    1    0    0    0 -0.18683220097E+02  0.12343838419E+02  0.17505487984E+02  0.96576855036E+02  0.92299586992E+02 0.  0.
         11    1    3    3    0    0 -0.14014395408E+02 -0.40133195618E+00  0.54969765545E+02  0.56729529086E+02  0.51100000000E-03 0. -1.
         22    1    1    0    0    0  0.18683220097E+02 -0.12343838419E+02 -0.17505487984E+02  0.28423144964E+02  0.00000000000E+00 0. -1.
</event>
<event>
 5    1  0.1102386E-009  0.9118800E+02  0.7818608E-02  0.1130116E+00
         25   -1    0    0    0    0  0.00000000000E+00  0.00000000000E+00  0.99999998245E-14  0.12500000000E+03  0.12500000000E+03 0.  0.
        -11    1    3    3    0    0  0.36204332058E+02  0.29208525827E+02 -0.17633092098E+02  0.49747538411E+02  0.51100000000E-03 0. -1.
         23    2    1    0    0    0  0.23117040477E+02 -0.14611433852E+02 -0.49299613251E+01  0.97211583739E+02  0.93155224946E+02 0.  0.
         11    1    3    3    0    0 -0.13087291581E+02 -0.43819959678E+02  0.12703130773E+02  0.47464045328E+02  0.51100000000E-03 0.  1.
         22    1    1    0    0    0 -0.23117040477E+02  0.14611433852E+02  0.49299613251E+01  0.27788416261E+02  0.00000000000E+00 0. -1.
</event>
<event>
 5    1  0.1102386E-009  0.9118800E+02  0.7818608E-02  0.1130116E+00
         25   -1    0    0    0    0  0.00000000000E+00  0.00000000000E+00  0.99999998245E-14  0.12500000000E+03  0.12500000000E+03 0.  0.
        -11    1    3    3    0    0  0.10648738482E+01  0.34549276495E+02  0.29651312379E+02  0.45541045099E+02  0.51100000000E-03 0.  1.
         23    2    1    0    0    0 -0.22357040599E+02 -0.82227956462E+01  0.16415348932E+02  0.96070511357E+02  0.91611286637E+02 0.  0.
         11    1    3    3    0    0 -0.23421914447E+02 -0.42772072142E+02 -0.13235963447E+02  0.50529466258E+02  0.51100000000E-03 0. -1.
         22    1    1    0    0    0  0.22357040599E+02  0.82227956462E+01 -0.16415348932E+02  0.28929488643E+02  0.00000000000E+00 0. -1.
</event>
<event>
 5    1  0.1102386E-009  0.9118800E+02  0.7818608E-02  0.1130116E+00
         25   -1    0    0    0    0  0.00000000000E+00  0.00000000000E+00  0.99999998245E-14  0.12500000000E+03  0.12500000000E+03 0.  0.
        -11    1    3    3    0    0  0.13603474271E+02 -0.43238430755E+02 -0.41671094610E+02  0.61571881023E+02  0.51100000000E-03 0. -1.
         23    2    1    0    0    0 -0.42839172739E+00 -0.18463297901E+02 -0.22471324539E+02  0.95913279398E+02  0.91396498016E+02 0.  0.
         11    1    3    3    0    0 -0.14031865998E+02  0.24775132855E+02  0.19199770071E+02  0.34341398376E+02  0.51100000000E-03 0.  1.
         22    1    1    0    0    0  0.42839172739E+00  0.18463297901E+02  0.22471324539E+02  0.29086720602E+02  0.00000000000E+00 0. -1.
</event>
<event>
 5    1  0.1102386E-009  0.9118800E+02  0.7818608E-02  0.1130116E+00
         25   -1    0    0    0    0  0.00000000000E+00  0.00000000000E+00  0.99999998245E-14  0.12500000000E+03  0.12500000000E+03 0.  0.
        -11    1    3    3    0    0  0.48685136419E+02  0.59405792050E+01  0.75537748681E+01  0.49624515156E+02  0.51100000000E-03 0.  1.
         23    2    1    0    0    0  0.81160943847E+01 -0.43827703128E+01  0.27499122822E+02  0.95995148343E+02  0.91508398990E+02 0.  0.
         11    1    3    3    0    0 -0.40569042034E+02 -0.10323349518E+02  0.19945347954E+02  0.46370633187E+02  0.51100000000E-03 0. -1.
         22    1    1    0    0    0 -0.81160943847E+01  0.43827703128E+01 -0.27499122822E+02  0.29004851657E+02  0.00000000000E+00 0.  1.
</event>
<event>
 5    1  0.1102386E-009  0.9118800E+02  0.7818608E-02  0.1130116E+00
         25   -1    0    0    0    0  0.00000000000E+00  0.00000000000E+00  0.99999998245E-14  0.12500000000E+03  0.12500000000E+03 0.  0.
        -11    1    3    3    0    0  0.40885602905E+02 -0.37639624483E+00 -0.38081170701E+02  0.55874410612E+02  0.51100000000E-03 0.  1.
         23    2    1    0    0    0  0.89996390310E+01  0.17261645906E+02 -0.21764059532E+02  0.95800133401E+02  0.91241620713E+02 0.  0.
         11    1    3    3    0    0 -0.31885963874E+02  0.17638042150E+02  0.16317111169E+02  0.39925722789E+02  0.51100000000E-03 0. -1.
         22    1    1    0    0    0 -0.89996390310E+01 -0.17261645906E+02  0.21764059532E+02  0.29199866599E+02  0.00000000000E+00 0.  1.
</event>
<event>
 5    1  0.1102386E-009  0.9118800E+02  0.7818608E-02  0.1130116E+00
         25   -1    0    0    0    0  0.00000000000E+00  0.00000000000E+00  0.99999998245E-14  0.12500000000E+03  0.12500000000E+03 0.  0.
        -11    1    3    3    0    0  0.70899124199E+01 -0.34879943307E+02 -0.20018137794E+01  0.35649467905E+02  0.51100000000E-03 0. -1.
         23    2    1    0    0    0  0.15850580857E+02  0.24528469817E+02 -0.23501764789E+01  0.95701363947E+02  0.91106207180E+02 0.  0.
         11    1    3    3    0    0  0.87606684376E+01  0.59408413124E+02 -0.34836269944E+00  0.60051896042E+02  0.51100000000E-03 0.  1.
         22    1    1    0    0    0 -0.15850580857E+02 -0.24528469817E+02  0.23501764789E+01  0.29298636053E+02  0.00000000000E+00 0.  1.
</event>
<event>
 5    1  0.1102386E-009  0.9118800E+02  0.7818608E-02  0.1130116E+00
         25   -1    0    0    0    0  0.00000000000E+00  0.00000000000E+00  0.99999998245E-14  0.12500000000E+03  0.12500000000E+03 0.  0.
        -11    1    3    3    0    0 -0.38495365871E+02  0.31670254897E+02  0.26908370100E+02  0.56647670918E+02  0.51100000000E-03 0.  1.
         23    2    1    0    0    0 -0.83840003781E+01  0.14464366118E+02  0.29145080620E+02  0.91400222115E+02  0.85000326640E+02 0.  0.
         11    1    3    3    0    0  0.30111365492E+02 -0.17205888779E+02  0.22367105204E+01  0.34752551197E+02  0.51100000000E-03 0. -1.
         22    1    1    0    0    0  0.83840003781E+01 -0.14464366118E+02 -0.29145080620E+02  0.33599777885E+02  0.00000000000E+00 0.  1.
</event>
<event>
 5    1  0.1102386E-009  0.9118800E+02  0.7818608E-02  0.1130116E+00
         25   -1    0    0    0    0  0.00000000000E+00  0.00000000000E+00  0.99999998245E-14  0.12500000000E+03  0.12500000000E+03 0.  0.
        -11    1    3    3    0    0  0.92747965424E+01  0.26453446849E+02 -0.23087008726E+02  0.36315515600E+02  0.51100000000E-03 0.  1.
         23    2    1    0    0    0 -0.22796850640E+02 -0.35118078969E+01  0.17461069382E+02  0.96070462538E+02  0.91611220025E+02 0.  0.
         11    1    3    3    0    0 -0.32071647183E+02 -0.29965254746E+02  0.40548078109E+02  0.59754946938E+02  0.51100000000E-03 0. -1.
         22    1    1    0    0    0  0.22796850640E+02  0.35118078969E+01 -0.17461069382E+02  0.28929537462E+02  0.00000000000E+00 0. -1.
</event>
<event>
 5    1  0.1102386E-009  0.9118800E+02  0.7818608E-02  0.1130116E+00
         25   -1    0    0    0    0  0.00000000000E+00  0.00000000000E+00  0.99999998245E-14  0.12500000000E+03  0.12500000000E+03 0.  0.
        -11    1    3    3    0    0  0.70379202247E+01 -0.11145524036E+02  0.36668332864E+02  0.38965647209E+02  0.51100000000E-03 0.  1.
         23    2    1    0    0    0 -0.19481879906E+02 -0.15324644054E+02 -0.14163695579E+02  0.96451819103E+02  0.92130097014E+02 0.  0.
         11    1    3    3    0    0 -0.26519800131E+02 -0.41791200178E+01 -0.50832028444E+02  0.57486171894E+02  0.51100000000E-03 0. -1.
         22    1    1    0    0    0  0.19481879906E+02  0.15324644054E+02  0.14163695579E+02  0.28548180897E+02  0.00000000000E+00 0. -1.
</event>
<event>
 5    1  0.1102386E-009  0.9118800E+02  0.7818608E-02  0.1130116E+00
         25   -1    0    0    0    0  0.00000000000E+00  0.00000000000E+00  0.99999998245E-14  0.12500000000E+03  0.12500000000E+03 0.  0.
        -11    1    3    3    0    0  0.27828797711E+02 -0.13618107308E+02  0.18948421959E+02  0.36317179456E+02  0.51100000000E-03 0.  1.
         23    2    1    0    0    0  0.11135931216E+02 -0.13319398673E+00 -0.31741076022E+02  0.91361887512E+02  0.84943933733E+02 0.  0.
         11    1    3    3    0    0 -0.16692866495E+02  0.13484913321E+02 -0.50689497981E+02  0.55044708056E+02  0.51100000000E-03 0. -1.
         22    1    1    0    0    0 -0.11135931216E+02  0.13319398673E+00  0.31741076022E+02  0.33638112488E+02  0.00000000000E+00 0. -1.
</event>
<event>
 5    1  0.1102386E-009  0.9118800E+02  0.7818608E-02  0.1130116E+00
         25   -1    0    0    0    0  0.00000000000E+00  0.00000000000E+00  0.99999998245E-14  0.12500000000E+03  0.12500000000E+03 0.  0.
        -11    1    3    3    0    0 -0.29728889623E+00 -0.24586306900E+02  0.23691093296E+02  0.34144439804E+02  0.51100000000E-03 0.  1.
         23    2    1    0    0    0  0.12225726143E+02  0.12248475989E+02 -0.23822985728E+02  0.95554657537E+02  0.90904699461E+02 0.  0.
         11    1    3    3    0    0  0.12523015039E+02  0.36834782889E+02 -0.47514079025E+02  0.61410217733E+02  0.51100000000E-03 0. -1.
         22    1    1    0    0    0 -0.12225726143E+02 -0.12248475989E+02  0.23822985728E+02  0.29445342463E+02  0.00000000000E+00 0. -1.
</event>
<event>
 5    1  0.1102386E-009  0.9118800E+02  0.7818608E-02  0.1130116E+00
         25   -1    0    0    0    0  0.00000000000E+00  0.00000000000E+00  0.99999998245E-14  0.12500000000E+03  0.12500000000E+03 0.  0.
        -11    1    3    3    0    0 -0.32280508518E+02 -0.31487790035E+02 -0.23908803245E+02  0.51040601724E+02  0.51100000000E-03 0.  1.
         23    2    1    0    0    0 -0.27024978415E+02  0.95134809069E+01 -0.95939887750E+01  0.94785758359E+02  0.89841190941E+02 0.  0.
         11    1    3    3    0    0  0.52555301025E+01  0.41001270942E+02  0.14314814470E+02  0.43745156635E+02  0.51100000000E-03 0. -1.
         22    1    1    0    0    0  0.27024978415E+02 -0.95134809069E+01  0.95939887750E+01  0.30214241641E+02  0.00000000000E+00 0. -1.
</event>
<event>
 5    1  0.1102386E-009  0.9118800E+02  0.7818608E-02  0.1130116E+00
         25   -1    0    0    0    0  0.00000000000E+00  0.00000000000E+00  0.99999998245E-14  0.12500000000E+03  0.12500000000E+03 0.  0.
        -11    1    3    3    0    0 -0.45574907091E+02  0.21018140646E+02 -0.29392835780E+02  0.58161612667E+02  0.51100000000E-03 0.  1.
         23    2    1    0    0    0 -0.26629921726E+02 -0.56107886616E+01 -0.11142550865E+02  0.95592685938E+02  0.90956976008E+02 0.  0.
         11    1    3    3    0    0  0.18944985365E+02 -0.26628929307E+02  0.18250284915E+02  0.37431073272E+02  0.51100000000E-03 0. -1.
         22    1    1    0    0    0  0.26629921726E+02  0.56107886616E+01  0.11142550865E+02  0.29407314062E+02  0.00000000000E+00 0.  1.
</event>
<event>
 5    1  0.1102386E-009  0.9118800E+02  0.7818608E-02  0.1130116E+00
         25   -1    0    0    0    0  0.00000000000E+00  0.00000000000E+00  0.99999998245E-14  0.12500000000E+03  0.12500000000E+03 0.  0.
        -11    1    3    3    0    0  0.18053700888E+02  0.28895606656E+02 -0.10675328919E+00  0.34072035400E+02  0.51100000000E-03 0. -1.
         23    2    1    0    0    0 -0.69277256479E+01 -0.25217348107E+02  0.14024180892E+02  0.95325336095E+02  0.90588818425E+02 0.  0.
         11    1    3    3    0    0 -0.24981426536E+02 -0.54112954763E+02  0.14130934181E+02  0.61253300695E+02  0.51100000000E-03 0.  1.
         22    1    1    0    0    0  0.69277256479E+01  0.25217348107E+02 -0.14024180892E+02  0.29674663905E+02  0.00000000000E+00 0.  1.
</event>
<event>
 5    1  0.1102386E-009  0.9118800E+02  0.7818608E-02  0.1130116E+00
         25   -1    0    0    0    0  0.00000000000E+00  0.00000000000E+00  0.99999998245E-14  0.12500000000E+03  0.12500000000E+03 0.  0.
        -11    1    3    3    0    0 -0.34251331987E+02  0.41237616274E+02 -0.13618171383E+02  0.55309577208E+02  0.51100000000E-03 0. -1.
         23    2    1    0    0    0 -0.16498838033E+02  0.49611609827E+01 -0.22499475843E+02  0.96661842192E+02  0.92414612199E+02 0.  0.
         11    1    3    3    0    0  0.17752493954E+02 -0.36276455291E+02 -0.88813044603E+01  0.41352264984E+02  0.51100000000E-03 0.  1.
         22    1    1    0    0    0  0.16498838033E+02 -0.49611609827E+01  0.22499475843E+02  0.28338157808E+02  0.00000000000E+00 0. -1.
</event>
<event>
 5    1  0.1102386E-009  0.9118800E+02  0.7818608E-02  0.1130116E+00
         25   -1    0    0    0    0  0.00000000000E+00  0.00000000000E+00  0.99999998245E-14  0.12500000000E+03  0.12500000000E+03 0.  0.
        -11    1    3    3    0    0  0.25019148302E+01 -0.38269533848E+02  0.24304802103E+02  0.45404187078E+02  0.51100000000E-03 0.  1.
         23    2    1    0    0    0  0.16260931905E+02 -0.12675612351E+02 -0.18606213188E+02  0.97228067693E+02  0.93177341254E+02 0.  0.
         11    1    3    3    0    0  0.13759017074E+02  0.25593921496E+02 -0.42911015290E+02  0.51823880614E+02  0.51100000000E-03 0. -1.
         22    1    1    0    0    0 -0.16260931905E+02  0.12675612351E+02  0.18606213188E+02  0.27771932307E+02  0.00000000000E+00 0. -1.
</event>
<event>
 5    1  0.1102386E-009  0.9118800E+02  0.7818608E-02  0.1130116E+00
         25   -1    0    0    0    0  0.00000000000E+00  0.00000000000E+00  0.99999998245E-14  0.12500000000E+03  0.12500000000E+03 0.  0.
        -11    1    3    3    0    0 -0.17957601197E+02  0.44702973401E+02  0.13802856760E+02  0.50113372732E+02  0.51100000000E-03 0. -1.
         23    2    1    0    0    0  0.10322349829E+01  0.61442564109E+01  0.28721797259E+02  0.95610222292E+02  0.90981072609E+02 0.  0.
         11    1    3    3    0    0  0.18989836180E+02 -0.38558716990E+02  0.14918940499E+02  0.45496849560E+02  0.51100000000E-03 0.  1.
         22    1    1    0    0    0 -0.10322349829E+01 -0.61442564109E+01 -0.28721797259E+02  0.29389777708E+02  0.00000000000E+00 0. -1.
</event>
<event>
 5    1  0.1102386E-009  0.9118800E+02  0.7818608E-02  0.1130116E+00
         25   -1    0    0    0    0  0.00000000000E+00  0.00000000000E+00  0.99999998245E-14  0.12500000000E+03  0.12500000000E+03 0.  0.
        -11    1    3    3    0    0 -0.24307281170E+02  0.87846860594E+01 -0.29104997562E+02  0.38924484716E+02  0.51100000000E-03 0. -1.
         23    2    1    0    0    0  0.24040278382E+02  0.19892366729E+01  0.72675540973E+01  0.99806560580E+02  0.96574531555E+02 0.  0.
         11    1    3    3    0    0  0.48347559553E+02 -0.67954493865E+01  0.36372551660E+02  0.60882075864E+02  0.51100000000E-03 0.  1.
         22    1    1    0    0    0 -0.24040278382E+02 -0.19892366729E+01 -0.72675540973E+01  0.25193439420E+02  0.00000000000E+00 0.  1.
</event>
<event>
 5    1  0.1102386E-009  0.9118800E+02  0.7818608E-02  0.1130116E+00
         25   -1    0    0    0    0  0.00000000000E+00  0.00000000000E+00  0.99999998245E-14  0.12500000000E+03  0.12500000000E+03 0.  0.
        -11    1    3    3    0    0  0.23594410857E+02  0.38097632644E+02 -0.42656776881E+02  0.61868622507E+02  0.51100000000E-03 0.  1.
         23    2    1    0    0    0  0.10196641360E+02  0.12604603670E+02 -0.23473158440E+02  0.96472176812E+02  0.92157713747E+02 0.  0.
         11    1    3    3    0    0 -0.13397769497E+02 -0.25493028974E+02  0.19183618442E+02  0.34603554305E+02  0.51100000000E-03 0. -1.
         22    1    1    0    0    0 -0.10196641360E+02 -0.12604603670E+02  0.23473158440E+02  0.28527823188E+02  0.00000000000E+00 0.  1.
</event>
<event>
 5    1  0.1102386E-009  0.9118800E+02  0.7818608E-02  0.1130116E+00
         25   -1    0    0    0    0  0.00000000000E+00  0.00000000000E+00  0.99999998245E-14  0.12500000000E+03  0.12500000000E+03 0.  0.
        -11    1    3    3    0    0  0.38456582607E+02  0.31525100305E+02  0.27587305890E+02  0.56866511600E+02  0.51100000000E-03 0. -1.
         23    2    1    0    0    0  0.35787196336E+01  0.10769829993E+02  0.25011172172E+02  0.97534472411E+02  0.93587489029E+02 0.  0.
         11    1    3    3    0    0 -0.34877862973E+02 -0.20755270312E+02 -0.25761337179E+01  0.40667960811E+02  0.51100000000E-03 0.  1.
         22    1    1    0    0    0 -0.35787196336E+01 -0.10769829993E+02 -0.25011172172E+02  0.27465527589E+02  0.00000000000E+00 0. -1.
</event>
<event>
 5    1  0.1102386E-009  0.9118800E+02  0.7818608E-02  0.1130116E+00
         25   -1    0    0    0    0  0.00000000000E+00  0.00000000000E+00  0.99999998245E-14  0.12500000000E+03  0.12500000000E+03 0.  0.
        -11    1    3    3    0    0 -0.43267570668E+02 -0.36156274942E+02  0.17988803060E+02  0.59185774684E+02  0.51100000000E-03 0.  1.
         23    2    1    0    0    0 -0.15823005741E+02 -0.26672895944E+02 -0.11550044631E+01  0.93965423734E+02  0.88692479576E+02 0.  0.
         11    1    3    3    0    0  0.27444564927E+02  0.94833789977E+01 -0.19143807523E+02  0.34779649049E+02  0.51100000000E-03 0. -1.
         22    1    1    0    0    0  0.15823005741E+02  0.26672895944E+02  0.11550044631E+01  0.31034576266E+02  0.00000000000E+00 0.  1.
</event>
<event>
 5    1  0.1102386E-009  0.9118800E+02  0.7818608E-02  0.1130116E+00
         25   -1    0    0    0    0  0.00000000000E+00  0.00000000000E+00  0.99999998245E-14  0.12500000000E+03  0.12500000000E+03 0.  0.
        -11    1    3    3    0    0  0.23678625689E+02 -0.34186346990E+02 -0.44133003530E+02  0.60639142770E+02  0.51100000000E-03 0. -1.
         23    2    1    0    0    0  0.15325341359E+02 -0.21468758959E+02 -0.12354307766E+02  0.95872648260E+02  0.91340911233E+02 0.  0.
         11    1    3    3    0    0 -0.83532843303E+01  0.12717588031E+02  0.31778695764E+02  0.35233505490E+02  0.51100000000E-03 0.  1.
         22    1    1    0    0    0 -0.15325341359E+02  0.21468758959E+02  0.12354307766E+02  0.29127351740E+02  0.00000000000E+00 0. -1.
</event>
<event>
 5    1  0.1102386E-009  0.9118800E+02  0.7818608E-02  0.1130116E+00
         25   -1    0    0    0    0  0.00000000000E+00  0.00000000000E+00  0.99999998245E-14  0.12500000000E+03  0.12500000000E+03 0.  0.
        -11    1    3    3    0    0 -0.28133803759E+02  0.19252292923E+02 -0.40946291985E+02  0.53280019935E+02  0.51100000000E-03 0. -1.
         23    2    1    0    0    0 -0.15149639853E+02 -0.15461893586E+02 -0.17778676602E+02  0.96988161741E+02  0.92854942977E+02 0.  0.
         11    1    3    3    0    0  0.12984163906E+02 -0.34714186509E+02  0.23167615383E+02  0.43708141806E+02  0.51100000000E-03 0.  1.
         22    1    1    0    0    0  0.15149639853E+02  0.15461893586E+02  0.17778676602E+02  0.28011838259E+02  0.00000000000E+00 0.  1.
</event>
<event>
 5    1  0.1102386E-009  0.9118800E+02  0.7818608E-02  0.1130116E+00
         25   -1    0    0    0    0  0.00000000000E+00  0.00000000000E+00  0.99999998245E-14  0.12500000000E+03  0.12500000000E+03 0.  0.
        -11    1    3    3    0    0  0.39816602113E+02  0.39083718978E+02  0.22139525285E+02  0.60025473535E+02  0.51100000000E-03 0.  1.
         23    2    1    0    0    0  0.26543289015E+02  0.10465059754E+02  0.46634818309E+01  0.96089591317E+02  0.91637316795E+02 0.  0.
         11    1    3    3    0    0 -0.13273313098E+02 -0.28618659224E+02 -0.17476043454E+02  0.36064117783E+02  0.51100000000E-03 0. -1.
         22    1    1    0    0    0 -0.26543289015E+02 -0.10465059754E+02 -0.46634818309E+01  0.28910408683E+02  0.00000000000E+00 0.  1.
</event>
<event>
 5    1  0.1102386E-009  0.9118800E+02  0.7818608E-02  0.1130116E+00
         25   -1    0    0    0    0  0.00000000000E+00  0.00000000000E+00  0.99999998245E-14  0.12500000000E+03  0.12500000000E+03 0.  0.
        -11    1    3    3    0    0 -0.23486757818E+02 -0.23864608390E+02 -0.16390942691E+02  0.37280159991E+02  0.51100000000E-03 0. -1.
         23    2    1    0    0    0 -0.25689459588E+01 -0.33293160269E+01  0.31386444346E+02  0.93333097449E+02  0.87796778769E+02 0.  0.
         11    1    3    3    0    0  0.20917811859E+02  0.20535292363E+02  0.47777387036E+02  0.56052937458E+02  0.51100000000E-03 0.  1.
         22    1    1    0    0    0  0.25689459588E+01  0.33293160269E+01 -0.31386444346E+02  0.31666902551E+02  0.00000000000E+00 0.  1.
</event>
<event>
 5    1  0.1102386E-009  0.9118800E+02  0.7818608E-02  0.1130116E+00
         25   -1    0    0    0    0  0.00000000000E+00  0.00000000000E+00  0.99999998245E-14  0.12500000000E+03  0.12500000000E+03 0.  0.
        -11    1    3    3    0    0  0.30395136116E+02 -0.18670205801E+02 -0.30800723815E+01  0.35804018354E+02  0.51100000000E-03 0.  1.
         23    2    1    0    0    0  0.11175972455E+02  0.30554776520E+02 -0.13690026305E+02  0.89702499398E+02  0.82465901133E+02 0.  0.
         11    1    3    3    0    0 -0.19219163661E+02  0.49224982321E+02 -0.10609953924E+02  0.53898481044E+02  0.51100000000E-03 0. -1.
         22    1    1    0    0    0 -0.11175972455E+02 -0.30554776520E+02  0.13690026305E+02  0.35297500602E+02  0.00000000000E+00 0. -1.
</event>
<event>
 5    1  0.1102386E-009  0.9118800E+02  0.7818608E-02  0.1130116E+00
         25   -1    0    0    0    0  0.00000000000E+00  0.00000000000E+00  0.99999998245E-14  0.12500000000E+03  0.12500000000E+03 0.  0.
        -11    1    3    3    0    0  0.23302934782E+02  0.38074651299E+02 -0.18815936152E+02  0.48443217219E+02  0.51100000000E-03 0. -1.
         23    2    1    0    0    0 -0.14102308106E+01 -0.10123469795E+02 -0.19910872494E+02  0.10261884196E+03  0.10014844228E+03 0.  0.
         11    1    3    3    0    0 -0.24713165592E+02 -0.48198121094E+02 -0.10949363420E+01  0.54175624744E+02  0.51100000000E-03 0.  1.
         22    1    1    0    0    0  0.14102308106E+01  0.10123469795E+02  0.19910872494E+02  0.22381158037E+02  0.00000000000E+00 0.  1.
</event>
<event>
 5    1  0.1102386E-009  0.9118800E+02  0.7818608E-02  0.1130116E+00
         25   -1    0    0    0    0  0.00000000000E+00  0.00000000000E+00  0.99999998245E-14  0.12500000000E+03  0.12500000000E+03 0.  0.
        -11    1    3    3    0    0 -0.95999258914E+01 -0.55134642879E+02  0.24233167054E+02  0.60985521300E+02  0.51100000000E-03 0. -1.
         23    2    1    0    0    0  0.40292543548E+00 -0.22804812421E+02  0.19172891164E+02  0.95203665090E+02  0.90420773457E+02 0.  0.
         11    1    3    3    0    0  0.10002851327E+02  0.32329830458E+02 -0.50602758900E+01  0.34218143790E+02  0.51100000000E-03 0.  1.
         22    1    1    0    0    0 -0.40292543548E+00  0.22804812421E+02 -0.19172891164E+02  0.29796334910E+02  0.00000000000E+00 0. -1.
</event>
<event>
 5    1  0.1102386E-009  0.9118800E+02  0.7818608E-02  0.1130116E+00
         25   -1    0    0    0    0  0.00000000000E+00  0.00000000000E+00  0.99999998245E-14  0.12500000000E+03  0.12500000000E+03 0.  0.
        -11    1    3    3    0    0  0.35937263961E+02  0.34297997774E+02  0.23576996597E+02  0.54988311132E+02  0.51100000000E-03 0. -1.
         23    2    1    0    0    0 -0.25517871289E+00  0.29398360021E+02  0.10626145773E+02  0.93739103307E+02  0.88372936053E+02 0.  0.
         11    1    3    3    0    0 -0.36192442674E+02 -0.48996377532E+01 -0.12950850824E+02  0.38750792175E+02  0.51100000000E-03 0.  1.
         22    1    1    0    0    0  0.25517871289E+00 -0.29398360021E+02 -0.10626145773E+02  0.31260896693E+02  0.00000000000E+00 0. -1.
</event>
<event>
 5    1  0.1102386E-009  0.9118800E+02  0.7818608E-02  0.1130116E+00
         25   -1    0    0    0    0  0.00000000000E+00  0.00000000000E+00  0.99999998245E-14  0.12500000000E+03  0.12500000000E+03 0.  0.
        -11    1    3    3    0    0  0.15167454814E+02  0.33122265501E+02 -0.34915637390E+02  0.50460260523E+02  0.51100000000E-03 0. -1.
         23    2    1    0    0    0 -0.44460131366E+00 -0.87567936214E+01 -0.27965917947E+02  0.95691781503E+02  0.91093058877E+02 0.  0.
         11    1    3    3    0    0 -0.15612056128E+02 -0.41879059122E+02  0.69497194425E+01  0.45231520979E+02  0.51100000000E-03 0.  1.
         22    1    1    0    0    0  0.44460131366E+00  0.87567936214E+01  0.27965917947E+02  0.29308218497E+02  0.00000000000E+00 0. -1.
</event>
<event>
 5    1  0.1102386E-009  0.9118800E+02  0.7818608E-02  0.1130116E+00
         25   -1    0    0    0    0  0.00000000000E+00  0.00000000000E+00  0.99999998245E-14  0.12500000000E+03  0.12500000000E+03 0.  0.
        -11    1    3    3    0    0 -0.13654880217E+02  0.47346464707E+02  0.23979686652E+02  0.54801175591E+02  0.51100000000E-03 0. -1.
         23    2    1    0    0    0 -0.13537080416E+02  0.60576219535E+01  0.24806283506E+02  0.96098459707E+02  0.91649413128E+02 0.  0.
         11    1    3    3    0    0  0.11779980019E+00 -0.41288842753E+02  0.82659685460E+00  0.41297284116E+02  0.51100000000E-03 0.  1.
         22    1    1    0    0    0  0.13537080416E+02 -0.60576219535E+01 -0.24806283506E+02  0.28901540293E+02  0.00000000000E+00 0. -1.
</event>
<event>
 5    1  0.1102386E-009  0.9118800E+02  0.7818608E-02  0.1130116E+00
         25   -1    0    0    0    0  0.00000000000E+00  0.00000000000E+00  0.99999998245E-14  0.12500000000E+03  0.12500000000E+03 0.  0.
        -11    1    3    3    0    0  0.10399565425E+02  0.36230418272E+02  0.75264193803E+01  0.38437496772E+02  0.51100000000E-03 0.  1.
         23    2    1    0    0    0  0.12467080661E+02 -0.21042381774E+02 -0.10307700762E+02  0.98458360527E+02  0.94813449108E+02 0.  0.
         11    1    3    3    0    0  0.20675152354E+01 -0.57272800046E+02 -0.17834120142E+02  0.60020863754E+02  0.51100000000E-03 0. -1.
         22    1    1    0    0    0 -0.12467080661E+02  0.21042381774E+02  0.10307700762E+02  0.26541639473E+02  0.00000000000E+00 0. -1.
</event>
<event>
 5    1  0.1102386E-009  0.9118800E+02  0.7818608E-02  0.1130116E+00
         25   -1    0    0    0    0  0.00000000000E+00  0.00000000000E+00  0.99999998245E-14  0.12500000000E+03  0.12500000000E+03 0.  0.
        -11    1    3    3    0    0 -0.78111700130E+00  0.51756553605E+01 -0.35022960915E+02  0.35411937870E+02  0.51100000000E-03 0. -1.
         23    2    1    0    0    0  0.19998828060E+02 -0.30447677076E+01  0.21069113381E+02  0.95791589005E+02  0.91229914235E+02 0.  0.
         11    1    3    3    0    0  0.20779945061E+02 -0.82204230682E+01  0.56092074296E+02  0.60379651136E+02  0.51100000000E-03 0.  1.
         22    1    1    0    0    0 -0.19998828060E+02  0.30447677076E+01 -0.21069113381E+02  0.29208410995E+02  0.00000000000E+00 0.  1.
</event>
<event>
 5    1  0.1102386E-009  0.9118800E+02  0.7818608E-02  0.1130116E+00
         25   -1    0    0    0    0  0.00000000000E+00  0.00000000000E+00  0.99999998245E-14  0.12500000000E+03  0.12500000000E+03 0.  0.
        -11    1    3    3    0    0  0.29783197434E+02  0.17857792935E+02  0.10350944491E+02  0.36236468785E+02  0.51100000000E-03 0. -1.
         23    2    1    0    0    0 -0.27077052354E+02 -0.22896930625E+01  0.82668137942E+01  0.96596660957E+02  0.92326405970E+02 0.  0.
         11    1    3    3    0    0 -0.56860249788E+02 -0.20147485997E+02 -0.20841306973E+01  0.60360192172E+02  0.51100000000E-03 0.  1.
         22    1    1    0    0    0  0.27077052354E+02  0.22896930625E+01 -0.82668137942E+01  0.28403339043E+02  0.00000000000E+00 0.  1.
</event>
<event>
 5    1  0.1102386E-009  0.9118800E+02  0.7818608E-02  0.1130116E+00
         25   -1    0    0    0    0  0.00000000000E+00  0.00000000000E+00  0.99999998245E-14  0.12500000000E+03  0.12500000000E+03 0.  0.
        -11    1    3    3    0    0  0.19259943322E+02 -0.34478339884E+02  0.32345004051E+01  0.39625286511E+02  0.51100000000E-03 0. -1.
         23    2    1    0    0    0 -0.29206436864E+02 -0.92003869094E+01  0.22451308986E+01  0.94296519964E+02  0.89157893598E+02 0.  0.
         11    1    3    3    0    0 -0.48466380187E+02  0.25277952975E+02 -0.98936950656E+00  0.54671233453E+02  0.51100000000E-03 0.  1.
         22    1    1    0    0    0  0.29206436864E+02  0.92003869094E+01 -0.22451308986E+01  0.30703480036E+02  0.00000000000E+00 0.  1.
</event>
<event>
 5    1  0.1102386E-009  0.9118800E+02  0.7818608E-02  0.1130116E+00
         25   -1    0    0    0    0  0.00000000000E+00  0.00000000000E+00  0.99999998245E-14  0.12500000000E+03  0.12500000000E+03 0.  0.
        -11    1    3    3    0    0  0.50187866573E+02  0.20237255527E+02 -0.64822590872E+01  0.54501267376E+02  0.51100000000E-03 0. -1.
         23    2    1    0    0    0  0.17491805070E+02  0.22212832122E+02  0.14322982013E+02  0.93305821209E+02  0.87757935836E+02 0.  0.
         11    1    3    3    0    0 -0.32696061503E+02  0.19755765948E+01  0.20805241101E+02  0.38804553833E+02  0.51100000000E-03 0.  1.
         22    1    1    0    0    0 -0.17491805070E+02 -0.22212832122E+02 -0.14322982013E+02  0.31694178791E+02  0.00000000000E+00 0. -1.
</event>
<event>
 5    1  0.1102386E-009  0.9118800E+02  0.7818608E-02  0.1130116E+00
         25   -1    0    0    0    0  0.00000000000E+00  0.00000000000E+00  0.99999998245E-14  0.12500000000E+03  0.12500000000E+03 0.  0.
        -11    1    3    3    0    0  0.56289462255E+01 -0.13152865409E+02 -0.60699077776E+02  0.62362335967E+02  0.51100000000E-03 0. -1.
         23    2    1    0    0    0  0.32065535140E+01 -0.90752678287E+01 -0.28270513664E+02  0.95135900911E+02  0.90327045937E+02 0.  0.
         11    1    3    3    0    0 -0.24223927115E+01  0.40775975802E+01  0.32428564113E+02  0.32773564944E+02  0.51100000000E-03 0.  1.
         22    1    1    0    0    0 -0.32065535140E+01  0.90752678287E+01  0.28270513664E+02  0.29864099089E+02  0.00000000000E+00 0. -1.
</event>
<event>
 5    1  0.1102386E-009  0.9118800E+02  0.7818608E-02  0.1130116E+00
         25   -1    0    0    0    0  0.00000000000E+00  0.00000000000E+00  0.99999998245E-14  0.12500000000E+03  0.12500000000E+03 0.  0.
        -11    1    3    3    0    0  0.28490149503E+02  0.26174834707E+02 -0.32491945269E+02  0.50522639463E+02  0.51100000000E-03 0.  1.
         23    2    1    0    0    0  0.32063209774E+02 -0.39586520137E+01 -0.34768666279E+01  0.92506786119E+02  0.86612334743E+02 0.  0.
         11    1    3    3    0    0  0.35730602710E+01 -0.30133486720E+02  0.29015078641E+02  0.41984146656E+02  0.51100000000E-03 0. -1.
         22    1    1    0    0    0 -0.32063209774E+02  0.39586520137E+01  0.34768666279E+01  0.32493213881E+02  0.00000000000E+00 0.  1.
</event>
<event>
 5    1  0.1102386E-009  0.9118800E+02  0.7818608E-02  0.1130116E+00
         25   -1    0    0    0    0  0.00000000000E+00  0.00000000000E+00  0.99999998245E-14  0.12500000000E+03  0.12500000000E+03 0.  0.
        -11    1    3    3    0    0 -0.22967171836E+02  0.63619525565E+01 -0.55672227727E+02  0.60558751332E+02  0.51100000000E-03 0. -1.
         23    2    1    0    0    0 -0.17308346382E+02  0.12383929767E+02 -0.25790000733E+02  0.91562525383E+02  0.85238672829E+02 0.  0.
         11    1    3    3    0    0  0.56588254536E+01  0.60219772101E+01  0.29882226994E+02  0.31003774051E+02  0.51100000000E-03 0.  1.
         22    1    1    0    0    0  0.17308346382E+02 -0.12383929767E+02  0.25790000733E+02  0.33437474617E+02  0.00000000000E+00 0. -1.
</event>
<event>
 5    1  0.1102386E-009  0.9118800E+02  0.7818608E-02  0.1130116E+00
         25   -1    0    0    0    0  0.00000000000E+00  0.00000000000E+00  0.99999998245E-14  0.12500000000E+03  0.12500000000E+03 0.  0.
        -11    1    3    3    0    0 -0.53288829175E+02  0.23798231078E+02  0.17449265371E+02  0.60914136123E+02  0.51100000000E-03 0. -1.
         23    2    1    0    0    0 -0.19350028296E+02  0.16152480384E+02  0.14721152142E+02  0.95810300824E+02  0.91255548905E+02 0.  0.
         11    1    3    3    0    0  0.33938800879E+02 -0.76457506948E+01 -0.27281132286E+01  0.34896164701E+02  0.51100000000E-03 0.  1.
         22    1    1    0    0    0  0.19350028296E+02 -0.16152480384E+02 -0.14721152142E+02  0.29189699176E+02  0.00000000000E+00 0. -1.
</event>
<event>
 5    1  0.1102386E-009  0.9118800E+02  0.7818608E-02  0.1130116E+00
         25   -1    0    0    0    0  0.00000000000E+00  0.00000000000E+00  0.99999998245E-14  0.12500000000E+03  0.12500000000E+03 0.  0.
        -11    1    3    3    0    0 -0.56573921529E+02 -0.18215101594E+02 -0.14876499430E+02  0.61267517975E+02  0.51100000000E-03 0. -1.
         23    2    1    0    0    0 -0.22783944660E+02 -0.16513719873E+02 -0.67548211326E+01  0.96061467093E+02  0.91598945262E+02 0.  0.
         11    1    3    3    0    0  0.33789976869E+02  0.17013817207E+01  0.81216782976E+01  0.34793949118E+02  0.51100000000E-03 0.  1.
         22    1    1    0    0    0  0.22783944660E+02  0.16513719873E+02  0.67548211326E+01  0.28938532907E+02  0.00000000000E+00 0. -1.
</event>
<event>
 5    1  0.1102386E-009  0.9118800E+02  0.7818608E-02  0.1130116E+00
         25   -1    0    0    0    0  0.00000000000E+00  0.00000000000E+00  0.99999998245E-14  0.12500000000E+03  0.12500000000E+03 0.  0.
        -11    1    3    3    0    0  0.18079043092E+02 -0.45265071332E+02  0.21971881381E+02  0.53465335064E+02  0.51100000000E-03 0. -1.
         23    2    1    0    0    0  0.17618661496E+02 -0.18638652539E+02 -0.12043515154E+02  0.96665165279E+02  0.92419106898E+02 0.  0.
         11    1    3    3    0    0 -0.46038159575E+00  0.26626418793E+02 -0.34015396535E+02  0.43199830215E+02  0.51100000000E-03 0.  1.
         22    1    1    0    0    0 -0.17618661496E+02  0.18638652539E+02  0.12043515154E+02  0.28334834721E+02  0.00000000000E+00 0. -1.
</event>
<event>
 5    1  0.1102386E-009  0.9118800E+02  0.7818608E-02  0.1130116E+00
         25   -1    0    0    0    0  0.00000000000E+00  0.00000000000E+00  0.99999998245E-14  0.12500000000E+03  0.12500000000E+03 0.  0.
        -11    1    3    3    0    0  0.30063532367E+02 -0.24551427313E+02 -0.37588500532E+02  0.54032249019E+02  0.51100000000E-03 0.  1.
         23    2    1    0    0    0  0.29174008374E+02  0.92451440346E+00 -0.50327837918E+01  0.95380641394E+02  0.90665099948E+02 0.  0.
         11    1    3    3    0    0 -0.88952399291E+00  0.25475941717E+02  0.32555716740E+02  0.41348392376E+02  0.51100000000E-03 0. -1.
         22    1    1    0    0    0 -0.29174008374E+02 -0.92451440346E+00  0.50327837918E+01  0.29619358606E+02  0.00000000000E+00 0.  1.
</event>
<event>
 5    1  0.1102386E-009  0.9118800E+02  0.7818608E-02  0.1130116E+00
         25   -1    0    0    0    0  0.00000000000E+00  0.00000000000E+00  0.99999998245E-14  0.12500000000E+03  0.12500000000E+03 0.  0.
        -11    1    3    3    0    0 -0.26242158627E+02 -0.31776776548E+02  0.30196861118E+02  0.51090751010E+02  0.51100000000E-03 0. -1.
         23    2    1    0    0    0 -0.23605779481E+02  0.97294245482E+01  0.15105635578E+02  0.95333946114E+02  0.90600698279E+02 0.  0.
         11    1    3    3    0    0  0.26363791462E+01  0.41506201096E+02 -0.15091225540E+02  0.44243195104E+02  0.51100000000E-03 0.  1.
         22    1    1    0    0    0  0.23605779481E+02 -0.97294245482E+01 -0.15105635578E+02  0.29666053886E+02  0.00000000000E+00 0. -1.
</event>
<event>
 5    1  0.1102386E-009  0.9118800E+02  0.7818608E-02  0.1130116E+00
         25   -1    0    0    0    0  0.00000000000E+00  0.00000000000E+00  0.99999998245E-14  0.12500000000E+03  0.12500000000E+03 0.  0.
        -11    1    3    3    0    0  0.20729318778E+02  0.21861827909E+02 -0.17504683063E+02  0.34843336607E+02  0.51100000000E-03 0.  1.
         23    2    1    0    0    0 -0.12605678195E+02 -0.39972129930E+01  0.26239027760E+02  0.95616885593E+02  0.90990226938E+02 0.  0.
         11    1    3    3    0    0 -0.33334996973E+02 -0.25859040902E+02  0.43743710823E+02  0.60773548986E+02  0.51100000000E-03 0. -1.
         22    1    1    0    0    0  0.12605678195E+02  0.39972129930E+01 -0.26239027760E+02  0.29383114407E+02  0.00000000000E+00 0. -1.
</event>
<event>
 5    1  0.1102386E-009  0.9118800E+02  0.7818608E-02  0.1130116E+00
         25   -1    0    0    0    0  0.00000000000E+00  0.00000000000E+00  0.99999998245E-14  0.12500000000E+03  0.12500000000E+03 0.  0.
        -11    1    3    3    0    0 -0.16119267105E+02  0.29414549078E+02  0.23222740390E+02  0.40796349603E+02  0.51100000000E-03 0.  1.
         23    2    1    0    0    0 -0.28742387168E+01 -0.23553768332E+02  0.17129792801E+02  0.95734473313E+02  0.91151622741E+02 0.  0.
         11    1    3    3    0    0  0.13245028388E+02 -0.52968317410E+02 -0.60929475893E+01  0.54938123710E+02  0.51100000000E-03 0. -1.
         22    1    1    0    0    0  0.28742387168E+01  0.23553768332E+02 -0.17129792801E+02  0.29265526687E+02  0.00000000000E+00 0. -1.
</event>
<event>
 5    1  0.1102386E-009  0.9118800E+02  0.7818608E-02  0.1130116E+00
         25   -1    0    0    0    0  0.00000000000E+00  0.00000000000E+00  0.99999998245E-14  0.12500000000E+03  0.12500000000E+03 0.  0.
        -11    1    3    3    0    0 -0.16843535390E+02  0.43102858993E+01  0.19422170008E+02  0.26067296313E+02  0.51100000000E-03 0.  1.
         23    2    1    0    0    0  0.32238219274E+01 -0.41397210248E+02 -0.75344375826E+01  0.82799410030E+02  0.71237999042E+02 0.  0.
         11    1    3    3    0    0  0.20067357318E+02 -0.45707496147E+02 -0.26956607590E+02  0.56732113717E+02  0.51100000000E-03 0. -1.
         22    1    1    0    0    0 -0.32238219274E+01  0.41397210248E+02  0.75344375826E+01  0.42200589970E+02  0.00000000000E+00 0. -1.
</event>
<event>
 5    1  0.1102386E-009  0.9118800E+02  0.7818608E-02  0.1130116E+00
         25   -1    0    0    0    0  0.00000000000E+00  0.00000000000E+00  0.99999998245E-14  0.12500000000E+03  0.12500000000E+03 0.  0.
        -11    1    3    3    0    0 -0.33183288951E+02  0.51014370973E+02  0.71988090453E+01  0.61281478142E+02  0.51100000000E-03 0. -1.
         23    2    1    0    0    0 -0.93398673037E+01  0.27198497406E+02 -0.18737496955E+01  0.96181562841E+02  0.91762686917E+02 0.  0.
         11    1    3    3    0    0  0.23843421647E+02 -0.23815873567E+02 -0.90725587408E+01  0.34900084699E+02  0.51100000000E-03 0.  1.
         22    1    1    0    0    0  0.93398673037E+01 -0.27198497406E+02  0.18737496955E+01  0.28818437159E+02  0.00000000000E+00 0. -1.
</event>
<event>
 5    1  0.1102386E-009  0.9118800E+02  0.7818608E-02  0.1130116E+00
         25   -1    0    0    0    0  0.00000000000E+00  0.00000000000E+00  0.99999998245E-14  0.12500000000E+03  0.12500000000E+03 0.  0.
        -11    1    3    3    0    0  0.30299579147E+02 -0.34989035738E+02 -0.38989550669E+02  0.60518444957E+02  0.51100000000E-03 0.  1.
         23    2    1    0    0    0  0.43592185016E+01 -0.16529784898E+02 -0.23542157360E+02  0.95905846844E+02  0.91386332189E+02 0.  0.
         11    1    3    3    0    0 -0.25940360646E+02  0.18459250840E+02  0.15447393309E+02  0.35387401887E+02  0.51100000000E-03 0. -1.
         22    1    1    0    0    0 -0.43592185016E+01  0.16529784898E+02  0.23542157360E+02  0.29094153156E+02  0.00000000000E+00 0.  1.
</event>
<event>
 5    1  0.1102386E-009  0.9118800E+02  0.7818608E-02  0.1130116E+00
         25   -1    0    0    0    0  0.00000000000E+00  0.00000000000E+00  0.99999998245E-14  0.12500000000E+03  0.12500000000E+03 0.  0.
        -11    1    3    3    0    0  0.35267446721E+02 -0.12866334719E+02 -0.13072021213E+02  0.39751894372E+02  0.51100000000E-03 0.  1.
         23    2    1    0    0    0 -0.19430144013E+02  0.11730056184E+02 -0.11043234483E+02  0.99759600988E+02  0.96513730873E+02 0.  0.
         11    1    3    3    0    0 -0.54697590734E+02  0.24596390902E+02  0.20287867304E+01  0.60007706616E+02  0.51100000000E-03 0. -1.
         22    1    1    0    0    0  0.19430144013E+02 -0.11730056184E+02  0.11043234483E+02  0.25240399012E+02  0.00000000000E+00 0. -1.
</event>
<event>
 5    1  0.1102386E-009  0.9118800E+02  0.7818608E-02  0.1130116E+00
         25   -1    0    0    0    0  0.00000000000E+00  0.00000000000E+00  0.99999998245E-14  0.12500000000E+03  0.12500000000E+03 0.  0.
        -11    1    3    3    0    0 -0.57986107606E+01 -0.35172667018E+02  0.19751221233E+02  0.40753541347E+02  0.51100000000E-03 0.  1.
         23    2    1    0    0    0  0.11713021864E+02 -0.74156987764E+01 -0.25097652922E+02  0.96328068573E+02  0.91962041861E+02 0.  0.
         11    1    3    3    0    0  0.17511632625E+02  0.27756968241E+02 -0.44848874155E+02  0.55574527226E+02  0.51100000000E-03 0. -1.
         22    1    1    0    0    0 -0.11713021864E+02  0.74156987764E+01  0.25097652922E+02  0.28671931427E+02  0.00000000000E+00 0. -1.
</event>
<event>
 5    1  0.1102386E-009  0.9118800E+02  0.7818608E-02  0.1130116E+00
         25   -1    0    0    0    0  0.00000000000E+00  0.00000000000E+00  0.99999998245E-14  0.12500000000E+03  0.12500000000E+03 0.  0.
        -11    1    3    3    0    0 -0.46608196350E+02  0.13695567248E+02  0.22872075263E+02  0.53693801843E+02  0.51100000000E-03 0. -1.
         23    2    1    0    0    0 -0.17926625910E+01  0.20269551405E+02  0.15123024451E+02  0.99647007635E+02  0.96367794977E+02 0.  0.
         11    1    3    3    0    0  0.44815533759E+02  0.65739841567E+01 -0.77490508119E+01  0.45953205792E+02  0.51100000000E-03 0.  1.
         22    1    1    0    0    0  0.17926625910E+01 -0.20269551405E+02 -0.15123024451E+02  0.25352992365E+02  0.00000000000E+00 0. -1.
</event>
<event>
 5    1  0.1102386E-009  0.9118800E+02  0.7818608E-02  0.1130116E+00
         25   -1    0    0    0    0  0.00000000000E+00  0.00000000000E+00  0.99999998245E-14  0.12500000000E+03  0.12500000000E+03 0.  0.
        -11    1    3    3    0    0  0.40208237826E+02  0.37212520020E+02  0.11790979888E+02  0.56040175252E+02  0.51100000000E-03 0. -1.
         23    2    1    0    0    0  0.27566317571E+02 -0.45263781198E+00  0.19019305509E+00  0.97429310512E+02  0.93446924123E+02 0.  0.
         11    1    3    3    0    0 -0.12641920255E+02 -0.37665157832E+02 -0.11600786833E+02  0.41389135260E+02  0.51100000000E-03 0.  1.
         22    1    1    0    0    0 -0.27566317571E+02  0.45263781198E+00 -0.19019305509E+00  0.27570689488E+02  0.00000000000E+00 0. -1.
</event>
<event>
 5    1  0.1102386E-009  0.9118800E+02  0.7818608E-02  0.1130116E+00
         25   -1    0    0    0    0  0.00000000000E+00  0.00000000000E+00  0.99999998245E-14  0.12500000000E+03  0.12500000000E+03 0.  0.
        -11    1    3    3    0    0  0.23151211914E+02  0.21015403520E+02  0.31987625763E+02  0.44730682986E+02  0.51100000000E-03 0.  1.
         23    2    1    0    0    0  0.22869111695E+02 -0.21324451592E+02  0.12906065656E+02  0.91172569768E+02  0.84664883169E+02 0.  0.
         11    1    3    3    0    0 -0.28210021913E+00 -0.42339855112E+02 -0.19081560107E+02  0.46441886782E+02  0.51100000000E-03 0. -1.
         22    1    1    0    0    0 -0.22869111695E+02  0.21324451592E+02 -0.12906065656E+02  0.33827430232E+02  0.00000000000E+00 0. -1.
</event>
<event>
 5    1  0.1102386E-009  0.9118800E+02  0.7818608E-02  0.1130116E+00
         25   -1    0    0    0    0  0.00000000000E+00  0.00000000000E+00  0.99999998245E-14  0.12500000000E+03  0.12500000000E+03 0.  0.
        -11    1    3    3    0    0  0.33144139028E+02  0.25316295903E+02  0.31079561834E+02  0.52013344001E+02  0.51100000000E-03 0.  1.
         23    2    1    0    0    0  0.67452500997E+01  0.26851951407E+02 -0.51217145765E+01  0.96844047637E+02  0.92660735532E+02 0.  0.
         11    1    3    3    0    0 -0.26398888928E+02  0.15356555035E+01 -0.36201276410E+02  0.44830703636E+02  0.51100000000E-03 0. -1.
         22    1    1    0    0    0 -0.67452500997E+01 -0.26851951407E+02  0.51217145765E+01  0.28155952363E+02  0.00000000000E+00 0.  1.
</event>
<event>
 5    1  0.1102386E-009  0.9118800E+02  0.7818608E-02  0.1130116E+00
         25   -1    0    0    0    0  0.00000000000E+00  0.00000000000E+00  0.99999998245E-14  0.12500000000E+03  0.12500000000E+03 0.  0.
        -11    1    3    3    0    0 -0.25163768349E+02 -0.19751772270E+02  0.25449695776E+02  0.40878292047E+02  0.51100000000E-03 0.  1.
         23    2    1    0    0    0 -0.59752326719E+01  0.27939536656E+02  0.62532954104E+01  0.95752353641E+02  0.91176139479E+02 0.  0.
         11    1    3    3    0    0  0.19188535678E+02  0.47691308926E+02 -0.19196400365E+02  0.54874061594E+02  0.51100000000E-03 0. -1.
         22    1    1    0    0    0  0.59752326719E+01 -0.27939536656E+02 -0.62532954104E+01  0.29247646359E+02  0.00000000000E+00 0. -1.
</event>
<event>
 5    1  0.1102386E-009  0.9118800E+02  0.7818608E-02  0.1130116E+00
         25   -1    0    0    0    0  0.00000000000E+00  0.00000000000E+00  0.99999998245E-14  0.12500000000E+03  0.12500000000E+03 0.  0.
        -11    1    3    3    0    0  0.13360197540E+02  0.55054840111E+02  0.11909458126E+02  0.57890979358E+02  0.51100000000E-03 0. -1.
         23    2    1    0    0    0  0.19859863520E+02  0.18851037231E+02  0.12997655595E+02  0.94689690951E+02  0.89707428553E+02 0.  0.
         11    1    3    3    0    0  0.64996659798E+01 -0.36203802880E+02  0.10881974694E+01  0.36798711592E+02  0.51100000000E-03 0.  1.
         22    1    1    0    0    0 -0.19859863520E+02 -0.18851037231E+02 -0.12997655595E+02  0.30310309049E+02  0.00000000000E+00 0. -1.
</event>
<event>
 5    1  0.1102386E-009  0.9118800E+02  0.7818608E-02  0.1130116E+00
         25   -1    0    0    0    0  0.00000000000E+00  0.00000000000E+00  0.99999998245E-14  0.12500000000E+03  0.12500000000E+03 0.  0.
        -11    1    3    3    0    0  0.78005130297E+01  0.80680929103E+01  0.39722017545E+02  0.41276879785E+02  0.51100000000E-03 0. -1.
         23    2    1    0    0    0 -0.29290302739E+02  0.16316760657E+02  0.86166267937E+01  0.90382016665E+02  0.83489545252E+02 0.  0.
         11    1    3    3    0    0 -0.37090815769E+02  0.82486677462E+01 -0.31105390751E+02  0.49105136880E+02  0.51100000000E-03 0.  1.
         22    1    1    0    0    0  0.29290302739E+02 -0.16316760657E+02 -0.86166267937E+01  0.34617983335E+02  0.00000000000E+00 0.  1.
</event>
<event>
 5    1  0.1102386E-009  0.9118800E+02  0.7818608E-02  0.1130116E+00
         25   -1    0    0    0    0  0.00000000000E+00  0.00000000000E+00  0.99999998245E-14  0.12500000000E+03  0.12500000000E+03 0.  0.
        -11    1    3    3    0    0  0.29139087802E+02 -0.11077639043E+02  0.19793856303E+02  0.36926917990E+02  0.51100000000E-03 0. -1.
         23    2    1    0    0    0 -0.58198668989E+01  0.24036716275E+01 -0.27229252686E+02  0.97052179157E+02  0.92941082355E+02 0.  0.
         11    1    3    3    0    0 -0.34958954700E+02  0.13481310670E+02 -0.47023108989E+02  0.60125261167E+02  0.51100000000E-03 0.  1.
         22    1    1    0    0    0  0.58198668989E+01 -0.24036716275E+01  0.27229252686E+02  0.27947820843E+02  0.00000000000E+00 0.  1.
</event>
<event>
 5    1  0.1102386E-009  0.9118800E+02  0.7818608E-02  0.1130116E+00
         25   -1    0    0    0    0  0.00000000000E+00  0.00000000000E+00  0.99999998245E-14  0.12500000000E+03  0.12500000000E+03 0.  0.
        -11    1    3    3    0    0 -0.27088939890E+02  0.29341256327E+02 -0.64994380705E+00  0.39939234024E+02  0.51100000000E-03 0. -1.
         23    2    1    0    0    0 -0.88521468898E+01 -0.18343410326E+02  0.21316336690E+02  0.95517337013E+02  0.90853366768E+02 0.  0.
         11    1    3    3    0    0  0.18236793000E+02 -0.47684666653E+02  0.21966280497E+02  0.55578102989E+02  0.51100000000E-03 0.  1.
         22    1    1    0    0    0  0.88521468898E+01  0.18343410326E+02 -0.21316336690E+02  0.29482662987E+02  0.00000000000E+00 0.  1.
</event>
<event>
 5    1  0.1102386E-009  0.9118800E+02  0.7818608E-02  0.1130116E+00
         25   -1    0    0    0    0  0.00000000000E+00  0.00000000000E+00  0.99999998245E-14  0.12500000000E+03  0.12500000000E+03 0.  0.
        -11    1    3    3    0    0  0.58379908589E+02 -0.17614955373E+01  0.33683700104E+01  0.58503525622E+02  0.51100000000E-03 0. -1.
         23    2    1    0    0    0  0.18118143689E+02 -0.12050917553E+02 -0.83708009826E+01  0.10168558271E+03  0.98976743111E+02 0.  0.
         11    1    3    3    0    0 -0.40261764900E+02 -0.10289422015E+02 -0.11739170993E+02  0.43182057086E+02  0.51100000000E-03 0.  1.
         22    1    1    0    0    0 -0.18118143689E+02  0.12050917553E+02  0.83708009826E+01  0.23314417292E+02  0.00000000000E+00 0. -1.
</event>
<event>
 5    1  0.1102386E-009  0.9118800E+02  0.7818608E-02  0.1130116E+00
         25   -1    0    0    0    0  0.00000000000E+00  0.00000000000E+00  0.99999998245E-14  0.12500000000E+03  0.12500000000E+03 0.  0.
        -11    1    3    3    0    0  0.24654470995E+02  0.19875076228E+02  0.20188185490E+02  0.37555617805E+02  0.51100000000E-03 0.  1.
         23    2    1    0    0    0 -0.54709183280E+01 -0.27916231131E+02  0.91477074547E+01  0.95118108165E+02  0.90302419909E+02 0.  0.
         11    1    3    3    0    0 -0.30125389323E+02 -0.47791307359E+02 -0.11040478036E+02  0.57562490360E+02  0.51100000000E-03 0. -1.
         22    1    1    0    0    0  0.54709183280E+01  0.27916231131E+02 -0.91477074547E+01  0.29881891835E+02  0.00000000000E+00 0. -1.
</event>
<event>
 5    1  0.1102386E-009  0.9118800E+02  0.7818608E-02  0.1130116E+00
         25   -1    0    0    0    0  0.00000000000E+00  0.00000000000E+00  0.99999998245E-14  0.12500000000E+03  0.12500000000E+03 0.  0.
        -11    1    3    3    0    0 -0.29251299970E+02  0.30289172281E+02 -0.15045032174E+02  0.44714935992E+02  0.51100000000E-03 0. -1.
         23    2    1    0    0    0 -0.25007268635E+02 -0.13504587166E+02  0.94208005316E+01  0.95058576490E+02  0.90219976295E+02 0.  0.
         11    1    3    3    0    0  0.42440313347E+01 -0.43793759446E+02  0.24465832705E+02  0.50343640499E+02  0.51100000000E-03 0.  1.
         22    1    1    0    0    0  0.25007268635E+02  0.13504587166E+02 -0.94208005316E+01  0.29941423510E+02  0.00000000000E+00 0. -1.
</event>
<event>
 5    1  0.1102386E-009  0.9118800E+02  0.7818608E-02  0.1130116E+00
         25   -1    0    0    0    0  0.00000000000E+00  0.00000000000E+00  0.99999998245E-14  0.12500000000E+03  0.12500000000E+03 0.  0.
        -11    1    3    3    0    0  0.33425590892E+02 -0.61045804252E+01 -0.11060051253E+02  0.35733188531E+02  0.51100000000E-03 0. -1.
         23    2    1    0    0    0 -0.19801563628E+02  0.17442917267E+02 -0.15990122985E+02  0.94144833204E+02  0.88944973445E+02 0.  0.
         11    1    3    3    0    0 -0.53227154520E+02  0.23547497693E+02 -0.49300717319E+01  0.58411644673E+02  0.51100000000E-03 0.  1.
         22    1    1    0    0    0  0.19801563628E+02 -0.17442917267E+02  0.15990122985E+02  0.30855166796E+02  0.00000000000E+00 0.  1.
</event>
<event>
 5    1  0.1102386E-009  0.9118800E+02  0.7818608E-02  0.1130116E+00
         25   -1    0    0    0    0  0.00000000000E+00  0.00000000000E+00  0.99999998245E-14  0.12500000000E+03  0.12500000000E+03 0.  0.
        -11    1    3    3    0    0  0.14359727331E+02  0.25591150557E+02  0.18936715698E+02  0.34924317567E+02  0.51100000000E-03 0. -1.
         23    2    1    0    0    0  0.12777060288E+02 -0.14717107019E+02 -0.24162753258E+02  0.93956721281E+02  0.88680213804E+02 0.  0.
         11    1    3    3    0    0 -0.15826670434E+01 -0.40308257576E+02 -0.43099468956E+02  0.59032403714E+02  0.51100000000E-03 0.  1.
         22    1    1    0    0    0 -0.12777060288E+02  0.14717107019E+02  0.24162753258E+02  0.31043278719E+02  0.00000000000E+00 0.  1.
</event>
<event>
 5    1  0.1102386E-009  0.9118800E+02  0.7818608E-02  0.1130116E+00
         25   -1    0    0    0    0  0.00000000000E+00  0.00000000000E+00  0.99999998245E-14  0.12500000000E+03  0.12500000000E+03 0.  0.
        -11    1    3    3    0    0  0.44543044214E+02 -0.33757506025E+02  0.13414018553E+02  0.57476846598E+02  0.51100000000E-03 0.  1.
         23    2    1    0    0    0  0.21832221281E+02 -0.33982883701E+01  0.19073836521E+02  0.95810866927E+02  0.91256324338E+02 0.  0.
         11    1    3    3    0    0 -0.22710822933E+02  0.30359217655E+02  0.56598179678E+01  0.38334020329E+02  0.51100000000E-03 0. -1.
         22    1    1    0    0    0 -0.21832221281E+02  0.33982883701E+01 -0.19073836521E+02  0.29189133073E+02  0.00000000000E+00 0.  1.
</event>
<event>
 5    1  0.1102386E-009  0.9118800E+02  0.7818608E-02  0.1130116E+00
         25   -1    0    0    0    0  0.00000000000E+00  0.00000000000E+00  0.99999998245E-14  0.12500000000E+03  0.12500000000E+03 0.  0.
        -11    1    3    3    0    0  0.33662323400E+02 -0.15779027588E+01 -0.43659802529E+02  0.55152698491E+02  0.51100000000E-03 0.  1.
         23    2    1    0    0    0 -0.40426430918E+01  0.78233993556E+01 -0.25454636187E+02  0.98065133302E+02  0.94293601721E+02 0.  0.
         11    1    3    3    0    0 -0.37704966491E+02  0.94013021145E+01  0.18205166342E+02  0.42912434810E+02  0.51100000000E-03 0. -1.
         22    1    1    0    0    0  0.40426430918E+01 -0.78233993556E+01  0.25454636187E+02  0.26934866698E+02  0.00000000000E+00 0. -1.
</event>
<event>
 5    1  0.1102386E-009  0.9118800E+02  0.7818608E-02  0.1130116E+00
         25   -1    0    0    0    0  0.00000000000E+00  0.00000000000E+00  0.99999998245E-14  0.12500000000E+03  0.12500000000E+03 0.  0.
        -11    1    3    3    0    0 -0.23712410422E+02 -0.23176672068E+02  0.41994497562E+02  0.53506769309E+02  0.51100000000E-03 0.  1.
         23    2    1    0    0    0 -0.10039873431E+02 -0.25938847034E+02  0.60950806137E+00  0.97179246163E+02  0.93111822777E+02 0.  0.
         11    1    3    3    0    0  0.13672536990E+02 -0.27621749659E+01 -0.41384989501E+02  0.43672476854E+02  0.51100000000E-03 0. -1.
         22    1    1    0    0    0  0.10039873431E+02  0.25938847034E+02 -0.60950806137E+00  0.27820753837E+02  0.00000000000E+00 0. -1.
</event>
<event>
 5    1  0.1102386E-009  0.9118800E+02  0.7818608E-02  0.1130116E+00
         25   -1    0    0    0    0  0.00000000000E+00  0.00000000000E+00  0.99999998245E-14  0.12500000000E+03  0.12500000000E+03 0.  0.
        -11    1    3    3    0    0  0.26688668407E+02  0.38852353642E+02 -0.19040268431E+02  0.50836229473E+02  0.51100000000E-03 0. -1.
         23    2    1    0    0    0  0.28264828497E+02 -0.32043812056E+00  0.42175955606E+01  0.96420438722E+02  0.92087510991E+02 0.  0.
         11    1    3    3    0    0  0.15761600901E+01 -0.39172791763E+02  0.23257863992E+02  0.45584209249E+02  0.51100000000E-03 0.  1.
         22    1    1    0    0    0 -0.28264828497E+02  0.32043812056E+00 -0.42175955606E+01  0.28579561278E+02  0.00000000000E+00 0.  1.
</event>
<event>
 5    1  0.1102386E-009  0.9118800E+02  0.7818608E-02  0.1130116E+00
         25   -1    0    0    0    0  0.00000000000E+00  0.00000000000E+00  0.99999998245E-14  0.12500000000E+03  0.12500000000E+03 0.  0.
        -11    1    3    3    0    0 -0.52624335898E+02  0.10866640925E+01  0.32871889764E+02  0.62056931155E+02  0.51100000000E-03 0.  1.
         23    2    1    0    0    0 -0.21580294570E+02  0.10480521578E+01  0.19634540931E+02  0.95805433304E+02  0.91248881231E+02 0.  0.
         11    1    3    3    0    0  0.31044041328E+02 -0.38611934716E-01 -0.13237348833E+02  0.33748502148E+02  0.51100000000E-03 0. -1.
         22    1    1    0    0    0  0.21580294570E+02 -0.10480521578E+01 -0.19634540931E+02  0.29194566696E+02  0.00000000000E+00 0.  1.
</event>
<event>
 5    1  0.1102386E-009  0.9118800E+02  0.7818608E-02  0.1130116E+00
         25   -1    0    0    0    0  0.00000000000E+00  0.00000000000E+00  0.99999998245E-14  0.12500000000E+03  0.12500000000E+03 0.  0.
        -11    1    3    3    0    0  0.33091167256E+02 -0.12514150227E+02 -0.44291972990E+02  0.56686931280E+02  0.51100000000E-03 0. -1.
         23    2    1    0    0    0 -0.20545979656E+01 -0.61270523080E+01 -0.28557968054E+02  0.95719978105E+02  0.91131742693E+02 0.  0.
         11    1    3    3    0    0 -0.35145765222E+02  0.63870979192E+01  0.15734004936E+02  0.39033046825E+02  0.51100000000E-03 0.  1.
         22    1    1    0    0    0  0.20545979656E+01  0.61270523080E+01  0.28557968054E+02  0.29280021895E+02  0.00000000000E+00 0. -1.
</event>
<event>
 5    1  0.1102386E-009  0.9118800E+02  0.7818608E-02  0.1130116E+00
         25   -1    0    0    0    0  0.00000000000E+00  0.00000000000E+00  0.99999998245E-14  0.12500000000E+03  0.12500000000E+03 0.  0.
        -11    1    3    3    0    0  0.31406996173E+02 -0.16015780204E+02 -0.24632923895E+02  0.43007970936E+02  0.51100000000E-03 0.  1.
         23    2    1    0    0    0  0.22424749605E+02 -0.20583924644E+01  0.22614326766E+02  0.93085831525E+02  0.87444027133E+02 0.  0.
         11    1    3    3    0    0 -0.89822465686E+01  0.13957387740E+02  0.47247250660E+02  0.50077860589E+02  0.51100000000E-03 0. -1.
         22    1    1    0    0    0 -0.22424749605E+02  0.20583924644E+01 -0.22614326766E+02  0.31914168475E+02  0.00000000000E+00 0. -1.
</event>
<event>
 5    1  0.1102386E-009  0.9118800E+02  0.7818608E-02  0.1130116E+00
         25   -1    0    0    0    0  0.00000000000E+00  0.00000000000E+00  0.99999998245E-14  0.12500000000E+03  0.12500000000E+03 0.  0.
        -11    1    3    3    0    0  0.47850465143E+02  0.19788340553E+02  0.21734985983E+01  0.51826340143E+02  0.51100000000E-03 0.  1.
         23    2    1    0    0    0  0.27178236047E+02 -0.13872319206E+02 -0.95424528639E+01  0.93028822958E+02  0.87362496184E+02 0.  0.
         11    1    3    3    0    0 -0.20672229096E+02 -0.33660659759E+02 -0.11715951462E+02  0.41202482815E+02  0.51100000000E-03 0. -1.
         22    1    1    0    0    0 -0.27178236047E+02  0.13872319206E+02  0.95424528639E+01  0.31971177042E+02  0.00000000000E+00 0.  1.
</event>
<event>
 5    1  0.1102386E-009  0.9118800E+02  0.7818608E-02  0.1130116E+00
         25   -1    0    0    0    0  0.00000000000E+00  0.00000000000E+00  0.99999998245E-14  0.12500000000E+03  0.12500000000E+03 0.  0.
        -11    1    3    3    0    0  0.41610683511E+02 -0.26442779516E+02  0.29142421015E+02  0.57270850122E+02  0.51100000000E-03 0.  1.
         23    2    1    0    0    0  0.23260866060E+02 -0.23059449499E+02 -0.43653399793E+00  0.92243372228E+02  0.86231334543E+02 0.  0.
         11    1    3    3    0    0 -0.18349817451E+02  0.33833300167E+01 -0.29578955013E+02  0.34972522106E+02  0.51100000000E-03 0. -1.
         22    1    1    0    0    0 -0.23260866060E+02  0.23059449499E+02  0.43653399793E+00  0.32756627772E+02  0.00000000000E+00 0.  1.
</event>
<event>
 5    1  0.1102386E-009  0.9118800E+02  0.7818608E-02  0.1130116E+00
         25   -1    0    0    0    0  0.00000000000E+00  0.00000000000E+00  0.99999998245E-14  0.12500000000E+03  0.12500000000E+03 0.  0.
        -11    1    3    3    0    0 -0.34023702058E+02  0.64320286355E+01  0.15366729550E+02  0.37882973371E+02  0.51100000000E-03 0.  1.
         23    2    1    0    0    0  0.24034128460E+02  0.61059028074E+01  0.15147215866E+02  0.95942134827E+02  0.91435954125E+02 0.  0.
         11    1    3    3    0    0  0.58057830518E+02 -0.32612582806E+00 -0.21951368347E+00  0.58059161456E+02  0.51100000000E-03 0. -1.
         22    1    1    0    0    0 -0.24034128460E+02 -0.61059028074E+01 -0.15147215866E+02  0.29057865173E+02  0.00000000000E+00 0. -1.
</event>
<event>
 5    1  0.1102386E-009  0.9118800E+02  0.7818608E-02  0.1130116E+00
         25   -1    0    0    0    0  0.00000000000E+00  0.00000000000E+00  0.99999998245E-14  0.12500000000E+03  0.12500000000E+03 0.  0.
        -11    1    3    3    0    0  0.31620830661E+02 -0.34158995148E+01  0.89368288607E+01  0.33036528443E+02  0.51100000000E-03 0. -1.
         23    2    1    0    0    0 -0.18894376155E+02  0.21542200783E+02 -0.13043777816E+02  0.93516607480E+02  0.88057662188E+02 0.  0.
         11    1    3    3    0    0 -0.50515206817E+02  0.24958100298E+02 -0.21980606677E+02  0.60480079037E+02  0.51100000000E-03 0.  1.
         22    1    1    0    0    0  0.18894376155E+02 -0.21542200783E+02  0.13043777816E+02  0.31483392520E+02  0.00000000000E+00 0.  1.
</event>
<event>
 5    1  0.1102386E-009  0.9118800E+02  0.7818608E-02  0.1130116E+00
         25   -1    0    0    0    0  0.00000000000E+00  0.00000000000E+00  0.99999998245E-14  0.12500000000E+03  0.12500000000E+03 0.  0.
        -11    1    3    3    0    0 -0.25163954344E+01  0.37900252986E+02  0.14513965899E+02  0.40662226068E+02  0.51100000000E-03 0. -1.
         23    2    1    0    0    0 -0.11334614272E+02 -0.44311792366E+00 -0.25691546799E+02  0.96915744427E+02  0.92757404592E+02 0.  0.
         11    1    3    3    0    0 -0.88182188378E+01 -0.38343370910E+02 -0.40205512698E+02  0.56253518359E+02  0.51100000000E-03 0.  1.
         22    1    1    0    0    0  0.11334614272E+02  0.44311792366E+00  0.25691546799E+02  0.28084255573E+02  0.00000000000E+00 0.  1.
</event>
<event>
 5    1  0.1102386E-009  0.9118800E+02  0.7818608E-02  0.1130116E+00
         25   -1    0    0    0    0  0.00000000000E+00  0.00000000000E+00  0.99999998245E-14  0.12500000000E+03  0.12500000000E+03 0.  0.
        -11    1    3    3    0    0 -0.51937201163E+02 -0.20693348414E+02  0.48089643189E+01  0.56114291150E+02  0.51100000000E-03 0. -1.
         23    2    1    0    0    0 -0.16543988744E+02 -0.23286968420E+02 -0.10230671449E+02  0.94657734099E+02  0.89662888224E+02 0.  0.
         11    1    3    3    0    0  0.35393212419E+02 -0.25936200059E+01 -0.15039635768E+02  0.38543442948E+02  0.51100000000E-03 0.  1.
         22    1    1    0    0    0  0.16543988744E+02  0.23286968420E+02  0.10230671449E+02  0.30342265901E+02  0.00000000000E+00 0. -1.
</event>
<event>
 5    1  0.1102386E-009  0.9118800E+02  0.7818608E-02  0.1130116E+00
         25   -1    0    0    0    0  0.00000000000E+00  0.00000000000E+00  0.99999998245E-14  0.12500000000E+03  0.12500000000E+03 0.  0.
        -11    1    3    3    0    0  0.42512069172E+02  0.98109901309E+01 -0.13683358290E+01  0.43650932359E+02  0.51100000000E-03 0.  1.
         23    2    1    0    0    0 -0.42503207563E+01  0.19918101677E+02 -0.21345969196E+02  0.95496671343E+02  0.90824929593E+02 0.  0.
         11    1    3    3    0    0 -0.46762389928E+02  0.10107111546E+02 -0.19977633367E+02  0.51845738984E+02  0.51100000000E-03 0. -1.
         22    1    1    0    0    0  0.42503207563E+01 -0.19918101677E+02  0.21345969196E+02  0.29503328657E+02  0.00000000000E+00 0. -1.
</event>
<event>
 5    1  0.1102386E-009  0.9118800E+02  0.7818608E-02  0.1130116E+00
         25   -1    0    0    0    0  0.00000000000E+00  0.00000000000E+00  0.99999998245E-14  0.12500000000E+03  0.12500000000E+03 0.  0.
        -11    1    3    3    0    0  0.24904658600E+02 -0.10633911239E+02  0.14898848842E+02  0.30907891958E+02  0.51100000000E-03 0.  1.
         23    2    1    0    0    0  0.10963615062E+02  0.49831170082E+01 -0.36584305233E+02  0.86484500526E+02  0.77434650716E+02 0.  0.
         11    1    3    3    0    0 -0.13941043538E+02  0.15617028247E+02 -0.51483154075E+02  0.55576608568E+02  0.51100000000E-03 0. -1.
         22    1    1    0    0    0 -0.10963615062E+02 -0.49831170082E+01  0.36584305233E+02  0.38515499474E+02  0.00000000000E+00 0. -1.
</event>
<event>
 5    1  0.1102386E-009  0.9118800E+02  0.7818608E-02  0.1130116E+00
         25   -1    0    0    0    0  0.00000000000E+00  0.00000000000E+00  0.99999998245E-14  0.12500000000E+03  0.12500000000E+03 0.  0.
        -11    1    3    3    0    0 -0.32434930949E+02  0.29526807166E+01 -0.17828167845E+02  0.37129323157E+02  0.51100000000E-03 0.  1.
         23    2    1    0    0    0  0.32741907738E+01 -0.13230561806E+02  0.25822344395E+02  0.95801343165E+02  0.91243278061E+02 0.  0.
         11    1    3    3    0    0  0.35709121723E+02 -0.16183242522E+02  0.43650512240E+02  0.58672020008E+02  0.51100000000E-03 0. -1.
         22    1    1    0    0    0 -0.32741907738E+01  0.13230561806E+02 -0.25822344395E+02  0.29198656835E+02  0.00000000000E+00 0. -1.
</event>
<event>
 5    1  0.1102386E-009  0.9118800E+02  0.7818608E-02  0.1130116E+00
         25   -1    0    0    0    0  0.00000000000E+00  0.00000000000E+00  0.99999998245E-14  0.12500000000E+03  0.12500000000E+03 0.  0.
        -11    1    3    3    0    0 -0.32864427158E+02  0.55388215387E+01  0.11593426081E+02  0.35286777197E+02  0.51100000000E-03 0. -1.
         23    2    1    0    0    0  0.27164213633E+02  0.95075792040E+01  0.46704430428E+01  0.95843498104E+02  0.91301010542E+02 0.  0.
         11    1    3    3    0    0  0.60028640790E+02  0.39687576653E+01 -0.69229830377E+01  0.60556720906E+02  0.51100000000E-03 0.  1.
         22    1    1    0    0    0 -0.27164213633E+02 -0.95075792040E+01 -0.46704430428E+01  0.29156501896E+02  0.00000000000E+00 0.  1.
</event>
<event>
 5    1  0.1102386E-009  0.9118800E+02  0.7818608E-02  0.1130116E+00
         25   -1    0    0    0    0  0.00000000000E+00  0.00000000000E+00  0.99999998245E-14  0.12500000000E+03  0.12500000000E+03 0.  0.
        -11    1    3    3    0    0 -0.44008982064E+02 -0.43839409320E+02 -0.28001919350E+01  0.62181391002E+02  0.51100000000E-03 0.  1.
         23    2    1    0    0    0 -0.23662986270E+02 -0.17309436205E+02 -0.93199652164E+00  0.95667047226E+02  0.91059111606E+02 0.  0.
         11    1    3    3    0    0  0.20345995794E+02  0.26529973115E+02  0.18681954133E+01  0.33485656223E+02  0.51100000000E-03 0. -1.
         22    1    1    0    0    0  0.23662986270E+02  0.17309436205E+02  0.93199652164E+00  0.29332952774E+02  0.00000000000E+00 0.  1.
</event>
<event>
 5    1  0.1102386E-009  0.9118800E+02  0.7818608E-02  0.1130116E+00
         25   -1    0    0    0    0  0.00000000000E+00  0.00000000000E+00  0.99999998245E-14  0.12500000000E+03  0.12500000000E+03 0.  0.
        -11    1    3    3    0    0  0.52781240823E+02 -0.24603290516E+01 -0.48402258849E+00  0.52840769109E+02  0.51100000000E-03 0.  1.
         23    2    1    0    0    0  0.16871675008E+02 -0.16165000324E+02  0.18014084785E+02  0.95496306948E+02  0.90824428086E+02 0.  0.
         11    1    3    3    0    0 -0.35909565815E+02 -0.13704671272E+02  0.18498107374E+02  0.42655537840E+02  0.51100000000E-03 0. -1.
         22    1    1    0    0    0 -0.16871675008E+02  0.16165000324E+02 -0.18014084785E+02  0.29503693052E+02  0.00000000000E+00 0.  1.
</event>
<event>
 5    1  0.1102386E-009  0.9118800E+02  0.7818608E-02  0.1130116E+00
         25   -1    0    0    0    0  0.00000000000E+00  0.00000000000E+00  0.99999998245E-14  0.12500000000E+03  0.12500000000E+03 0.  0.
        -11    1    3    3    0    0 -0.25038936910E+02  0.82333654841E+01 -0.27120231168E+02  0.37818561681E+02  0.51100000000E-03 0.  1.
         23    2    1    0    0    0 -0.77552838626E+01 -0.15834355145E+02  0.22986127584E+02  0.96030476497E+02  0.91556644349E+02 0.  0.
         11    1    3    3    0    0  0.17283653047E+02 -0.24067720629E+02  0.50106358752E+02  0.58211914816E+02  0.51100000000E-03 0. -1.
         22    1    1    0    0    0  0.77552838626E+01  0.15834355145E+02 -0.22986127584E+02  0.28969523503E+02  0.00000000000E+00 0. -1.
</event>
<event>
 5    1  0.1102386E-009  0.9118800E+02  0.7818608E-02  0.1130116E+00
         25   -1    0    0    0    0  0.00000000000E+00  0.00000000000E+00  0.99999998245E-14  0.12500000000E+03  0.12500000000E+03 0.  0.
        -11    1    3    3    0    0 -0.30578705199E+02  0.26157755931E+01 -0.34429280881E+01  0.30882895714E+02  0.51100000000E-03 0.  1.
         23    2    1    0    0    0  0.19383052250E+02  0.30163543104E+02 -0.84751417972E+01  0.88157496345E+02  0.80089787652E+02 0.  0.
         11    1    3    3    0    0  0.49961757450E+02  0.27547767511E+02 -0.50322137092E+01  0.57274600630E+02  0.51100000000E-03 0. -1.
         22    1    1    0    0    0 -0.19383052250E+02 -0.30163543104E+02  0.84751417972E+01  0.36842503655E+02  0.00000000000E+00 0. -1.
</event>
<event>
 5    1  0.1102386E-009  0.9118800E+02  0.7818608E-02  0.1130116E+00
         25   -1    0    0    0    0  0.00000000000E+00  0.00000000000E+00  0.99999998245E-14  0.12500000000E+03  0.12500000000E+03 0.  0.
        -11    1    3    3    0    0 -0.14235594951E+02 -0.58289282215E+02 -0.14066922092E+02  0.61629302139E+02  0.51100000000E-03 0.  1.
         23    2    1    0    0    0 -0.14012872737E+02 -0.26664304497E+02 -0.56980752365E+01  0.94343617336E+02  0.89223900016E+02 0.  0.
         11    1    3    3    0    0  0.22272221333E+00  0.31624977718E+02  0.83688468559E+01  0.32714315197E+02  0.51100000000E-03 0. -1.
         22    1    1    0    0    0  0.14012872737E+02  0.26664304497E+02  0.56980752365E+01  0.30656382664E+02  0.00000000000E+00 0.  1.
</event>
<event>
 5    1  0.1102386E-009  0.9118800E+02  0.7818608E-02  0.1130116E+00
         25   -1    0    0    0    0  0.00000000000E+00  0.00000000000E+00  0.99999998245E-14  0.12500000000E+03  0.12500000000E+03 0.  0.
        -11    1    3    3    0    0  0.24673722953E+02  0.21065648850E+02  0.21595462199E+02  0.38973300523E+02  0.51100000000E-03 0.  1.
         23    2    1    0    0    0 -0.19573793336E+02 -0.14089609849E+02  0.16631375217E+02  0.95704042380E+02  0.91109881984E+02 0.  0.
         11    1    3    3    0    0 -0.44247516288E+02 -0.35155258699E+02 -0.49640869815E+01  0.56730741857E+02  0.51100000000E-03 0. -1.
         22    1    1    0    0    0  0.19573793336E+02  0.14089609849E+02 -0.16631375217E+02  0.29295957620E+02  0.00000000000E+00 0. -1.
</event>
<event>
 5    1  0.1102386E-009  0.9118800E+02  0.7818608E-02  0.1130116E+00
         25   -1    0    0    0    0  0.00000000000E+00  0.00000000000E+00  0.99999998245E-14  0.12500000000E+03  0.12500000000E+03 0.  0.
        -11    1    3    3    0    0 -0.41272595711E+02 -0.40903761391E+02  0.20649494716E+02  0.61668034547E+02  0.51100000000E-03 0.  1.
         23    2    1    0    0    0 -0.28506161747E+02 -0.36396712209E+02  0.17494494965E+02  0.75569450021E+02  0.57160847660E+02 0.  0.
         11    1    3    3    0    0  0.12766433964E+02  0.45070491813E+01 -0.31549997507E+01  0.13901415474E+02  0.51100000000E-03 0. -1.
         22    1    1    0    0    0  0.28506161747E+02  0.36396712209E+02 -0.17494494965E+02  0.49430549979E+02  0.00000000000E+00 0.  1.
</event>
<event>
 5    1  0.1102386E-009  0.9118800E+02  0.7818608E-02  0.1130116E+00
         25   -1    0    0    0    0  0.00000000000E+00  0.00000000000E+00  0.99999998245E-14  0.12500000000E+03  0.12500000000E+03 0.  0.
        -11    1    3    3    0    0  0.34008154113E+02 -0.35777852559E+01 -0.33838323391E+02  0.48108078570E+02  0.51100000000E-03 0.  1.
         23    2    1    0    0    0  0.23888783901E+02  0.20758013521E+02  0.27862068601E+01  0.93230013059E+02  0.87649890272E+02 0.  0.
         11    1    3    3    0    0 -0.10119370212E+02  0.24335798776E+02  0.36624530252E+02  0.45121934489E+02  0.51100000000E-03 0. -1.
         22    1    1    0    0    0 -0.23888783901E+02 -0.20758013521E+02 -0.27862068601E+01  0.31769986941E+02  0.00000000000E+00 0. -1.
</event>
<event>
 5    1  0.1102386E-009  0.9118800E+02  0.7818608E-02  0.1130116E+00
         25   -1    0    0    0    0  0.00000000000E+00  0.00000000000E+00  0.99999998245E-14  0.12500000000E+03  0.12500000000E+03 0.  0.
        -11    1    3    3    0    0 -0.51594672342E+01 -0.39530973633E+02 -0.26225971896E+02  0.47719174140E+02  0.51100000000E-03 0.  1.
         23    2    1    0    0    0 -0.48154896778E+01  0.94426513340E+01 -0.26246454744E+02  0.96694011381E+02  0.92458114004E+02 0.  0.
         11    1    3    3    0    0  0.34397755636E+00  0.48973624967E+02 -0.20482848414E-01  0.48974837241E+02  0.51100000000E-03 0. -1.
         22    1    1    0    0    0  0.48154896778E+01 -0.94426513340E+01  0.26246454744E+02  0.28305988619E+02  0.00000000000E+00 0. -1.
</event>
<event>
 5    1  0.1102386E-009  0.9118800E+02  0.7818608E-02  0.1130116E+00
         25   -1    0    0    0    0  0.00000000000E+00  0.00000000000E+00  0.99999998245E-14  0.12500000000E+03  0.12500000000E+03 0.  0.
        -11    1    3    3    0    0 -0.54726269000E+02  0.83219673999E+01  0.14404019822E+02  0.57198736414E+02  0.51100000000E-03 0.  1.
         23    2    1    0    0    0 -0.24362968360E+02  0.13690960839E+02 -0.87024208530E+01  0.95730070641E+02  0.91145584974E+02 0.  0.
         11    1    3    3    0    0  0.30363300641E+02  0.53689934395E+01 -0.23106440675E+02  0.38531334227E+02  0.51100000000E-03 0. -1.
         22    1    1    0    0    0  0.24362968360E+02 -0.13690960839E+02  0.87024208530E+01  0.29269929359E+02  0.00000000000E+00 0.  1.
</event>
<event>
 5    1  0.1102386E-009  0.9118800E+02  0.7818608E-02  0.1130116E+00
         25   -1    0    0    0    0  0.00000000000E+00  0.00000000000E+00  0.99999998245E-14  0.12500000000E+03  0.12500000000E+03 0.  0.
        -11    1    3    3    0    0  0.11521847413E+02  0.28062870095E+02 -0.97794264003E+01  0.31873418812E+02  0.51100000000E-03 0.  1.
         23    2    1    0    0    0 -0.15187618343E+02 -0.35415537323E+01  0.31205706342E+02  0.90114437627E+02  0.83087961865E+02 0.  0.
         11    1    3    3    0    0 -0.26709465756E+02 -0.31604423828E+02  0.40985132742E+02  0.58241018815E+02  0.51100000000E-03 0. -1.
         22    1    1    0    0    0  0.15187618343E+02  0.35415537323E+01 -0.31205706342E+02  0.34885562373E+02  0.00000000000E+00 0. -1.
</event>
<event>
 5    1  0.1102386E-009  0.9118800E+02  0.7818608E-02  0.1130116E+00
         25   -1    0    0    0    0  0.00000000000E+00  0.00000000000E+00  0.99999998245E-14  0.12500000000E+03  0.12500000000E+03 0.  0.
        -11    1    3    3    0    0  0.37818694378E+02 -0.20265943281E+02 -0.12499734974E+02  0.44690104902E+02  0.51100000000E-03 0.  1.
         23    2    1    0    0    0  0.14403393415E+01  0.11509274496E+02 -0.27406799495E+02  0.95239780992E+02  0.90470687231E+02 0.  0.
         11    1    3    3    0    0 -0.36378355036E+02  0.31775217777E+02 -0.14907064521E+02  0.50549676090E+02  0.51100000000E-03 0. -1.
         22    1    1    0    0    0 -0.14403393415E+01 -0.11509274496E+02  0.27406799495E+02  0.29760219008E+02  0.00000000000E+00 0.  1.
</event>
<event>
 5    1  0.1102386E-009  0.9118800E+02  0.7818608E-02  0.1130116E+00
         25   -1    0    0    0    0  0.00000000000E+00  0.00000000000E+00  0.99999998245E-14  0.12500000000E+03  0.12500000000E+03 0.  0.
        -11    1    3    3    0    0  0.33967544483E+02 -0.15269605823E+01 -0.22684484470E+01  0.34077434549E+02  0.51100000000E-03 0.  1.
         23    2    1    0    0    0 -0.23134631836E+02 -0.15785296332E+02  0.11828755342E+02  0.94597595104E+02  0.89579008568E+02 0.  0.
         11    1    3    3    0    0 -0.57102176319E+02 -0.14258335750E+02  0.14097203789E+02  0.60520160555E+02  0.51100000000E-03 0. -1.
         22    1    1    0    0    0  0.23134631836E+02  0.15785296332E+02 -0.11828755342E+02  0.30402404896E+02  0.00000000000E+00 0. -1.
</event>
<event>
 5    1  0.1102386E-009  0.9118800E+02  0.7818608E-02  0.1130116E+00
         25   -1    0    0    0    0  0.00000000000E+00  0.00000000000E+00  0.99999998245E-14  0.12500000000E+03  0.12500000000E+03 0.  0.
        -11    1    3    3    0    0 -0.45874337400E+02  0.35882917007E+01 -0.30978224892E+02  0.55470542515E+02  0.51100000000E-03 0.  1.
         23    2    1    0    0    0 -0.24236543889E+02  0.12864063378E+02  0.36247882976E+01  0.97322693837E+02  0.93304198508E+02 0.  0.
         11    1    3    3    0    0  0.21637793511E+02  0.92757716769E+01  0.34603013189E+02  0.41852151322E+02  0.51100000000E-03 0. -1.
         22    1    1    0    0    0  0.24236543889E+02 -0.12864063378E+02 -0.36247882976E+01  0.27677306163E+02  0.00000000000E+00 0.  1.
</event>
<event>
 5    1  0.1102386E-009  0.9118800E+02  0.7818608E-02  0.1130116E+00
         25   -1    0    0    0    0  0.00000000000E+00  0.00000000000E+00  0.99999998245E-14  0.12500000000E+03  0.12500000000E+03 0.  0.
        -11    1    3    3    0    0  0.43396389473E+00  0.48481144465E+02 -0.27883925092E+01  0.48563204449E+02  0.51100000000E-03 0.  1.
         23    2    1    0    0    0 -0.12670655094E+02  0.19479247520E+02 -0.27602120693E+02  0.88918652309E+02  0.81269078235E+02 0.  0.
         11    1    3    3    0    0 -0.13104618989E+02 -0.29001896945E+02 -0.24813728184E+02  0.40355447859E+02  0.51100000000E-03 0. -1.
         22    1    1    0    0    0  0.12670655094E+02 -0.19479247520E+02  0.27602120693E+02  0.36081347691E+02  0.00000000000E+00 0.  1.
</event>
<event>
 5    1  0.1102386E-009  0.9118800E+02  0.7818608E-02  0.1130116E+00
         25   -1    0    0    0    0  0.00000000000E+00  0.00000000000E+00  0.99999998245E-14  0.12500000000E+03  0.12500000000E+03 0.  0.
        -11    1    3    3    0    0 -0.30732617064E+02 -0.15643061538E+02  0.13677293364E+00  0.34485037813E+02  0.51100000000E-03 0.  1.
         23    2    1    0    0    0  0.55792776558E+01  0.30639602284E+02 -0.46703892408E+01  0.93508316924E+02  0.88045892755E+02 0.  0.
         11    1    3    3    0    0  0.36311894720E+02  0.46282663822E+02 -0.48071621744E+01  0.59023279111E+02  0.51100000000E-03 0. -1.
         22    1    1    0    0    0 -0.55792776558E+01 -0.30639602284E+02  0.46703892408E+01  0.31491683076E+02  0.00000000000E+00 0. -1.
</event>
<event>
 5    1  0.1102386E-009  0.9118800E+02  0.7818608E-02  0.1130116E+00
         25   -1    0    0    0    0  0.00000000000E+00  0.00000000000E+00  0.99999998245E-14  0.12500000000E+03  0.12500000000E+03 0.  0.
        -11    1    3    3    0    0 -0.20401561735E+02  0.50031510934E+02  0.98483942902E+01  0.54921459175E+02  0.51100000000E-03 0.  1.
         23    2    1    0    0    0  0.14499946802E+01  0.28740171391E+02 -0.13377970616E+02  0.93265633235E+02  0.87700674506E+02 0.  0.
         11    1    3    3    0    0  0.21851556415E+02 -0.21291339543E+02 -0.23226364907E+02  0.38344174060E+02  0.51100000000E-03 0. -1.
         22    1    1    0    0    0 -0.14499946802E+01 -0.28740171391E+02  0.13377970616E+02  0.31734366765E+02  0.00000000000E+00 0. -1.
</event>
<event>
 5    1  0.1102386E-009  0.9118800E+02  0.7818608E-02  0.1130116E+00
         25   -1    0    0    0    0  0.00000000000E+00  0.00000000000E+00  0.99999998245E-14  0.12500000000E+03  0.12500000000E+03 0.  0.
        -11    1    3    3    0    0  0.43171378585E+01 -0.18033445187E+02 -0.36095684233E+02  0.40580059698E+02  0.51100000000E-03 0.  1.
         23    2    1    0    0    0 -0.25794650436E+02 -0.84652464450E+01  0.96599030390E+01  0.96184411941E+02  0.91766567905E+02 0.  0.
         11    1    3    3    0    0 -0.30111788294E+02  0.95681987424E+01  0.45755587272E+02  0.55604352242E+02  0.51100000000E-03 0. -1.
         22    1    1    0    0    0  0.25794650436E+02  0.84652464450E+01 -0.96599030390E+01  0.28815588059E+02  0.00000000000E+00 0. -1.
</event>
<event>
 5    1  0.1102386E-009  0.9118800E+02  0.7818608E-02  0.1130116E+00
         25   -1    0    0    0    0  0.00000000000E+00  0.00000000000E+00  0.99999998245E-14  0.12500000000E+03  0.12500000000E+03 0.  0.
        -11    1    3    3    0    0  0.47178070759E+02 -0.33236118241E+02  0.90898368450E+01  0.58421186657E+02  0.51100000000E-03 0. -1.
         23    2    1    0    0    0  0.18769145655E+02 -0.18915375565E+02 -0.11134969226E+02  0.96119906492E+02  0.91678659583E+02 0.  0.
         11    1    3    3    0    0 -0.28408925104E+02  0.14320742676E+02 -0.20224806071E+02  0.37698719835E+02  0.51100000000E-03 0.  1.
         22    1    1    0    0    0 -0.18769145655E+02  0.18915375565E+02  0.11134969226E+02  0.28880093508E+02  0.00000000000E+00 0. -1.
</event>
<event>
 5    1  0.1102386E-009  0.9118800E+02  0.7818608E-02  0.1130116E+00
         25   -1    0    0    0    0  0.00000000000E+00  0.00000000000E+00  0.99999998245E-14  0.12500000000E+03  0.12500000000E+03 0.  0.
        -11    1    3    3    0    0 -0.24618713318E+02  0.21986457130E+02  0.24227498889E+01  0.33096148716E+02  0.51100000000E-03 0. -1.
         23    2    1    0    0    0  0.18312583113E+02 -0.21231829628E+02 -0.99338539047E+01  0.95254029802E+02  0.90490372142E+02 0.  0.
         11    1    3    3    0    0  0.42931296431E+02 -0.43218286758E+02 -0.12356603794E+02  0.62157881086E+02  0.51100000000E-03 0.  1.
         22    1    1    0    0    0 -0.18312583113E+02  0.21231829628E+02  0.99338539047E+01  0.29745970198E+02  0.00000000000E+00 0.  1.
</event>
<event>
 5    1  0.1102386E-009  0.9118800E+02  0.7818608E-02  0.1130116E+00
         25   -1    0    0    0    0  0.00000000000E+00  0.00000000000E+00  0.99999998245E-14  0.12500000000E+03  0.12500000000E+03 0.  0.
        -11    1    3    3    0    0 -0.31901130705E+02 -0.12608685178E+02  0.16273539902E+02  0.37966948566E+02  0.51100000000E-03 0. -1.
         23    2    1    0    0    0  0.63152340124E+01 -0.58998049561E+01 -0.27330958742E+02  0.96335192571E+02  0.91971724692E+02 0.  0.
         11    1    3    3    0    0  0.38216364717E+02  0.67088802221E+01 -0.43604498644E+02  0.58368244006E+02  0.51100000000E-03 0.  1.
         22    1    1    0    0    0 -0.63152340124E+01  0.58998049561E+01  0.27330958742E+02  0.28664807429E+02  0.00000000000E+00 0.  1.
</event>
<event>
 5    1  0.1102386E-009  0.9118800E+02  0.7818608E-02  0.1130116E+00
         25   -1    0    0    0    0  0.00000000000E+00  0.00000000000E+00  0.99999998245E-14  0.12500000000E+03  0.12500000000E+03 0.  0.
        -11    1    3    3    0    0 -0.43284756377E+01  0.11874548747E+02  0.34976177872E+02  0.37189697875E+02  0.51100000000E-03 0. -1.
         23    2    1    0    0    0  0.13066405893E+02  0.18398640867E+02 -0.19767633077E+02  0.94999995564E+02  0.90138775735E+02 0.  0.
         11    1    3    3    0    0  0.17394881531E+02  0.65240921195E+01 -0.54743810948E+02  0.57810297689E+02  0.51100000000E-03 0.  1.
         22    1    1    0    0    0 -0.13066405893E+02 -0.18398640867E+02  0.19767633077E+02  0.30000004436E+02  0.00000000000E+00 0.  1.
</event>
<event>
 5    1  0.1102386E-009  0.9118800E+02  0.7818608E-02  0.1130116E+00
         25   -1    0    0    0    0  0.00000000000E+00  0.00000000000E+00  0.99999998245E-14  0.12500000000E+03  0.12500000000E+03 0.  0.
        -11    1    3    3    0    0 -0.30505001018E+02  0.52822272318E+02 -0.12258882590E+02  0.62217583869E+02  0.51100000000E-03 0. -1.
         23    2    1    0    0    0 -0.10598181447E+02  0.25168141127E+02 -0.79167885739E+01  0.96567055744E+02  0.92286314998E+02 0.  0.
         11    1    3    3    0    0  0.19906819570E+02 -0.27654131191E+02  0.43420940160E+01  0.34349471874E+02  0.51100000000E-03 0.  1.
         22    1    1    0    0    0  0.10598181447E+02 -0.25168141127E+02  0.79167885739E+01  0.28432944256E+02  0.00000000000E+00 0. -1.
</event>
<event>
 5    1  0.1102386E-009  0.9118800E+02  0.7818608E-02  0.1130116E+00
         25   -1    0    0    0    0  0.00000000000E+00  0.00000000000E+00  0.99999998245E-14  0.12500000000E+03  0.12500000000E+03 0.  0.
        -11    1    3    3    0    0  0.28276151707E+02  0.68176029110E+01  0.18921992799E+02  0.34699600524E+02  0.51100000000E-03 0. -1.
         23    2    1    0    0    0  0.12243598741E+00  0.54960582222E+01 -0.31801079547E+02  0.92727251327E+02  0.86929930586E+02 0.  0.
         11    1    3    3    0    0 -0.28153715720E+02 -0.13215446888E+01 -0.50723072346E+02  0.58027650803E+02  0.51100000000E-03 0.  1.
         22    1    1    0    0    0 -0.12243598741E+00 -0.54960582222E+01  0.31801079547E+02  0.32272748673E+02  0.00000000000E+00 0.  1.
</event>
<event>
 5    1  0.1102386E-009  0.9118800E+02  0.7818608E-02  0.1130116E+00
         25   -1    0    0    0    0  0.00000000000E+00  0.00000000000E+00  0.99999998245E-14  0.12500000000E+03  0.12500000000E+03 0.  0.
        -11    1    3    3    0    0 -0.50271244154E+02  0.33273378779E+02  0.17495558664E+01  0.60310667963E+02  0.51100000000E-03 0. -1.
         23    2    1    0    0    0 -0.19110399884E+02  0.21702212475E+02  0.97205197865E+01  0.94492920248E+02  0.89432824299E+02 0.  0.
         11    1    3    3    0    0  0.31160844270E+02 -0.11571166303E+02  0.79709639200E+01  0.34182252285E+02  0.51100000000E-03 0.  1.
         22    1    1    0    0    0  0.19110399884E+02 -0.21702212475E+02 -0.97205197865E+01  0.30507079752E+02  0.00000000000E+00 0. -1.
</event>
<event>
 5    1  0.1102386E-009  0.9118800E+02  0.7818608E-02  0.1130116E+00
         25   -1    0    0    0    0  0.00000000000E+00  0.00000000000E+00  0.99999998245E-14  0.12500000000E+03  0.12500000000E+03 0.  0.
        -11    1    3    3    0    0 -0.24894034032E+02 -0.14881880487E+02  0.20412246231E+02  0.35466083709E+02  0.51100000000E-03 0. -1.
         23    2    1    0    0    0  0.25745199114E+01  0.20500271505E+01 -0.29727098287E+02  0.95091286610E+02  0.90265284869E+02 0.  0.
         11    1    3    3    0    0  0.27468553944E+02  0.16931907638E+02 -0.50139344518E+02  0.59625202901E+02  0.51100000000E-03 0.  1.
         22    1    1    0    0    0 -0.25745199114E+01 -0.20500271505E+01  0.29727098287E+02  0.29908713390E+02  0.00000000000E+00 0.  1.
</event>
<event>
 5    1  0.1102386E-009  0.9118800E+02  0.7818608E-02  0.1130116E+00
         25   -1    0    0    0    0  0.00000000000E+00  0.00000000000E+00  0.99999998245E-14  0.12500000000E+03  0.12500000000E+03 0.  0.
        -11    1    3    3    0    0 -0.27363861821E+02  0.93473184597E+01 -0.34754041688E+02  0.45210581837E+02  0.51100000000E-03 0.  1.
         23    2    1    0    0    0 -0.28794133944E+02 -0.93923919622E+00  0.12502327966E+02  0.93594705472E+02  0.88168454494E+02 0.  0.
         11    1    3    3    0    0 -0.14302721233E+01 -0.10286557656E+02  0.47256369654E+02  0.48384123635E+02  0.51100000000E-03 0. -1.
         22    1    1    0    0    0  0.28794133944E+02  0.93923919622E+00 -0.12502327966E+02  0.31405294528E+02  0.00000000000E+00 0.  1.
</event>
<event>
 5    1  0.1102386E-009  0.9118800E+02  0.7818608E-02  0.1130116E+00
         25   -1    0    0    0    0  0.00000000000E+00  0.00000000000E+00  0.99999998245E-14  0.12500000000E+03  0.12500000000E+03 0.  0.
        -11    1    3    3    0    0 -0.26973835799E+02  0.41432662369E+00 -0.38112542539E+02  0.46693954462E+02  0.51100000000E-03 0.  1.
         23    2    1    0    0    0 -0.13665113767E+02 -0.23726702797E+02  0.43060498047E+01  0.97282968687E+02  0.93250963383E+02 0.  0.
         11    1    3    3    0    0  0.13308722032E+02 -0.24141029420E+02  0.42418592344E+02  0.50589014225E+02  0.51100000000E-03 0. -1.
         22    1    1    0    0    0  0.13665113767E+02  0.23726702797E+02 -0.43060498047E+01  0.27717031313E+02  0.00000000000E+00 0. -1.
</event>
<event>
 5    1  0.1102386E-009  0.9118800E+02  0.7818608E-02  0.1130116E+00
         25   -1    0    0    0    0  0.00000000000E+00  0.00000000000E+00  0.99999998245E-14  0.12500000000E+03  0.12500000000E+03 0.  0.
        -11    1    3    3    0    0  0.13882996807E+02  0.29871976295E+02  0.12537477665E+02  0.35245721933E+02  0.51100000000E-03 0.  1.
         23    2    1    0    0    0  0.14170431423E+02 -0.25004990696E+02 -0.99969031633E+01  0.94569936588E+02  0.89540405108E+02 0.  0.
         11    1    3    3    0    0  0.28743461659E+00 -0.54876966991E+02 -0.22534380829E+02  0.59324214655E+02  0.51100000000E-03 0. -1.
         22    1    1    0    0    0 -0.14170431423E+02  0.25004990696E+02  0.99969031633E+01  0.30430063412E+02  0.00000000000E+00 0. -1.
</event>
<event>
 5    1  0.1102386E-009  0.9118800E+02  0.7818608E-02  0.1130116E+00
         25   -1    0    0    0    0  0.00000000000E+00  0.00000000000E+00  0.99999998245E-14  0.12500000000E+03  0.12500000000E+03 0.  0.
        -11    1    3    3    0    0  0.34517527919E+02  0.61960220632E+01  0.10802130900E+01  0.35085855891E+02  0.51100000000E-03 0.  1.
         23    2    1    0    0    0 -0.13462052495E+02 -0.27613160469E+02 -0.40940835916E+01  0.94008468754E+02  0.88753124951E+02 0.  0.
         11    1    3    3    0    0 -0.47979580414E+02 -0.33809182533E+02 -0.51742966815E+01  0.58922612863E+02  0.51100000000E-03 0. -1.
         22    1    1    0    0    0  0.13462052495E+02  0.27613160469E+02  0.40940835916E+01  0.30991531246E+02  0.00000000000E+00 0. -1.
</event>
<event>
 5    1  0.1102386E-009  0.9118800E+02  0.7818608E-02  0.1130116E+00
         25   -1    0    0    0    0  0.00000000000E+00  0.00000000000E+00  0.99999998245E-14  0.12500000000E+03  0.12500000000E+03 0.  0.
        -11    1    3    3    0    0 -0.28104048811E+02  0.12385721648E+02  0.21697027052E+02  0.37603253097E+02  0.51100000000E-03 0.  1.
         23    2    1    0    0    0  0.27489286541E+02  0.65976722154E+01  0.11798316418E+02  0.94366841111E+02  0.89256429896E+02 0.  0.
         11    1    3    3    0    0  0.55593335352E+02 -0.57880494326E+01 -0.98987106339E+01  0.56763588014E+02  0.51100000000E-03 0. -1.
         22    1    1    0    0    0 -0.27489286541E+02 -0.65976722154E+01 -0.11798316418E+02  0.30633158889E+02  0.00000000000E+00 0. -1.
</event>
<event>
 5    1  0.1102386E-009  0.9118800E+02  0.7818608E-02  0.1130116E+00
         25   -1    0    0    0    0  0.00000000000E+00  0.00000000000E+00  0.99999998245E-14  0.12500000000E+03  0.12500000000E+03 0.  0.
        -11    1    3    3    0    0 -0.21825424273E+02  0.27268981677E+02 -0.14213634515E+02  0.37709069370E+02  0.51100000000E-03 0. -1.
         23    2    1    0    0    0  0.22407836415E+02 -0.74025208409E+01 -0.19809041290E+02  0.94189181049E+02  0.89007276456E+02 0.  0.
         11    1    3    3    0    0  0.44233260688E+02 -0.34671502518E+02 -0.55954067751E+01  0.56480111678E+02  0.51100000000E-03 0.  1.
         22    1    1    0    0    0 -0.22407836415E+02  0.74025208409E+01  0.19809041290E+02  0.30810818951E+02  0.00000000000E+00 0.  1.
</event>
<event>
 5    1  0.1102386E-009  0.9118800E+02  0.7818608E-02  0.1130116E+00
         25   -1    0    0    0    0  0.00000000000E+00  0.00000000000E+00  0.99999998245E-14  0.12500000000E+03  0.12500000000E+03 0.  0.
        -11    1    3    3    0    0  0.35671820080E+02  0.23314433382E+01 -0.22986980432E+02  0.42500772293E+02  0.51100000000E-03 0. -1.
         23    2    1    0    0    0 -0.17803470562E+02  0.12864391147E+02 -0.16786448847E+02  0.97355091092E+02  0.93347591148E+02 0.  0.
         11    1    3    3    0    0 -0.53475290642E+02  0.10532947809E+02  0.62005315844E+01  0.54854318799E+02  0.51100000000E-03 0.  1.
         22    1    1    0    0    0  0.17803470562E+02 -0.12864391147E+02  0.16786448847E+02  0.27644908908E+02  0.00000000000E+00 0.  1.
</event>
<event>
 5    1  0.1102386E-009  0.9118800E+02  0.7818608E-02  0.1130116E+00
         25   -1    0    0    0    0  0.00000000000E+00  0.00000000000E+00  0.99999998245E-14  0.12500000000E+03  0.12500000000E+03 0.  0.
        -11    1    3    3    0    0 -0.47227138244E+02 -0.15593589832E+02 -0.51755400251E+01  0.50003488333E+02  0.51100000000E-03 0.  1.
         23    2    1    0    0    0 -0.17656915740E+02  0.12071608744E+02  0.18335244330E+02  0.96827822311E+02  0.92638844864E+02 0.  0.
         11    1    3    3    0    0  0.29570222504E+02  0.27665198576E+02  0.23510784355E+02  0.46824333978E+02  0.51100000000E-03 0. -1.
         22    1    1    0    0    0  0.17656915740E+02 -0.12071608744E+02 -0.18335244330E+02  0.28172177689E+02  0.00000000000E+00 0. -1.
</event>
<event>
 5    1  0.1102386E-009  0.9118800E+02  0.7818608E-02  0.1130116E+00
         25   -1    0    0    0    0  0.00000000000E+00  0.00000000000E+00  0.99999998245E-14  0.12500000000E+03  0.12500000000E+03 0.  0.
        -11    1    3    3    0    0 -0.31149845049E+02  0.87880621068E+01  0.53055880697E+02  0.62148767960E+02  0.51100000000E-03 0. -1.
         23    2    1    0    0    0 -0.12588508514E+02  0.83845394761E+01  0.24305219685E+02  0.96372831912E+02  0.92022866603E+02 0.  0.
         11    1    3    3    0    0  0.18561336535E+02 -0.40352263066E+00 -0.28750661012E+02  0.34224063952E+02  0.51100000000E-03 0.  1.
         22    1    1    0    0    0  0.12588508514E+02 -0.83845394761E+01 -0.24305219685E+02  0.28627168088E+02  0.00000000000E+00 0. -1.
</event>
<event>
 5    1  0.1102386E-009  0.9118800E+02  0.7818608E-02  0.1130116E+00
         25   -1    0    0    0    0  0.00000000000E+00  0.00000000000E+00  0.99999998245E-14  0.12500000000E+03  0.12500000000E+03 0.  0.
        -11    1    3    3    0    0 -0.40661316583E+02 -0.16123944742E+02  0.37482048142E+02  0.57604064036E+02  0.51100000000E-03 0.  1.
         23    2    1    0    0    0 -0.14700389125E+02 -0.20462048661E+02  0.51697006201E+01  0.99279916790E+02  0.95890454152E+02 0.  0.
         11    1    3    3    0    0  0.25960927458E+02 -0.43381039192E+01 -0.32312347522E+02  0.41675852753E+02  0.51100000000E-03 0. -1.
         22    1    1    0    0    0  0.14700389125E+02  0.20462048661E+02 -0.51697006201E+01  0.25720083210E+02  0.00000000000E+00 0.  1.
</event>
<event>
 5    1  0.1102386E-009  0.9118800E+02  0.7818608E-02  0.1130116E+00
         25   -1    0    0    0    0  0.00000000000E+00  0.00000000000E+00  0.99999998245E-14  0.12500000000E+03  0.12500000000E+03 0.  0.
        -11    1    3    3    0    0 -0.30045436950E+00 -0.16710179737E+02  0.46246791556E+02  0.49174038975E+02  0.51100000000E-03 0.  1.
         23    2    1    0    0    0 -0.11102448401E+02  0.19405970202E+02  0.15962099167E+02  0.97529203692E+02  0.93580451607E+02 0.  0.
         11    1    3    3    0    0 -0.10801994032E+02  0.36116149939E+02 -0.30284692389E+02  0.48355164717E+02  0.51100000000E-03 0. -1.
         22    1    1    0    0    0  0.11102448401E+02 -0.19405970202E+02 -0.15962099167E+02  0.27470796308E+02  0.00000000000E+00 0. -1.
</event>
<event>
 5    1  0.1102386E-009  0.9118800E+02  0.7818608E-02  0.1130116E+00
         25   -1    0    0    0    0  0.00000000000E+00  0.00000000000E+00  0.99999998245E-14  0.12500000000E+03  0.12500000000E+03 0.  0.
        -11    1    3    3    0    0 -0.30976040194E+02 -0.69133313837E+01  0.19223206152E+02  0.37105806445E+02  0.51100000000E-03 0. -1.
         23    2    1    0    0    0  0.23082477404E+02 -0.19240297410E+02  0.34442461660E+01  0.94753468973E+02  0.89796254060E+02 0.  0.
         11    1    3    3    0    0  0.54058517599E+02 -0.12326966026E+02 -0.15778959986E+02  0.57647662527E+02  0.51100000000E-03 0.  1.
         22    1    1    0    0    0 -0.23082477404E+02  0.19240297410E+02 -0.34442461660E+01  0.30246531027E+02  0.00000000000E+00 0.  1.
</event>
<event>
 5    1  0.1102386E-009  0.9118800E+02  0.7818608E-02  0.1130116E+00
         25   -1    0    0    0    0  0.00000000000E+00  0.00000000000E+00  0.99999998245E-14  0.12500000000E+03  0.12500000000E+03 0.  0.
        -11    1    3    3    0    0  0.28778962099E+02 -0.48819949202E+02 -0.15539956417E+02  0.58763137640E+02  0.51100000000E-03 0. -1.
         23    2    1    0    0    0  0.24536912509E+01 -0.28396810735E+02  0.20201544287E+01  0.96425877361E+02  0.92094893129E+02 0.  0.
         11    1    3    3    0    0 -0.26325270848E+02  0.20423138468E+02  0.17560110846E+02  0.37662739721E+02  0.51100000000E-03 0.  1.
         22    1    1    0    0    0 -0.24536912509E+01  0.28396810735E+02 -0.20201544287E+01  0.28574122639E+02  0.00000000000E+00 0. -1.
</event>
<event>
 5    1  0.1102386E-009  0.9118800E+02  0.7818608E-02  0.1130116E+00
         25   -1    0    0    0    0  0.00000000000E+00  0.00000000000E+00  0.99999998245E-14  0.12500000000E+03  0.12500000000E+03 0.  0.
        -11    1    3    3    0    0  0.52711244832E+02 -0.21052417777E+02 -0.41489242869E+01  0.56911274797E+02  0.51100000000E-03 0. -1.
         23    2    1    0    0    0  0.22136360701E+02 -0.28104726706E+01  0.15739986087E+02  0.97693144016E+02  0.93799179122E+02 0.  0.
         11    1    3    3    0    0 -0.30574884131E+02  0.18241945106E+02  0.19888910374E+02  0.40781869219E+02  0.51100000000E-03 0.  1.
         22    1    1    0    0    0 -0.22136360701E+02  0.28104726706E+01 -0.15739986087E+02  0.27306855984E+02  0.00000000000E+00 0. -1.
</event>
<event>
 5    1  0.1102386E-009  0.9118800E+02  0.7818608E-02  0.1130116E+00
         25   -1    0    0    0    0  0.00000000000E+00  0.00000000000E+00  0.99999998245E-14  0.12500000000E+03  0.12500000000E+03 0.  0.
        -11    1    3    3    0    0 -0.20957231018E+02  0.53714555685E+02 -0.64703378360E+01  0.58020033577E+02  0.51100000000E-03 0.  1.
         23    2    1    0    0    0  0.44205707225E+01  0.34085956588E+02 -0.60152891553E+01  0.90106195597E+02  0.83075561385E+02 0.  0.
         11    1    3    3    0    0  0.25377801740E+02 -0.19628599096E+02  0.45504868073E+00  0.32086162020E+02  0.51100000000E-03 0. -1.
         22    1    1    0    0    0 -0.44205707225E+01 -0.34085956588E+02  0.60152891553E+01  0.34893804403E+02  0.00000000000E+00 0.  1.
</event>
<event>
 5    1  0.1102386E-009  0.9118800E+02  0.7818608E-02  0.1130116E+00
         25   -1    0    0    0    0  0.00000000000E+00  0.00000000000E+00  0.99999998245E-14  0.12500000000E+03  0.12500000000E+03 0.  0.
        -11    1    3    3    0    0 -0.41514391647E+02  0.20522859462E+01 -0.41499761045E+02  0.58735736638E+02  0.51100000000E-03 0.  1.
         23    2    1    0    0    0 -0.23417995881E+02 -0.12451863624E+02 -0.13049452925E+02  0.95440912389E+02  0.90748157541E+02 0.  0.
         11    1    3    3    0    0  0.18096395766E+02 -0.14504149570E+02  0.28450308120E+02  0.36705175750E+02  0.51100000000E-03 0. -1.
         22    1    1    0    0    0  0.23417995881E+02  0.12451863624E+02  0.13049452925E+02  0.29559087611E+02  0.00000000000E+00 0.  1.
</event>
<event>
 5    1  0.1102386E-009  0.9118800E+02  0.7818608E-02  0.1130116E+00
         25   -1    0    0    0    0  0.00000000000E+00  0.00000000000E+00  0.99999998245E-14  0.12500000000E+03  0.12500000000E+03 0.  0.
        -11    1    3    3    0    0  0.12275513801E+02  0.12437193672E+02 -0.44851601283E+02  0.48135622603E+02  0.51100000000E-03 0. -1.
         23    2    1    0    0    0  0.75448476575E+01 -0.24209630782E+02 -0.15999935419E+02  0.95016189665E+02  0.90161230118E+02 0.  0.
         11    1    3    3    0    0 -0.47306661430E+01 -0.36646824454E+02  0.28851665864E+02  0.46880567062E+02  0.51100000000E-03 0.  1.
         22    1    1    0    0    0 -0.75448476575E+01  0.24209630782E+02  0.15999935419E+02  0.29983810335E+02  0.00000000000E+00 0. -1.
</event>
<event>
 5    1  0.1102386E-009  0.9118800E+02  0.7818608E-02  0.1130116E+00
         25   -1    0    0    0    0  0.00000000000E+00  0.00000000000E+00  0.99999998245E-14  0.12500000000E+03  0.12500000000E+03 0.  0.
        -11    1    3    3    0    0 -0.13793184111E+02  0.22990700439E+02  0.18918205510E+02  0.32813453560E+02  0.51100000000E-03 0. -1.
         23    2    1    0    0    0  0.31981646215E+01 -0.30259220023E+02 -0.59583310088E+01  0.93994349519E+02  0.88733237177E+02 0.  0.
         11    1    3    3    0    0  0.16991348732E+02 -0.53249920461E+02 -0.24876536519E+02  0.61180895959E+02  0.51100000000E-03 0.  1.
         22    1    1    0    0    0 -0.31981646215E+01  0.30259220023E+02  0.59583310088E+01  0.31005650481E+02  0.00000000000E+00 0.  1.
</event>
<event>
 5    1  0.1102386E-009  0.9118800E+02  0.7818608E-02  0.1130116E+00
         25   -1    0    0    0    0  0.00000000000E+00  0.00000000000E+00  0.99999998245E-14  0.12500000000E+03  0.12500000000E+03 0.  0.
        -11    1    3    3    0    0 -0.51807006342E+01 -0.27852812426E+02 -0.17370982808E+02  0.33232060770E+02  0.51100000000E-03 0.  1.
         23    2    1    0    0    0  0.54694632938E+01  0.23253340853E+02  0.16951641606E+02  0.95708515868E+02  0.91116019266E+02 0.  0.
         11    1    3    3    0    0  0.10650163928E+02  0.51106153278E+02  0.34322624414E+02  0.62476455097E+02  0.51100000000E-03 0. -1.
         22    1    1    0    0    0 -0.54694632938E+01 -0.23253340853E+02 -0.16951641606E+02  0.29291484132E+02  0.00000000000E+00 0. -1.
</event>
<event>
 5    1  0.1102386E-009  0.9118800E+02  0.7818608E-02  0.1130116E+00
         25   -1    0    0    0    0  0.00000000000E+00  0.00000000000E+00  0.99999998245E-14  0.12500000000E+03  0.12500000000E+03 0.  0.
        -11    1    3    3    0    0  0.34776187676E+02 -0.10774253114E+02  0.93391016625E+01  0.37585723082E+02  0.51100000000E-03 0. -1.
         23    2    1    0    0    0 -0.22420941318E+02 -0.66635148036E+01  0.17874272793E+02  0.95562087931E+02  0.90914916173E+02 0.  0.
         11    1    3    3    0    0 -0.57197128994E+02  0.41107383106E+01  0.85351711303E+01  0.57976364849E+02  0.51100000000E-03 0.  1.
         22    1    1    0    0    0  0.22420941318E+02  0.66635148036E+01 -0.17874272793E+02  0.29437912069E+02  0.00000000000E+00 0.  1.
</event>
<event>
 5    1  0.1102386E-009  0.9118800E+02  0.7818608E-02  0.1130116E+00
         25   -1    0    0    0    0  0.00000000000E+00  0.00000000000E+00  0.99999998245E-14  0.12500000000E+03  0.12500000000E+03 0.  0.
        -11    1    3    3    0    0  0.48741104687E+02 -0.76625909102E+01  0.15379123746E+02  0.51681021981E+02  0.51100000000E-03 0.  1.
         23    2    1    0    0    0  0.12287473399E+02 -0.27176017982E+02  0.21318630166E+01  0.95099117140E+02  0.90276127990E+02 0.  0.
         11    1    3    3    0    0 -0.36453631287E+02 -0.19513427072E+02 -0.13247260729E+02  0.43418095159E+02  0.51100000000E-03 0. -1.
         22    1    1    0    0    0 -0.12287473399E+02  0.27176017982E+02 -0.21318630166E+01  0.29900882860E+02  0.00000000000E+00 0.  1.
</event>
<event>
 5    1  0.1102386E-009  0.9118800E+02  0.7818608E-02  0.1130116E+00
         25   -1    0    0    0    0  0.00000000000E+00  0.00000000000E+00  0.99999998245E-14  0.12500000000E+03  0.12500000000E+03 0.  0.
        -11    1    3    3    0    0 -0.25106964186E+02 -0.23550032753E+02  0.14017166140E+02  0.37167790358E+02  0.51100000000E-03 0. -1.
         23    2    1    0    0    0 -0.83443334242E+01  0.25605209519E+02 -0.12304125403E+02  0.95391789032E+02  0.90680467897E+02 0.  0.
         11    1    3    3    0    0  0.16762630761E+02  0.49155242272E+02 -0.26321291543E+02  0.58223998674E+02  0.51100000000E-03 0.  1.
         22    1    1    0    0    0  0.83443334242E+01 -0.25605209519E+02  0.12304125403E+02  0.29608210968E+02  0.00000000000E+00 0.  1.
</event>
<event>
 5    1  0.1102386E-009  0.9118800E+02  0.7818608E-02  0.1130116E+00
         25   -1    0    0    0    0  0.00000000000E+00  0.00000000000E+00  0.99999998245E-14  0.12500000000E+03  0.12500000000E+03 0.  0.
        -11    1    3    3    0    0 -0.76947356513E+01  0.45129301138E+02 -0.43151260787E+01  0.45983508905E+02  0.51100000000E-03 0.  1.
         23    2    1    0    0    0 -0.27753861689E+02  0.39252819948E+01 -0.15239707179E+02  0.93094932185E+02  0.87457035430E+02 0.  0.
         11    1    3    3    0    0 -0.20059126038E+02 -0.41204019143E+02 -0.10924581100E+02  0.47111423279E+02  0.51100000000E-03 0. -1.
         22    1    1    0    0    0  0.27753861689E+02 -0.39252819948E+01  0.15239707179E+02  0.31905067815E+02  0.00000000000E+00 0.  1.
</event>
<event>
 5    1  0.1102386E-009  0.9118800E+02  0.7818608E-02  0.1130116E+00
         25   -1    0    0    0    0  0.00000000000E+00  0.00000000000E+00  0.99999998245E-14  0.12500000000E+03  0.12500000000E+03 0.  0.
        -11    1    3    3    0    0 -0.10781190706E+02 -0.11989764520E+02 -0.53982609472E+02  0.56339246108E+02  0.51100000000E-03 0.  1.
         23    2    1    0    0    0  0.79496383057E+01  0.93752202718E+01 -0.26110978676E+02  0.96140431192E+02  0.91706639880E+02 0.  0.
         11    1    3    3    0    0  0.18730829012E+02  0.21364984792E+02  0.27871630796E+02  0.39801185085E+02  0.51100000000E-03 0. -1.
         22    1    1    0    0    0 -0.79496383057E+01 -0.93752202718E+01  0.26110978676E+02  0.28859568808E+02  0.00000000000E+00 0.  1.
</event>
<event>
 5    1  0.1102386E-009  0.9118800E+02  0.7818608E-02  0.1130116E+00
         25   -1    0    0    0    0  0.00000000000E+00  0.00000000000E+00  0.99999998245E-14  0.12500000000E+03  0.12500000000E+03 0.  0.
        -11    1    3    3    0    0  0.33535894797E+02 -0.62030802358E+01 -0.31485594878E+01  0.34249786443E+02  0.51100000000E-03 0. -1.
         23    2    1    0    0    0 -0.24448865538E+02  0.69185068348E+01  0.13821337358E+02  0.96075233289E+02  0.91617729300E+02 0.  0.
         11    1    3    3    0    0 -0.57984760336E+02  0.13121587071E+02  0.16969896846E+02  0.61825446846E+02  0.51100000000E-03 0.  1.
         22    1    1    0    0    0  0.24448865538E+02 -0.69185068348E+01 -0.13821337358E+02  0.28924766711E+02  0.00000000000E+00 0.  1.
</event>
<event>
 5    1  0.1102386E-009  0.9118800E+02  0.7818608E-02  0.1130116E+00
         25   -1    0    0    0    0  0.00000000000E+00  0.00000000000E+00  0.99999998245E-14  0.12500000000E+03  0.12500000000E+03 0.  0.
        -11    1    3    3    0    0  0.11677568053E+02  0.28596564769E+02  0.17462146996E+02  0.35483174748E+02  0.51100000000E-03 0.  1.
         23    2    1    0    0    0  0.16065947991E+02 -0.24999084365E+02 -0.68587026042E+01  0.94502283604E+02  0.89445910477E+02 0.  0.
         11    1    3    3    0    0  0.43883799381E+01 -0.53595649134E+02 -0.24320849601E+02  0.59019108856E+02  0.51100000000E-03 0. -1.
         22    1    1    0    0    0 -0.16065947991E+02  0.24999084365E+02  0.68587026042E+01  0.30497716396E+02  0.00000000000E+00 0. -1.
</event>
<event>
 5    1  0.1102386E-009  0.9118800E+02  0.7818608E-02  0.1130116E+00
         25   -1    0    0    0    0  0.00000000000E+00  0.00000000000E+00  0.99999998245E-14  0.12500000000E+03  0.12500000000E+03 0.  0.
        -11    1    3    3    0    0 -0.31222880160E+02  0.37973620486E+02  0.23211209700E+02  0.54365654179E+02  0.51100000000E-03 0.  1.
         23    2    1    0    0    0 -0.30365385498E+02  0.95360593758E+01 -0.29761883212E+01  0.93033599487E+02  0.87369330270E+02 0.  0.
         11    1    3    3    0    0  0.85749466245E+00 -0.28437561110E+02 -0.26187398021E+02  0.38667945308E+02  0.51100000000E-03 0. -1.
         22    1    1    0    0    0  0.30365385498E+02 -0.95360593758E+01  0.29761883212E+01  0.31966400513E+02  0.00000000000E+00 0.  1.
</event>
<event>
 5    1  0.1102386E-009  0.9118800E+02  0.7818608E-02  0.1130116E+00
         25   -1    0    0    0    0  0.00000000000E+00  0.00000000000E+00  0.99999998245E-14  0.12500000000E+03  0.12500000000E+03 0.  0.
        -11    1    3    3    0    0 -0.70806298317E+01  0.26711310143E+02  0.29672587319E+02  0.40547402467E+02  0.51100000000E-03 0.  1.
         23    2    1    0    0    0 -0.92124711076E+00  0.14985625255E+02 -0.24472532983E+02  0.96288982409E+02  0.91908898384E+02 0.  0.
         11    1    3    3    0    0  0.61593827210E+01 -0.11725684888E+02 -0.54145120302E+02  0.55741579941E+02  0.51100000000E-03 0. -1.
         22    1    1    0    0    0  0.92124711076E+00 -0.14985625255E+02  0.24472532983E+02  0.28711017591E+02  0.00000000000E+00 0. -1.
</event>
<event>
 5    1  0.1102386E-009  0.9118800E+02  0.7818608E-02  0.1130116E+00
         25   -1    0    0    0    0  0.00000000000E+00  0.00000000000E+00  0.99999998245E-14  0.12500000000E+03  0.12500000000E+03 0.  0.
        -11    1    3    3    0    0  0.28737023689E+02  0.45069882833E+02  0.15491120633E+02  0.55651466179E+02  0.51100000000E-03 0. -1.
         23    2    1    0    0    0  0.25858068635E+02  0.10069479409E+02 -0.57039675801E+01  0.96670344597E+02  0.92426111836E+02 0.  0.
         11    1    3    3    0    0 -0.28789550534E+01 -0.35000403424E+02 -0.21195088213E+02  0.41018878418E+02  0.51100000000E-03 0.  1.
         22    1    1    0    0    0 -0.25858068635E+02 -0.10069479409E+02  0.57039675801E+01  0.28329655403E+02  0.00000000000E+00 0.  1.
</event>
<event>
 5    1  0.1102386E-009  0.9118800E+02  0.7818608E-02  0.1130116E+00
         25   -1    0    0    0    0  0.00000000000E+00  0.00000000000E+00  0.99999998245E-14  0.12500000000E+03  0.12500000000E+03 0.  0.
        -11    1    3    3    0    0 -0.32328576950E+02 -0.50242622996E+02 -0.14560616198E+01  0.59762682075E+02  0.51100000000E-03 0. -1.
         23    2    1    0    0    0 -0.85019272737E+01 -0.22705516018E+02  0.11172363960E+02  0.98304589506E+02  0.94610503521E+02 0.  0.
         11    1    3    3    0    0  0.23826649676E+02  0.27537106978E+02  0.12628425580E+02  0.38541907431E+02  0.51100000000E-03 0.  1.
         22    1    1    0    0    0  0.85019272737E+01  0.22705516018E+02 -0.11172363960E+02  0.26695410494E+02  0.00000000000E+00 0. -1.
</event>
<event>
 5    1  0.1102386E-009  0.9118800E+02  0.7818608E-02  0.1130116E+00
         25   -1    0    0    0    0  0.00000000000E+00  0.00000000000E+00  0.99999998245E-14  0.12500000000E+03  0.12500000000E+03 0.  0.
        -11    1    3    3    0    0 -0.56597703029E+02  0.33408734179E+01  0.15773841595E+02  0.58849600698E+02  0.51100000000E-03 0.  1.
         23    2    1    0    0    0 -0.21502204345E+02  0.15892995425E+02  0.38317623653E+01  0.97988622803E+02  0.94192121224E+02 0.  0.
         11    1    3    3    0    0  0.35095498684E+02  0.12552122007E+02 -0.11942079230E+02  0.39139022105E+02  0.51100000000E-03 0. -1.
         22    1    1    0    0    0  0.21502204345E+02 -0.15892995425E+02 -0.38317623653E+01  0.27011377197E+02  0.00000000000E+00 0.  1.
</event>
<event>
 5    1  0.1102386E-009  0.9118800E+02  0.7818608E-02  0.1130116E+00
         25   -1    0    0    0    0  0.00000000000E+00  0.00000000000E+00  0.99999998245E-14  0.12500000000E+03  0.12500000000E+03 0.  0.
        -11    1    3    3    0    0 -0.18918058608E+02  0.36411785172E+02 -0.25924593056E+02  0.48536538466E+02  0.51100000000E-03 0. -1.
         23    2    1    0    0    0 -0.27166516948E+02  0.68820103399E+01  0.95205378443E+01  0.95402325256E+02  0.90694990567E+02 0.  0.
         11    1    3    3    0    0 -0.82484583405E+01 -0.29529774832E+02  0.35445130900E+02  0.46865786790E+02  0.51100000000E-03 0.  1.
         22    1    1    0    0    0  0.27166516948E+02 -0.68820103399E+01 -0.95205378443E+01  0.29597674744E+02  0.00000000000E+00 0.  1.
</event>
<event>
 5    1  0.1102386E-009  0.9118800E+02  0.7818608E-02  0.1130116E+00
         25   -1    0    0    0    0  0.00000000000E+00  0.00000000000E+00  0.99999998245E-14  0.12500000000E+03  0.12500000000E+03 0.  0.
        -11    1    3    3    0    0  0.10070286835E+02  0.46982981294E+02 -0.18677681821E+02  0.51552565471E+02  0.51100000000E-03 0.  1.
         23    2    1    0    0    0  0.26771245991E+02  0.13373104161E+02 -0.19829534231E+02  0.89100836296E+02  0.81548814056E+02 0.  0.
         11    1    3    3    0    0  0.16700959156E+02 -0.33609877133E+02 -0.11518524107E+01  0.37548270824E+02  0.51100000000E-03 0. -1.
         22    1    1    0    0    0 -0.26771245991E+02 -0.13373104161E+02  0.19829534231E+02  0.35899163704E+02  0.00000000000E+00 0.  1.
</event>
<event>
 5    1  0.1102386E-009  0.9118800E+02  0.7818608E-02  0.1130116E+00
         25   -1    0    0    0    0  0.00000000000E+00  0.00000000000E+00  0.99999998245E-14  0.12500000000E+03  0.12500000000E+03 0.  0.
        -11    1    3    3    0    0 -0.19963528461E+02 -0.22841530445E+02 -0.50164698231E+02  0.58624013259E+02  0.51100000000E-03 0. -1.
         23    2    1    0    0    0  0.59155125696E+01 -0.14831559569E+02 -0.23108422224E+02  0.96911432470E+02  0.92751593611E+02 0.  0.
         11    1    3    3    0    0  0.25879041031E+02  0.80099708759E+01  0.27056276007E+02  0.38287419210E+02  0.51100000000E-03 0.  1.
         22    1    1    0    0    0 -0.59155125696E+01  0.14831559569E+02  0.23108422224E+02  0.28088567530E+02  0.00000000000E+00 0. -1.
</event>
<event>
 5    1  0.1102386E-009  0.9118800E+02  0.7818608E-02  0.1130116E+00
         25   -1    0    0    0    0  0.00000000000E+00  0.00000000000E+00  0.99999998245E-14  0.12500000000E+03  0.12500000000E+03 0.  0.
        -11    1    3    3    0    0 -0.16793846904E+02 -0.34013684588E+02 -0.11211746341E+02  0.39555875535E+02  0.51100000000E-03 0. -1.
         23    2    1    0    0    0 -0.18736382531E+02  0.15587940796E+02  0.15687169760E+02  0.96015120775E+02  0.91535677164E+02 0.  0.
         11    1    3    3    0    0 -0.19425356267E+01  0.49601625384E+02  0.26898916101E+02  0.56459245240E+02  0.51100000000E-03 0.  1.
         22    1    1    0    0    0  0.18736382531E+02 -0.15587940796E+02 -0.15687169760E+02  0.28984879225E+02  0.00000000000E+00 0.  1.
</event>
<event>
 5    1  0.1102386E-009  0.9118800E+02  0.7818608E-02  0.1130116E+00
         25   -1    0    0    0    0  0.00000000000E+00  0.00000000000E+00  0.99999998245E-14  0.12500000000E+03  0.12500000000E+03 0.  0.
        -11    1    3    3    0    0 -0.15529192484E+02 -0.59820997438E+02 -0.27655594586E+01  0.61865627557E+02  0.51100000000E-03 0.  1.
         23    2    1    0    0    0 -0.13258631062E+02 -0.27480369706E+02  0.77402808376E+00  0.94478513531E+02  0.89412685804E+02 0.  0.
         11    1    3    3    0    0  0.22705614217E+01  0.32340627732E+02  0.35395875424E+01  0.32612885973E+02  0.51100000000E-03 0. -1.
         22    1    1    0    0    0  0.13258631062E+02  0.27480369706E+02 -0.77402808376E+00  0.30521486469E+02  0.00000000000E+00 0.  1.
</event>
<event>
 5    1  0.1102386E-009  0.9118800E+02  0.7818608E-02  0.1130116E+00
         25   -1    0    0    0    0  0.00000000000E+00  0.00000000000E+00  0.99999998245E-14  0.12500000000E+03  0.12500000000E+03 0.  0.
        -11    1    3    3    0    0  0.32559015782E+02 -0.21102986037E+02 -0.20818331767E+02  0.44032129930E+02  0.51100000000E-03 0.  1.
         23    2    1    0    0    0  0.79798287659E+01  0.23520576657E+02 -0.16545934000E+02  0.95156020283E+02  0.90354884045E+02 0.  0.
         11    1    3    3    0    0 -0.24579187016E+02  0.44623562694E+02  0.42723977670E+01  0.51123890353E+02  0.51100000000E-03 0. -1.
         22    1    1    0    0    0 -0.79798287659E+01 -0.23520576657E+02  0.16545934000E+02  0.29843979717E+02  0.00000000000E+00 0. -1.
</event>
<event>
 5    1  0.1102386E-009  0.9118800E+02  0.7818608E-02  0.1130116E+00
         25   -1    0    0    0    0  0.00000000000E+00  0.00000000000E+00  0.99999998245E-14  0.12500000000E+03  0.12500000000E+03 0.  0.
        -11    1    3    3    0    0 -0.36760216303E+02  0.66103653277E+01 -0.10938999117E+02  0.38918788963E+02  0.51100000000E-03 0.  1.
         23    2    1    0    0    0  0.28418316168E+01 -0.75852692605E+00  0.29121943681E+02  0.95729896245E+02  0.91145345801E+02 0.  0.
         11    1    3    3    0    0  0.39602047919E+02 -0.73688922538E+01  0.40060942799E+02  0.56811107282E+02  0.51100000000E-03 0. -1.
         22    1    1    0    0    0 -0.28418316168E+01  0.75852692605E+00 -0.29121943681E+02  0.29270103755E+02  0.00000000000E+00 0. -1.
</event>
<event>
 5    1  0.1102386E-009  0.9118800E+02  0.7818608E-02  0.1130116E+00
         25   -1    0    0    0    0  0.00000000000E+00  0.00000000000E+00  0.99999998245E-14  0.12500000000E+03  0.12500000000E+03 0.  0.
        -11    1    3    3    0    0 -0.32884537779E+02 -0.18268720298E+01  0.15216120809E+02  0.36280306215E+02  0.51100000000E-03 0. -1.
         23    2    1    0    0    0  0.22915081381E+02  0.16941495450E+02  0.61592483640E+01  0.95844356237E+02  0.91302185403E+02 0.  0.
         11    1    3    3    0    0  0.55799619160E+02  0.18768367480E+02 -0.90568724452E+01  0.59564050022E+02  0.51100000000E-03 0.  1.
         22    1    1    0    0    0 -0.22915081381E+02 -0.16941495450E+02 -0.61592483640E+01  0.29155643763E+02  0.00000000000E+00 0.  1.
</event>
<event>
 5    1  0.1102386E-009  0.9118800E+02  0.7818608E-02  0.1130116E+00
         25   -1    0    0    0    0  0.00000000000E+00  0.00000000000E+00  0.99999998245E-14  0.12500000000E+03  0.12500000000E+03 0.  0.
        -11    1    3    3    0    0 -0.29329822103E+02 -0.11442682742E+02 -0.21307155982E+02  0.38015369908E+02  0.51100000000E-03 0.  1.
         23    2    1    0    0    0  0.17023374652E+02 -0.26837682193E+02  0.39017067158E+01  0.92980009598E+02  0.87292625115E+02 0.  0.
         11    1    3    3    0    0  0.46353196755E+02 -0.15394999451E+02  0.25208862698E+02  0.54964639690E+02  0.51100000000E-03 0. -1.
         22    1    1    0    0    0 -0.17023374652E+02  0.26837682193E+02 -0.39017067158E+01  0.32019990402E+02  0.00000000000E+00 0. -1.
</event>
<event>
 5    1  0.1102386E-009  0.9118800E+02  0.7818608E-02  0.1130116E+00
         25   -1    0    0    0    0  0.00000000000E+00  0.00000000000E+00  0.99999998245E-14  0.12500000000E+03  0.12500000000E+03 0.  0.
        -11    1    3    3    0    0 -0.85858069029E+01 -0.37823515332E+02 -0.24173048174E+02  0.45701976440E+02  0.51100000000E-03 0.  1.
         23    2    1    0    0    0  0.44278293867E+01 -0.23155875266E+02  0.20033549548E+02  0.94062266730E+02  0.88828861765E+02 0.  0.
         11    1    3    3    0    0  0.13013636290E+02  0.14667640066E+02  0.44206597721E+02  0.48360290290E+02  0.51100000000E-03 0. -1.
         22    1    1    0    0    0 -0.44278293867E+01  0.23155875266E+02 -0.20033549548E+02  0.30937733270E+02  0.00000000000E+00 0. -1.
</event>
<event>
 5    1  0.1102386E-009  0.9118800E+02  0.7818608E-02  0.1130116E+00
         25   -1    0    0    0    0  0.00000000000E+00  0.00000000000E+00  0.99999998245E-14  0.12500000000E+03  0.12500000000E+03 0.  0.
        -11    1    3    3    0    0  0.39972106488E+02  0.33783364350E+02  0.28057455018E+02  0.59382706121E+02  0.51100000000E-03 0.  1.
         23    2    1    0    0    0  0.14287545655E+02  0.87813867826E+01  0.24371730485E+02  0.95415748082E+02  0.90713488636E+02 0.  0.
         11    1    3    3    0    0 -0.25684560833E+02 -0.25001977567E+02 -0.36857245323E+01  0.36033041962E+02  0.51100000000E-03 0. -1.
         22    1    1    0    0    0 -0.14287545655E+02 -0.87813867826E+01 -0.24371730485E+02  0.29584251918E+02  0.00000000000E+00 0.  1.
</event>
<event>
 5    1  0.1102386E-009  0.9118800E+02  0.7818608E-02  0.1130116E+00
         25   -1    0    0    0    0  0.00000000000E+00  0.00000000000E+00  0.99999998245E-14  0.12500000000E+03  0.12500000000E+03 0.  0.
        -11    1    3    3    0    0  0.29134672005E+02  0.26475094828E+00 -0.26495777171E+02  0.39381790386E+02  0.51100000000E-03 0.  1.
         23    2    1    0    0    0  0.56370412554E+01 -0.22879470654E+02  0.18409304806E+02  0.95097677098E+02  0.90274134027E+02 0.  0.
         11    1    3    3    0    0 -0.23497630749E+02 -0.23144221602E+02  0.44905081977E+02  0.55715886711E+02  0.51100000000E-03 0. -1.
         22    1    1    0    0    0 -0.56370412554E+01  0.22879470654E+02 -0.18409304806E+02  0.29902322902E+02  0.00000000000E+00 0. -1.
</event>
<event>
 5    1  0.1102386E-009  0.9118800E+02  0.7818608E-02  0.1130116E+00
         25   -1    0    0    0    0  0.00000000000E+00  0.00000000000E+00  0.99999998245E-14  0.12500000000E+03  0.12500000000E+03 0.  0.
        -11    1    3    3    0    0  0.25879592344E+02  0.15261989850E+02  0.21005707179E+02  0.36659533118E+02  0.51100000000E-03 0. -1.
         23    2    1    0    0    0 -0.32464225190E+01 -0.16976629329E+01 -0.28343962664E+02  0.96420260006E+02  0.92087268401E+02 0.  0.
         11    1    3    3    0    0 -0.29126014863E+02 -0.16959652782E+02 -0.49349669843E+02  0.59760726888E+02  0.51100000000E-03 0.  1.
         22    1    1    0    0    0  0.32464225190E+01  0.16976629329E+01  0.28343962664E+02  0.28579739994E+02  0.00000000000E+00 0.  1.
</event>
<event>
 5    1  0.1102386E-009  0.9118800E+02  0.7818608E-02  0.1130116E+00
         25   -1    0    0    0    0  0.00000000000E+00  0.00000000000E+00  0.99999998245E-14  0.12500000000E+03  0.12500000000E+03 0.  0.
        -11    1    3    3    0    0 -0.37929805187E+01  0.28928306903E+02  0.18242964305E+02  0.34409873415E+02  0.51100000000E-03 0.  1.
         23    2    1    0    0    0  0.73534613339E+01 -0.26429118411E+02 -0.76331953436E+01  0.96524793859E+02  0.92229054342E+02 0.  0.
         11    1    3    3    0    0  0.11146441853E+02 -0.55357425315E+02 -0.25876159649E+02  0.62114920445E+02  0.51100000000E-03 0. -1.
         22    1    1    0    0    0 -0.73534613339E+01  0.26429118411E+02  0.76331953436E+01  0.28475206141E+02  0.00000000000E+00 0. -1.
</event>
<event>
 5    1  0.1102386E-009  0.9118800E+02  0.7818608E-02  0.1130116E+00
         25   -1    0    0    0    0  0.00000000000E+00  0.00000000000E+00  0.99999998245E-14  0.12500000000E+03  0.12500000000E+03 0.  0.
        -11    1    3    3    0    0 -0.25599742150E+02  0.24402842539E+01 -0.25559494774E+02  0.36257269047E+02  0.51100000000E-03 0.  1.
         23    2    1    0    0    0  0.18910228129E+02  0.10080937417E+02  0.16487454678E+02  0.97961912255E+02  0.94156667655E+02 0.  0.
         11    1    3    3    0    0  0.44509970279E+02  0.76406531635E+01  0.42046949452E+02  0.61704643209E+02  0.51100000000E-03 0. -1.
         22    1    1    0    0    0 -0.18910228129E+02 -0.10080937417E+02 -0.16487454678E+02  0.27038087745E+02  0.00000000000E+00 0. -1.
</event>
<event>
 5    1  0.1102386E-009  0.9118800E+02  0.7818608E-02  0.1130116E+00
         25   -1    0    0    0    0  0.00000000000E+00  0.00000000000E+00  0.99999998245E-14  0.12500000000E+03  0.12500000000E+03 0.  0.
        -11    1    3    3    0    0 -0.18033629283E+02 -0.39336552686E+02  0.34188219429E+02  0.55148984671E+02  0.51100000000E-03 0. -1.
         23    2    1    0    0    0  0.13055284327E+02 -0.21159347202E+02  0.15159463775E+02  0.95880113929E+02  0.91351127427E+02 0.  0.
         11    1    3    3    0    0  0.31088913609E+02  0.18177205484E+02 -0.19028755654E+02  0.40731129258E+02  0.51100000000E-03 0.  1.
         22    1    1    0    0    0 -0.13055284327E+02  0.21159347202E+02 -0.15159463775E+02  0.29119886071E+02  0.00000000000E+00 0. -1.
</event>
<event>
 5    1  0.1102386E-009  0.9118800E+02  0.7818608E-02  0.1130116E+00
         25   -1    0    0    0    0  0.00000000000E+00  0.00000000000E+00  0.99999998245E-14  0.12500000000E+03  0.12500000000E+03 0.  0.
        -11    1    3    3    0    0  0.88275342340E+01  0.44862905501E+02  0.24571053095E+02  0.51907054445E+02  0.51100000000E-03 0.  1.
         23    2    1    0    0    0  0.75370131819E+01 -0.21702519648E+00  0.26897704736E+02  0.97065430239E+02  0.92958902531E+02 0.  0.
         11    1    3    3    0    0 -0.12905210521E+01 -0.45079930698E+02  0.23266516410E+01  0.45158375795E+02  0.51100000000E-03 0. -1.
         22    1    1    0    0    0 -0.75370131819E+01  0.21702519648E+00 -0.26897704736E+02  0.27934569761E+02  0.00000000000E+00 0.  1.
</event>
<event>
 5    1  0.1102386E-009  0.9118800E+02  0.7818608E-02  0.1130116E+00
         25   -1    0    0    0    0  0.00000000000E+00  0.00000000000E+00  0.99999998245E-14  0.12500000000E+03  0.12500000000E+03 0.  0.
        -11    1    3    3    0    0 -0.30328299538E+02  0.12048038628E+02  0.17289728836E+02  0.36930958709E+02  0.51100000000E-03 0. -1.
         23    2    1    0    0    0  0.12314375732E+02  0.16478191246E+02 -0.21855623156E+02  0.94985954956E+02  0.90119302810E+02 0.  0.
         11    1    3    3    0    0  0.42642675270E+02  0.44301526180E+01 -0.39145351992E+02  0.58054996247E+02  0.51100000000E-03 0.  1.
         22    1    1    0    0    0 -0.12314375732E+02 -0.16478191246E+02  0.21855623156E+02  0.30014045044E+02  0.00000000000E+00 0.  1.
</event>
<event>
 5    1  0.1102386E-009  0.9118800E+02  0.7818608E-02  0.1130116E+00
         25   -1    0    0    0    0  0.00000000000E+00  0.00000000000E+00  0.99999998245E-14  0.12500000000E+03  0.12500000000E+03 0.  0.
        -11    1    3    3    0    0  0.63612068533E+00 -0.54133889256E+02  0.17527060968E+02  0.56904134137E+02  0.51100000000E-03 0.  1.
         23    2    1    0    0    0 -0.65868235779E+01 -0.16322544235E+02  0.23267530572E+02  0.95824844918E+02  0.91275468936E+02 0.  0.
         11    1    3    3    0    0 -0.72229442632E+01  0.37811345021E+02  0.57404696041E+01  0.38920710780E+02  0.51100000000E-03 0. -1.
         22    1    1    0    0    0  0.65868235779E+01  0.16322544235E+02 -0.23267530572E+02  0.29175155082E+02  0.00000000000E+00 0.  1.
</event>
<event>
 5    1  0.1102386E-009  0.9118800E+02  0.7818608E-02  0.1130116E+00
         25   -1    0    0    0    0  0.00000000000E+00  0.00000000000E+00  0.99999998245E-14  0.12500000000E+03  0.12500000000E+03 0.  0.
        -11    1    3    3    0    0  0.33374882899E+02 -0.40205899186E+02 -0.14870968982E+02  0.54328103746E+02  0.51100000000E-03 0. -1.
         23    2    1    0    0    0  0.28769730538E+00 -0.17656848345E+02 -0.23811974003E+02  0.95354474720E+02  0.90629016766E+02 0.  0.
         11    1    3    3    0    0 -0.33087185593E+02  0.22549050841E+02 -0.89410050203E+01  0.41026370975E+02  0.51100000000E-03 0.  1.
         22    1    1    0    0    0 -0.28769730538E+00  0.17656848345E+02  0.23811974003E+02  0.29645525280E+02  0.00000000000E+00 0. -1.
</event>
<event>
 5    1  0.1102386E-009  0.9118800E+02  0.7818608E-02  0.1130116E+00
         25   -1    0    0    0    0  0.00000000000E+00  0.00000000000E+00  0.99999998245E-14  0.12500000000E+03  0.12500000000E+03 0.  0.
        -11    1    3    3    0    0 -0.17315356855E+02  0.29930547928E+02  0.36136466600E+00  0.34580194721E+02  0.51100000000E-03 0. -1.
         23    2    1    0    0    0 -0.41336962290E+01 -0.29373957911E+02 -0.27552806212E+00  0.95335328021E+02  0.90602604848E+02 0.  0.
         11    1    3    3    0    0  0.13181660626E+02 -0.59304505839E+02 -0.63689272812E+00  0.60755133300E+02  0.51100000000E-03 0.  1.
         22    1    1    0    0    0  0.41336962290E+01  0.29373957911E+02  0.27552806212E+00  0.29664671979E+02  0.00000000000E+00 0.  1.
</event>
<event>
 5    1  0.1102386E-009  0.9118800E+02  0.7818608E-02  0.1130116E+00
         25   -1    0    0    0    0  0.00000000000E+00  0.00000000000E+00  0.99999998245E-14  0.12500000000E+03  0.12500000000E+03 0.  0.
        -11    1    3    3    0    0 -0.95600968663E+00 -0.22223822549E+01  0.48966911154E+02  0.49026638939E+02  0.51100000000E-03 0.  1.
         23    2    1    0    0    0  0.16386545997E+02 -0.22234869904E+02  0.11105026648E+02  0.95230385521E+02  0.90457704925E+02 0.  0.
         11    1    3    3    0    0  0.17342555684E+02 -0.20012487649E+02 -0.37861884507E+02  0.46203746582E+02  0.51100000000E-03 0. -1.
         22    1    1    0    0    0 -0.16386545997E+02  0.22234869904E+02 -0.11105026648E+02  0.29769614479E+02  0.00000000000E+00 0.  1.
</event>
<event>
 5    1  0.1102386E-009  0.9118800E+02  0.7818608E-02  0.1130116E+00
         25   -1    0    0    0    0  0.00000000000E+00  0.00000000000E+00  0.99999998245E-14  0.12500000000E+03  0.12500000000E+03 0.  0.
        -11    1    3    3    0    0 -0.52275146525E+02  0.22756898063E+02  0.19377638105E+01  0.57046667585E+02  0.51100000000E-03 0. -1.
         23    2    1    0    0    0 -0.14954857520E+02  0.26214260732E+02  0.38492492875E+01  0.94575471257E+02  0.89548131271E+02 0.  0.
         11    1    3    3    0    0  0.37320289005E+02  0.34573626691E+01  0.19114854770E+01  0.37528803672E+02  0.51100000000E-03 0.  1.
         22    1    1    0    0    0  0.14954857520E+02 -0.26214260732E+02 -0.38492492875E+01  0.30424528743E+02  0.00000000000E+00 0. -1.
</event>
<event>
 5    1  0.1102386E-009  0.9118800E+02  0.7818608E-02  0.1130116E+00
         25   -1    0    0    0    0  0.00000000000E+00  0.00000000000E+00  0.99999998245E-14  0.12500000000E+03  0.12500000000E+03 0.  0.
        -11    1    3    3    0    0  0.33514646232E+02 -0.29493075196E+02 -0.34165265901E+02  0.56216887061E+02  0.51100000000E-03 0. -1.
         23    2    1    0    0    0  0.71174549813E+01 -0.28767036259E+02 -0.61157902063E+01  0.94741060322E+02  0.89778979057E+02 0.  0.
         11    1    3    3    0    0 -0.26397191250E+02  0.72603893655E+00  0.28049475694E+02  0.38524173261E+02  0.51100000000E-03 0.  1.
         22    1    1    0    0    0 -0.71174549813E+01  0.28767036259E+02  0.61157902063E+01  0.30258939678E+02  0.00000000000E+00 0. -1.
</event>
<event>
 5    1  0.1102386E-009  0.9118800E+02  0.7818608E-02  0.1130116E+00
         25   -1    0    0    0    0  0.00000000000E+00  0.00000000000E+00  0.99999998245E-14  0.12500000000E+03  0.12500000000E+03 0.  0.
        -11    1    3    3    0    0 -0.19286499689E+02  0.23727667957E+02  0.24070110412E+02  0.38914541144E+02  0.51100000000E-03 0.  1.
         23    2    1    0    0    0  0.29277372472E+02  0.42836299269E+01  0.31901194635E+01  0.95239440758E+02  0.90470217140E+02 0.  0.
         11    1    3    3    0    0  0.48563872161E+02 -0.19444038030E+02 -0.20879990948E+02  0.56324899614E+02  0.51100000000E-03 0. -1.
         22    1    1    0    0    0 -0.29277372472E+02 -0.42836299269E+01 -0.31901194635E+01  0.29760559242E+02  0.00000000000E+00 0. -1.
</event>
<event>
 5    1  0.1102386E-009  0.9118800E+02  0.7818608E-02  0.1130116E+00
         25   -1    0    0    0    0  0.00000000000E+00  0.00000000000E+00  0.99999998245E-14  0.12500000000E+03  0.12500000000E+03 0.  0.
        -11    1    3    3    0    0  0.22381001813E+02 -0.46968678034E+02  0.10004123510E+02  0.52981585913E+02  0.51100000000E-03 0.  1.
         23    2    1    0    0    0 -0.79047604824E+00 -0.13638206509E+02  0.25207422253E+02  0.96328765883E+02  0.91962989679E+02 0.  0.
         11    1    3    3    0    0 -0.23171477861E+02  0.33330471525E+02  0.15203298743E+02  0.43347179969E+02  0.51100000000E-03 0. -1.
         22    1    1    0    0    0  0.79047604824E+00  0.13638206509E+02 -0.25207422253E+02  0.28671234117E+02  0.00000000000E+00 0.  1.
</event>
<event>
 5    1  0.1102386E-009  0.9118800E+02  0.7818608E-02  0.1130116E+00
         25   -1    0    0    0    0  0.00000000000E+00  0.00000000000E+00  0.99999998245E-14  0.12500000000E+03  0.12500000000E+03 0.  0.
        -11    1    3    3    0    0  0.15451591698E+02 -0.38255924556E+02  0.44200338769E+02  0.60464348150E+02  0.51100000000E-03 0. -1.
         23    2    1    0    0    0 -0.23844716860E+01 -0.15971588694E+02  0.26243002416E+02  0.94186487925E+02  0.89003494207E+02 0.  0.
         11    1    3    3    0    0 -0.17836063384E+02  0.22284335862E+02 -0.17957336353E+02  0.33722139775E+02  0.51100000000E-03 0.  1.
         22    1    1    0    0    0  0.23844716860E+01  0.15971588694E+02 -0.26243002416E+02  0.30813512075E+02  0.00000000000E+00 0. -1.
</event>
<event>
 5    1  0.1102386E-009  0.9118800E+02  0.7818608E-02  0.1130116E+00
         25   -1    0    0    0    0  0.00000000000E+00  0.00000000000E+00  0.99999998245E-14  0.12500000000E+03  0.12500000000E+03 0.  0.
        -11    1    3    3    0    0 -0.83090155249E+01  0.38268961971E+02 -0.24921869392E+02  0.46418237403E+02  0.51100000000E-03 0. -1.
         23    2    1    0    0    0  0.25797308810E+02  0.49417286599E+01 -0.13564144936E+02  0.95438067522E+02  0.90744238828E+02 0.  0.
         11    1    3    3    0    0  0.34106324335E+02 -0.33327233311E+02  0.11357724455E+02  0.49019830119E+02  0.51100000000E-03 0.  1.
         22    1    1    0    0    0 -0.25797308810E+02 -0.49417286599E+01  0.13564144936E+02  0.29561932478E+02  0.00000000000E+00 0.  1.
</event>
<event>
 5    1  0.1102386E-009  0.9118800E+02  0.7818608E-02  0.1130116E+00
         25   -1    0    0    0    0  0.00000000000E+00  0.00000000000E+00  0.99999998245E-14  0.12500000000E+03  0.12500000000E+03 0.  0.
        -11    1    3    3    0    0 -0.12266987160E+02 -0.31632069869E+02  0.26660733424E+02  0.43149293449E+02  0.51100000000E-03 0. -1.
         23    2    1    0    0    0  0.87435736997E+01  0.14538288732E+02  0.26090700710E+02  0.93878679593E+02  0.88570141122E+02 0.  0.
         11    1    3    3    0    0  0.21010560860E+02  0.46170358601E+02 -0.57003271426E+00  0.50729386144E+02  0.51100000000E-03 0.  1.
         22    1    1    0    0    0 -0.87435736997E+01 -0.14538288732E+02 -0.26090700710E+02  0.31121320407E+02  0.00000000000E+00 0.  1.
</event>
<event>
 5    1  0.1102386E-009  0.9118800E+02  0.7818608E-02  0.1130116E+00
         25   -1    0    0    0    0  0.00000000000E+00  0.00000000000E+00  0.99999998245E-14  0.12500000000E+03  0.12500000000E+03 0.  0.
        -11    1    3    3    0    0 -0.67109831812E+01 -0.49844956839E+02  0.28599209386E+02  0.57857340030E+02  0.51100000000E-03 0.  1.
         23    2    1    0    0    0 -0.84636957076E+00 -0.14015427189E+02  0.27433138603E+02  0.94182381105E+02  0.88997726242E+02 0.  0.
         11    1    3    3    0    0  0.58646136104E+01  0.35829529651E+02 -0.11660707824E+01  0.36325041075E+02  0.51100000000E-03 0. -1.
         22    1    1    0    0    0  0.84636957076E+00  0.14015427189E+02 -0.27433138603E+02  0.30817618895E+02  0.00000000000E+00 0.  1.
</event>
<event>
 5    1  0.1102386E-009  0.9118800E+02  0.7818608E-02  0.1130116E+00
         25   -1    0    0    0    0  0.00000000000E+00  0.00000000000E+00  0.99999998245E-14  0.12500000000E+03  0.12500000000E+03 0.  0.
        -11    1    3    3    0    0 -0.49156462052E+02 -0.41621647028E+01  0.22398833543E+02  0.54179231453E+02  0.51100000000E-03 0.  1.
         23    2    1    0    0    0 -0.26719914689E+02 -0.13615088870E+02 -0.87936968314E+01  0.93748542596E+02  0.88386286543E+02 0.  0.
         11    1    3    3    0    0  0.22436547363E+02 -0.94529241668E+01 -0.31192530375E+02  0.39569311143E+02  0.51100000000E-03 0. -1.
         22    1    1    0    0    0  0.26719914689E+02  0.13615088870E+02  0.87936968314E+01  0.31251457404E+02  0.00000000000E+00 0.  1.
</event>
<event>
 5    1  0.1102386E-009  0.9118800E+02  0.7818608E-02  0.1130116E+00
         25   -1    0    0    0    0  0.00000000000E+00  0.00000000000E+00  0.99999998245E-14  0.12500000000E+03  0.12500000000E+03 0.  0.
        -11    1    3    3    0    0  0.82158514957E+01 -0.79904685839E+01  0.56687851463E+02  0.57834767292E+02  0.51100000000E-03 0.  1.
         23    2    1    0    0    0 -0.62041776467E+01  0.10494274131E+02  0.24254210169E+02  0.97854313036E+02  0.94013713144E+02 0.  0.
         11    1    3    3    0    0 -0.14420029142E+02  0.18484742715E+02 -0.32433641294E+02  0.40019545744E+02  0.51100000000E-03 0. -1.
         22    1    1    0    0    0  0.62041776467E+01 -0.10494274131E+02 -0.24254210169E+02  0.27145686964E+02  0.00000000000E+00 0.  1.
</event>
<event>
 5    1  0.1102386E-009  0.9118800E+02  0.7818608E-02  0.1130116E+00
         25   -1    0    0    0    0  0.00000000000E+00  0.00000000000E+00  0.99999998245E-14  0.12500000000E+03  0.12500000000E+03 0.  0.
        -11    1    3    3    0    0  0.31360640462E+02  0.67303253942E+01 -0.11248095697E+02  0.33989802988E+02  0.51100000000E-03 0. -1.
         23    2    1    0    0    0 -0.19699809596E+02 -0.20758642913E+02  0.83279442972E+01  0.95194658030E+02  0.90408321009E+02 0.  0.
         11    1    3    3    0    0 -0.51060450057E+02 -0.27488968307E+02  0.19576039994E+02  0.61204855043E+02  0.51100000000E-03 0.  1.
         22    1    1    0    0    0  0.19699809596E+02  0.20758642913E+02 -0.83279442972E+01  0.29805341970E+02  0.00000000000E+00 0.  1.
</event>
<event>
 5    1  0.1102386E-009  0.9118800E+02  0.7818608E-02  0.1130116E+00
         25   -1    0    0    0    0  0.00000000000E+00  0.00000000000E+00  0.99999998245E-14  0.12500000000E+03  0.12500000000E+03 0.  0.
        -11    1    3    3    0    0 -0.34165718488E+02  0.25105704633E+01  0.22371687844E+01  0.34330805529E+02  0.51100000000E-03 0.  1.
         23    2    1    0    0    0  0.24908171856E+02 -0.11321086662E+02  0.10763762113E+02  0.95598595216E+02  0.90965096626E+02 0.  0.
         11    1    3    3    0    0  0.59073890344E+02 -0.13831657125E+02  0.85265933290E+01  0.61267789688E+02  0.51100000000E-03 0. -1.
         22    1    1    0    0    0 -0.24908171856E+02  0.11321086662E+02 -0.10763762113E+02  0.29401404784E+02  0.00000000000E+00 0. -1.
</event>
<event>
 5    1  0.1102386E-009  0.9118800E+02  0.7818608E-02  0.1130116E+00
         25   -1    0    0    0    0  0.00000000000E+00  0.00000000000E+00  0.99999998245E-14  0.12500000000E+03  0.12500000000E+03 0.  0.
        -11    1    3    3    0    0  0.13911635962E+02 -0.58173436254E+02 -0.12638450524E+02  0.61134382573E+02  0.51100000000E-03 0. -1.
         23    2    1    0    0    0  0.14624650691E+02 -0.25037527370E+02 -0.20348111774E+01  0.95932859770E+02  0.91423273528E+02 0.  0.
         11    1    3    3    0    0  0.71301472872E+00  0.33135908884E+02  0.10603639346E+02  0.34798477197E+02  0.51100000000E-03 0.  1.
         22    1    1    0    0    0 -0.14624650691E+02  0.25037527370E+02  0.20348111774E+01  0.29067140230E+02  0.00000000000E+00 0. -1.
</event>
<event>
 5    1  0.1102386E-009  0.9118800E+02  0.7818608E-02  0.1130116E+00
         25   -1    0    0    0    0  0.00000000000E+00  0.00000000000E+00  0.99999998245E-14  0.12500000000E+03  0.12500000000E+03 0.  0.
        -11    1    3    3    0    0 -0.12054866617E+00 -0.87995849508E+01 -0.58664783443E+02  0.59321193885E+02  0.51100000000E-03 0. -1.
         23    2    1    0    0    0 -0.14059673359E+02 -0.35349177954E+01 -0.25801082621E+02  0.95404967931E+02  0.90698632750E+02 0.  0.
         11    1    3    3    0    0 -0.13939124692E+02  0.52646671555E+01  0.32863700821E+02  0.36083774046E+02  0.51100000000E-03 0.  1.
         22    1    1    0    0    0  0.14059673359E+02  0.35349177954E+01  0.25801082621E+02  0.29595032069E+02  0.00000000000E+00 0. -1.
</event>
<event>
 5    1  0.1102386E-009  0.9118800E+02  0.7818608E-02  0.1130116E+00
         25   -1    0    0    0    0  0.00000000000E+00  0.00000000000E+00  0.99999998245E-14  0.12500000000E+03  0.12500000000E+03 0.  0.
        -11    1    3    3    0    0  0.24361240980E+02  0.43231324270E+02 -0.88869029729E+01  0.50412245585E+02  0.51100000000E-03 0.  1.
         23    2    1    0    0    0  0.18889688665E+02  0.87765174491E+01 -0.27930499845E+02  0.90158065238E+02  0.83153570635E+02 0.  0.
         11    1    3    3    0    0 -0.54715523149E+01 -0.34454806821E+02 -0.19043596872E+02  0.39745819653E+02  0.51100000000E-03 0. -1.
         22    1    1    0    0    0 -0.18889688665E+02 -0.87765174491E+01  0.27930499845E+02  0.34841934762E+02  0.00000000000E+00 0.  1.
</event>
<event>
 5    1  0.1102386E-009  0.9118800E+02  0.7818608E-02  0.1130116E+00
         25   -1    0    0    0    0  0.00000000000E+00  0.00000000000E+00  0.99999998245E-14  0.12500000000E+03  0.12500000000E+03 0.  0.
        -11    1    3    3    0    0  0.37416028173E+02 -0.57026540750E+01 -0.31141621509E+02  0.49013059670E+02  0.51100000000E-03 0.  1.
         23    2    1    0    0    0 -0.83630401312E-01  0.20989423755E+02 -0.19170197468E+02  0.96573614817E+02  0.92295198707E+02 0.  0.
         11    1    3    3    0    0 -0.37499658575E+02  0.26692077830E+02  0.11971424041E+02  0.47560555147E+02  0.51100000000E-03 0. -1.
         22    1    1    0    0    0  0.83630401312E-01 -0.20989423755E+02  0.19170197468E+02  0.28426385183E+02  0.00000000000E+00 0. -1.
</event>
<event>
 5    1  0.1102386E-009  0.9118800E+02  0.7818608E-02  0.1130116E+00
         25   -1    0    0    0    0  0.00000000000E+00  0.00000000000E+00  0.99999998245E-14  0.12500000000E+03  0.12500000000E+03 0.  0.
        -11    1    3    3    0    0 -0.46075793569E+01  0.36098153896E+02  0.18408866638E+02  0.40782261749E+02  0.51100000000E-03 0. -1.
         23    2    1    0    0    0 -0.20177746838E+02 -0.16731257742E+02  0.11802807627E+02  0.96253126762E+02  0.91860120240E+02 0.  0.
         11    1    3    3    0    0 -0.15570167481E+02 -0.52829411638E+02 -0.66060590114E+01  0.55470865013E+02  0.51100000000E-03 0.  1.
         22    1    1    0    0    0  0.20177746838E+02  0.16731257742E+02 -0.11802807627E+02  0.28746873238E+02  0.00000000000E+00 0.  1.
</event>
<event>
 5    1  0.1102386E-009  0.9118800E+02  0.7818608E-02  0.1130116E+00
         25   -1    0    0    0    0  0.00000000000E+00  0.00000000000E+00  0.99999998245E-14  0.12500000000E+03  0.12500000000E+03 0.  0.
        -11    1    3    3    0    0 -0.26147362588E+02 -0.26438712304E+02  0.42944198520E+02  0.56805759087E+02  0.51100000000E-03 0.  1.
         23    2    1    0    0    0 -0.57618477006E+00 -0.24079216267E+02  0.91849374381E+01  0.99222030323E+02  0.95814965328E+02 0.  0.
         11    1    3    3    0    0  0.25571177818E+02  0.23594960370E+01 -0.33759261082E+02  0.42416271237E+02  0.51100000000E-03 0. -1.
         22    1    1    0    0    0  0.57618477006E+00  0.24079216267E+02 -0.91849374381E+01  0.25777969677E+02  0.00000000000E+00 0.  1.
</event>
<event>
 5    1  0.1102386E-009  0.9118800E+02  0.7818608E-02  0.1130116E+00
         25   -1    0    0    0    0  0.00000000000E+00  0.00000000000E+00  0.99999998245E-14  0.12500000000E+03  0.12500000000E+03 0.  0.
        -11    1    3    3    0    0 -0.10147313333E+02  0.32492523590E+02 -0.34360855968E+02  0.48367349320E+02  0.51100000000E-03 0.  1.
         23    2    1    0    0    0 -0.19889249414E+02 -0.11375948759E+02 -0.16685345568E+02  0.96655772913E+02  0.92406402529E+02 0.  0.
         11    1    3    3    0    0 -0.97419360805E+01 -0.43868472350E+02  0.17675510400E+02  0.48288423593E+02  0.51100000000E-03 0. -1.
         22    1    1    0    0    0  0.19889249414E+02  0.11375948759E+02  0.16685345568E+02  0.28344227087E+02  0.00000000000E+00 0. -1.
</event>
<event>
 5    1  0.1102386E-009  0.9118800E+02  0.7818608E-02  0.1130116E+00
         25   -1    0    0    0    0  0.00000000000E+00  0.00000000000E+00  0.99999998245E-14  0.12500000000E+03  0.12500000000E+03 0.  0.
        -11    1    3    3    0    0 -0.24558256236E+02  0.40716711153E+02  0.34751681003E+02  0.58895142833E+02  0.51100000000E-03 0.  1.
         23    2    1    0    0    0 -0.24514320869E+02  0.11607665521E+02  0.16620468271E+02  0.93189156062E+02  0.87591603567E+02 0.  0.
         11    1    3    3    0    0  0.43935367090E-01 -0.29109045632E+02 -0.18131212733E+02  0.34294013229E+02  0.51100000000E-03 0. -1.
         22    1    1    0    0    0  0.24514320869E+02 -0.11607665521E+02 -0.16620468271E+02  0.31810843938E+02  0.00000000000E+00 0.  1.
</event>
<event>
 5    1  0.1102386E-009  0.9118800E+02  0.7818608E-02  0.1130116E+00
         25   -1    0    0    0    0  0.00000000000E+00  0.00000000000E+00  0.99999998245E-14  0.12500000000E+03  0.12500000000E+03 0.  0.
        -11    1    3    3    0    0 -0.18608790021E+02 -0.54834678443E+02 -0.80670676847E+01  0.58465430874E+02  0.51100000000E-03 0. -1.
         23    2    1    0    0    0 -0.23016134161E+02 -0.18786006629E+02 -0.28774112686E+01  0.95151449409E+02  0.90348560321E+02 0.  0.
         11    1    3    3    0    0 -0.44073441404E+01  0.36048671814E+02  0.51896564161E+01  0.36686018534E+02  0.51100000000E-03 0.  1.
         22    1    1    0    0    0  0.23016134161E+02  0.18786006629E+02  0.28774112686E+01  0.29848550591E+02  0.00000000000E+00 0.  1.
</event>
<event>
 5    1  0.1102386E-009  0.9118800E+02  0.7818608E-02  0.1130116E+00
         25   -1    0    0    0    0  0.00000000000E+00  0.00000000000E+00  0.99999998245E-14  0.12500000000E+03  0.12500000000E+03 0.  0.
        -11    1    3    3    0    0  0.35026331931E+02  0.52503151081E+01  0.38616046467E+02  0.52398557063E+02  0.51100000000E-03 0.  1.
         23    2    1    0    0    0 -0.57858509217E+01  0.12521210889E+02  0.25723212768E+02  0.95811980743E+02  0.91257849996E+02 0.  0.
         11    1    3    3    0    0 -0.40812182852E+02  0.72708957813E+01 -0.12892833699E+02  0.43413423681E+02  0.51100000000E-03 0. -1.
         22    1    1    0    0    0  0.57858509217E+01 -0.12521210889E+02 -0.25723212768E+02  0.29188019257E+02  0.00000000000E+00 0.  1.
</event>
<event>
 5    1  0.1102386E-009  0.9118800E+02  0.7818608E-02  0.1130116E+00
         25   -1    0    0    0    0  0.00000000000E+00  0.00000000000E+00  0.99999998245E-14  0.12500000000E+03  0.12500000000E+03 0.  0.
        -11    1    3    3    0    0 -0.19587718800E+02 -0.17243246449E+02 -0.22129195428E+02  0.34215633364E+02  0.51100000000E-03 0.  1.
         23    2    1    0    0    0  0.29787703001E+02  0.22239731585E+01  0.63700151987E+01  0.94457727649E+02  0.89383622171E+02 0.  0.
         11    1    3    3    0    0  0.49375421801E+02  0.19467219608E+02  0.28499210627E+02  0.60242094286E+02  0.51100000000E-03 0. -1.
         22    1    1    0    0    0 -0.29787703001E+02 -0.22239731585E+01 -0.63700151987E+01  0.30542272351E+02  0.00000000000E+00 0. -1.
</event>
<event>
 5    1  0.1102386E-009  0.9118800E+02  0.7818608E-02  0.1130116E+00
         25   -1    0    0    0    0  0.00000000000E+00  0.00000000000E+00  0.99999998245E-14  0.12500000000E+03  0.12500000000E+03 0.  0.
        -11    1    3    3    0    0  0.17652846515E+02  0.25694004556E+02  0.20283800444E+02  0.37191899937E+02  0.51100000000E-03 0.  1.
         23    2    1    0    0    0  0.13312454876E+01  0.39397222349E+02 -0.18507550586E+02  0.81451833884E+02  0.68832829892E+02 0.  0.
         11    1    3    3    0    0 -0.16321601027E+02  0.13703217793E+02 -0.38791351030E+02  0.44259933947E+02  0.51100000000E-03 0. -1.
         22    1    1    0    0    0 -0.13312454876E+01 -0.39397222349E+02  0.18507550586E+02  0.43548166116E+02  0.00000000000E+00 0. -1.
</event>
<event>
 5    1  0.1102386E-009  0.9118800E+02  0.7818608E-02  0.1130116E+00
         25   -1    0    0    0    0  0.00000000000E+00  0.00000000000E+00  0.99999998245E-14  0.12500000000E+03  0.12500000000E+03 0.  0.
        -11    1    3    3    0    0  0.38669068214E+02  0.27378464476E+02  0.23372464775E+02  0.52831328428E+02  0.51100000000E-03 0.  1.
         23    2    1    0    0    0  0.13060491779E+02  0.24175143055E+02 -0.10646484730E+02  0.95532023749E+02  0.90873571170E+02 0.  0.
         11    1    3    3    0    0 -0.25608576435E+02 -0.32033214210E+01 -0.34018949505E+02  0.42700695321E+02  0.51100000000E-03 0. -1.
         22    1    1    0    0    0 -0.13060491779E+02 -0.24175143055E+02  0.10646484730E+02  0.29467976251E+02  0.00000000000E+00 0. -1.
</event>
<event>
 5    1  0.1102386E-009  0.9118800E+02  0.7818608E-02  0.1130116E+00
         25   -1    0    0    0    0  0.00000000000E+00  0.00000000000E+00  0.99999998245E-14  0.12500000000E+03  0.12500000000E+03 0.  0.
        -11    1    3    3    0    0 -0.28836548840E+02 -0.26758190719E+01 -0.20424948178E+02  0.35438468717E+02  0.51100000000E-03 0. -1.
         23    2    1    0    0    0  0.27454523798E+02  0.61483637507E+01  0.22779172347E+01  0.96773378510E+02  0.92565353279E+02 0.  0.
         11    1    3    3    0    0  0.56291072638E+02  0.88241828227E+01  0.22702865412E+02  0.61334909793E+02  0.51100000000E-03 0.  1.
         22    1    1    0    0    0 -0.27454523798E+02 -0.61483637507E+01 -0.22779172347E+01  0.28226621490E+02  0.00000000000E+00 0.  1.
</event>
<event>
 5    1  0.1102386E-009  0.9118800E+02  0.7818608E-02  0.1130116E+00
         25   -1    0    0    0    0  0.00000000000E+00  0.00000000000E+00  0.99999998245E-14  0.12500000000E+03  0.12500000000E+03 0.  0.
        -11    1    3    3    0    0 -0.60801197387E+02 -0.69529517561E+01 -0.80667903377E+01  0.61726835724E+02  0.51100000000E-03 0. -1.
         23    2    1    0    0    0 -0.26780697880E+02 -0.61394333764E+01 -0.98719394241E+01  0.95804904366E+02  0.91248156647E+02 0.  0.
         11    1    3    3    0    0  0.34020499508E+02  0.81351837968E+00 -0.18051490863E+01  0.34078068642E+02  0.51100000000E-03 0.  1.
         22    1    1    0    0    0  0.26780697880E+02  0.61394333764E+01  0.98719394241E+01  0.29195095634E+02  0.00000000000E+00 0. -1.
</event>
<event>
 5    1  0.1102386E-009  0.9118800E+02  0.7818608E-02  0.1130116E+00
         25   -1    0    0    0    0  0.00000000000E+00  0.00000000000E+00  0.99999998245E-14  0.12500000000E+03  0.12500000000E+03 0.  0.
        -11    1    3    3    0    0  0.35010619637E+02  0.36632681814E+01  0.34603603286E+02  0.49361648896E+02  0.51100000000E-03 0. -1.
         23    2    1    0    0    0  0.22028802462E+02 -0.11892901973E+02 -0.97580290009E+01  0.98131274961E+02  0.94381241463E+02 0.  0.
         11    1    3    3    0    0 -0.12981817175E+02 -0.15556170155E+02 -0.44361632287E+02  0.48769626064E+02  0.51100000000E-03 0.  1.
         22    1    1    0    0    0 -0.22028802462E+02  0.11892901973E+02  0.97580290009E+01  0.26868725039E+02  0.00000000000E+00 0. -1.
</event>
<event>
 5    1  0.1102386E-009  0.9118800E+02  0.7818608E-02  0.1130116E+00
         25   -1    0    0    0    0  0.00000000000E+00  0.00000000000E+00  0.99999998245E-14  0.12500000000E+03  0.12500000000E+03 0.  0.
        -11    1    3    3    0    0  0.36143916325E+02  0.82022581423E+01 -0.14735453428E+02  0.39884750393E+02  0.51100000000E-03 0. -1.
         23    2    1    0    0    0 -0.18284315039E+01 -0.29882152583E+02 -0.31698000626E+01  0.94894621125E+02  0.89992529031E+02 0.  0.
         11    1    3    3    0    0 -0.37972347829E+02 -0.38084410725E+02  0.11565653365E+02  0.55009870732E+02  0.51100000000E-03 0.  1.
         22    1    1    0    0    0  0.18284315039E+01  0.29882152583E+02  0.31698000626E+01  0.30105378875E+02  0.00000000000E+00 0.  1.
</event>
<event>
 5    1  0.1102386E-009  0.9118800E+02  0.7818608E-02  0.1130116E+00
         25   -1    0    0    0    0  0.00000000000E+00  0.00000000000E+00  0.99999998245E-14  0.12500000000E+03  0.12500000000E+03 0.  0.
        -11    1    3    3    0    0 -0.14550556895E+02  0.45263136888E+02 -0.17913215035E+02  0.50807022546E+02  0.51100000000E-03 0.  1.
         23    2    1    0    0    0 -0.32698931950E+02  0.18454036929E+02 -0.75861877581E+00  0.87445411305E+02  0.78970582030E+02 0.  0.
         11    1    3    3    0    0 -0.18148375055E+02 -0.26809099959E+02  0.17154596259E+02  0.36638388758E+02  0.51100000000E-03 0. -1.
         22    1    1    0    0    0  0.32698931950E+02 -0.18454036929E+02  0.75861877581E+00  0.37554588695E+02  0.00000000000E+00 0.  1.
</event>
<event>
 5    1  0.1102386E-009  0.9118800E+02  0.7818608E-02  0.1130116E+00
         25   -1    0    0    0    0  0.00000000000E+00  0.00000000000E+00  0.99999998245E-14  0.12500000000E+03  0.12500000000E+03 0.  0.
        -11    1    3    3    0    0  0.33976887300E+02 -0.16041585279E+02 -0.10445998027E+02  0.38998464123E+02  0.51100000000E-03 0.  1.
         23    2    1    0    0    0  0.89522215929E+01  0.22653252083E+02  0.19365065041E+02  0.93882194077E+02  0.88575101012E+02 0.  0.
         11    1    3    3    0    0 -0.25024665707E+02  0.38694837362E+02  0.29811063069E+02  0.54883729955E+02  0.51100000000E-03 0. -1.
         22    1    1    0    0    0 -0.89522215929E+01 -0.22653252083E+02 -0.19365065041E+02  0.31117805923E+02  0.00000000000E+00 0. -1.
</event>
<event>
 5    1  0.1102386E-009  0.9118800E+02  0.7818608E-02  0.1130116E+00
         25   -1    0    0    0    0  0.00000000000E+00  0.00000000000E+00  0.99999998245E-14  0.12500000000E+03  0.12500000000E+03 0.  0.
        -11    1    3    3    0    0  0.13292697797E+02 -0.46717795441E+02 -0.23632890458E+02  0.54016309919E+02  0.51100000000E-03 0. -1.
         23    2    1    0    0    0 -0.16058983939E+02 -0.19279533722E+02 -0.16879232497E+02  0.94759301010E+02  0.89804372124E+02 0.  0.
         11    1    3    3    0    0 -0.29351681736E+02  0.27438261720E+02  0.67536579605E+01  0.40742991091E+02  0.51100000000E-03 0.  1.
         22    1    1    0    0    0  0.16058983939E+02  0.19279533722E+02  0.16879232497E+02  0.30240698990E+02  0.00000000000E+00 0. -1.
</event>
<event>
 5    1  0.1102386E-009  0.9118800E+02  0.7818608E-02  0.1130116E+00
         25   -1    0    0    0    0  0.00000000000E+00  0.00000000000E+00  0.99999998245E-14  0.12500000000E+03  0.12500000000E+03 0.  0.
        -11    1    3    3    0    0 -0.27696939956E+01 -0.29485732829E+02 -0.22742061370E+02  0.37340072321E+02  0.51100000000E-03 0.  1.
         23    2    1    0    0    0  0.10131141110E+02  0.25660474972E+02 -0.11659366624E+02  0.95049360173E+02  0.90207206160E+02 0.  0.
         11    1    3    3    0    0  0.12900835105E+02  0.55146207802E+02  0.11082694746E+02  0.57709287852E+02  0.51100000000E-03 0. -1.
         22    1    1    0    0    0 -0.10131141110E+02 -0.25660474972E+02  0.11659366624E+02  0.29950639827E+02  0.00000000000E+00 0. -1.
</event>
<event>
 5    1  0.1102386E-009  0.9118800E+02  0.7818608E-02  0.1130116E+00
         25   -1    0    0    0    0  0.00000000000E+00  0.00000000000E+00  0.99999998245E-14  0.12500000000E+03  0.12500000000E+03 0.  0.
        -11    1    3    3    0    0  0.37268572347E+01 -0.82328562051E+01 -0.48155191023E+02  0.48995834607E+02  0.51100000000E-03 0.  1.
         23    2    1    0    0    0 -0.59116435685E+01  0.23767864409E+02 -0.13968217527E+02  0.96804787478E+02  0.92607758150E+02 0.  0.
         11    1    3    3    0    0 -0.96385008033E+01  0.32000720614E+02  0.34186973496E+02  0.47808952871E+02  0.51100000000E-03 0. -1.
         22    1    1    0    0    0  0.59116435685E+01 -0.23767864409E+02  0.13968217527E+02  0.28195212522E+02  0.00000000000E+00 0.  1.
</event>
<event>
 5    1  0.1102386E-009  0.9118800E+02  0.7818608E-02  0.1130116E+00
         25   -1    0    0    0    0  0.00000000000E+00  0.00000000000E+00  0.99999998245E-14  0.12500000000E+03  0.12500000000E+03 0.  0.
        -11    1    3    3    0    0 -0.25398541973E+02  0.44554309287E+01  0.22842724049E+02  0.34448901889E+02  0.51100000000E-03 0.  1.
         23    2    1    0    0    0  0.27577652744E+02 -0.13938406735E+02  0.29154207062E+01  0.93962832103E+02  0.88688826949E+02 0.  0.
         11    1    3    3    0    0  0.52976194717E+02 -0.18393837664E+02 -0.19927303343E+02  0.59513930214E+02  0.51100000000E-03 0. -1.
         22    1    1    0    0    0 -0.27577652744E+02  0.13938406735E+02 -0.29154207062E+01  0.31037167897E+02  0.00000000000E+00 0. -1.
</event>
<event>
 5    1  0.1102386E-009  0.9118800E+02  0.7818608E-02  0.1130116E+00
         25   -1    0    0    0    0  0.00000000000E+00  0.00000000000E+00  0.99999998245E-14  0.12500000000E+03  0.12500000000E+03 0.  0.
        -11    1    3    3    0    0  0.31840174145E+02 -0.29652375856E+02 -0.38597173076E+02  0.58161859094E+02  0.51100000000E-03 0.  1.
         23    2    1    0    0    0  0.22394436220E+02  0.96094827126E+00 -0.18035899351E+02  0.96229739998E+02  0.91828290845E+02 0.  0.
         11    1    3    3    0    0 -0.94457379253E+01  0.30613324127E+02  0.20561273725E+02  0.38067880904E+02  0.51100000000E-03 0. -1.
         22    1    1    0    0    0 -0.22394436220E+02 -0.96094827126E+00  0.18035899351E+02  0.28770260002E+02  0.00000000000E+00 0.  1.
</event>
<event>
 5    1  0.1102386E-009  0.9118800E+02  0.7818608E-02  0.1130116E+00
         25   -1    0    0    0    0  0.00000000000E+00  0.00000000000E+00  0.99999998245E-14  0.12500000000E+03  0.12500000000E+03 0.  0.
        -11    1    3    3    0    0 -0.27507685272E+02 -0.34825738714E+02  0.14171694442E+02  0.46586926810E+02  0.51100000000E-03 0.  1.
         23    2    1    0    0    0  0.74897535965E+01 -0.22297257832E+02 -0.17708468949E+02  0.95557615785E+02  0.90908767158E+02 0.  0.
         11    1    3    3    0    0  0.34997438868E+02  0.12528480882E+02 -0.31880163391E+02  0.48970688975E+02  0.51100000000E-03 0. -1.
         22    1    1    0    0    0 -0.74897535965E+01  0.22297257832E+02  0.17708468949E+02  0.29442384215E+02  0.00000000000E+00 0.  1.
</event>
<event>
 5    1  0.1102386E-009  0.9118800E+02  0.7818608E-02  0.1130116E+00
         25   -1    0    0    0    0  0.00000000000E+00  0.00000000000E+00  0.99999998245E-14  0.12500000000E+03  0.12500000000E+03 0.  0.
        -11    1    3    3    0    0  0.72016390230E+01  0.29004072114E+02 -0.23103776671E+02  0.37774122101E+02  0.51100000000E-03 0.  1.
         23    2    1    0    0    0 -0.29364173325E+02 -0.50906995328E+01  0.44628033855E+01  0.94865526205E+02  0.89952106987E+02 0.  0.
         11    1    3    3    0    0 -0.36565812348E+02 -0.34094771647E+02  0.27566580056E+02  0.57091404104E+02  0.51100000000E-03 0. -1.
         22    1    1    0    0    0  0.29364173325E+02  0.50906995328E+01 -0.44628033855E+01  0.30134473795E+02  0.00000000000E+00 0. -1.
</event>
<event>
 5    1  0.1102386E-009  0.9118800E+02  0.7818608E-02  0.1130116E+00
         25   -1    0    0    0    0  0.00000000000E+00  0.00000000000E+00  0.99999998245E-14  0.12500000000E+03  0.12500000000E+03 0.  0.
        -11    1    3    3    0    0  0.29387713321E+01 -0.12622413185E+02  0.15752928301E+02  0.20398932371E+02  0.51100000000E-03 0.  1.
         23    2    1    0    0    0  0.11435901051E+02  0.37382474336E+02 -0.18649384623E+02  0.81686852260E+02  0.69258306830E+02 0.  0.
         11    1    3    3    0    0  0.84971297185E+01  0.50004887521E+02 -0.34402312924E+02  0.61287919889E+02  0.51100000000E-03 0. -1.
         22    1    1    0    0    0 -0.11435901051E+02 -0.37382474336E+02  0.18649384623E+02  0.43313147740E+02  0.00000000000E+00 0. -1.
</event>
<event>
 5    1  0.1102386E-009  0.9118800E+02  0.7818608E-02  0.1130116E+00
         25   -1    0    0    0    0  0.00000000000E+00  0.00000000000E+00  0.99999998245E-14  0.12500000000E+03  0.12500000000E+03 0.  0.
        -11    1    3    3    0    0  0.28368110133E+02  0.89782415142E+01  0.29545143874E+02  0.41931778164E+02  0.51100000000E-03 0.  1.
         23    2    1    0    0    0 -0.22566022577E+02 -0.69943574885E+01  0.14039737365E+02  0.97517994307E+02  0.93565477484E+02 0.  0.
         11    1    3    3    0    0 -0.50934132710E+02 -0.15972599003E+02 -0.15505406508E+02  0.55586216143E+02  0.51100000000E-03 0. -1.
         22    1    1    0    0    0  0.22566022577E+02  0.69943574885E+01 -0.14039737365E+02  0.27482005693E+02  0.00000000000E+00 0. -1.
</event>
<event>
 5    1  0.1102386E-009  0.9118800E+02  0.7818608E-02  0.1130116E+00
         25   -1    0    0    0    0  0.00000000000E+00  0.00000000000E+00  0.99999998245E-14  0.12500000000E+03  0.12500000000E+03 0.  0.
        -11    1    3    3    0    0 -0.12960990672E+02  0.48449516304E+02 -0.72712845219E+01  0.50677554086E+02  0.51100000000E-03 0.  1.
         23    2    1    0    0    0  0.19225144605E+02  0.16911013932E+02 -0.13309769187E+02  0.96142790622E+02  0.91709855825E+02 0.  0.
         11    1    3    3    0    0  0.32186135277E+02 -0.31538502372E+02 -0.60384846653E+01  0.45465236536E+02  0.51100000000E-03 0. -1.
         22    1    1    0    0    0 -0.19225144605E+02 -0.16911013932E+02  0.13309769187E+02  0.28857209378E+02  0.00000000000E+00 0.  1.
</event>
<event>
 5    1  0.1102386E-009  0.9118800E+02  0.7818608E-02  0.1130116E+00
         25   -1    0    0    0    0  0.00000000000E+00  0.00000000000E+00  0.99999998245E-14  0.12500000000E+03  0.12500000000E+03 0.  0.
        -11    1    3    3    0    0  0.16169000015E+02  0.43752809900E+02 -0.21692325381E+02  0.51442219201E+02  0.51100000000E-03 0.  1.
         23    2    1    0    0    0  0.19712207910E+02 -0.76987813342E+00 -0.21106788522E+02  0.96109510653E+02  0.91664484197E+02 0.  0.
         11    1    3    3    0    0  0.35432078946E+01 -0.44522688034E+02  0.58553685928E+00  0.44667291451E+02  0.51100000000E-03 0. -1.
         22    1    1    0    0    0 -0.19712207910E+02  0.76987813342E+00  0.21106788522E+02  0.28890489347E+02  0.00000000000E+00 0.  1.
</event>
<event>
 5    1  0.1102386E-009  0.9118800E+02  0.7818608E-02  0.1130116E+00
         25   -1    0    0    0    0  0.00000000000E+00  0.00000000000E+00  0.99999998245E-14  0.12500000000E+03  0.12500000000E+03 0.  0.
        -11    1    3    3    0    0 -0.19774880026E+02  0.40210854350E+01 -0.15084001327E+02  0.25194088680E+02  0.51100000000E-03 0.  1.
         23    2    1    0    0    0  0.37313261281E+02  0.14998840481E+02 -0.10066454481E+02  0.83544262291E+02  0.72533203243E+02 0.  0.
         11    1    3    3    0    0  0.57088141307E+02  0.10977755046E+02  0.50175468459E+01  0.58350173611E+02  0.51100000000E-03 0. -1.
         22    1    1    0    0    0 -0.37313261281E+02 -0.14998840481E+02  0.10066454481E+02  0.41455737709E+02  0.00000000000E+00 0. -1.
</event>
<event>
 5    1  0.1102386E-009  0.9118800E+02  0.7818608E-02  0.1130116E+00
         25   -1    0    0    0    0  0.00000000000E+00  0.00000000000E+00  0.99999998245E-14  0.12500000000E+03  0.12500000000E+03 0.  0.
        -11    1    3    3    0    0 -0.15595948001E+02  0.29974129126E+02  0.41401722950E+02  0.53439542236E+02  0.51100000000E-03 0.  1.
         23    2    1    0    0    0 -0.29363763221E+02  0.82253831140E+01  0.12771718725E+02  0.91939384200E+02  0.85789545109E+02 0.  0.
         11    1    3    3    0    0 -0.13767815220E+02 -0.21748746012E+02 -0.28630004226E+02  0.38499841964E+02  0.51100000000E-03 0. -1.
         22    1    1    0    0    0  0.29363763221E+02 -0.82253831140E+01 -0.12771718725E+02  0.33060615800E+02  0.00000000000E+00 0.  1.
</event>
<event>
 4    1  0.1102386E-009  0.9118800E+02  0.7818608E-02  0.1130116E+00
         25   -1    0    0    0    0  0.00000000000E+00  0.00000000000E+00  0.99999998245E-14  0.12500000000E+03  0.12500000000E+03 0.  0.
        -11    1    1    0    0    0  0.32017787513E+02 -0.25344400941E+01  0.11281802323E+02  0.34041756237E+02  0.51100000000E-03 0.  1.
         11    1    1    0    0    0  0.98333795947E+01 -0.22161123760E+02  0.21447525941E+02  0.32369849085E+02  0.51100000000E-03 0. -1.
         22    1    1    0    0    0 -0.41851167107E+02  0.24695563855E+02 -0.32729328263E+02  0.58588394678E+02  0.00000000000E+00 0.  1.
</event>
<event>
 5    1  0.1102386E-009  0.9118800E+02  0.7818608E-02  0.1130116E+00
         25   -1    0    0    0    0  0.00000000000E+00  0.00000000000E+00  0.99999998245E-14  0.12500000000E+03  0.12500000000E+03 0.  0.
        -11    1    3    3    0    0  0.11759536156E+02  0.33514080469E+02  0.68490208878E+01  0.36171665260E+02  0.51100000000E-03 0.  1.
         23    2    1    0    0    0  0.12303029869E+01 -0.26031150521E+02  0.10846593980E+02  0.96772654325E+02  0.92564375336E+02 0.  0.
         11    1    3    3    0    0 -0.10529233169E+02 -0.59545230990E+02  0.39975730918E+01  0.60600989065E+02  0.51100000000E-03 0. -1.
         22    1    1    0    0    0 -0.12303029869E+01  0.26031150521E+02 -0.10846593980E+02  0.28227345675E+02  0.00000000000E+00 0. -1.
</event>
<event>
 5    1  0.1102386E-009  0.9118800E+02  0.7818608E-02  0.1130116E+00
         25   -1    0    0    0    0  0.00000000000E+00  0.00000000000E+00  0.99999998245E-14  0.12500000000E+03  0.12500000000E+03 0.  0.
        -11    1    3    3    0    0  0.26221570923E+02  0.13155107282E+02 -0.21083520305E+02  0.36126755431E+02  0.51100000000E-03 0.  1.
         23    2    1    0    0    0 -0.71926572446E+01  0.14933295477E+02  0.26166607541E+02  0.94025349360E+02  0.88776896432E+02 0.  0.
         11    1    3    3    0    0 -0.33414228168E+02  0.17781881950E+01  0.47250127846E+02  0.57898593929E+02  0.51100000000E-03 0. -1.
         22    1    1    0    0    0  0.71926572446E+01 -0.14933295477E+02 -0.26166607541E+02  0.30974650640E+02  0.00000000000E+00 0. -1.
</event>
<event>
 5    1  0.1102386E-009  0.9118800E+02  0.7818608E-02  0.1130116E+00
         25   -1    0    0    0    0  0.00000000000E+00  0.00000000000E+00  0.99999998245E-14  0.12500000000E+03  0.12500000000E+03 0.  0.
        -11    1    3    3    0    0  0.32210958470E+02 -0.28529781360E+02  0.24090702603E+02  0.49313854262E+02  0.51100000000E-03 0. -1.
         23    2    1    0    0    0 -0.99081129775E+01 -0.66222026378E+01  0.25544857114E+02  0.96811988443E+02  0.92617477350E+02 0.  0.
         11    1    3    3    0    0 -0.42119071447E+02  0.21907578722E+02  0.14541545109E+01  0.47498134181E+02  0.51100000000E-03 0.  1.
         22    1    1    0    0    0  0.99081129775E+01  0.66222026378E+01 -0.25544857114E+02  0.28188011557E+02  0.00000000000E+00 0.  1.
</event>
<event>
 5    1  0.1102386E-009  0.9118800E+02  0.7818608E-02  0.1130116E+00
         25   -1    0    0    0    0  0.00000000000E+00  0.00000000000E+00  0.99999998245E-14  0.12500000000E+03  0.12500000000E+03 0.  0.
        -11    1    3    3    0    0  0.28868885252E+02  0.51109551226E+02  0.86799543226E+01  0.59337512330E+02  0.51100000000E-03 0.  1.
         23    2    1    0    0    0  0.83890828963E+01  0.30858645881E+02 -0.71917603749E+01  0.92222657906E+02  0.86201302058E+02 0.  0.
         11    1    3    3    0    0 -0.20479802356E+02 -0.20250905345E+02 -0.15871714697E+02  0.32885145575E+02  0.51100000000E-03 0. -1.
         22    1    1    0    0    0 -0.83890828963E+01 -0.30858645881E+02  0.71917603749E+01  0.32777342094E+02  0.00000000000E+00 0.  1.
</event>
<event>
 5    1  0.1102386E-009  0.9118800E+02  0.7818608E-02  0.1130116E+00
         25   -1    0    0    0    0  0.00000000000E+00  0.00000000000E+00  0.99999998245E-14  0.12500000000E+03  0.12500000000E+03 0.  0.
        -11    1    3    3    0    0 -0.17367249928E+02  0.22743665741E+02  0.38109380945E+02  0.47657324911E+02  0.51100000000E-03 0. -1.
         23    2    1    0    0    0 -0.26439758716E+02  0.93979962434E+01 -0.74310050747E+01  0.95972375041E+02  0.91477285488E+02 0.  0.
         11    1    3    3    0    0 -0.90725087875E+01 -0.13345669498E+02 -0.45540386020E+02  0.48315050130E+02  0.51100000000E-03 0.  1.
         22    1    1    0    0    0  0.26439758716E+02 -0.93979962434E+01  0.74310050747E+01  0.29027624959E+02  0.00000000000E+00 0. -1.
</event>
<event>
 5    1  0.1102386E-009  0.9118800E+02  0.7818608E-02  0.1130116E+00
         25   -1    0    0    0    0  0.00000000000E+00  0.00000000000E+00  0.99999998245E-14  0.12500000000E+03  0.12500000000E+03 0.  0.
        -11    1    3    3    0    0  0.21033044497E+02  0.29329177354E+01  0.37608955504E+02  0.43190560330E+02  0.51100000000E-03 0. -1.
         23    2    1    0    0    0 -0.22105070559E+02 -0.14155880316E+02  0.13969364208E+02  0.95265067205E+02  0.90505617513E+02 0.  0.
         11    1    3    3    0    0 -0.43138115056E+02 -0.17088798051E+02 -0.23639591296E+02  0.52074506875E+02  0.51100000000E-03 0.  1.
         22    1    1    0    0    0  0.22105070559E+02  0.14155880316E+02 -0.13969364208E+02  0.29734932795E+02  0.00000000000E+00 0.  1.
</event>
<event>
 5    1  0.1102386E-009  0.9118800E+02  0.7818608E-02  0.1130116E+00
         25   -1    0    0    0    0  0.00000000000E+00  0.00000000000E+00  0.99999998245E-14  0.12500000000E+03  0.12500000000E+03 0.  0.
        -11    1    3    3    0    0 -0.27812848537E+02  0.31328047434E+02  0.16885569955E+02  0.45167727115E+02  0.51100000000E-03 0. -1.
         23    2    1    0    0    0  0.13737905941E+01  0.18612575002E+02 -0.22471432103E+02  0.95789034430E+02  0.91226413979E+02 0.  0.
         11    1    3    3    0    0  0.29186639131E+02 -0.12715472432E+02 -0.39357002058E+02  0.50621307314E+02  0.51100000000E-03 0.  1.
         22    1    1    0    0    0 -0.13737905941E+01 -0.18612575002E+02  0.22471432103E+02  0.29210965570E+02  0.00000000000E+00 0.  1.
</event>
<event>
 5    1  0.1102386E-009  0.9118800E+02  0.7818608E-02  0.1130116E+00
         25   -1    0    0    0    0  0.00000000000E+00  0.00000000000E+00  0.99999998245E-14  0.12500000000E+03  0.12500000000E+03 0.  0.
        -11    1    3    3    0    0  0.47778668442E+02  0.29961243434E+02  0.12746553764E+02  0.57818266138E+02  0.51100000000E-03 0. -1.
         23    2    1    0    0    0  0.23347027386E+02  0.43928077180E+01  0.20031373708E+02  0.93925309654E+02  0.88635926202E+02 0.  0.
         11    1    3    3    0    0 -0.24431641055E+02 -0.25568435716E+02  0.72848199444E+01  0.36107043516E+02  0.51100000000E-03 0.  1.
         22    1    1    0    0    0 -0.23347027386E+02 -0.43928077180E+01 -0.20031373708E+02  0.31074690346E+02  0.00000000000E+00 0. -1.
</event>
<event>
 5    1  0.1102386E-009  0.9118800E+02  0.7818608E-02  0.1130116E+00
         25   -1    0    0    0    0  0.00000000000E+00  0.00000000000E+00  0.99999998245E-14  0.12500000000E+03  0.12500000000E+03 0.  0.
        -11    1    3    3    0    0 -0.23416080316E+02 -0.86969587883E+01 -0.27481013876E+02  0.37136990096E+02  0.51100000000E-03 0.  1.
         23    2    1    0    0    0 -0.26048305189E+01 -0.57373287120E+01  0.27912656113E+02  0.96384995998E+02  0.92039388305E+02 0.  0.
         11    1    3    3    0    0  0.20811249797E+02  0.29596300763E+01  0.55393669988E+02  0.59248005902E+02  0.51100000000E-03 0. -1.
         22    1    1    0    0    0  0.26048305189E+01  0.57373287120E+01 -0.27912656113E+02  0.28615004002E+02  0.00000000000E+00 0. -1.
</event>
<event>
 5    1  0.1102386E-009  0.9118800E+02  0.7818608E-02  0.1130116E+00
         25   -1    0    0    0    0  0.00000000000E+00  0.00000000000E+00  0.99999998245E-14  0.12500000000E+03  0.12500000000E+03 0.  0.
        -11    1    3    3    0    0 -0.22404356250E+02 -0.16241173173E+02 -0.30139754318E+02  0.40916203094E+02  0.51100000000E-03 0.  1.
         23    2    1    0    0    0  0.23011931534E+02 -0.18596499890E+02 -0.11121780975E+00  0.95412989835E+02  0.90709687789E+02 0.  0.
         11    1    3    3    0    0  0.45416287784E+02 -0.23553267168E+01  0.30028536508E+02  0.54496786741E+02  0.51100000000E-03 0. -1.
         22    1    1    0    0    0 -0.23011931534E+02  0.18596499890E+02  0.11121780975E+00  0.29587010165E+02  0.00000000000E+00 0. -1.
</event>
<event>
 5    1  0.1102386E-009  0.9118800E+02  0.7818608E-02  0.1130116E+00
         25   -1    0    0    0    0  0.00000000000E+00  0.00000000000E+00  0.99999998245E-14  0.12500000000E+03  0.12500000000E+03 0.  0.
        -11    1    3    3    0    0  0.32863257295E+02  0.14388685075E+01  0.49664895393E+02  0.59570679511E+02  0.51100000000E-03 0. -1.
         23    2    1    0    0    0  0.23792507584E+02 -0.57883624692E+01  0.14628804454E+02  0.96476492555E+02  0.92163567307E+02 0.  0.
         11    1    3    3    0    0 -0.90707497118E+01 -0.72272309768E+01 -0.35036090939E+02  0.36905813045E+02  0.51100000000E-03 0.  1.
         22    1    1    0    0    0 -0.23792507584E+02  0.57883624692E+01 -0.14628804454E+02  0.28523507445E+02  0.00000000000E+00 0. -1.
</event>
<event>
 5    1  0.1102386E-009  0.9118800E+02  0.7818608E-02  0.1130116E+00
         25   -1    0    0    0    0  0.00000000000E+00  0.00000000000E+00  0.99999998245E-14  0.12500000000E+03  0.12500000000E+03 0.  0.
        -11    1    3    3    0    0  0.66124951669E+00  0.40008425028E+02  0.17252383710E+02  0.43574718221E+02  0.51100000000E-03 0. -1.
         23    2    1    0    0    0 -0.23045275474E+02  0.74184491693E+01 -0.16132980244E+02  0.95907197431E+02  0.91388179530E+02 0.  0.
         11    1    3    3    0    0 -0.23706524991E+02 -0.32589975859E+02 -0.33385363954E+02  0.52332479210E+02  0.51100000000E-03 0.  1.
         22    1    1    0    0    0  0.23045275474E+02 -0.74184491693E+01  0.16132980244E+02  0.29092802569E+02  0.00000000000E+00 0. -1.
</event>
<event>
 5    1  0.1102386E-009  0.9118800E+02  0.7818608E-02  0.1130116E+00
         25   -1    0    0    0    0  0.00000000000E+00  0.00000000000E+00  0.99999998245E-14  0.12500000000E+03  0.12500000000E+03 0.  0.
        -11    1    3    3    0    0  0.31890502245E+01  0.17999131506E+01  0.61066748132E+02  0.61176445274E+02  0.51100000000E-03 0. -1.
         23    2    1    0    0    0 -0.75251147688E+01  0.19472311935E+01  0.28387162669E+02  0.95567873574E+02  0.90922870574E+02 0.  0.
         11    1    3    3    0    0 -0.10714164993E+02  0.14731804293E+00 -0.32679585464E+02  0.34391428299E+02  0.51100000000E-03 0.  1.
         22    1    1    0    0    0  0.75251147688E+01 -0.19472311935E+01 -0.28387162669E+02  0.29432126426E+02  0.00000000000E+00 0. -1.
</event>
<event>
 5    1  0.1102386E-009  0.9118800E+02  0.7818608E-02  0.1130116E+00
         25   -1    0    0    0    0  0.00000000000E+00  0.00000000000E+00  0.99999998245E-14  0.12500000000E+03  0.12500000000E+03 0.  0.
        -11    1    3    3    0    0  0.37085244508E+02 -0.18687486104E+02  0.19695551114E+02  0.45961421117E+02  0.51100000000E-03 0. -1.
         23    2    1    0    0    0  0.20430719946E+02  0.12186710450E+02 -0.16252170505E+02  0.96189181282E+02  0.91773064242E+02 0.  0.
         11    1    3    3    0    0 -0.16654524562E+02  0.30874196554E+02 -0.35947721619E+02  0.50227760165E+02  0.51100000000E-03 0.  1.
         22    1    1    0    0    0 -0.20430719946E+02 -0.12186710450E+02  0.16252170505E+02  0.28810818718E+02  0.00000000000E+00 0. -1.
</event>
<event>
 5    1  0.1102386E-009  0.9118800E+02  0.7818608E-02  0.1130116E+00
         25   -1    0    0    0    0  0.00000000000E+00  0.00000000000E+00  0.99999998245E-14  0.12500000000E+03  0.12500000000E+03 0.  0.
        -11    1    3    3    0    0  0.86714740321E+01 -0.22314195951E+02  0.17069481679E+02  0.29402125908E+02  0.51100000000E-03 0. -1.
         23    2    1    0    0    0  0.77600622861E+01  0.32868727544E+02 -0.84191800101E+01  0.90194046356E+02  0.83207641410E+02 0.  0.
         11    1    3    3    0    0 -0.91141174610E+00  0.55182923495E+02 -0.25488661690E+02  0.60791920448E+02  0.51100000000E-03 0.  1.
         22    1    1    0    0    0 -0.77600622861E+01 -0.32868727544E+02  0.84191800101E+01  0.34805953644E+02  0.00000000000E+00 0.  1.
</event>
<event>
 5    1  0.1102386E-009  0.9118800E+02  0.7818608E-02  0.1130116E+00
         25   -1    0    0    0    0  0.00000000000E+00  0.00000000000E+00  0.99999998245E-14  0.12500000000E+03  0.12500000000E+03 0.  0.
        -11    1    3    3    0    0 -0.72026619181E+01  0.28491803354E+02  0.35326593148E+02  0.45952468713E+02  0.51100000000E-03 0. -1.
         23    2    1    0    0    0  0.28129999873E+02  0.64736970957E+01  0.17531451435E+02  0.91227860056E+02  0.84746474936E+02 0.  0.
         11    1    3    3    0    0  0.35332661792E+02 -0.22018106258E+02 -0.17795141713E+02  0.45275391344E+02  0.51100000000E-03 0.  1.
         22    1    1    0    0    0 -0.28129999873E+02 -0.64736970957E+01 -0.17531451435E+02  0.33772139944E+02  0.00000000000E+00 0.  1.
</event>
<event>
 5    1  0.1102386E-009  0.9118800E+02  0.7818608E-02  0.1130116E+00
         25   -1    0    0    0    0  0.00000000000E+00  0.00000000000E+00  0.99999998245E-14  0.12500000000E+03  0.12500000000E+03 0.  0.
        -11    1    3    3    0    0  0.86570946336E-01  0.26164854987E+02  0.41522336455E+02  0.49078626264E+02  0.51100000000E-03 0.  1.
         23    2    1    0    0    0  0.14206682085E+02  0.25434280098E+02 -0.29248890381E+01  0.95720529447E+02  0.91132498933E+02 0.  0.
         11    1    3    3    0    0  0.14120111138E+02 -0.73057488914E+00 -0.44447225493E+02  0.46641903183E+02  0.51100000000E-03 0. -1.
         22    1    1    0    0    0 -0.14206682085E+02 -0.25434280098E+02  0.29248890381E+01  0.29279470553E+02  0.00000000000E+00 0. -1.
</event>
<event>
 5    1  0.1102386E-009  0.9118800E+02  0.7818608E-02  0.1130116E+00
         25   -1    0    0    0    0  0.00000000000E+00  0.00000000000E+00  0.99999998245E-14  0.12500000000E+03  0.12500000000E+03 0.  0.
        -11    1    3    3    0    0  0.26307318438E+02 -0.33593903860E+01  0.52125982296E+02  0.58484857337E+02  0.51100000000E-03 0.  1.
         23    2    1    0    0    0  0.48753162553E+01 -0.15703874785E+02  0.23545620109E+02  0.96281075609E+02  0.91898144172E+02 0.  0.
         11    1    3    3    0    0 -0.21432002183E+02 -0.12344484399E+02 -0.28580362187E+02  0.37796218272E+02  0.51100000000E-03 0. -1.
         22    1    1    0    0    0 -0.48753162553E+01  0.15703874785E+02 -0.23545620109E+02  0.28718924391E+02  0.00000000000E+00 0.  1.
</event>
<event>
 5    1  0.1102386E-009  0.9118800E+02  0.7818608E-02  0.1130116E+00
         25   -1    0    0    0    0  0.00000000000E+00  0.00000000000E+00  0.99999998245E-14  0.12500000000E+03  0.12500000000E+03 0.  0.
        -11    1    3    3    0    0 -0.14042286157E+02 -0.28609422351E+02  0.14046196021E+02  0.34827869166E+02  0.51100000000E-03 0. -1.
         23    2    1    0    0    0 -0.51399917440E+01  0.29438123067E+02  0.42299373175E+00  0.95113522648E+02  0.90296072240E+02 0.  0.
         11    1    3    3    0    0  0.89022944125E+01  0.58047545418E+02 -0.13623202289E+02  0.60285653481E+02  0.51100000000E-03 0.  1.
         22    1    1    0    0    0  0.51399917440E+01 -0.29438123067E+02 -0.42299373175E+00  0.29886477352E+02  0.00000000000E+00 0.  1.
</event>
<event>
 5    1  0.1102386E-009  0.9118800E+02  0.7818608E-02  0.1130116E+00
         25   -1    0    0    0    0  0.00000000000E+00  0.00000000000E+00  0.99999998245E-14  0.12500000000E+03  0.12500000000E+03 0.  0.
        -11    1    3    3    0    0  0.11219405959E+01  0.23069550801E+02  0.31778830902E+02  0.39285582835E+02  0.51100000000E-03 0.  1.
         23    2    1    0    0    0 -0.28193189777E+02 -0.13680650455E+02  0.53688436725E+01  0.93206280038E+02  0.87616037399E+02 0.  0.
         11    1    3    3    0    0 -0.29315130373E+02 -0.36750201256E+02 -0.26409987230E+02  0.53920697203E+02  0.51100000000E-03 0. -1.
         22    1    1    0    0    0  0.28193189777E+02  0.13680650455E+02 -0.53688436725E+01  0.31793719962E+02  0.00000000000E+00 0.  1.
</event>
<event>
 5    1  0.1102386E-009  0.9118800E+02  0.7818608E-02  0.1130116E+00
         25   -1    0    0    0    0  0.00000000000E+00  0.00000000000E+00  0.99999998245E-14  0.12500000000E+03  0.12500000000E+03 0.  0.
        -11    1    3    3    0    0 -0.13611251605E+02  0.13845898452E+02  0.30572034274E+02  0.36216354787E+02  0.51100000000E-03 0. -1.
         23    2    1    0    0    0  0.26185781067E+02 -0.51666870217E+01 -0.10341316743E+02  0.96376013260E+02  0.92027187913E+02 0.  0.
         11    1    3    3    0    0  0.39797032672E+02 -0.19012585474E+02 -0.40913351017E+02  0.60159658473E+02  0.51100000000E-03 0.  1.
         22    1    1    0    0    0 -0.26185781067E+02  0.51666870217E+01  0.10341316743E+02  0.28623986740E+02  0.00000000000E+00 0.  1.
</event>
<event>
 5    1  0.1102386E-009  0.9118800E+02  0.7818608E-02  0.1130116E+00
         25   -1    0    0    0    0  0.00000000000E+00  0.00000000000E+00  0.99999998245E-14  0.12500000000E+03  0.12500000000E+03 0.  0.
        -11    1    3    3    0    0 -0.53843292358E+02 -0.10304701786E+02 -0.73056808854E+01  0.55305153325E+02  0.51100000000E-03 0.  1.
         23    2    1    0    0    0 -0.23035579951E+02  0.17357705154E+01  0.16971274274E+02  0.96335126139E+02  0.91971634403E+02 0.  0.
         11    1    3    3    0    0  0.30807712407E+02  0.12040472301E+02  0.24276955160E+02  0.41029972814E+02  0.51100000000E-03 0. -1.
         22    1    1    0    0    0  0.23035579951E+02 -0.17357705154E+01 -0.16971274274E+02  0.28664873861E+02  0.00000000000E+00 0.  1.
</event>
<event>
 5    1  0.1102386E-009  0.9118800E+02  0.7818608E-02  0.1130116E+00
         25   -1    0    0    0    0  0.00000000000E+00  0.00000000000E+00  0.99999998245E-14  0.12500000000E+03  0.12500000000E+03 0.  0.
        -11    1    3    3    0    0 -0.36208831951E+02  0.28413704454E+02  0.42741857843E+01  0.46224309367E+02  0.51100000000E-03 0. -1.
         23    2    1    0    0    0 -0.14696090808E+02 -0.28743742966E+01 -0.26140626771E+02  0.94874106144E+02  0.89964029123E+02 0.  0.
         11    1    3    3    0    0  0.21512741143E+02 -0.31288078751E+02 -0.30414812555E+02  0.48649796777E+02  0.51100000000E-03 0.  1.
         22    1    1    0    0    0  0.14696090808E+02  0.28743742966E+01  0.26140626771E+02  0.30125893856E+02  0.00000000000E+00 0. -1.
</event>
<event>
 5    1  0.1102386E-009  0.9118800E+02  0.7818608E-02  0.1130116E+00
         25   -1    0    0    0    0  0.00000000000E+00  0.00000000000E+00  0.99999998245E-14  0.12500000000E+03  0.12500000000E+03 0.  0.
        -11    1    3    3    0    0 -0.33195305045E+02 -0.31166576633E+01 -0.44261210366E+02  0.55413866273E+02  0.51100000000E-03 0.  1.
         23    2    1    0    0    0 -0.32314251409E+02  0.10500649854E+02 -0.14687782185E+02  0.87983713895E+02  0.79818096155E+02 0.  0.
         11    1    3    3    0    0  0.88105363609E+00  0.13617307517E+02  0.29573428181E+02  0.32569847623E+02  0.51100000000E-03 0. -1.
         22    1    1    0    0    0  0.32314251409E+02 -0.10500649854E+02  0.14687782185E+02  0.37016286105E+02  0.00000000000E+00 0.  1.
</event>
<event>
 5    1  0.1102386E-009  0.9118800E+02  0.7818608E-02  0.1130116E+00
         25   -1    0    0    0    0  0.00000000000E+00  0.00000000000E+00  0.99999998245E-14  0.12500000000E+03  0.12500000000E+03 0.  0.
        -11    1    3    3    0    0 -0.45233122156E+02  0.10564075943E+02  0.13439207779E+02  0.48355427270E+02  0.51100000000E-03 0.  1.
         23    2    1    0    0    0  0.81738011113E+01  0.16179928823E+02  0.14057945672E+02  0.10206036274E+03  0.99448935056E+02 0.  0.
         11    1    3    3    0    0  0.53406923267E+02  0.56158528802E+01  0.61873789278E+00  0.53704935465E+02  0.51100000000E-03 0. -1.
         22    1    1    0    0    0 -0.81738011113E+01 -0.16179928823E+02 -0.14057945672E+02  0.22939637265E+02  0.00000000000E+00 0.  1.
</event>
<event>
 5    1  0.1102386E-009  0.9118800E+02  0.7818608E-02  0.1130116E+00
         25   -1    0    0    0    0  0.00000000000E+00  0.00000000000E+00  0.99999998245E-14  0.12500000000E+03  0.12500000000E+03 0.  0.
        -11    1    3    3    0    0 -0.43176731473E+02  0.28402873691E+02 -0.16174848380E+02  0.54153292559E+02  0.51100000000E-03 0. -1.
         23    2    1    0    0    0 -0.28240523943E+02 -0.81951524357E+01 -0.81159384319E+01  0.94494981189E+02  0.89435704824E+02 0.  0.
         11    1    3    3    0    0  0.14936207530E+02 -0.36598026126E+02  0.80589099485E+01  0.40341688630E+02  0.51100000000E-03 0.  1.
         22    1    1    0    0    0  0.28240523943E+02  0.81951524357E+01  0.81159384319E+01  0.30505018811E+02  0.00000000000E+00 0. -1.
</event>
<event>
 5    1  0.1102386E-009  0.9118800E+02  0.7818608E-02  0.1130116E+00
         25   -1    0    0    0    0  0.00000000000E+00  0.00000000000E+00  0.99999998245E-14  0.12500000000E+03  0.12500000000E+03 0.  0.
        -11    1    3    3    0    0 -0.50582847694E+01  0.28693246101E+01 -0.39634717078E+02  0.40059082199E+02  0.51100000000E-03 0.  1.
         23    2    1    0    0    0 -0.27167045031E+02  0.11301292511E+02  0.90720290216E+01  0.94209266675E+02  0.89035479831E+02 0.  0.
         11    1    3    3    0    0 -0.22108760262E+02  0.84319679007E+01  0.48706746099E+02  0.54150184476E+02  0.51100000000E-03 0. -1.
         22    1    1    0    0    0  0.27167045031E+02 -0.11301292511E+02 -0.90720290216E+01  0.30790733325E+02  0.00000000000E+00 0. -1.
</event>
<event>
 5    1  0.1102386E-009  0.9118800E+02  0.7818608E-02  0.1130116E+00
         25   -1    0    0    0    0  0.00000000000E+00  0.00000000000E+00  0.99999998245E-14  0.12500000000E+03  0.12500000000E+03 0.  0.
        -11    1    3    3    0    0 -0.43642285006E+01  0.63765800102E+01  0.31643742582E+02  0.32573512367E+02  0.51100000000E-03 0. -1.
         23    2    1    0    0    0 -0.20666978258E+01  0.32677151392E+01 -0.30207812905E+02  0.94545752962E+02  0.89506637969E+02 0.  0.
         11    1    3    3    0    0  0.22975306748E+01 -0.31088648710E+01 -0.61851555487E+02  0.61972240596E+02  0.51100000000E-03 0.  1.
         22    1    1    0    0    0  0.20666978258E+01 -0.32677151392E+01  0.30207812905E+02  0.30454247038E+02  0.00000000000E+00 0.  1.
</event>
<event>
 5    1  0.1102386E-009  0.9118800E+02  0.7818608E-02  0.1130116E+00
         25   -1    0    0    0    0  0.00000000000E+00  0.00000000000E+00  0.99999998245E-14  0.12500000000E+03  0.12500000000E+03 0.  0.
        -11    1    3    3    0    0  0.16035272770E+02  0.20434157754E+00 -0.29275619787E+02  0.33380138443E+02  0.51100000000E-03 0. -1.
         23    2    1    0    0    0 -0.78003441471E+01  0.89919518983E+01  0.27201592794E+02  0.95307791961E+02  0.90564606719E+02 0.  0.
         11    1    3    3    0    0 -0.23835616918E+02  0.87876103208E+01  0.56477212581E+02  0.61927653517E+02  0.51100000000E-03 0.  1.
         22    1    1    0    0    0  0.78003441471E+01 -0.89919518983E+01 -0.27201592794E+02  0.29692208039E+02  0.00000000000E+00 0.  1.
</event>
<event>
 5    1  0.1102386E-009  0.9118800E+02  0.7818608E-02  0.1130116E+00
         25   -1    0    0    0    0  0.00000000000E+00  0.00000000000E+00  0.99999998245E-14  0.12500000000E+03  0.12500000000E+03 0.  0.
        -11    1    3    3    0    0  0.26389858713E+02 -0.12814368246E+02  0.13675476886E+02  0.32367442667E+02  0.51100000000E-03 0.  1.
         23    2    1    0    0    0 -0.18820160506E+02  0.24950459509E+02  0.12650474688E+02  0.91284152376E+02  0.84829464775E+02 0.  0.
         11    1    3    3    0    0 -0.45210019219E+02  0.37764827755E+02 -0.10250021977E+01  0.58916709709E+02  0.51100000000E-03 0. -1.
         22    1    1    0    0    0  0.18820160506E+02 -0.24950459509E+02 -0.12650474688E+02  0.33715847624E+02  0.00000000000E+00 0. -1.
</event>
<event>
 5    1  0.1102386E-009  0.9118800E+02  0.7818608E-02  0.1130116E+00
         25   -1    0    0    0    0  0.00000000000E+00  0.00000000000E+00  0.99999998245E-14  0.12500000000E+03  0.12500000000E+03 0.  0.
        -11    1    3    3    0    0  0.44684228100E+02 -0.13180710424E+02 -0.10369340257E+02  0.47727712975E+02  0.51100000000E-03 0. -1.
         23    2    1    0    0    0 -0.96966829614E+00 -0.27803972093E+02 -0.92575763375E+01  0.95679293317E+02  0.91075920689E+02 0.  0.
         11    1    3    3    0    0 -0.45653896397E+02 -0.14623261668E+02  0.11117639198E+01  0.47951580342E+02  0.51100000000E-03 0.  1.
         22    1    1    0    0    0  0.96966829614E+00  0.27803972093E+02  0.92575763375E+01  0.29320706683E+02  0.00000000000E+00 0. -1.
</event>
<event>
 5    1  0.1102386E-009  0.9118800E+02  0.7818608E-02  0.1130116E+00
         25   -1    0    0    0    0  0.00000000000E+00  0.00000000000E+00  0.99999998245E-14  0.12500000000E+03  0.12500000000E+03 0.  0.
        -11    1    3    3    0    0  0.19812401416E+02  0.43374788823E+02  0.10595253546E+02  0.48848366946E+02  0.51100000000E-03 0.  1.
         23    2    1    0    0    0 -0.12208790934E+02  0.11732612293E+02  0.23826119498E+02  0.95770002778E+02  0.91200332754E+02 0.  0.
         11    1    3    3    0    0 -0.32021192350E+02 -0.31642176530E+02  0.13230865952E+02  0.46921635832E+02  0.51100000000E-03 0. -1.
         22    1    1    0    0    0  0.12208790934E+02 -0.11732612293E+02 -0.23826119498E+02  0.29229997222E+02  0.00000000000E+00 0.  1.
</event>
<event>
 5    1  0.1102386E-009  0.9118800E+02  0.7818608E-02  0.1130116E+00
         25   -1    0    0    0    0  0.00000000000E+00  0.00000000000E+00  0.99999998245E-14  0.12500000000E+03  0.12500000000E+03 0.  0.
        -11    1    3    3    0    0 -0.29260876296E+02 -0.56457026405E+00  0.31250304160E+02  0.42814706954E+02  0.51100000000E-03 0. -1.
         23    2    1    0    0    0 -0.78000701278E+01  0.30295932660E+02 -0.28759260321E+01  0.93584150811E+02  0.88153489453E+02 0.  0.
         11    1    3    3    0    0  0.21460806168E+02  0.30860502924E+02 -0.34126230192E+02  0.50769443857E+02  0.51100000000E-03 0.  1.
         22    1    1    0    0    0  0.78000701278E+01 -0.30295932660E+02  0.28759260321E+01  0.31415849189E+02  0.00000000000E+00 0.  1.
</event>
<event>
 5    1  0.1102386E-009  0.9118800E+02  0.7818608E-02  0.1130116E+00
         25   -1    0    0    0    0  0.00000000000E+00  0.00000000000E+00  0.99999998245E-14  0.12500000000E+03  0.12500000000E+03 0.  0.
        -11    1    3    3    0    0  0.27669874044E+02 -0.44247579443E+02  0.30688600299E+02  0.60541394143E+02  0.51100000000E-03 0. -1.
         23    2    1    0    0    0  0.78562674420E+01 -0.26202479521E+02  0.59669038656E+01  0.97001878404E+02  0.92873406318E+02 0.  0.
         11    1    3    3    0    0 -0.19813606602E+02  0.18045099922E+02 -0.24721696433E+02  0.36460484262E+02  0.51100000000E-03 0.  1.
         22    1    1    0    0    0 -0.78562674420E+01  0.26202479521E+02 -0.59669038656E+01  0.27998121596E+02  0.00000000000E+00 0. -1.
</event>
<event>
 5    1  0.1102386E-009  0.9118800E+02  0.7818608E-02  0.1130116E+00
         25   -1    0    0    0    0  0.00000000000E+00  0.00000000000E+00  0.99999998245E-14  0.12500000000E+03  0.12500000000E+03 0.  0.
        -11    1    3    3    0    0  0.23140480941E+02 -0.46236843235E+02  0.21416242425E+02  0.55964122171E+02  0.51100000000E-03 0.  1.
         23    2    1    0    0    0  0.21579890538E+02 -0.10327599069E+02 -0.49858811968E+01  0.10056211978E+03  0.97547577858E+02 0.  0.
         11    1    3    3    0    0 -0.15605904023E+01  0.35909244167E+02 -0.26402123622E+02  0.44597997612E+02  0.51100000000E-03 0. -1.
         22    1    1    0    0    0 -0.21579890538E+02  0.10327599069E+02  0.49858811968E+01  0.24437880216E+02  0.00000000000E+00 0.  1.
</event>
<event>
 5    1  0.1102386E-009  0.9118800E+02  0.7818608E-02  0.1130116E+00
         25   -1    0    0    0    0  0.00000000000E+00  0.00000000000E+00  0.99999998245E-14  0.12500000000E+03  0.12500000000E+03 0.  0.
        -11    1    3    3    0    0  0.24939603669E+02 -0.43898771868E+02 -0.62021389104E+01  0.50867991212E+02  0.51100000000E-03 0. -1.
         23    2    1    0    0    0  0.19006085628E+02 -0.57737210334E+01 -0.24407280299E+02  0.93531246019E+02  0.88078439500E+02 0.  0.
         11    1    3    3    0    0 -0.59335180405E+01  0.38125050834E+02 -0.18205141389E+02  0.42663254807E+02  0.51100000000E-03 0.  1.
         22    1    1    0    0    0 -0.19006085628E+02  0.57737210334E+01  0.24407280299E+02  0.31468753981E+02  0.00000000000E+00 0. -1.
</event>
<event>
 5    1  0.1102386E-009  0.9118800E+02  0.7818608E-02  0.1130116E+00
         25   -1    0    0    0    0  0.00000000000E+00  0.00000000000E+00  0.99999998245E-14  0.12500000000E+03  0.12500000000E+03 0.  0.
        -11    1    3    3    0    0  0.50101208679E+02  0.23865822988E+02  0.13962090201E+02  0.57224545267E+02  0.51100000000E-03 0. -1.
         23    2    1    0    0    0  0.23292629933E+02 -0.43489365710E+01  0.16339839829E+02  0.96217188738E+02  0.91811204025E+02 0.  0.
         11    1    3    3    0    0 -0.26808578745E+02 -0.28214759559E+02  0.23777496281E+01  0.38992643471E+02  0.51100000000E-03 0.  1.
         22    1    1    0    0    0 -0.23292629933E+02  0.43489365710E+01 -0.16339839829E+02  0.28782811262E+02  0.00000000000E+00 0. -1.
</event>
<event>
 5    1  0.1102386E-009  0.9118800E+02  0.7818608E-02  0.1130116E+00
         25   -1    0    0    0    0  0.00000000000E+00  0.00000000000E+00  0.99999998245E-14  0.12500000000E+03  0.12500000000E+03 0.  0.
        -11    1    3    3    0    0  0.89617628830E+01 -0.30177272647E+02  0.42447008700E+02  0.52846282047E+02  0.51100000000E-03 0.  1.
         23    2    1    0    0    0 -0.16765843071E+02 -0.62803012497E+00  0.22844548351E+02  0.96656370997E+02  0.92407211565E+02 0.  0.
         11    1    3    3    0    0 -0.25727605954E+02  0.29549242522E+02 -0.19602460350E+02  0.43810088950E+02  0.51100000000E-03 0. -1.
         22    1    1    0    0    0  0.16765843071E+02  0.62803012497E+00 -0.22844548351E+02  0.28343629003E+02  0.00000000000E+00 0.  1.
</event>
<event>
 5    1  0.1102386E-009  0.9118800E+02  0.7818608E-02  0.1130116E+00
         25   -1    0    0    0    0  0.00000000000E+00  0.00000000000E+00  0.99999998245E-14  0.12500000000E+03  0.12500000000E+03 0.  0.
        -11    1    3    3    0    0  0.44648658710E+02 -0.74006093088E+01  0.12691488023E+02  0.47003676572E+02  0.51100000000E-03 0. -1.
         23    2    1    0    0    0  0.11253945256E+02  0.26263844254E+02  0.10780418272E+02  0.94460546551E+02  0.89387564223E+02 0.  0.
         11    1    3    3    0    0 -0.33394713455E+02  0.33664453563E+02 -0.19110697505E+01  0.47456869979E+02  0.51100000000E-03 0.  1.
         22    1    1    0    0    0 -0.11253945256E+02 -0.26263844254E+02 -0.10780418272E+02  0.30539453449E+02  0.00000000000E+00 0. -1.
</event>
<event>
 5    1  0.1102386E-009  0.9118800E+02  0.7818608E-02  0.1130116E+00
         25   -1    0    0    0    0  0.00000000000E+00  0.00000000000E+00  0.99999998245E-14  0.12500000000E+03  0.12500000000E+03 0.  0.
        -11    1    3    3    0    0  0.39975764221E+02 -0.26659080261E+01 -0.31392412849E+02  0.50898451601E+02  0.51100000000E-03 0.  1.
         23    2    1    0    0    0 -0.21396255004E+01 -0.17611009445E+02 -0.22302672182E+02  0.96502020468E+02  0.92198183914E+02 0.  0.
         11    1    3    3    0    0 -0.42115389721E+02 -0.14945101419E+02  0.90897406666E+01  0.45603568867E+02  0.51100000000E-03 0. -1.
         22    1    1    0    0    0  0.21396255004E+01  0.17611009445E+02  0.22302672182E+02  0.28497979532E+02  0.00000000000E+00 0. -1.
</event>
<event>
 5    1  0.1102386E-009  0.9118800E+02  0.7818608E-02  0.1130116E+00
         25   -1    0    0    0    0  0.00000000000E+00  0.00000000000E+00  0.99999998245E-14  0.12500000000E+03  0.12500000000E+03 0.  0.
        -11    1    3    3    0    0  0.17071286668E+02  0.55832222818E+02 -0.31243737094E+01  0.58467321168E+02  0.51100000000E-03 0. -1.
         23    2    1    0    0    0  0.85269161854E+01  0.23040044740E+02 -0.17041342884E+02  0.95100847361E+02  0.90278523693E+02 0.  0.
         11    1    3    3    0    0 -0.85443704830E+01 -0.32792178077E+02 -0.13916969175E+02  0.36633526192E+02  0.51100000000E-03 0.  1.
         22    1    1    0    0    0 -0.85269161854E+01 -0.23040044740E+02  0.17041342884E+02  0.29899152639E+02  0.00000000000E+00 0. -1.
</event>
<event>
 5    1  0.1102386E-009  0.9118800E+02  0.7818608E-02  0.1130116E+00
         25   -1    0    0    0    0  0.00000000000E+00  0.00000000000E+00  0.99999998245E-14  0.12500000000E+03  0.12500000000E+03 0.  0.
        -11    1    3    3    0    0 -0.44685382436E+02 -0.33759139668E+02  0.19055090953E+02  0.59157074016E+02  0.51100000000E-03 0. -1.
         23    2    1    0    0    0 -0.32083628883E+02 -0.66814449600E+01  0.63255726965E+01  0.91623154448E+02  0.85327537243E+02 0.  0.
         11    1    3    3    0    0  0.12601753552E+02  0.27077694708E+02 -0.12729518257E+02  0.32466080432E+02  0.51100000000E-03 0.  1.
         22    1    1    0    0    0  0.32083628883E+02  0.66814449600E+01 -0.63255726965E+01  0.33376845552E+02  0.00000000000E+00 0. -1.
</event>
<event>
 5    1  0.1102386E-009  0.9118800E+02  0.7818608E-02  0.1130116E+00
         25   -1    0    0    0    0  0.00000000000E+00  0.00000000000E+00  0.99999998245E-14  0.12500000000E+03  0.12500000000E+03 0.  0.
        -11    1    3    3    0    0  0.31194144222E+02  0.17890066853E+02 -0.17749338578E+02  0.40101971847E+02  0.51100000000E-03 0. -1.
         23    2    1    0    0    0 -0.12701656396E+02 -0.15905873804E+02 -0.21202681595E+02  0.95608120110E+02  0.90978184349E+02 0.  0.
         11    1    3    3    0    0 -0.43895800618E+02 -0.33795940657E+02 -0.34533430164E+01  0.55506148263E+02  0.51100000000E-03 0.  1.
         22    1    1    0    0    0  0.12701656396E+02  0.15905873804E+02  0.21202681595E+02  0.29391879890E+02  0.00000000000E+00 0.  1.
</event>
<event>
 5    1  0.1102386E-009  0.9118800E+02  0.7818608E-02  0.1130116E+00
         25   -1    0    0    0    0  0.00000000000E+00  0.00000000000E+00  0.99999998245E-14  0.12500000000E+03  0.12500000000E+03 0.  0.
        -11    1    3    3    0    0 -0.16477873099E+02  0.57166907778E+02 -0.15183565698E+02  0.61401272905E+02  0.51100000000E-03 0. -1.
         23    2    1    0    0    0 -0.50791916940E+01  0.30690944629E+02 -0.15533851032E+02  0.90228851064E+02  0.83259910917E+02 0.  0.
         11    1    3    3    0    0  0.11398681405E+02 -0.26475963149E+02 -0.35028533356E+00  0.28827578159E+02  0.51100000000E-03 0.  1.
         22    1    1    0    0    0  0.50791916940E+01 -0.30690944629E+02  0.15533851032E+02  0.34771148936E+02  0.00000000000E+00 0. -1.
</event>
<event>
 5    1  0.1102386E-009  0.9118800E+02  0.7818608E-02  0.1130116E+00
         25   -1    0    0    0    0  0.00000000000E+00  0.00000000000E+00  0.99999998245E-14  0.12500000000E+03  0.12500000000E+03 0.  0.
        -11    1    3    3    0    0 -0.62601400416E+01 -0.40453698103E+02  0.32498515334E+02  0.52267050259E+02  0.51100000000E-03 0. -1.
         23    2    1    0    0    0  0.57488243552E+01  0.92103132777E+00  0.28922302099E+02  0.95497511310E+02  0.90826085611E+02 0.  0.
         11    1    3    3    0    0  0.12008964397E+02  0.41374729431E+02 -0.35762132346E+01  0.43230461051E+02  0.51100000000E-03 0.  1.
         22    1    1    0    0    0 -0.57488243552E+01 -0.92103132777E+00 -0.28922302099E+02  0.29502488690E+02  0.00000000000E+00 0. -1.
</event>
<event>
 5    1  0.1102386E-009  0.9118800E+02  0.7818608E-02  0.1130116E+00
         25   -1    0    0    0    0  0.00000000000E+00  0.00000000000E+00  0.99999998245E-14  0.12500000000E+03  0.12500000000E+03 0.  0.
        -11    1    3    3    0    0 -0.29759563312E+02 -0.12680243488E+02 -0.11397760592E+02  0.34297654879E+02  0.51100000000E-03 0.  1.
         23    2    1    0    0    0  0.26524918035E+02  0.31183243349E+01  0.99007272377E+01  0.96516327076E+02  0.92217578416E+02 0.  0.
         11    1    3    3    0    0  0.56284481347E+02  0.15798567823E+02  0.21298487830E+02  0.62218672196E+02  0.51100000000E-03 0. -1.
         22    1    1    0    0    0 -0.26524918035E+02 -0.31183243349E+01 -0.99007272377E+01  0.28483672924E+02  0.00000000000E+00 0. -1.
</event>
<event>
 5    1  0.1102386E-009  0.9118800E+02  0.7818608E-02  0.1130116E+00
         25   -1    0    0    0    0  0.00000000000E+00  0.00000000000E+00  0.99999998245E-14  0.12500000000E+03  0.12500000000E+03 0.  0.
        -11    1    3    3    0    0 -0.93485696930E+01 -0.23223020809E+02  0.34687656008E+02  0.42777773790E+02  0.51100000000E-03 0. -1.
         23    2    1    0    0    0 -0.21499404113E+02  0.18710250170E+02  0.38238862992E+01  0.96243784236E+02  0.91847406381E+02 0.  0.
         11    1    3    3    0    0 -0.12150834420E+02  0.41933270979E+02 -0.30863769709E+02  0.53466010446E+02  0.51100000000E-03 0.  1.
         22    1    1    0    0    0  0.21499404113E+02 -0.18710250170E+02 -0.38238862992E+01  0.28756215764E+02  0.00000000000E+00 0.  1.
</event>
<event>
 5    1  0.1102386E-009  0.9118800E+02  0.7818608E-02  0.1130116E+00
         25   -1    0    0    0    0  0.00000000000E+00  0.00000000000E+00  0.99999998245E-14  0.12500000000E+03  0.12500000000E+03 0.  0.
        -11    1    3    3    0    0  0.10781721520E+02 -0.14142034942E+02  0.49415835284E+02  0.52518258238E+02  0.51100000000E-03 0.  1.
         23    2    1    0    0    0  0.18103433191E+02 -0.20991204155E+02  0.65819138430E+01  0.96509887066E+02  0.92208848634E+02 0.  0.
         11    1    3    3    0    0  0.73217116710E+01 -0.68491692125E+01 -0.42833921441E+02  0.43991628828E+02  0.51100000000E-03 0. -1.
         22    1    1    0    0    0 -0.18103433191E+02  0.20991204155E+02 -0.65819138430E+01  0.28490112934E+02  0.00000000000E+00 0.  1.
</event>
<event>
 5    1  0.1102386E-009  0.9118800E+02  0.7818608E-02  0.1130116E+00
         25   -1    0    0    0    0  0.00000000000E+00  0.00000000000E+00  0.99999998245E-14  0.12500000000E+03  0.12500000000E+03 0.  0.
        -11    1    3    3    0    0 -0.27040432250E+02 -0.35861809448E+02 -0.27611254358E+02  0.52722250717E+02  0.51100000000E-03 0. -1.
         23    2    1    0    0    0 -0.12849458834E+02  0.45703616026E+01 -0.26044106708E+02  0.95601151524E+02  0.90968609316E+02 0.  0.
         11    1    3    3    0    0  0.14190973416E+02  0.40432171051E+02  0.15671476502E+01  0.42878900807E+02  0.51100000000E-03 0.  1.
         22    1    1    0    0    0  0.12849458834E+02 -0.45703616026E+01  0.26044106708E+02  0.29398848476E+02  0.00000000000E+00 0.  1.
</event>
<event>
 5    1  0.1102386E-009  0.9118800E+02  0.7818608E-02  0.1130116E+00
         25   -1    0    0    0    0  0.00000000000E+00  0.00000000000E+00  0.99999998245E-14  0.12500000000E+03  0.12500000000E+03 0.  0.
        -11    1    3    3    0    0  0.40609354166E+02  0.32824122918E+02  0.14404141505E+02  0.54166613184E+02  0.51100000000E-03 0. -1.
         23    2    1    0    0    0  0.27067427164E+02  0.38327453797E+01 -0.11506208962E+02  0.95339784305E+02  0.90608752757E+02 0.  0.
         11    1    3    3    0    0 -0.13541927002E+02 -0.28991377538E+02 -0.25910350467E+02  0.41173171120E+02  0.51100000000E-03 0.  1.
         22    1    1    0    0    0 -0.27067427164E+02 -0.38327453797E+01  0.11506208962E+02  0.29660215695E+02  0.00000000000E+00 0. -1.
</event>
<event>
 5    1  0.1102386E-009  0.9118800E+02  0.7818608E-02  0.1130116E+00
         25   -1    0    0    0    0  0.00000000000E+00  0.00000000000E+00  0.99999998245E-14  0.12500000000E+03  0.12500000000E+03 0.  0.
        -11    1    3    3    0    0  0.16793806271E+02  0.18257648755E+02 -0.27161359036E+02  0.36784685565E+02  0.51100000000E-03 0.  1.
         23    2    1    0    0    0 -0.25707753079E+02 -0.14945634122E+02 -0.63584242761E+01  0.94591282385E+02  0.89570199265E+02 0.  0.
         11    1    3    3    0    0 -0.42501559351E+02 -0.33203282878E+02  0.20802934760E+02  0.57806596821E+02  0.51100000000E-03 0. -1.
         22    1    1    0    0    0  0.25707753079E+02  0.14945634122E+02  0.63584242761E+01  0.30408717615E+02  0.00000000000E+00 0. -1.
</event>
<event>
 5    1  0.1102386E-009  0.9118800E+02  0.7818608E-02  0.1130116E+00
         25   -1    0    0    0    0  0.00000000000E+00  0.00000000000E+00  0.99999998245E-14  0.12500000000E+03  0.12500000000E+03 0.  0.
        -11    1    3    3    0    0 -0.31196495694E+02  0.37110939195E+02 -0.60725733164E+01  0.48860201581E+02  0.51100000000E-03 0.  1.
         23    2    1    0    0    0 -0.22079429926E+02 -0.40121079824E+00  0.19806329154E+02  0.95336000430E+02  0.90603532533E+02 0.  0.
         11    1    3    3    0    0  0.91170657681E+01 -0.37512149993E+02  0.25878902470E+02  0.46475798849E+02  0.51100000000E-03 0. -1.
         22    1    1    0    0    0  0.22079429926E+02  0.40121079824E+00 -0.19806329154E+02  0.29663999570E+02  0.00000000000E+00 0. -1.
</event>
<event>
 5    1  0.1102386E-009  0.9118800E+02  0.7818608E-02  0.1130116E+00
         25   -1    0    0    0    0  0.00000000000E+00  0.00000000000E+00  0.99999998245E-14  0.12500000000E+03  0.12500000000E+03 0.  0.
        -11    1    3    3    0    0 -0.54454519812E+02  0.18734446804E+02  0.19329909089E+02  0.60744708499E+02  0.51100000000E-03 0.  1.
         23    2    1    0    0    0 -0.21025868117E+02  0.14828462298E+02  0.16312532293E+02  0.94535772881E+02  0.89492699256E+02 0.  0.
         11    1    3    3    0    0  0.33428651695E+02 -0.39059845062E+01 -0.30173767960E+01  0.33791064382E+02  0.51100000000E-03 0. -1.
         22    1    1    0    0    0  0.21025868117E+02 -0.14828462298E+02 -0.16312532293E+02  0.30464227119E+02  0.00000000000E+00 0.  1.
</event>
<event>
 5    1  0.1102386E-009  0.9118800E+02  0.7818608E-02  0.1130116E+00
         25   -1    0    0    0    0  0.00000000000E+00  0.00000000000E+00  0.99999998245E-14  0.12500000000E+03  0.12500000000E+03 0.  0.
        -11    1    3    3    0    0  0.32536816800E+01  0.31655694911E+02 -0.11417404007E+02  0.33808676095E+02  0.51100000000E-03 0. -1.
         23    2    1    0    0    0  0.55439936681E+01 -0.27639154850E+02 -0.14640463789E+02  0.93235209325E+02  0.87657300502E+02 0.  0.
         11    1    3    3    0    0  0.22903119881E+01 -0.59294849761E+02 -0.32230597822E+01  0.59426533231E+02  0.51100000000E-03 0.  1.
         22    1    1    0    0    0 -0.55439936681E+01  0.27639154850E+02  0.14640463789E+02  0.31764790675E+02  0.00000000000E+00 0.  1.
</event>
<event>
 5    1  0.1102386E-009  0.9118800E+02  0.7818608E-02  0.1130116E+00
         25   -1    0    0    0    0  0.00000000000E+00  0.00000000000E+00  0.99999998245E-14  0.12500000000E+03  0.12500000000E+03 0.  0.
        -11    1    3    3    0    0  0.33803464180E+02 -0.14168607744E+02 -0.14016492865E+02  0.39241377504E+02  0.51100000000E-03 0. -1.
         23    2    1    0    0    0  0.63564487722E+01  0.30721654465E+02 -0.10263958942E+02  0.91991314064E+02  0.85865176387E+02 0.  0.
         11    1    3    3    0    0 -0.27447015407E+02  0.44890262209E+02  0.37525339229E+01  0.52749936560E+02  0.51100000000E-03 0.  1.
         22    1    1    0    0    0 -0.63564487722E+01 -0.30721654465E+02  0.10263958942E+02  0.33008685936E+02  0.00000000000E+00 0.  1.
</event>
<event>
 5    1  0.1102386E-009  0.9118800E+02  0.7818608E-02  0.1130116E+00
         25   -1    0    0    0    0  0.00000000000E+00  0.00000000000E+00  0.99999998245E-14  0.12500000000E+03  0.12500000000E+03 0.  0.
        -11    1    3    3    0    0  0.35507858052E+02  0.64625625669E+01  0.50522347148E+02  0.62089292636E+02  0.51100000000E-03 0. -1.
         23    2    1    0    0    0  0.15784320925E+02  0.77321078442E+01  0.21024793879E+02  0.97596127346E+02  0.93669802159E+02 0.  0.
         11    1    3    3    0    0 -0.19723537127E+02  0.12695452773E+01 -0.29497553269E+02  0.35506834710E+02  0.51100000000E-03 0.  1.
         22    1    1    0    0    0 -0.15784320925E+02 -0.77321078442E+01 -0.21024793879E+02  0.27403872654E+02  0.00000000000E+00 0. -1.
</event>
<event>
 5    1  0.1102386E-009  0.9118800E+02  0.7818608E-02  0.1130116E+00
         25   -1    0    0    0    0  0.00000000000E+00  0.00000000000E+00  0.99999998245E-14  0.12500000000E+03  0.12500000000E+03 0.  0.
        -11    1    3    3    0    0 -0.21162709417E+02 -0.33808557426E+02  0.10643018566E+02  0.41281384055E+02  0.51100000000E-03 0.  1.
         23    2    1    0    0    0  0.16736387079E+02 -0.12054276032E+02 -0.21254105174E+02  0.95383295088E+02  0.90668758522E+02 0.  0.
         11    1    3    3    0    0  0.37899096496E+02  0.21754281394E+02 -0.31897123741E+02  0.54101911032E+02  0.51100000000E-03 0. -1.
         22    1    1    0    0    0 -0.16736387079E+02  0.12054276032E+02  0.21254105174E+02  0.29616704912E+02  0.00000000000E+00 0.  1.
</event>
<event>
 5    1  0.1102386E-009  0.9118800E+02  0.7818608E-02  0.1130116E+00
         25   -1    0    0    0    0  0.00000000000E+00  0.00000000000E+00  0.99999998245E-14  0.12500000000E+03  0.12500000000E+03 0.  0.
        -11    1    3    3    0    0  0.51166352161E+02  0.28216995111E+02  0.15344164793E+02  0.60412232205E+02  0.51100000000E-03 0. -1.
         23    2    1    0    0    0  0.19676431400E+02  0.22723086697E+02  0.25829182763E+01  0.94830941538E+02  0.89904034306E+02 0.  0.
         11    1    3    3    0    0 -0.31489920761E+02 -0.54939084136E+01 -0.12761246517E+02  0.34418709333E+02  0.51100000000E-03 0.  1.
         22    1    1    0    0    0 -0.19676431400E+02 -0.22723086697E+02 -0.25829182763E+01  0.30169058462E+02  0.00000000000E+00 0. -1.
</event>
<event>
 5    1  0.1102386E-009  0.9118800E+02  0.7818608E-02  0.1130116E+00
         25   -1    0    0    0    0  0.00000000000E+00  0.00000000000E+00  0.99999998245E-14  0.12500000000E+03  0.12500000000E+03 0.  0.
        -11    1    3    3    0    0  0.29789286742E+02 -0.40960139190E+02 -0.33114697392E+02  0.60512129286E+02  0.51100000000E-03 0.  1.
         23    2    1    0    0    0  0.84701226644E+01 -0.13774933937E+02 -0.23680815059E+02  0.96324700790E+02  0.91957464067E+02 0.  0.
         11    1    3    3    0    0 -0.21319164078E+02  0.27185205253E+02  0.94338823334E+01  0.35812571505E+02  0.51100000000E-03 0. -1.
         22    1    1    0    0    0 -0.84701226644E+01  0.13774933937E+02  0.23680815059E+02  0.28675299210E+02  0.00000000000E+00 0.  1.
</event>
<event>
 5    1  0.1102386E-009  0.9118800E+02  0.7818608E-02  0.1130116E+00
         25   -1    0    0    0    0  0.00000000000E+00  0.00000000000E+00  0.99999998245E-14  0.12500000000E+03  0.12500000000E+03 0.  0.
        -11    1    3    3    0    0 -0.23712995650E+02  0.22437414374E+02  0.51687677108E+02  0.61133948765E+02  0.51100000000E-03 0. -1.
         23    2    1    0    0    0 -0.64487361841E+01  0.34597251808E+01  0.28023588181E+02  0.96036619823E+02  0.91565031294E+02 0.  0.
         11    1    3    3    0    0  0.17264259466E+02 -0.18977689193E+02 -0.23664088927E+02  0.34902671059E+02  0.51100000000E-03 0.  1.
         22    1    1    0    0    0  0.64487361841E+01 -0.34597251808E+01 -0.28023588181E+02  0.28963380177E+02  0.00000000000E+00 0. -1.
</event>
<event>
 5    1  0.1102386E-009  0.9118800E+02  0.7818608E-02  0.1130116E+00
         25   -1    0    0    0    0  0.00000000000E+00  0.00000000000E+00  0.99999998245E-14  0.12500000000E+03  0.12500000000E+03 0.  0.
        -11    1    3    3    0    0  0.19122580488E+02 -0.22321190383E+02 -0.19592704997E+02  0.35323967982E+02  0.51100000000E-03 0.  1.
         23    2    1    0    0    0 -0.11507746411E+02  0.26898094536E+02 -0.31997644279E+01  0.95569162269E+02  0.90924642244E+02 0.  0.
         11    1    3    3    0    0 -0.30630326899E+02  0.49219284919E+02  0.16392940569E+02  0.60245194287E+02  0.51100000000E-03 0. -1.
         22    1    1    0    0    0  0.11507746411E+02 -0.26898094536E+02  0.31997644279E+01  0.29430837731E+02  0.00000000000E+00 0. -1.
</event>
<event>
 5    1  0.1102386E-009  0.9118800E+02  0.7818608E-02  0.1130116E+00
         25   -1    0    0    0    0  0.00000000000E+00  0.00000000000E+00  0.99999998245E-14  0.12500000000E+03  0.12500000000E+03 0.  0.
        -11    1    3    3    0    0  0.38252868169E+02 -0.11923176188E+02  0.39857242046E+02  0.56515872083E+02  0.51100000000E-03 0. -1.
         23    2    1    0    0    0  0.37627026056E+02 -0.97906514985E+01  0.12216316190E+02  0.84246002309E+02  0.73732628986E+02 0.  0.
         11    1    3    3    0    0 -0.62584211292E+00  0.21325246892E+01 -0.27640925856E+02  0.27730130226E+02  0.51100000000E-03 0.  1.
         22    1    1    0    0    0 -0.37627026056E+02  0.97906514985E+01 -0.12216316190E+02  0.40753997691E+02  0.00000000000E+00 0. -1.
</event>
<event>
 5    1  0.1102386E-009  0.9118800E+02  0.7818608E-02  0.1130116E+00
         25   -1    0    0    0    0  0.00000000000E+00  0.00000000000E+00  0.99999998245E-14  0.12500000000E+03  0.12500000000E+03 0.  0.
        -11    1    3    3    0    0 -0.13067228194E+02  0.30032179090E+02  0.36422568131E+02  0.48982524466E+02  0.51100000000E-03 0. -1.
         23    2    1    0    0    0 -0.15902857251E+02  0.22332908441E+02 -0.97674881266E+01  0.95895644785E+02  0.91372376549E+02 0.  0.
         11    1    3    3    0    0 -0.28356290571E+01 -0.76992706491E+01 -0.46190056258E+02  0.46913120319E+02  0.51100000000E-03 0.  1.
         22    1    1    0    0    0  0.15902857251E+02 -0.22332908441E+02  0.97674881266E+01  0.29104355215E+02  0.00000000000E+00 0. -1.
</event>
<event>
 5    1  0.1102386E-009  0.9118800E+02  0.7818608E-02  0.1130116E+00
         25   -1    0    0    0    0  0.00000000000E+00  0.00000000000E+00  0.99999998245E-14  0.12500000000E+03  0.12500000000E+03 0.  0.
        -11    1    3    3    0    0 -0.33051036921E+02  0.10388082597E+02 -0.45152064529E+02  0.56912144865E+02  0.51100000000E-03 0.  1.
         23    2    1    0    0    0  0.61073543374E+01 -0.45412190960E+01 -0.13766758858E+02  0.10926958051E+03  0.10813137901E+03 0.  0.
         11    1    3    3    0    0  0.39158391259E+02 -0.14929301693E+02  0.31385305672E+02  0.52357435645E+02  0.51100000000E-03 0. -1.
         22    1    1    0    0    0 -0.61073543374E+01  0.45412190960E+01  0.13766758858E+02  0.15730419490E+02  0.00000000000E+00 0. -1.
</event>
<event>
 5    1  0.1102386E-009  0.9118800E+02  0.7818608E-02  0.1130116E+00
         25   -1    0    0    0    0  0.00000000000E+00  0.00000000000E+00  0.99999998245E-14  0.12500000000E+03  0.12500000000E+03 0.  0.
        -11    1    3    3    0    0  0.43862910372E+02 -0.39801872778E+02  0.31867710499E+01  0.59315255145E+02  0.51100000000E-03 0.  1.
         23    2    1    0    0    0  0.34686915858E+02 -0.26984347425E+02  0.14504957779E+02  0.78721161015E+02  0.63681160901E+02 0.  0.
         11    1    3    3    0    0 -0.91759945141E+01  0.12817525354E+02  0.11318186729E+02  0.19405905869E+02  0.51100000000E-03 0. -1.
         22    1    1    0    0    0 -0.34686915858E+02  0.26984347425E+02 -0.14504957779E+02  0.46278838985E+02  0.00000000000E+00 0.  1.
</event>
<event>
 5    1  0.1102386E-009  0.9118800E+02  0.7818608E-02  0.1130116E+00
         25   -1    0    0    0    0  0.00000000000E+00  0.00000000000E+00  0.99999998245E-14  0.12500000000E+03  0.12500000000E+03 0.  0.
        -11    1    3    3    0    0  0.35491590536E+02 -0.23493099849E+02 -0.22246058338E+02  0.48025679080E+02  0.51100000000E-03 0.  1.
         23    2    1    0    0    0 -0.92351591894E+01 -0.70447815218E+01 -0.26694249261E+02  0.95888145790E+02  0.91362117136E+02 0.  0.
         11    1    3    3    0    0 -0.44726749725E+02  0.16448318327E+02 -0.44481909225E+01  0.47862466710E+02  0.51100000000E-03 0. -1.
         22    1    1    0    0    0  0.92351591894E+01  0.70447815218E+01  0.26694249261E+02  0.29111854210E+02  0.00000000000E+00 0.  1.
</event>
<event>
 5    1  0.1102386E-009  0.9118800E+02  0.7818608E-02  0.1130116E+00
         25   -1    0    0    0    0  0.00000000000E+00  0.00000000000E+00  0.99999998245E-14  0.12500000000E+03  0.12500000000E+03 0.  0.
        -11    1    3    3    0    0 -0.15370763230E+02  0.22820975014E+01  0.29411954947E+02  0.33264567115E+02  0.51100000000E-03 0. -1.
         23    2    1    0    0    0  0.22301729643E+01  0.13314529376E+02 -0.27780713616E+02  0.94112811507E+02  0.88899959937E+02 0.  0.
         11    1    3    3    0    0  0.17600936195E+02  0.11032431875E+02 -0.57192668563E+02  0.60848244392E+02  0.51100000000E-03 0.  1.
         22    1    1    0    0    0 -0.22301729643E+01 -0.13314529376E+02  0.27780713616E+02  0.30887188493E+02  0.00000000000E+00 0.  1.
</event>
<event>
 5    1  0.1102386E-009  0.9118800E+02  0.7818608E-02  0.1130116E+00
         25   -1    0    0    0    0  0.00000000000E+00  0.00000000000E+00  0.99999998245E-14  0.12500000000E+03  0.12500000000E+03 0.  0.
        -11    1    3    3    0    0 -0.76251464343E+00 -0.85533183433E+00 -0.35310727545E+02  0.35329315039E+02  0.51100000000E-03 0.  1.
         23    2    1    0    0    0  0.59055727384E+01  0.22198050983E+02  0.19311289934E+02  0.94990748498E+02  0.90125951448E+02 0.  0.
         11    1    3    3    0    0  0.66680873819E+01  0.23053382817E+02  0.54622017479E+02  0.59661433459E+02  0.51100000000E-03 0. -1.
         22    1    1    0    0    0 -0.59055727384E+01 -0.22198050983E+02 -0.19311289934E+02  0.30009251502E+02  0.00000000000E+00 0. -1.
</event>
<event>
 5    1  0.1102386E-009  0.9118800E+02  0.7818608E-02  0.1130116E+00
         25   -1    0    0    0    0  0.00000000000E+00  0.00000000000E+00  0.99999998245E-14  0.12500000000E+03  0.12500000000E+03 0.  0.
        -11    1    3    3    0    0 -0.14452708051E+02  0.44744014683E+02 -0.38519082070E+02  0.60783445968E+02  0.51100000000E-03 0.  1.
         23    2    1    0    0    0  0.34656158594E+01  0.22410925781E+02 -0.15350267883E+02  0.97615865693E+02  0.93696138785E+02 0.  0.
         11    1    3    3    0    0  0.17918323911E+02 -0.22333088902E+02  0.23168814187E+02  0.36832419725E+02  0.51100000000E-03 0. -1.
         22    1    1    0    0    0 -0.34656158594E+01 -0.22410925781E+02  0.15350267883E+02  0.27384134307E+02  0.00000000000E+00 0.  1.
</event>
<event>
 5    1  0.1102386E-009  0.9118800E+02  0.7818608E-02  0.1130116E+00
         25   -1    0    0    0    0  0.00000000000E+00  0.00000000000E+00  0.99999998245E-14  0.12500000000E+03  0.12500000000E+03 0.  0.
        -11    1    3    3    0    0  0.12141515308E+02  0.45434576513E+02  0.12136675689E+02  0.48569702840E+02  0.51100000000E-03 0. -1.
         23    2    1    0    0    0 -0.22314619596E+02  0.16187694553E+02  0.14547763186E+02  0.93829162405E+02  0.88500229386E+02 0.  0.
         11    1    3    3    0    0 -0.34456134904E+02 -0.29246881961E+02  0.24110874964E+01  0.45259459565E+02  0.51100000000E-03 0.  1.
         22    1    1    0    0    0  0.22314619596E+02 -0.16187694553E+02 -0.14547763186E+02  0.31170837595E+02  0.00000000000E+00 0. -1.
</event>
<event>
 5    1  0.1102386E-009  0.9118800E+02  0.7818608E-02  0.1130116E+00
         25   -1    0    0    0    0  0.00000000000E+00  0.00000000000E+00  0.99999998245E-14  0.12500000000E+03  0.12500000000E+03 0.  0.
        -11    1    3    3    0    0 -0.48372493338E+02 -0.22617975808E+02  0.22730840572E+02  0.58035868691E+02  0.51100000000E-03 0. -1.
         23    2    1    0    0    0 -0.20747845001E+02  0.29735788679E+01  0.20378852755E+02  0.95766237275E+02  0.91195171576E+02 0.  0.
         11    1    3    3    0    0  0.27624648338E+02  0.25591554676E+02 -0.23519878169E+01  0.37730368584E+02  0.51100000000E-03 0.  1.
         22    1    1    0    0    0  0.20747845001E+02 -0.29735788679E+01 -0.20378852755E+02  0.29233762725E+02  0.00000000000E+00 0. -1.
</event>
<event>
 5    1  0.1102386E-009  0.9118800E+02  0.7818608E-02  0.1130116E+00
         25   -1    0    0    0    0  0.00000000000E+00  0.00000000000E+00  0.99999998245E-14  0.12500000000E+03  0.12500000000E+03 0.  0.
        -11    1    3    3    0    0 -0.44395329720E+02  0.33748184029E+02 -0.22930002830E+02  0.60296519437E+02  0.51100000000E-03 0.  1.
         23    2    1    0    0    0 -0.97980651998E+01  0.19394045651E+02 -0.15036491323E+02  0.98576011662E+02  0.94968431153E+02 0.  0.
         11    1    3    3    0    0  0.34597264520E+02 -0.14354138379E+02  0.78935115070E+01  0.38279492225E+02  0.51100000000E-03 0. -1.
         22    1    1    0    0    0  0.97980651998E+01 -0.19394045651E+02  0.15036491323E+02  0.26423988338E+02  0.00000000000E+00 0.  1.
</event>
<event>
 5    1  0.1102386E-009  0.9118800E+02  0.7818608E-02  0.1130116E+00
         25   -1    0    0    0    0  0.00000000000E+00  0.00000000000E+00  0.99999998245E-14  0.12500000000E+03  0.12500000000E+03 0.  0.
        -11    1    3    3    0    0  0.17539046441E+02  0.65031472731E+01  0.49756539699E+02  0.53156583013E+02  0.51100000000E-03 0.  1.
         23    2    1    0    0    0 -0.12810068278E+01 -0.19557596957E+02  0.20788012557E+02  0.96429349967E+02  0.92099606360E+02 0.  0.
         11    1    3    3    0    0 -0.18820053269E+02 -0.26060744230E+02 -0.28968527141E+02  0.43272766954E+02  0.51100000000E-03 0. -1.
         22    1    1    0    0    0  0.12810068278E+01  0.19557596957E+02 -0.20788012557E+02  0.28570650033E+02  0.00000000000E+00 0. -1.
</event>
<event>
 5    1  0.1102386E-009  0.9118800E+02  0.7818608E-02  0.1130116E+00
         25   -1    0    0    0    0  0.00000000000E+00  0.00000000000E+00  0.99999998245E-14  0.12500000000E+03  0.12500000000E+03 0.  0.
        -11    1    3    3    0    0  0.21635027978E+02  0.11421211453E+02 -0.49418538419E+02  0.55142637281E+02  0.51100000000E-03 0. -1.
         23    2    1    0    0    0 -0.11034340565E+02  0.74905606761E+01 -0.26779335600E+02  0.95083483054E+02  0.90254477804E+02 0.  0.
         11    1    3    3    0    0 -0.32669368543E+02 -0.39306507771E+01  0.22639202818E+02  0.39940845773E+02  0.51100000000E-03 0.  1.
         22    1    1    0    0    0  0.11034340565E+02 -0.74905606761E+01  0.26779335600E+02  0.29916516946E+02  0.00000000000E+00 0. -1.
</event>
<event>
 5    1  0.1102386E-009  0.9118800E+02  0.7818608E-02  0.1130116E+00
         25   -1    0    0    0    0  0.00000000000E+00  0.00000000000E+00  0.99999998245E-14  0.12500000000E+03  0.12500000000E+03 0.  0.
        -11    1    3    3    0    0  0.70490768797E+01 -0.58766276024E+02  0.76449652370E+01  0.59679227344E+02  0.51100000000E-03 0.  1.
         23    2    1    0    0    0  0.90711758153E+01 -0.29313326205E+02 -0.82730706043E+01  0.93219486771E+02  0.87634877148E+02 0.  0.
         11    1    3    3    0    0  0.20220989356E+01  0.29452949819E+02 -0.15918035841E+02  0.33540259427E+02  0.51100000000E-03 0. -1.
         22    1    1    0    0    0 -0.90711758153E+01  0.29313326205E+02  0.82730706043E+01  0.31780513229E+02  0.00000000000E+00 0.  1.
</event>
<event>
 5    1  0.1102386E-009  0.9118800E+02  0.7818608E-02  0.1130116E+00
         25   -1    0    0    0    0  0.00000000000E+00  0.00000000000E+00  0.99999998245E-14  0.12500000000E+03  0.12500000000E+03 0.  0.
        -11    1    3    3    0    0  0.24682081744E+02  0.15344285450E+02  0.16874374066E+02  0.33606498710E+02  0.51100000000E-03 0. -1.
         23    2    1    0    0    0 -0.23049851803E+02  0.80021881928E+01 -0.19254397045E+02  0.93918454196E+02  0.88626257672E+02 0.  0.
         11    1    3    3    0    0 -0.47731933547E+02 -0.73420972567E+01 -0.36128771111E+02  0.60311955486E+02  0.51100000000E-03 0.  1.
         22    1    1    0    0    0  0.23049851803E+02 -0.80021881928E+01  0.19254397045E+02  0.31081545804E+02  0.00000000000E+00 0.  1.
</event>
<event>
 5    1  0.1102386E-009  0.9118800E+02  0.7818608E-02  0.1130116E+00
         25   -1    0    0    0    0  0.00000000000E+00  0.00000000000E+00  0.99999998245E-14  0.12500000000E+03  0.12500000000E+03 0.  0.
        -11    1    3    3    0    0  0.33087605110E+02 -0.25650573064E+02  0.18068053654E+01  0.41904725942E+02  0.51100000000E-03 0.  1.
         23    2    1    0    0    0 -0.32841523545E+01 -0.83184360022E+01 -0.30290208391E+02  0.93417112884E+02  0.87916313737E+02 0.  0.
         11    1    3    3    0    0 -0.36371757464E+02  0.17332137062E+02 -0.32097013756E+02  0.51512386942E+02  0.51100000000E-03 0. -1.
         22    1    1    0    0    0  0.32841523545E+01  0.83184360022E+01  0.30290208391E+02  0.31582887116E+02  0.00000000000E+00 0. -1.
</event>
<event>
 5    1  0.1102386E-009  0.9118800E+02  0.7818608E-02  0.1130116E+00
         25   -1    0    0    0    0  0.00000000000E+00  0.00000000000E+00  0.99999998245E-14  0.12500000000E+03  0.12500000000E+03 0.  0.
        -11    1    3    3    0    0 -0.18436586842E+02  0.35519649675E+02  0.35330277435E+02  0.53383347134E+02  0.51100000000E-03 0. -1.
         23    2    1    0    0    0 -0.11071612143E+02 -0.56046094305E+01  0.25999033541E+02  0.96191286259E+02  0.91775931294E+02 0.  0.
         11    1    3    3    0    0  0.73649746982E+01 -0.41124259105E+02 -0.93312438940E+01  0.42807939125E+02  0.51100000000E-03 0.  1.
         22    1    1    0    0    0  0.11071612143E+02  0.56046094305E+01 -0.25999033541E+02  0.28808713741E+02  0.00000000000E+00 0. -1.
</event>
<event>
 5    1  0.1102386E-009  0.9118800E+02  0.7818608E-02  0.1130116E+00
         25   -1    0    0    0    0  0.00000000000E+00  0.00000000000E+00  0.99999998245E-14  0.12500000000E+03  0.12500000000E+03 0.  0.
        -11    1    3    3    0    0 -0.57249354273E+01 -0.23908413122E+02  0.52645667461E+02  0.58102955229E+02  0.51100000000E-03 0.  1.
         23    2    1    0    0    0 -0.11666723240E+02  0.25625581536E+01  0.27175795939E+02  0.95314936073E+02  0.90574466701E+02 0.  0.
         11    1    3    3    0    0 -0.59417878126E+01  0.26470971276E+02 -0.25469871522E+02  0.37211980844E+02  0.51100000000E-03 0. -1.
         22    1    1    0    0    0  0.11666723240E+02 -0.25625581536E+01 -0.27175795939E+02  0.29685063927E+02  0.00000000000E+00 0.  1.
</event>
<event>
 5    1  0.1102386E-009  0.9118800E+02  0.7818608E-02  0.1130116E+00
         25   -1    0    0    0    0  0.00000000000E+00  0.00000000000E+00  0.99999998245E-14  0.12500000000E+03  0.12500000000E+03 0.  0.
        -11    1    3    3    0    0 -0.44271355554E+02  0.43981526022E+01 -0.44879093886E+01  0.44715075756E+02  0.51100000000E-03 0.  1.
         23    2    1    0    0    0 -0.49767364398E+01 -0.10179342259E+02  0.26063612687E+02  0.96579957412E+02  0.92303788400E+02 0.  0.
         11    1    3    3    0    0  0.39294619115E+02 -0.14577494861E+02  0.30551522076E+02  0.51864881656E+02  0.51100000000E-03 0. -1.
         22    1    1    0    0    0  0.49767364398E+01  0.10179342259E+02 -0.26063612687E+02  0.28420042588E+02  0.00000000000E+00 0. -1.
</event>
<event>
 5    1  0.1102386E-009  0.9118800E+02  0.7818608E-02  0.1130116E+00
         25   -1    0    0    0    0  0.00000000000E+00  0.00000000000E+00  0.99999998245E-14  0.12500000000E+03  0.12500000000E+03 0.  0.
        -11    1    3    3    0    0 -0.11080606683E+02  0.34075058137E+02  0.35064511176E+02  0.50133914427E+02  0.51100000000E-03 0.  1.
         23    2    1    0    0    0 -0.79128776789E+00 -0.60241346067E+01  0.32851588632E+02  0.91591270456E+02  0.85280816213E+02 0.  0.
         11    1    3    3    0    0  0.10289318915E+02 -0.40099192744E+02 -0.22129225440E+01  0.41457356029E+02  0.51100000000E-03 0. -1.
         22    1    1    0    0    0  0.79128776789E+00  0.60241346067E+01 -0.32851588632E+02  0.33408729544E+02  0.00000000000E+00 0.  1.
</event>
<event>
 5    1  0.1102386E-009  0.9118800E+02  0.7818608E-02  0.1130116E+00
         25   -1    0    0    0    0  0.00000000000E+00  0.00000000000E+00  0.99999998245E-14  0.12500000000E+03  0.12500000000E+03 0.  0.
        -11    1    3    3    0    0 -0.33173690598E+02 -0.65404832033E+01  0.33974707635E+01  0.33982561355E+02  0.51100000000E-03 0. -1.
         23    2    1    0    0    0  0.23757994906E+02  0.13773599476E+02 -0.97783070299E+01  0.95849191214E+02  0.91308804634E+02 0.  0.
         11    1    3    3    0    0  0.56931685504E+02  0.20314082679E+02 -0.13175777793E+02  0.61866629859E+02  0.51100000000E-03 0.  1.
         22    1    1    0    0    0 -0.23757994906E+02 -0.13773599476E+02  0.97783070299E+01  0.29150808786E+02  0.00000000000E+00 0.  1.
</event>
<event>
 5    1  0.1102386E-009  0.9118800E+02  0.7818608E-02  0.1130116E+00
         25   -1    0    0    0    0  0.00000000000E+00  0.00000000000E+00  0.99999998245E-14  0.12500000000E+03  0.12500000000E+03 0.  0.
        -11    1    3    3    0    0 -0.10201787540E+02  0.20048546084E+02  0.15000200710E+02  0.27037505260E+02  0.51100000000E-03 0. -1.
         23    2    1    0    0    0  0.34856821633E+02  0.29877008712E+02 -0.77167382672E+01  0.78447001027E+02  0.63140717898E+02 0.  0.
         11    1    3    3    0    0  0.45058609173E+02  0.98284626280E+01 -0.22716938977E+02  0.51409495767E+02  0.51100000000E-03 0.  1.
         22    1    1    0    0    0 -0.34856821633E+02 -0.29877008712E+02  0.77167382672E+01  0.46552998973E+02  0.00000000000E+00 0.  1.
</event>
<event>
 5    1  0.1102386E-009  0.9118800E+02  0.7818608E-02  0.1130116E+00
         25   -1    0    0    0    0  0.00000000000E+00  0.00000000000E+00  0.99999998245E-14  0.12500000000E+03  0.12500000000E+03 0.  0.
        -11    1    3    3    0    0  0.16771671665E+02 -0.17536561893E+02 -0.21164815749E+00  0.24266535984E+02  0.51100000000E-03 0.  1.
         23    2    1    0    0    0 -0.34543246184E+02  0.13182403220E+02  0.13524951126E+02  0.85630774524E+02  0.76044024295E+02 0.  0.
         11    1    3    3    0    0 -0.51314917849E+02  0.30718965113E+02  0.13736599284E+02  0.61364238540E+02  0.51100000000E-03 0. -1.
         22    1    1    0    0    0  0.34543246184E+02 -0.13182403220E+02 -0.13524951126E+02  0.39369225476E+02  0.00000000000E+00 0. -1.
</event>
<event>
 5    1  0.1102386E-009  0.9118800E+02  0.7818608E-02  0.1130116E+00
         25   -1    0    0    0    0  0.00000000000E+00  0.00000000000E+00  0.99999998245E-14  0.12500000000E+03  0.12500000000E+03 0.  0.
        -11    1    3    3    0    0 -0.34267683028E+02  0.36248439100E+02 -0.33317769116E+02  0.59985808125E+02  0.51100000000E-03 0.  1.
         23    2    1    0    0    0 -0.87678892432E+01  0.25972554483E+02 -0.10748687471E+02  0.95555412203E+02  0.90905737172E+02 0.  0.
         11    1    3    3    0    0  0.25499793785E+02 -0.10275884616E+02  0.22569081646E+02  0.35569604078E+02  0.51100000000E-03 0. -1.
         22    1    1    0    0    0  0.87678892432E+01 -0.25972554483E+02  0.10748687471E+02  0.29444587797E+02  0.00000000000E+00 0.  1.
</event>
<event>
 5    1  0.1102386E-009  0.9118800E+02  0.7818608E-02  0.1130116E+00
         25   -1    0    0    0    0  0.00000000000E+00  0.00000000000E+00  0.99999998245E-14  0.12500000000E+03  0.12500000000E+03 0.  0.
        -11    1    3    3    0    0  0.14055700519E+02  0.32684636910E+02 -0.52643399803E+01  0.35966115758E+02  0.51100000000E-03 0. -1.
         23    2    1    0    0    0 -0.15855537386E+02 -0.17202600809E+02 -0.17964221263E+02  0.95503546213E+02  0.90834390807E+02 0.  0.
         11    1    3    3    0    0 -0.29911237906E+02 -0.49887237719E+02 -0.12699881283E+02  0.59537430455E+02  0.51100000000E-03 0.  1.
         22    1    1    0    0    0  0.15855537386E+02  0.17202600809E+02  0.17964221263E+02  0.29496453787E+02  0.00000000000E+00 0.  1.
</event>
<event>
 5    1  0.1102386E-009  0.9118800E+02  0.7818608E-02  0.1130116E+00
         25   -1    0    0    0    0  0.00000000000E+00  0.00000000000E+00  0.99999998245E-14  0.12500000000E+03  0.12500000000E+03 0.  0.
        -11    1    3    3    0    0  0.41214156852E+02 -0.17239945955E+02  0.29135100076E+01  0.44769532077E+02  0.51100000000E-03 0.  1.
         23    2    1    0    0    0 -0.43992796086E+01 -0.57512045460E+01  0.26598105763E+02  0.97433911322E+02  0.93453078229E+02 0.  0.
         11    1    3    3    0    0 -0.45613436461E+02  0.11488741409E+02  0.23684595756E+02  0.52664379245E+02  0.51100000000E-03 0. -1.
         22    1    1    0    0    0  0.43992796086E+01  0.57512045460E+01 -0.26598105763E+02  0.27566088678E+02  0.00000000000E+00 0. -1.
</event>
<event>
 5    1  0.1102386E-009  0.9118800E+02  0.7818608E-02  0.1130116E+00
         25   -1    0    0    0    0  0.00000000000E+00  0.00000000000E+00  0.99999998245E-14  0.12500000000E+03  0.12500000000E+03 0.  0.
        -11    1    3    3    0    0 -0.34467335244E+01 -0.39387741539E+02 -0.47762421459E+02  0.62004218078E+02  0.51100000000E-03 0.  1.
         23    2    1    0    0    0 -0.22905697638E+00 -0.14670370792E+02 -0.26241612654E+02  0.94935162050E+02  0.90048822938E+02 0.  0.
         11    1    3    3    0    0  0.32176765480E+01  0.24717370747E+02  0.21520808806E+02  0.32930943972E+02  0.51100000000E-03 0. -1.
         22    1    1    0    0    0  0.22905697638E+00  0.14670370792E+02  0.26241612654E+02  0.30064837950E+02  0.00000000000E+00 0.  1.
</event>
<event>
 5    1  0.1102386E-009  0.9118800E+02  0.7818608E-02  0.1130116E+00
         25   -1    0    0    0    0  0.00000000000E+00  0.00000000000E+00  0.99999998245E-14  0.12500000000E+03  0.12500000000E+03 0.  0.
        -11    1    3    3    0    0 -0.52308722383E+02 -0.30806541141E+02  0.31363517660E+01  0.60787187113E+02  0.51100000000E-03 0. -1.
         23    2    1    0    0    0 -0.24653635497E+02 -0.39383369164E+01  0.55638293834E+01  0.99421328450E+02  0.96074617420E+02 0.  0.
         11    1    3    3    0    0  0.27655086887E+02  0.26868204225E+02  0.24274776173E+01  0.38634141337E+02  0.51100000000E-03 0.  1.
         22    1    1    0    0    0  0.24653635497E+02  0.39383369164E+01 -0.55638293834E+01  0.25578671550E+02  0.00000000000E+00 0. -1.
</event>
<event>
 5    1  0.1102386E-009  0.9118800E+02  0.7818608E-02  0.1130116E+00
         25   -1    0    0    0    0  0.00000000000E+00  0.00000000000E+00  0.99999998245E-14  0.12500000000E+03  0.12500000000E+03 0.  0.
        -11    1    3    3    0    0  0.30589084290E+02 -0.14545043163E+02 -0.35270448225E+01  0.34054227399E+02  0.51100000000E-03 0.  1.
         23    2    1    0    0    0 -0.21182455127E+02  0.19037980907E+02  0.40704475104E+01  0.96230056218E+02  0.91828721295E+02 0.  0.
         11    1    3    3    0    0 -0.51771539417E+02  0.33583024070E+02  0.75974923329E+01  0.62175828819E+02  0.51100000000E-03 0. -1.
         22    1    1    0    0    0  0.21182455127E+02 -0.19037980907E+02 -0.40704475104E+01  0.28769943782E+02  0.00000000000E+00 0. -1.
</event>
<event>
 5    1  0.1102386E-009  0.9118800E+02  0.7818608E-02  0.1130116E+00
         25   -1    0    0    0    0  0.00000000000E+00  0.00000000000E+00  0.99999998245E-14  0.12500000000E+03  0.12500000000E+03 0.  0.
        -11    1    3    3    0    0 -0.11075660733E+02  0.12710643165E+02  0.32814798601E+02  0.36892298896E+02  0.51100000000E-03 0.  1.
         23    2    1    0    0    0  0.72150184435E+01  0.16237796168E+02 -0.23116291295E+02  0.95843775300E+02  0.91301390050E+02 0.  0.
         11    1    3    3    0    0  0.18290679177E+02  0.35271530033E+01 -0.55931089896E+02  0.58951476404E+02  0.51100000000E-03 0. -1.
         22    1    1    0    0    0 -0.72150184435E+01 -0.16237796168E+02  0.23116291295E+02  0.29156224700E+02  0.00000000000E+00 0. -1.
</event>
<event>
 5    1  0.1102386E-009  0.9118800E+02  0.7818608E-02  0.1130116E+00
         25   -1    0    0    0    0  0.00000000000E+00  0.00000000000E+00  0.99999998245E-14  0.12500000000E+03  0.12500000000E+03 0.  0.
        -11    1    3    3    0    0 -0.72925088615E+01 -0.39245806334E+02  0.15846092325E+02  0.42947789728E+02  0.51100000000E-03 0.  1.
         23    2    1    0    0    0  0.11454190780E+02 -0.35926488298E+01 -0.23093066135E+02  0.98973180841E+02  0.95489764950E+02 0.  0.
         11    1    3    3    0    0  0.18746699642E+02  0.35653157504E+02 -0.38939158460E+02  0.56025391113E+02  0.51100000000E-03 0. -1.
         22    1    1    0    0    0 -0.11454190780E+02  0.35926488298E+01  0.23093066135E+02  0.26026819159E+02  0.00000000000E+00 0. -1.
</event>
<event>
 5    1  0.1102386E-009  0.9118800E+02  0.7818608E-02  0.1130116E+00
         25   -1    0    0    0    0  0.00000000000E+00  0.00000000000E+00  0.99999998245E-14  0.12500000000E+03  0.12500000000E+03 0.  0.
        -11    1    3    3    0    0  0.52005474483E+01 -0.46476785529E+02  0.41294535927E+02  0.62388909147E+02  0.51100000000E-03 0.  1.
         23    2    1    0    0    0  0.73735064123E+00 -0.29388622951E+02  0.25423598982E+02  0.86133636263E+02  0.76866176345E+02 0.  0.
         11    1    3    3    0    0 -0.44631968071E+01  0.17088162578E+02 -0.15870936945E+02  0.23744727116E+02  0.51100000000E-03 0. -1.
         22    1    1    0    0    0 -0.73735064123E+00  0.29388622951E+02 -0.25423598982E+02  0.38866363737E+02  0.00000000000E+00 0.  1.
</event>
<event>
 5    1  0.1102386E-009  0.9118800E+02  0.7818608E-02  0.1130116E+00
         25   -1    0    0    0    0  0.00000000000E+00  0.00000000000E+00  0.99999998245E-14  0.12500000000E+03  0.12500000000E+03 0.  0.
        -11    1    3    3    0    0  0.17279799767E+02 -0.50544670357E+02  0.25358953497E+01  0.53476966509E+02  0.51100000000E-03 0.  1.
         23    2    1    0    0    0 -0.40695667431E+01 -0.20369473069E+02 -0.19498570127E+02  0.96510158941E+02  0.92209217192E+02 0.  0.
         11    1    3    3    0    0 -0.21349366510E+02  0.30175197288E+02 -0.22034465477E+02  0.43033192432E+02  0.51100000000E-03 0. -1.
         22    1    1    0    0    0  0.40695667431E+01  0.20369473069E+02  0.19498570127E+02  0.28489841059E+02  0.00000000000E+00 0. -1.
</event>
<event>
 5    1  0.1102386E-009  0.9118800E+02  0.7818608E-02  0.1130116E+00
         25   -1    0    0    0    0  0.00000000000E+00  0.00000000000E+00  0.99999998245E-14  0.12500000000E+03  0.12500000000E+03 0.  0.
        -11    1    3    3    0    0  0.26784304335E+02  0.26752635870E+02 -0.36268473094E+02  0.52426182633E+02  0.51100000000E-03 0. -1.
         23    2    1    0    0    0  0.55399112343E+01  0.27709123588E+02  0.24874791939E+01  0.96633228960E+02  0.92375901836E+02 0.  0.
         11    1    3    3    0    0 -0.21244393100E+02  0.95648771749E+00  0.38755952288E+02  0.44207046327E+02  0.51100000000E-03 0.  1.
         22    1    1    0    0    0 -0.55399112343E+01 -0.27709123588E+02 -0.24874791939E+01  0.28366771040E+02  0.00000000000E+00 0. -1.
</event>
<event>
 5    1  0.1102386E-009  0.9118800E+02  0.7818608E-02  0.1130116E+00
         25   -1    0    0    0    0  0.00000000000E+00  0.00000000000E+00  0.99999998245E-14  0.12500000000E+03  0.12500000000E+03 0.  0.
        -11    1    3    3    0    0  0.13065085795E+02  0.34015222685E+02 -0.36460757931E+01  0.36620017888E+02  0.51100000000E-03 0. -1.
         23    2    1    0    0    0 -0.62861850494E+01 -0.21687171943E+02 -0.16576088744E+02  0.96988997387E+02  0.92856067905E+02 0.  0.
         11    1    3    3    0    0 -0.19351270844E+02 -0.55702394628E+02 -0.12930012951E+02  0.60368979499E+02  0.51100000000E-03 0.  1.
         22    1    1    0    0    0  0.62861850494E+01  0.21687171943E+02  0.16576088744E+02  0.28011002613E+02  0.00000000000E+00 0.  1.
</event>
<event>
 5    1  0.1102386E-009  0.9118800E+02  0.7818608E-02  0.1130116E+00
         25   -1    0    0    0    0  0.00000000000E+00  0.00000000000E+00  0.99999998245E-14  0.12500000000E+03  0.12500000000E+03 0.  0.
        -11    1    3    3    0    0 -0.35197810380E+02 -0.10175916175E+02  0.14599966342E+02  0.39441021069E+02  0.51100000000E-03 0.  1.
         23    2    1    0    0    0 -0.30534014539E+01  0.16781542549E+02 -0.23398970657E+02  0.96043908092E+02  0.91574980334E+02 0.  0.
         11    1    3    3    0    0  0.32144408926E+02  0.26957458724E+02 -0.37998936998E+02  0.56602887023E+02  0.51100000000E-03 0. -1.
         22    1    1    0    0    0  0.30534014539E+01 -0.16781542549E+02  0.23398970657E+02  0.28956091908E+02  0.00000000000E+00 0. -1.
</event>
<event>
 5    1  0.1102386E-009  0.9118800E+02  0.7818608E-02  0.1130116E+00
         25   -1    0    0    0    0  0.00000000000E+00  0.00000000000E+00  0.99999998245E-14  0.12500000000E+03  0.12500000000E+03 0.  0.
        -11    1    3    3    0    0 -0.45286644013E+02 -0.14182455490E+02  0.19735502728E+01  0.47496495351E+02  0.51100000000E-03 0. -1.
         23    2    1    0    0    0 -0.14411703228E+02  0.15145061103E+02 -0.20562883217E+02  0.95675910382E+02  0.91071277555E+02 0.  0.
         11    1    3    3    0    0  0.30874940785E+02  0.29327516593E+02 -0.22536433490E+02  0.48179415031E+02  0.51100000000E-03 0.  1.
         22    1    1    0    0    0  0.14411703228E+02 -0.15145061103E+02  0.20562883217E+02  0.29324089618E+02  0.00000000000E+00 0. -1.
</event>
<event>
 5    1  0.1102386E-009  0.9118800E+02  0.7818608E-02  0.1130116E+00
         25   -1    0    0    0    0  0.00000000000E+00  0.00000000000E+00  0.99999998245E-14  0.12500000000E+03  0.12500000000E+03 0.  0.
        -11    1    3    3    0    0 -0.43333404025E+02 -0.54470743622E+01 -0.38064468444E+02  0.57934085663E+02  0.51100000000E-03 0.  1.
         23    2    1    0    0    0 -0.29122614688E+02 -0.63880814481E+01 -0.39216524350E+01  0.94928192129E+02  0.90039147220E+02 0.  0.
         11    1    3    3    0    0  0.14210789337E+02 -0.94100708592E+00  0.34142816009E+02  0.36994106465E+02  0.51100000000E-03 0. -1.
         22    1    1    0    0    0  0.29122614688E+02  0.63880814481E+01  0.39216524350E+01  0.30071807871E+02  0.00000000000E+00 0.  1.
</event>
<event>
 5    1  0.1102386E-009  0.9118800E+02  0.7818608E-02  0.1130116E+00
         25   -1    0    0    0    0  0.00000000000E+00  0.00000000000E+00  0.99999998245E-14  0.12500000000E+03  0.12500000000E+03 0.  0.
        -11    1    3    3    0    0  0.76593352221E+01  0.30394936983E+02 -0.13562006649E+02  0.34153266826E+02  0.51100000000E-03 0. -1.
         23    2    1    0    0    0  0.10115925002E+02 -0.16353743396E+02  0.24052197063E+02  0.94205762791E+02  0.89030560471E+02 0.  0.
         11    1    3    3    0    0  0.24565897798E+01 -0.46748680379E+02  0.37614203712E+02  0.60052495966E+02  0.51100000000E-03 0.  1.
         22    1    1    0    0    0 -0.10115925002E+02  0.16353743396E+02 -0.24052197063E+02  0.30794237209E+02  0.00000000000E+00 0.  1.
</event>
<event>
 5    1  0.1102386E-009  0.9118800E+02  0.7818608E-02  0.1130116E+00
         25   -1    0    0    0    0  0.00000000000E+00  0.00000000000E+00  0.99999998245E-14  0.12500000000E+03  0.12500000000E+03 0.  0.
        -11    1    3    3    0    0  0.22259828884E+02 -0.25761443860E+02  0.25115022249E+02  0.42307402597E+02  0.51100000000E-03 0.  1.
         23    2    1    0    0    0 -0.14026071521E+02 -0.36153651472E+02  0.28808477685E+01  0.86114058055E+02  0.76834331608E+02 0.  0.
         11    1    3    3    0    0 -0.36285900405E+02 -0.10392207612E+02 -0.22234174481E+02  0.43806655458E+02  0.51100000000E-03 0. -1.
         22    1    1    0    0    0  0.14026071521E+02  0.36153651472E+02 -0.28808477685E+01  0.38885941945E+02  0.00000000000E+00 0. -1.
</event>
<event>
 5    1  0.1102386E-009  0.9118800E+02  0.7818608E-02  0.1130116E+00
         25   -1    0    0    0    0  0.00000000000E+00  0.00000000000E+00  0.99999998245E-14  0.12500000000E+03  0.12500000000E+03 0.  0.
        -11    1    3    3    0    0  0.37273413778E+02 -0.54523251418E+01  0.99731149738E+01  0.38967913040E+02  0.51100000000E-03 0. -1.
         23    2    1    0    0    0  0.33972715317E+02 -0.23753305438E+02 -0.23565212299E+02  0.77316835927E+02  0.60862213087E+02 0.  0.
         11    1    3    3    0    0 -0.33006984606E+01 -0.18300980296E+02 -0.33538327273E+02  0.38348922888E+02  0.51100000000E-03 0.  1.
         22    1    1    0    0    0 -0.33972715317E+02  0.23753305438E+02  0.23565212299E+02  0.47683164073E+02  0.00000000000E+00 0. -1.
</event>
<event>
 5    1  0.1102386E-009  0.9118800E+02  0.7818608E-02  0.1130116E+00
         25   -1    0    0    0    0  0.00000000000E+00  0.00000000000E+00  0.99999998245E-14  0.12500000000E+03  0.12500000000E+03 0.  0.
        -11    1    3    3    0    0  0.18092206436E+02 -0.32205134529E+02  0.22641951301E+01  0.37008447733E+02  0.51100000000E-03 0.  1.
         23    2    1    0    0    0 -0.24630310944E+01  0.25658416285E+02 -0.46672275187E+01  0.98804506854E+02  0.95268707945E+02 0.  0.
         11    1    3    3    0    0 -0.20555237531E+02  0.57863550814E+02 -0.69314226488E+01  0.61796059121E+02  0.51100000000E-03 0. -1.
         22    1    1    0    0    0  0.24630310944E+01 -0.25658416285E+02  0.46672275187E+01  0.26195493146E+02  0.00000000000E+00 0. -1.
</event>
<event>
 5    1  0.1102386E-009  0.9118800E+02  0.7818608E-02  0.1130116E+00
         25   -1    0    0    0    0  0.00000000000E+00  0.00000000000E+00  0.99999998245E-14  0.12500000000E+03  0.12500000000E+03 0.  0.
        -11    1    3    3    0    0  0.34426897423E+02 -0.29869780462E+02 -0.29559993811E+02  0.54325024486E+02  0.51100000000E-03 0. -1.
         23    2    1    0    0    0  0.23320082993E+02  0.70357723886E+01 -0.18474295489E+02  0.94428314444E+02  0.89342479320E+02 0.  0.
         11    1    3    3    0    0 -0.11106814430E+02  0.36905552850E+02  0.11085698322E+02  0.40103289959E+02  0.51100000000E-03 0.  1.
         22    1    1    0    0    0 -0.23320082993E+02 -0.70357723886E+01  0.18474295489E+02  0.30571685556E+02  0.00000000000E+00 0. -1.
</event>
<event>
 5    1  0.1102386E-009  0.9118800E+02  0.7818608E-02  0.1130116E+00
         25   -1    0    0    0    0  0.00000000000E+00  0.00000000000E+00  0.99999998245E-14  0.12500000000E+03  0.12500000000E+03 0.  0.
        -11    1    3    3    0    0  0.23478656348E+02 -0.50984258709E+01 -0.23805333866E+02  0.33822110682E+02  0.51100000000E-03 0.  1.
         23    2    1    0    0    0 -0.28668455772E+02 -0.48384933983E+00  0.81957275814E+01  0.95179127828E+02  0.90386846150E+02 0.  0.
         11    1    3    3    0    0 -0.52147112120E+02  0.46145765310E+01  0.32001061448E+02  0.61357017146E+02  0.51100000000E-03 0. -1.
         22    1    1    0    0    0  0.28668455772E+02  0.48384933983E+00 -0.81957275814E+01  0.29820872172E+02  0.00000000000E+00 0. -1.
</event>
<event>
 5    1  0.1102386E-009  0.9118800E+02  0.7818608E-02  0.1130116E+00
         25   -1    0    0    0    0  0.00000000000E+00  0.00000000000E+00  0.99999998245E-14  0.12500000000E+03  0.12500000000E+03 0.  0.
        -11    1    3    3    0    0 -0.41042129309E+02 -0.54480498399E+01 -0.36438396107E+02  0.55153371034E+02  0.51100000000E-03 0.  1.
         23    2    1    0    0    0 -0.17174057564E+02 -0.20506106400E+02 -0.43254431442E+01  0.97904647792E+02  0.94080614092E+02 0.  0.
         11    1    3    3    0    0  0.23868071745E+02 -0.15058056560E+02  0.32112952963E+02  0.42751276758E+02  0.51100000000E-03 0. -1.
         22    1    1    0    0    0  0.17174057564E+02  0.20506106400E+02  0.43254431442E+01  0.27095352208E+02  0.00000000000E+00 0.  1.
</event>
<event>
 5    1  0.1102386E-009  0.9118800E+02  0.7818608E-02  0.1130116E+00
         25   -1    0    0    0    0  0.00000000000E+00  0.00000000000E+00  0.99999998245E-14  0.12500000000E+03  0.12500000000E+03 0.  0.
        -11    1    3    3    0    0 -0.96072897802E+01 -0.37314785803E+02 -0.15737294943E+02  0.41621577443E+02  0.51100000000E-03 0.  1.
         23    2    1    0    0    0 -0.27048288010E+02  0.96506579681E+01  0.50116964257E+01  0.95847604137E+02  0.91306631929E+02 0.  0.
         11    1    3    3    0    0 -0.17440998230E+02  0.46965443772E+02  0.20748991369E+02  0.54226026694E+02  0.51100000000E-03 0. -1.
         22    1    1    0    0    0  0.27048288010E+02 -0.96506579681E+01 -0.50116964257E+01  0.29152395863E+02  0.00000000000E+00 0. -1.
</event>
<event>
 5    1  0.1102386E-009  0.9118800E+02  0.7818608E-02  0.1130116E+00
         25   -1    0    0    0    0  0.00000000000E+00  0.00000000000E+00  0.99999998245E-14  0.12500000000E+03  0.12500000000E+03 0.  0.
        -11    1    3    3    0    0  0.49717729257E+02  0.93148656145E+00 -0.10449139754E+02  0.50812447211E+02  0.51100000000E-03 0. -1.
         23    2    1    0    0    0  0.13840354251E+02 -0.25408708947E+02 -0.36541500813E+01  0.95836483254E+02  0.91291406022E+02 0.  0.
         11    1    3    3    0    0 -0.35877375005E+02 -0.26340195509E+02  0.67949896727E+01  0.45024036043E+02  0.51100000000E-03 0.  1.
         22    1    1    0    0    0 -0.13840354251E+02  0.25408708947E+02  0.36541500813E+01  0.29163516746E+02  0.00000000000E+00 0. -1.
</event>
<event>
 5    1  0.1102386E-009  0.9118800E+02  0.7818608E-02  0.1130116E+00
         25   -1    0    0    0    0  0.00000000000E+00  0.00000000000E+00  0.99999998245E-14  0.12500000000E+03  0.12500000000E+03 0.  0.
        -11    1    3    3    0    0 -0.39862081632E+02  0.78373217596E+01  0.19183337845E+02  0.44926713830E+02  0.51100000000E-03 0.  1.
         23    2    1    0    0    0 -0.16674771067E+02  0.67865546477E+01 -0.24620138852E+02  0.94499892604E+02  0.89442569009E+02 0.  0.
         11    1    3    3    0    0  0.23187310566E+02 -0.10507671119E+01 -0.43803476696E+02  0.49573178774E+02  0.51100000000E-03 0. -1.
         22    1    1    0    0    0  0.16674771067E+02 -0.67865546477E+01  0.24620138852E+02  0.30500107396E+02  0.00000000000E+00 0.  1.
</event>
<event>
 5    1  0.1102386E-009  0.9118800E+02  0.7818608E-02  0.1130116E+00
         25   -1    0    0    0    0  0.00000000000E+00  0.00000000000E+00  0.99999998245E-14  0.12500000000E+03  0.12500000000E+03 0.  0.
        -11    1    3    3    0    0  0.22068250587E+02  0.29174332891E+02  0.48553369743E+02  0.60791274845E+02  0.51100000000E-03 0. -1.
         23    2    1    0    0    0  0.18828884550E+02  0.80629345905E+01  0.20848442121E+02  0.95773379489E+02  0.91204960788E+02 0.  0.
         11    1    3    3    0    0 -0.32393660376E+01 -0.21111398300E+02 -0.27704927622E+02  0.34982104644E+02  0.51100000000E-03 0.  1.
         22    1    1    0    0    0 -0.18828884550E+02 -0.80629345905E+01 -0.20848442121E+02  0.29226620511E+02  0.00000000000E+00 0. -1.
</event>
<event>
 5    1  0.1102386E-009  0.9118800E+02  0.7818608E-02  0.1130116E+00
         25   -1    0    0    0    0  0.00000000000E+00  0.00000000000E+00  0.99999998245E-14  0.12500000000E+03  0.12500000000E+03 0.  0.
        -11    1    3    3    0    0  0.14631139497E+02 -0.49709785576E+01  0.10389806599E+00  0.15452885357E+02  0.51100000000E-03 0. -1.
         23    2    1    0    0    0 -0.13889947721E+02  0.47583430025E+02  0.31978369165E+01  0.75327677510E+02  0.56629668704E+02 0.  0.
         11    1    3    3    0    0 -0.28521087217E+02  0.52554408582E+02  0.30939388505E+01  0.59874792153E+02  0.51100000000E-03 0.  1.
         22    1    1    0    0    0  0.13889947721E+02 -0.47583430025E+02 -0.31978369165E+01  0.49672322490E+02  0.00000000000E+00 0.  1.
</event>
<event>
 5    1  0.1102386E-009  0.9118800E+02  0.7818608E-02  0.1130116E+00
         25   -1    0    0    0    0  0.00000000000E+00  0.00000000000E+00  0.99999998245E-14  0.12500000000E+03  0.12500000000E+03 0.  0.
        -11    1    3    3    0    0  0.15663092778E+02 -0.44840429153E+01 -0.48640689611E+02  0.51296742610E+02  0.51100000000E-03 0. -1.
         23    2    1    0    0    0  0.31941248779E+02 -0.10981871292E+02 -0.17675491733E+02  0.86878249271E+02  0.78067677805E+02 0.  0.
         11    1    3    3    0    0  0.16278156000E+02 -0.64978283766E+01  0.30965197879E+02  0.35581506662E+02  0.51100000000E-03 0.  1.
         22    1    1    0    0    0 -0.31941248779E+02  0.10981871292E+02  0.17675491733E+02  0.38121750729E+02  0.00000000000E+00 0. -1.
</event>
<event>
 5    1  0.1102386E-009  0.9118800E+02  0.7818608E-02  0.1130116E+00
         25   -1    0    0    0    0  0.00000000000E+00  0.00000000000E+00  0.99999998245E-14  0.12500000000E+03  0.12500000000E+03 0.  0.
        -11    1    3    3    0    0  0.50309863735E+02 -0.33061702963E+02 -0.14608640677E+01  0.60218707359E+02  0.51100000000E-03 0.  1.
         23    2    1    0    0    0  0.24032253695E+02 -0.12159939961E+02  0.10824940099E+02  0.95972552891E+02  0.91477528513E+02 0.  0.
         11    1    3    3    0    0 -0.26277610041E+02  0.20901763003E+02  0.12285804167E+02  0.35753845532E+02  0.51100000000E-03 0. -1.
         22    1    1    0    0    0 -0.24032253695E+02  0.12159939961E+02 -0.10824940099E+02  0.29027447109E+02  0.00000000000E+00 0.  1.
</event>
<event>
 5    1  0.1102386E-009  0.9118800E+02  0.7818608E-02  0.1130116E+00
         25   -1    0    0    0    0  0.00000000000E+00  0.00000000000E+00  0.99999998245E-14  0.12500000000E+03  0.12500000000E+03 0.  0.
        -11    1    3    3    0    0  0.34838104831E+02  0.48440299510E+01  0.12121257738E+02  0.37203266843E+02  0.51100000000E-03 0. -1.
         23    2    1    0    0    0 -0.19683997516E+02  0.21767376798E+02 -0.40553968407E+00  0.95649652246E+02  0.91035229782E+02 0.  0.
         11    1    3    3    0    0 -0.54522102346E+02  0.16923346847E+02 -0.12526797422E+02  0.58446385403E+02  0.51100000000E-03 0.  1.
         22    1    1    0    0    0  0.19683997516E+02 -0.21767376798E+02  0.40553968407E+00  0.29350347754E+02  0.00000000000E+00 0.  1.
</event>
<event>
 5    1  0.1102386E-009  0.9118800E+02  0.7818608E-02  0.1130116E+00
         25   -1    0    0    0    0  0.00000000000E+00  0.00000000000E+00  0.99999998245E-14  0.12500000000E+03  0.12500000000E+03 0.  0.
        -11    1    3    3    0    0 -0.21295761943E+02  0.36617013252E+02 -0.36707278905E+02  0.56051221763E+02  0.51100000000E-03 0.  1.
         23    2    1    0    0    0 -0.26177404089E+02  0.14316404030E+02 -0.55900254578E+01  0.94644369653E+02  0.89644254770E+02 0.  0.
         11    1    3    3    0    0 -0.48816421458E+01 -0.22300609222E+02  0.31117253447E+02  0.38593147890E+02  0.51100000000E-03 0. -1.
         22    1    1    0    0    0  0.26177404089E+02 -0.14316404030E+02  0.55900254578E+01  0.30355630347E+02  0.00000000000E+00 0.  1.
</event>
<event>
 5    1  0.1102386E-009  0.9118800E+02  0.7818608E-02  0.1130116E+00
         25   -1    0    0    0    0  0.00000000000E+00  0.00000000000E+00  0.99999998245E-14  0.12500000000E+03  0.12500000000E+03 0.  0.
        -11    1    3    3    0    0  0.29978714164E+02 -0.13225346703E+01  0.40629694134E+02  0.50509845046E+02  0.51100000000E-03 0.  1.
         23    2    1    0    0    0 -0.90553983258E+01  0.14216429053E+02  0.23950509403E+02  0.95712903959E+02  0.91122038990E+02 0.  0.
         11    1    3    3    0    0 -0.39034112490E+02  0.15538963724E+02 -0.16679184732E+02  0.45203058913E+02  0.51100000000E-03 0. -1.
         22    1    1    0    0    0  0.90553983258E+01 -0.14216429053E+02 -0.23950509403E+02  0.29287096041E+02  0.00000000000E+00 0.  1.
</event>
<event>
 5    1  0.1102386E-009  0.9118800E+02  0.7818608E-02  0.1130116E+00
         25   -1    0    0    0    0  0.00000000000E+00  0.00000000000E+00  0.99999998245E-14  0.12500000000E+03  0.12500000000E+03 0.  0.
        -11    1    3    3    0    0 -0.37236319423E+02 -0.18961400594E+02  0.38440992915E+01  0.41962546351E+02  0.51100000000E-03 0.  1.
         23    2    1    0    0    0 -0.69428002551E+01  0.19026463168E+02 -0.20391571876E+02  0.96259349701E+02  0.91868587804E+02 0.  0.
         11    1    3    3    0    0  0.30293519168E+02  0.37987863762E+02 -0.24235671167E+02  0.54296803349E+02  0.51100000000E-03 0. -1.
         22    1    1    0    0    0  0.69428002551E+01 -0.19026463168E+02  0.20391571876E+02  0.28740650299E+02  0.00000000000E+00 0. -1.
</event>
<event>
 5    1  0.1102386E-009  0.9118800E+02  0.7818608E-02  0.1130116E+00
         25   -1    0    0    0    0  0.00000000000E+00  0.00000000000E+00  0.99999998245E-14  0.12500000000E+03  0.12500000000E+03 0.  0.
        -11    1    3    3    0    0 -0.40364174115E+00  0.60452884341E+01  0.35998747825E+02  0.36505044639E+02  0.51100000000E-03 0. -1.
         23    2    1    0    0    0 -0.12839596705E+02 -0.22202665299E+02 -0.14387046292E+02  0.95592506211E+02  0.90956729013E+02 0.  0.
         11    1    3    3    0    0 -0.12435954964E+02 -0.28247953734E+02 -0.50385794116E+02  0.59087461572E+02  0.51100000000E-03 0.  1.
         22    1    1    0    0    0  0.12839596705E+02  0.22202665299E+02  0.14387046292E+02  0.29407493789E+02  0.00000000000E+00 0.  1.
</event>
<event>
 5    1  0.1102386E-009  0.9118800E+02  0.7818608E-02  0.1130116E+00
         25   -1    0    0    0    0  0.00000000000E+00  0.00000000000E+00  0.99999998245E-14  0.12500000000E+03  0.12500000000E+03 0.  0.
        -11    1    3    3    0    0  0.25913210499E+02 -0.43365107853E+02 -0.29172799032E+02  0.58335917419E+02  0.51100000000E-03 0.  1.
         23    2    1    0    0    0 -0.53616976581E+00 -0.26470519174E+02 -0.47552256265E+01  0.98100408291E+02  0.94340352304E+02 0.  0.
         11    1    3    3    0    0 -0.26449380265E+02  0.16894588679E+02  0.24417573406E+02  0.39764490872E+02  0.51100000000E-03 0. -1.
         22    1    1    0    0    0  0.53616976581E+00  0.26470519174E+02  0.47552256265E+01  0.26899591709E+02  0.00000000000E+00 0.  1.
</event>
<event>
 5    1  0.1102386E-009  0.9118800E+02  0.7818608E-02  0.1130116E+00
         25   -1    0    0    0    0  0.00000000000E+00  0.00000000000E+00  0.99999998245E-14  0.12500000000E+03  0.12500000000E+03 0.  0.
        -11    1    3    3    0    0  0.26062323270E+02  0.29807943105E+02  0.99620619310E+01  0.40828921668E+02  0.51100000000E-03 0.  1.
         23    2    1    0    0    0  0.14447507906E+02 -0.23650690818E+02 -0.32161657939E+01  0.97099652631E+02  0.93004909321E+02 0.  0.
         11    1    3    3    0    0 -0.11614815364E+02 -0.53458633924E+02 -0.13178227725E+02  0.56270730964E+02  0.51100000000E-03 0. -1.
         22    1    1    0    0    0 -0.14447507906E+02  0.23650690818E+02  0.32161657939E+01  0.27900347369E+02  0.00000000000E+00 0. -1.
</event>
<event>
 5    1  0.1102386E-009  0.9118800E+02  0.7818608E-02  0.1130116E+00
         25   -1    0    0    0    0  0.00000000000E+00  0.00000000000E+00  0.99999998245E-14  0.12500000000E+03  0.12500000000E+03 0.  0.
        -11    1    3    3    0    0 -0.14130277216E+02 -0.36798513756E+01 -0.35432022812E+02  0.38322764529E+02  0.51100000000E-03 0.  1.
         23    2    1    0    0    0  0.12351213782E+02  0.22949112864E+02  0.98387513809E+01  0.97142948974E+02  0.93063082065E+02 0.  0.
         11    1    3    3    0    0  0.26481490997E+02  0.26628964240E+02  0.45270774192E+02  0.58820184445E+02  0.51100000000E-03 0. -1.
         22    1    1    0    0    0 -0.12351213782E+02 -0.22949112864E+02 -0.98387513809E+01  0.27857051026E+02  0.00000000000E+00 0. -1.
</event>
<event>
 5    1  0.1102386E-009  0.9118800E+02  0.7818608E-02  0.1130116E+00
         25   -1    0    0    0    0  0.00000000000E+00  0.00000000000E+00  0.99999998245E-14  0.12500000000E+03  0.12500000000E+03 0.  0.
        -11    1    3    3    0    0 -0.34514631994E+02 -0.78496159944E+01  0.15412657324E+02  0.38606039669E+02  0.51100000000E-03 0.  1.
         23    2    1    0    0    0  0.19274186186E+02 -0.67041929131E+01  0.24441441577E+02  0.93159388792E+02  0.87549113063E+02 0.  0.
         11    1    3    3    0    0  0.53788818179E+02  0.11454230813E+01  0.90287842531E+01  0.54553349123E+02  0.51100000000E-03 0. -1.
         22    1    1    0    0    0 -0.19274186186E+02  0.67041929131E+01 -0.24441441577E+02  0.31840611208E+02  0.00000000000E+00 0. -1.
</event>
<event>
 5    1  0.1102386E-009  0.9118800E+02  0.7818608E-02  0.1130116E+00
         25   -1    0    0    0    0  0.00000000000E+00  0.00000000000E+00  0.99999998245E-14  0.12500000000E+03  0.12500000000E+03 0.  0.
        -11    1    3    3    0    0 -0.16283249416E+02 -0.25326769993E+02  0.24524238066E+02  0.38833332883E+02  0.51100000000E-03 0. -1.
         23    2    1    0    0    0  0.29304949382E+02 -0.88102761353E+01 -0.24184192918E+01  0.94303912696E+02  0.89168257660E+02 0.  0.
         11    1    3    3    0    0  0.45588198799E+02  0.16516493857E+02 -0.26942657358E+02  0.55470579813E+02  0.51100000000E-03 0.  1.
         22    1    1    0    0    0 -0.29304949382E+02  0.88102761353E+01  0.24184192918E+01  0.30696087304E+02  0.00000000000E+00 0. -1.
</event>
<event>
 5    1  0.1102386E-009  0.9118800E+02  0.7818608E-02  0.1130116E+00
         25   -1    0    0    0    0  0.00000000000E+00  0.00000000000E+00  0.99999998245E-14  0.12500000000E+03  0.12500000000E+03 0.  0.
        -11    1    3    3    0    0  0.34629167879E+02 -0.11824274954E+02  0.55046217564E+01  0.37003967451E+02  0.51100000000E-03 0.  1.
         23    2    1    0    0    0 -0.12414897359E+02  0.35332764800E+01 -0.26211599633E+02  0.95782510812E+02  0.91217474768E+02 0.  0.
         11    1    3    3    0    0 -0.47044065238E+02  0.15357551434E+02 -0.31716221389E+02  0.58778543361E+02  0.51100000000E-03 0. -1.
         22    1    1    0    0    0  0.12414897359E+02 -0.35332764800E+01  0.26211599633E+02  0.29217489188E+02  0.00000000000E+00 0. -1.
</event>
<event>
 5    1  0.1102386E-009  0.9118800E+02  0.7818608E-02  0.1130116E+00
         25   -1    0    0    0    0  0.00000000000E+00  0.00000000000E+00  0.99999998245E-14  0.12500000000E+03  0.12500000000E+03 0.  0.
        -11    1    3    3    0    0  0.37376118806E+02 -0.55837541221E+01  0.37967727355E+02  0.53569589208E+02  0.51100000000E-03 0.  1.
         23    2    1    0    0    0  0.14949982230E+02  0.20542388358E+02  0.10956177843E+02  0.97331795847E+02  0.93316391709E+02 0.  0.
         11    1    3    3    0    0 -0.22426136575E+02  0.26126142480E+02 -0.27011549512E+02  0.43762206639E+02  0.51100000000E-03 0. -1.
         22    1    1    0    0    0 -0.14949982230E+02 -0.20542388358E+02 -0.10956177843E+02  0.27668204153E+02  0.00000000000E+00 0.  1.
</event>
<event>
 5    1  0.1102386E-009  0.9118800E+02  0.7818608E-02  0.1130116E+00
         25   -1    0    0    0    0  0.00000000000E+00  0.00000000000E+00  0.99999998245E-14  0.12500000000E+03  0.12500000000E+03 0.  0.
        -11    1    3    3    0    0 -0.18077537709E+01  0.35397318347E+01  0.61905422206E+02  0.62032886229E+02  0.51100000000E-03 0.  1.
         23    2    1    0    0    0 -0.25656736375E+01  0.65804593403E+01  0.26560686268E+02  0.97516274245E+02  0.93563179517E+02 0.  0.
         11    1    3    3    0    0 -0.75791986667E+00  0.30407275055E+01 -0.35344735938E+02  0.35483388016E+02  0.51100000000E-03 0. -1.
         22    1    1    0    0    0  0.25656736375E+01 -0.65804593403E+01 -0.26560686268E+02  0.27483725755E+02  0.00000000000E+00 0.  1.
</event>
<event>
 5    1  0.1102386E-009  0.9118800E+02  0.7818608E-02  0.1130116E+00
         25   -1    0    0    0    0  0.00000000000E+00  0.00000000000E+00  0.99999998245E-14  0.12500000000E+03  0.12500000000E+03 0.  0.
        -11    1    3    3    0    0 -0.42351154490E+02 -0.59673948875E+01  0.16258012924E+02  0.45755361138E+02  0.51100000000E-03 0.  1.
         23    2    1    0    0    0  0.24926207711E+01 -0.27554108612E+02  0.36749919689E+01  0.97090366794E+02  0.92992428178E+02 0.  0.
         11    1    3    3    0    0  0.44843775261E+02 -0.21586713725E+02 -0.12583020955E+02  0.51335005656E+02  0.51100000000E-03 0. -1.
         22    1    1    0    0    0 -0.24926207711E+01  0.27554108612E+02 -0.36749919689E+01  0.27909633206E+02  0.00000000000E+00 0. -1.
</event>
<event>
 5    1  0.1102386E-009  0.9118800E+02  0.7818608E-02  0.1130116E+00
         25   -1    0    0    0    0  0.00000000000E+00  0.00000000000E+00  0.99999998245E-14  0.12500000000E+03  0.12500000000E+03 0.  0.
        -11    1    3    3    0    0  0.27605974468E+02 -0.16858291028E+02  0.18551952980E+02  0.37288963009E+02  0.51100000000E-03 0.  1.
         23    2    1    0    0    0 -0.10544543040E+02 -0.17589222226E+02 -0.23324091939E+02  0.93942289344E+02  0.88659868802E+02 0.  0.
         11    1    3    3    0    0 -0.38150517507E+02 -0.73093119772E+00 -0.41876044919E+02  0.56653326335E+02  0.51100000000E-03 0. -1.
         22    1    1    0    0    0  0.10544543040E+02  0.17589222226E+02  0.23324091939E+02  0.31057710656E+02  0.00000000000E+00 0. -1.
</event>
<event>
 5    1  0.1102386E-009  0.9118800E+02  0.7818608E-02  0.1130116E+00
         25   -1    0    0    0    0  0.00000000000E+00  0.00000000000E+00  0.99999998245E-14  0.12500000000E+03  0.12500000000E+03 0.  0.
        -11    1    3    3    0    0 -0.19975902398E+02  0.33113475652E+02  0.96307584830E+01  0.39853361910E+02  0.51100000000E-03 0.  1.
         23    2    1    0    0    0 -0.65683030821E+01 -0.24019121345E+02  0.89419196980E+01  0.98542133052E+02  0.94923828742E+02 0.  0.
         11    1    3    3    0    0  0.13407599316E+02 -0.57132596996E+02 -0.68883878500E+00  0.58688771142E+02  0.51100000000E-03 0. -1.
         22    1    1    0    0    0  0.65683030821E+01  0.24019121345E+02 -0.89419196980E+01  0.26457866948E+02  0.00000000000E+00 0. -1.
</event>
<event>
 5    1  0.1102386E-009  0.9118800E+02  0.7818608E-02  0.1130116E+00
         25   -1    0    0    0    0  0.00000000000E+00  0.00000000000E+00  0.99999998245E-14  0.12500000000E+03  0.12500000000E+03 0.  0.
        -11    1    3    3    0    0 -0.27879831482E+02 -0.20610005032E+02  0.44551669061E+02  0.56452710539E+02  0.51100000000E-03 0.  1.
         23    2    1    0    0    0 -0.50543228242E+00  0.37508278718E+01  0.28143977389E+02  0.96602682613E+02  0.92334558283E+02 0.  0.
         11    1    3    3    0    0  0.27374399199E+02  0.24360832904E+02 -0.16407691672E+02  0.40149972074E+02  0.51100000000E-03 0. -1.
         22    1    1    0    0    0  0.50543228242E+00 -0.37508278718E+01 -0.28143977389E+02  0.28397317387E+02  0.00000000000E+00 0.  1.
</event>
<event>
 5    1  0.1102386E-009  0.9118800E+02  0.7818608E-02  0.1130116E+00
         25   -1    0    0    0    0  0.00000000000E+00  0.00000000000E+00  0.99999998245E-14  0.12500000000E+03  0.12500000000E+03 0.  0.
        -11    1    3    3    0    0  0.48442869844E+02 -0.10446898207E+02  0.13967938550E+02  0.51487402619E+02  0.51100000000E-03 0.  1.
         23    2    1    0    0    0  0.23332590850E+02  0.14468296723E+02 -0.11663256818E+02  0.95170937570E+02  0.90375518768E+02 0.  0.
         11    1    3    3    0    0 -0.25110278994E+02  0.24915194930E+02 -0.25631195368E+02  0.43683534951E+02  0.51100000000E-03 0. -1.
         22    1    1    0    0    0 -0.23332590850E+02 -0.14468296723E+02  0.11663256818E+02  0.29829062430E+02  0.00000000000E+00 0.  1.
</event>
<event>
 5    1  0.1102386E-009  0.9118800E+02  0.7818608E-02  0.1130116E+00
         25   -1    0    0    0    0  0.00000000000E+00  0.00000000000E+00  0.99999998245E-14  0.12500000000E+03  0.12500000000E+03 0.  0.
        -11    1    3    3    0    0 -0.23812089141E+02 -0.24160313332E+02  0.31844078895E+02  0.46527214515E+02  0.51100000000E-03 0. -1.
         23    2    1    0    0    0 -0.28482200846E+02  0.75374279368E+01 -0.47405486707E+01  0.95158395040E+02  0.90358169304E+02 0.  0.
         11    1    3    3    0    0 -0.46701117049E+01  0.31697741269E+02 -0.36584627565E+02  0.48631180525E+02  0.51100000000E-03 0.  1.
         22    1    1    0    0    0  0.28482200846E+02 -0.75374279368E+01  0.47405486707E+01  0.29841604960E+02  0.00000000000E+00 0.  1.
</event>
<event>
 5    1  0.1102386E-009  0.9118800E+02  0.7818608E-02  0.1130116E+00
         25   -1    0    0    0    0  0.00000000000E+00  0.00000000000E+00  0.99999998245E-14  0.12500000000E+03  0.12500000000E+03 0.  0.
        -11    1    3    3    0    0  0.21295369058E+02  0.24430054888E+02  0.24070215371E+02  0.40369488397E+02  0.51100000000E-03 0.  1.
         23    2    1    0    0    0  0.82944846771E+00 -0.12214100788E+01 -0.25303381677E+02  0.99653581088E+02  0.96376321117E+02 0.  0.
         11    1    3    3    0    0 -0.20465920590E+02 -0.25651464967E+02 -0.49373597048E+02  0.59284092692E+02  0.51100000000E-03 0. -1.
         22    1    1    0    0    0 -0.82944846771E+00  0.12214100788E+01  0.25303381677E+02  0.25346418912E+02  0.00000000000E+00 0. -1.
</event>
<event>
 5    1  0.1102386E-009  0.9118800E+02  0.7818608E-02  0.1130116E+00
         25   -1    0    0    0    0  0.00000000000E+00  0.00000000000E+00  0.99999998245E-14  0.12500000000E+03  0.12500000000E+03 0.  0.
        -11    1    3    3    0    0  0.11352287169E+02 -0.27139824068E+02 -0.19212340831E+02  0.35136284876E+02  0.51100000000E-03 0.  1.
         23    2    1    0    0    0 -0.17528201217E+02  0.32058025121E+01  0.23859752208E+02  0.95220765908E+02  0.90444410978E+02 0.  0.
         11    1    3    3    0    0 -0.28880488385E+02  0.30345626580E+02  0.43072093040E+02  0.60084481033E+02  0.51100000000E-03 0. -1.
         22    1    1    0    0    0  0.17528201217E+02 -0.32058025121E+01 -0.23859752208E+02  0.29779234092E+02  0.00000000000E+00 0. -1.
</event>
<event>
 5    1  0.1102386E-009  0.9118800E+02  0.7818608E-02  0.1130116E+00
         25   -1    0    0    0    0  0.00000000000E+00  0.00000000000E+00  0.99999998245E-14  0.12500000000E+03  0.12500000000E+03 0.  0.
        -11    1    3    3    0    0 -0.41203897634E+02  0.25253645931E+02 -0.18665826352E+02  0.51806571848E+02  0.51100000000E-03 0.  1.
         23    2    1    0    0    0 -0.25779424935E+02 -0.49879321637E+01  0.10654114845E+02  0.96663303290E+02  0.92416588460E+02 0.  0.
         11    1    3    3    0    0  0.15424472698E+02 -0.30241578094E+02  0.29319941197E+02  0.44856731442E+02  0.51100000000E-03 0. -1.
         22    1    1    0    0    0  0.25779424935E+02  0.49879321637E+01 -0.10654114845E+02  0.28336696710E+02  0.00000000000E+00 0.  1.
</event>
<event>
 5    1  0.1102386E-009  0.9118800E+02  0.7818608E-02  0.1130116E+00
         25   -1    0    0    0    0  0.00000000000E+00  0.00000000000E+00  0.99999998245E-14  0.12500000000E+03  0.12500000000E+03 0.  0.
        -11    1    3    3    0    0 -0.42711040067E+02 -0.29232632609E+01 -0.12850044039E+02  0.44697897532E+02  0.51100000000E-03 0. -1.
         23    2    1    0    0    0 -0.12677554563E+01 -0.28937118600E+02 -0.12030645326E+02  0.93636000514E+02  0.88226980729E+02 0.  0.
         11    1    3    3    0    0  0.41443284611E+02 -0.26013855340E+02  0.81939871351E+00  0.48938102982E+02  0.51100000000E-03 0.  1.
         22    1    1    0    0    0  0.12677554563E+01  0.28937118600E+02  0.12030645326E+02  0.31363999486E+02  0.00000000000E+00 0.  1.
</event>
<event>
 5    1  0.1102386E-009  0.9118800E+02  0.7818608E-02  0.1130116E+00
         25   -1    0    0    0    0  0.00000000000E+00  0.00000000000E+00  0.99999998245E-14  0.12500000000E+03  0.12500000000E+03 0.  0.
        -11    1    3    3    0    0 -0.36155914792E+02  0.57501762998E+01  0.48845683691E+02  0.61042735173E+02  0.51100000000E-03 0.  1.
         23    2    1    0    0    0 -0.14419136390E+02 -0.16161250615E+01  0.33053608704E+02  0.88902016638E+02  0.81243486874E+02 0.  0.
         11    1    3    3    0    0  0.21736778402E+02 -0.73663013612E+01 -0.15792074987E+02  0.27859281464E+02  0.51100000000E-03 0. -1.
         22    1    1    0    0    0  0.14419136390E+02  0.16161250615E+01 -0.33053608704E+02  0.36097983362E+02  0.00000000000E+00 0.  1.
</event>
<event>
 5    1  0.1102386E-009  0.9118800E+02  0.7818608E-02  0.1130116E+00
         25   -1    0    0    0    0  0.00000000000E+00  0.00000000000E+00  0.99999998245E-14  0.12500000000E+03  0.12500000000E+03 0.  0.
        -11    1    3    3    0    0  0.26354874869E+02 -0.39167061048E+01 -0.24267326245E+02  0.36039188939E+02  0.51100000000E-03 0.  1.
         23    2    1    0    0    0 -0.24893136706E+02  0.16689912620E+02 -0.12572239243E+02  0.92499497882E+02  0.86601815631E+02 0.  0.
         11    1    3    3    0    0 -0.51248011575E+02  0.20606618724E+02  0.11695087002E+02  0.56460308943E+02  0.51100000000E-03 0. -1.
         22    1    1    0    0    0  0.24893136706E+02 -0.16689912620E+02  0.12572239243E+02  0.32500502118E+02  0.00000000000E+00 0.  1.
</event>
<event>
 5    1  0.1102386E-009  0.9118800E+02  0.7818608E-02  0.1130116E+00
         25   -1    0    0    0    0  0.00000000000E+00  0.00000000000E+00  0.99999998245E-14  0.12500000000E+03  0.12500000000E+03 0.  0.
        -11    1    3    3    0    0  0.33496889762E+02 -0.46554951428E+02 -0.69678244196E+01  0.57775043951E+02  0.51100000000E-03 0. -1.
         23    2    1    0    0    0  0.27893278443E+02 -0.11019574171E+02  0.22898294432E+01  0.94921613805E+02  0.90030014168E+02 0.  0.
         11    1    3    3    0    0 -0.56036113187E+01  0.35535377256E+02  0.92576538629E+01  0.37146569853E+02  0.51100000000E-03 0.  1.
         22    1    1    0    0    0 -0.27893278443E+02  0.11019574171E+02 -0.22898294432E+01  0.30078386195E+02  0.00000000000E+00 0. -1.
</event>
<event>
 5    1  0.1102386E-009  0.9118800E+02  0.7818608E-02  0.1130116E+00
         25   -1    0    0    0    0  0.00000000000E+00  0.00000000000E+00  0.99999998245E-14  0.12500000000E+03  0.12500000000E+03 0.  0.
        -11    1    3    3    0    0  0.33832413042E+02 -0.21598165455E+02 -0.39791825750E+01  0.40335428812E+02  0.51100000000E-03 0. -1.
         23    2    1    0    0    0  0.43490027538E+01  0.26728089513E+02 -0.70140371615E+01  0.97026775101E+02  0.92906909190E+02 0.  0.
         11    1    3    3    0    0 -0.29483410288E+02  0.48326254967E+02 -0.30348545865E+01  0.56691346289E+02  0.51100000000E-03 0.  1.
         22    1    1    0    0    0 -0.43490027538E+01 -0.26728089513E+02  0.70140371615E+01  0.27973224899E+02  0.00000000000E+00 0.  1.
</event>
<event>
 5    1  0.1102386E-009  0.9118800E+02  0.7818608E-02  0.1130116E+00
         25   -1    0    0    0    0  0.00000000000E+00  0.00000000000E+00  0.99999998245E-14  0.12500000000E+03  0.12500000000E+03 0.  0.
        -11    1    3    3    0    0  0.42416254151E+01  0.28497884494E+02  0.35856985200E+02  0.45998306433E+02  0.51100000000E-03 0.  1.
         23    2    1    0    0    0 -0.17481403069E+02 -0.13155674842E+02  0.19351378839E+02  0.95791318126E+02  0.91229543086E+02 0.  0.
         11    1    3    3    0    0 -0.21723028485E+02 -0.41653559336E+02 -0.16505606361E+02  0.49793011694E+02  0.51100000000E-03 0. -1.
         22    1    1    0    0    0  0.17481403069E+02  0.13155674842E+02 -0.19351378839E+02  0.29208681874E+02  0.00000000000E+00 0. -1.
</event>
<event>
 5    1  0.1102386E-009  0.9118800E+02  0.7818608E-02  0.1130116E+00
         25   -1    0    0    0    0  0.00000000000E+00  0.00000000000E+00  0.99999998245E-14  0.12500000000E+03  0.12500000000E+03 0.  0.
        -11    1    3    3    0    0 -0.14524519836E+02 -0.81679365770E+01  0.56252536068E+02  0.58668770899E+02  0.51100000000E-03 0. -1.
         23    2    1    0    0    0 -0.20869170634E+02 -0.63107393649E+01  0.20346232795E+02  0.95178583145E+02  0.90386092881E+02 0.  0.
         11    1    3    3    0    0 -0.63446507979E+01  0.18571972121E+01 -0.35906303273E+02  0.36509812246E+02  0.51100000000E-03 0.  1.
         22    1    1    0    0    0  0.20869170634E+02  0.63107393649E+01 -0.20346232795E+02  0.29821416855E+02  0.00000000000E+00 0. -1.
</event>
<event>
 5    1  0.1102386E-009  0.9118800E+02  0.7818608E-02  0.1130116E+00
         25   -1    0    0    0    0  0.00000000000E+00  0.00000000000E+00  0.99999998245E-14  0.12500000000E+03  0.12500000000E+03 0.  0.
        -11    1    3    3    0    0 -0.46282501719E+01  0.28209701690E+02  0.22588209246E+02  0.36433983673E+02  0.51100000000E-03 0.  1.
         23    2    1    0    0    0  0.84947942119E+01 -0.27303126666E+02  0.74678419387E+01  0.95446812056E+02  0.90756283606E+02 0.  0.
         11    1    3    3    0    0  0.13123044384E+02 -0.55512828356E+02 -0.15120367308E+02  0.59012828383E+02  0.51100000000E-03 0. -1.
         22    1    1    0    0    0 -0.84947942119E+01  0.27303126666E+02 -0.74678419387E+01  0.29553187944E+02  0.00000000000E+00 0. -1.
</event>
<event>
 5    1  0.1102386E-009  0.9118800E+02  0.7818608E-02  0.1130116E+00
         25   -1    0    0    0    0  0.00000000000E+00  0.00000000000E+00  0.99999998245E-14  0.12500000000E+03  0.12500000000E+03 0.  0.
        -11    1    3    3    0    0  0.38705936900E+01  0.51510784129E+02 -0.87400829436E+01  0.52390184455E+02  0.51100000000E-03 0. -1.
         23    2    1    0    0    0  0.24071244216E+02  0.15571958763E+02  0.51053791874E+01  0.95879979491E+02  0.91350943469E+02 0.  0.
         11    1    3    3    0    0  0.20200650526E+02 -0.35938825366E+02  0.13845462131E+02  0.43489795036E+02  0.51100000000E-03 0.  1.
         22    1    1    0    0    0 -0.24071244216E+02 -0.15571958763E+02 -0.51053791874E+01  0.29120020509E+02  0.00000000000E+00 0. -1.
</event>
<event>
 5    1  0.1102386E-009  0.9118800E+02  0.7818608E-02  0.1130116E+00
         25   -1    0    0    0    0  0.00000000000E+00  0.00000000000E+00  0.99999998245E-14  0.12500000000E+03  0.12500000000E+03 0.  0.
        -11    1    3    3    0    0 -0.19374849535E+02  0.29622504156E+02  0.22179669315E+02  0.41770986081E+02  0.51100000000E-03 0. -1.
         23    2    1    0    0    0  0.15065533118E+02 -0.11937475731E+02  0.22051671456E+02  0.95746797971E+02  0.91168522488E+02 0.  0.
         11    1    3    3    0    0  0.34440382653E+02 -0.41559979887E+02 -0.12799785844E+00  0.53975811890E+02  0.51100000000E-03 0.  1.
         22    1    1    0    0    0 -0.15065533118E+02  0.11937475731E+02 -0.22051671456E+02  0.29253202029E+02  0.00000000000E+00 0.  1.
</event>
<event>
 5    1  0.1102386E-009  0.9118800E+02  0.7818608E-02  0.1130116E+00
         25   -1    0    0    0    0  0.00000000000E+00  0.00000000000E+00  0.99999998245E-14  0.12500000000E+03  0.12500000000E+03 0.  0.
        -11    1    3    3    0    0  0.21988851242E+02 -0.21585971109E+02 -0.19158629868E+02  0.36283836985E+02  0.51100000000E-03 0.  1.
         23    2    1    0    0    0 -0.17638924557E+02  0.21029567611E+02 -0.12444263704E+02  0.94863077918E+02  0.89948704713E+02 0.  0.
         11    1    3    3    0    0 -0.39627775799E+02  0.42615538720E+02  0.67143661634E+01  0.58579240934E+02  0.51100000000E-03 0. -1.
         22    1    1    0    0    0  0.17638924557E+02 -0.21029567611E+02  0.12444263704E+02  0.30136922082E+02  0.00000000000E+00 0. -1.
</event>
<event>
 5    1  0.1102386E-009  0.9118800E+02  0.7818608E-02  0.1130116E+00
         25   -1    0    0    0    0  0.00000000000E+00  0.00000000000E+00  0.99999998245E-14  0.12500000000E+03  0.12500000000E+03 0.  0.
        -11    1    3    3    0    0  0.39121871939E+02  0.40734575966E+02 -0.17497584423E+02  0.59126914380E+02  0.51100000000E-03 0.  1.
         23    2    1    0    0    0  0.85129072532E+01  0.28110029380E+02 -0.23566737382E+01  0.95534812868E+02  0.90877407626E+02 0.  0.
         11    1    3    3    0    0 -0.30608964686E+02 -0.12624546587E+02  0.15140910685E+02  0.36407898488E+02  0.51100000000E-03 0. -1.
         22    1    1    0    0    0 -0.85129072532E+01 -0.28110029380E+02  0.23566737382E+01  0.29465187132E+02  0.00000000000E+00 0.  1.
</event>
<event>
 5    1  0.1102386E-009  0.9118800E+02  0.7818608E-02  0.1130116E+00
         25   -1    0    0    0    0  0.00000000000E+00  0.00000000000E+00  0.99999998245E-14  0.12500000000E+03  0.12500000000E+03 0.  0.
        -11    1    3    3    0    0  0.34644059619E+02  0.10237838709E+02 -0.10189661205E+02  0.37534696003E+02  0.51100000000E-03 0.  1.
         23    2    1    0    0    0  0.73704098983E+01  0.66682061745E+01 -0.43296567551E+02  0.80577250453E+02  0.67225832930E+02 0.  0.
         11    1    3    3    0    0 -0.27273649720E+02 -0.35696325345E+01 -0.33106906346E+02  0.43042554450E+02  0.51100000000E-03 0. -1.
         22    1    1    0    0    0 -0.73704098983E+01 -0.66682061745E+01  0.43296567551E+02  0.44422749547E+02  0.00000000000E+00 0. -1.
</event>
<event>
 5    1  0.1102386E-009  0.9118800E+02  0.7818608E-02  0.1130116E+00
         25   -1    0    0    0    0  0.00000000000E+00  0.00000000000E+00  0.99999998245E-14  0.12500000000E+03  0.12500000000E+03 0.  0.
        -11    1    3    3    0    0 -0.27724120244E+02  0.25585294996E+02 -0.23699446145E+02  0.44552193113E+02  0.51100000000E-03 0.  1.
         23    2    1    0    0    0 -0.26915793701E+02 -0.71025101280E+01  0.13485396522E+02  0.94068438125E+02  0.88837545729E+02 0.  0.
         11    1    3    3    0    0  0.80832654330E+00 -0.32687805124E+02  0.37184842667E+02  0.49516245012E+02  0.51100000000E-03 0. -1.
         22    1    1    0    0    0  0.26915793701E+02  0.71025101280E+01 -0.13485396522E+02  0.30931561875E+02  0.00000000000E+00 0.  1.
</event>
<event>
 5    1  0.1102386E-009  0.9118800E+02  0.7818608E-02  0.1130116E+00
         25   -1    0    0    0    0  0.00000000000E+00  0.00000000000E+00  0.99999998245E-14  0.12500000000E+03  0.12500000000E+03 0.  0.
        -11    1    3    3    0    0 -0.89423245862E+01 -0.14792297699E+02  0.31779277019E+02  0.36175954560E+02  0.51100000000E-03 0. -1.
         23    2    1    0    0    0  0.10219861795E+02  0.22793152301E+02 -0.12270290891E+02  0.97169559733E+02  0.93098818108E+02 0.  0.
         11    1    3    3    0    0  0.19162186381E+02  0.37585450000E+02 -0.44049567910E+02  0.60993605172E+02  0.51100000000E-03 0.  1.
         22    1    1    0    0    0 -0.10219861795E+02 -0.22793152301E+02  0.12270290891E+02  0.27830440267E+02  0.00000000000E+00 0.  1.
</event>
<event>
 5    1  0.1102386E-009  0.9118800E+02  0.7818608E-02  0.1130116E+00
         25   -1    0    0    0    0  0.00000000000E+00  0.00000000000E+00  0.99999998245E-14  0.12500000000E+03  0.12500000000E+03 0.  0.
        -11    1    3    3    0    0 -0.25206790015E+02 -0.15596645570E+02 -0.12827951085E+02  0.32298513049E+02  0.51100000000E-03 0.  1.
         23    2    1    0    0    0  0.27232891290E+02  0.10795367581E+02  0.80708712267E+01  0.94613995136E+02  0.89601890516E+02 0.  0.
         11    1    3    3    0    0  0.52439681305E+02  0.26392013151E+02  0.20898822312E+02  0.62315482087E+02  0.51100000000E-03 0. -1.
         22    1    1    0    0    0 -0.27232891290E+02 -0.10795367581E+02 -0.80708712267E+01  0.30386004864E+02  0.00000000000E+00 0. -1.
</event>
<event>
 5    1  0.1102386E-009  0.9118800E+02  0.7818608E-02  0.1130116E+00
         25   -1    0    0    0    0  0.00000000000E+00  0.00000000000E+00  0.99999998245E-14  0.12500000000E+03  0.12500000000E+03 0.  0.
        -11    1    3    3    0    0  0.93493893548E+01 -0.55780396951E+02 -0.15998135452E+02  0.58777581641E+02  0.51100000000E-03 0.  1.
         23    2    1    0    0    0 -0.10099387209E+02 -0.28929658133E+02 -0.11660124813E+02  0.92214618313E+02  0.86189643103E+02 0.  0.
         11    1    3    3    0    0 -0.19448776564E+02  0.26850738818E+02  0.43380106389E+01  0.33437036672E+02  0.51100000000E-03 0. -1.
         22    1    1    0    0    0  0.10099387209E+02  0.28929658133E+02  0.11660124813E+02  0.32785381687E+02  0.00000000000E+00 0.  1.
</event>
<event>
 5    1  0.1102386E-009  0.9118800E+02  0.7818608E-02  0.1130116E+00
         25   -1    0    0    0    0  0.00000000000E+00  0.00000000000E+00  0.99999998245E-14  0.12500000000E+03  0.12500000000E+03 0.  0.
        -11    1    3    3    0    0  0.13163963425E+01 -0.57887420193E+01 -0.32556909463E+02  0.33093727314E+02  0.51100000000E-03 0. -1.
         23    2    1    0    0    0 -0.65381630954E+01  0.18129865143E+02  0.23537641144E+02  0.94578623677E+02  0.89552531618E+02 0.  0.
         11    1    3    3    0    0 -0.78545594379E+01  0.23918607163E+02  0.56094550607E+02  0.61484896362E+02  0.51100000000E-03 0.  1.
         22    1    1    0    0    0  0.65381630954E+01 -0.18129865143E+02 -0.23537641144E+02  0.30421376323E+02  0.00000000000E+00 0.  1.
</event>
<event>
 5    1  0.1102386E-009  0.9118800E+02  0.7818608E-02  0.1130116E+00
         25   -1    0    0    0    0  0.00000000000E+00  0.00000000000E+00  0.99999998245E-14  0.12500000000E+03  0.12500000000E+03 0.  0.
        -11    1    3    3    0    0  0.32357262279E+02  0.34664208885E+02  0.47517077438E+01  0.47656883308E+02  0.51100000000E-03 0.  1.
         23    2    1    0    0    0 -0.34096187334E+01  0.12493394599E+02  0.26851948533E+02  0.95188298463E+02  0.90399527741E+02 0.  0.
         11    1    3    3    0    0 -0.35766881013E+02 -0.22170814286E+02  0.22100240789E+02  0.47531415155E+02  0.51100000000E-03 0. -1.
         22    1    1    0    0    0  0.34096187334E+01 -0.12493394599E+02 -0.26851948533E+02  0.29811701537E+02  0.00000000000E+00 0. -1.
</event>
<event>
 5    1  0.1102386E-009  0.9118800E+02  0.7818608E-02  0.1130116E+00
         25   -1    0    0    0    0  0.00000000000E+00  0.00000000000E+00  0.99999998245E-14  0.12500000000E+03  0.12500000000E+03 0.  0.
        -11    1    3    3    0    0  0.23265272301E+02  0.27906963099E+02 -0.49061397291E+02  0.61049915553E+02  0.51100000000E-03 0.  1.
         23    2    1    0    0    0  0.20471314185E+02  0.13655955614E+02 -0.20987464438E+02  0.92657558971E+02  0.86829659349E+02 0.  0.
         11    1    3    3    0    0 -0.27939581160E+01 -0.14251007485E+02  0.28073932853E+02  0.31607643417E+02  0.51100000000E-03 0. -1.
         22    1    1    0    0    0 -0.20471314185E+02 -0.13655955614E+02  0.20987464438E+02  0.32342441029E+02  0.00000000000E+00 0.  1.
</event>
<event>
 5    1  0.1102386E-009  0.9118800E+02  0.7818608E-02  0.1130116E+00
         25   -1    0    0    0    0  0.00000000000E+00  0.00000000000E+00  0.99999998245E-14  0.12500000000E+03  0.12500000000E+03 0.  0.
        -11    1    3    3    0    0  0.21548666256E+02  0.27183565319E+02 -0.51376716049E+02  0.61990791196E+02  0.51100000000E-03 0.  1.
         23    2    1    0    0    0  0.63992522936E+01  0.10291221920E+02 -0.27598296298E+02  0.94858240976E+02  0.89941982655E+02 0.  0.
         11    1    3    3    0    0 -0.15149413963E+02 -0.16892343399E+02  0.23778419751E+02  0.32867449780E+02  0.51100000000E-03 0. -1.
         22    1    1    0    0    0 -0.63992522936E+01 -0.10291221920E+02  0.27598296298E+02  0.30141759024E+02  0.00000000000E+00 0.  1.
</event>
<event>
 5    1  0.1102386E-009  0.9118800E+02  0.7818608E-02  0.1130116E+00
         25   -1    0    0    0    0  0.00000000000E+00  0.00000000000E+00  0.99999998245E-14  0.12500000000E+03  0.12500000000E+03 0.  0.
        -11    1    3    3    0    0  0.40111421147E+02 -0.33578744413E+02 -0.31204512853E+02  0.60911245312E+02  0.51100000000E-03 0. -1.
         23    2    1    0    0    0  0.16713521410E+02 -0.95134418393E+01 -0.22130339768E+02  0.95681075876E+02  0.91078367185E+02 0.  0.
         11    1    3    3    0    0 -0.23397899737E+02  0.24065302574E+02  0.90741730852E+01  0.34769830565E+02  0.51100000000E-03 0.  1.
         22    1    1    0    0    0 -0.16713521410E+02  0.95134418393E+01  0.22130339768E+02  0.29318924124E+02  0.00000000000E+00 0. -1.
</event>
<event>
 5    1  0.1102386E-009  0.9118800E+02  0.7818608E-02  0.1130116E+00
         25   -1    0    0    0    0  0.00000000000E+00  0.00000000000E+00  0.99999998245E-14  0.12500000000E+03  0.12500000000E+03 0.  0.
        -11    1    3    3    0    0 -0.12344111729E+02  0.22864220562E+02 -0.84064611448E+01  0.27309673479E+02  0.51100000000E-03 0.  1.
         23    2    1    0    0    0  0.35545976619E+01 -0.28058312596E+02  0.22407932194E+02  0.88916492750E+02  0.81265756549E+02 0.  0.
         11    1    3    3    0    0  0.15898709391E+02 -0.50922533158E+02  0.30814393338E+02  0.61606819271E+02  0.51100000000E-03 0. -1.
         22    1    1    0    0    0 -0.35545976619E+01  0.28058312596E+02 -0.22407932194E+02  0.36083507250E+02  0.00000000000E+00 0. -1.
</event>
<event>
 5    1  0.1102386E-009  0.9118800E+02  0.7818608E-02  0.1130116E+00
         25   -1    0    0    0    0  0.00000000000E+00  0.00000000000E+00  0.99999998245E-14  0.12500000000E+03  0.12500000000E+03 0.  0.
        -11    1    3    3    0    0 -0.13049873464E+02  0.51062107507E+02 -0.25973682025E+02  0.58756022489E+02  0.51100000000E-03 0. -1.
         23    2    1    0    0    0  0.55216825646E+01  0.28094765032E+02 -0.29298711352E+01  0.96218253259E+02  0.91812653348E+02 0.  0.
         11    1    3    3    0    0  0.18571556029E+02 -0.22967342475E+02  0.23043810890E+02  0.37462230770E+02  0.51100000000E-03 0.  1.
         22    1    1    0    0    0 -0.55216825646E+01 -0.28094765032E+02  0.29298711352E+01  0.28781746741E+02  0.00000000000E+00 0. -1.
</event>
<event>
 5    1  0.1102386E-009  0.9118800E+02  0.7818608E-02  0.1130116E+00
         25   -1    0    0    0    0  0.00000000000E+00  0.00000000000E+00  0.99999998245E-14  0.12500000000E+03  0.12500000000E+03 0.  0.
        -11    1    3    3    0    0 -0.43065886117E+02  0.55857301525E+01 -0.43048888560E+02  0.61147998617E+02  0.51100000000E-03 0. -1.
         23    2    1    0    0    0 -0.22628470714E+02 -0.48695141047E+01 -0.14894071934E+02  0.97475588412E+02  0.93508807623E+02 0.  0.
         11    1    3    3    0    0  0.20437415402E+02 -0.10455244257E+02  0.28154816626E+02  0.36327589795E+02  0.51100000000E-03 0.  1.
         22    1    1    0    0    0  0.22628470714E+02  0.48695141047E+01  0.14894071934E+02  0.27524411588E+02  0.00000000000E+00 0. -1.
</event>
<event>
 5    1  0.1102386E-009  0.9118800E+02  0.7818608E-02  0.1130116E+00
         25   -1    0    0    0    0  0.00000000000E+00  0.00000000000E+00  0.99999998245E-14  0.12500000000E+03  0.12500000000E+03 0.  0.
        -11    1    3    3    0    0 -0.20191082581E+02  0.15350468642E+02 -0.34704046065E+02  0.42984735859E+02  0.51100000000E-03 0. -1.
         23    2    1    0    0    0 -0.33052180209E+01  0.27175129985E+02  0.12808304479E+02  0.94776419479E+02  0.89828196408E+02 0.  0.
         11    1    3    3    0    0  0.16885864560E+02  0.11824661342E+02  0.47512350544E+02  0.51791683621E+02  0.51100000000E-03 0.  1.
         22    1    1    0    0    0  0.33052180209E+01 -0.27175129985E+02 -0.12808304479E+02  0.30223580521E+02  0.00000000000E+00 0.  1.
</event>
<event>
 5    1  0.1102386E-009  0.9118800E+02  0.7818608E-02  0.1130116E+00
         25   -1    0    0    0    0  0.00000000000E+00  0.00000000000E+00  0.99999998245E-14  0.12500000000E+03  0.12500000000E+03 0.  0.
        -11    1    3    3    0    0  0.27266583110E+02  0.20636834824E+02  0.11996410017E+02  0.36238920508E+02  0.51100000000E-03 0. -1.
         23    2    1    0    0    0 -0.57934329311E+01 -0.27223396411E+02  0.12687849787E+02  0.94411461142E+02  0.89318896575E+02 0.  0.
         11    1    3    3    0    0 -0.33060016042E+02 -0.47860231235E+02  0.69143977049E+00  0.58172540633E+02  0.51100000000E-03 0.  1.
         22    1    1    0    0    0  0.57934329311E+01  0.27223396411E+02 -0.12687849787E+02  0.30588538858E+02  0.00000000000E+00 0.  1.
</event>
<event>
 5    1  0.1102386E-009  0.9118800E+02  0.7818608E-02  0.1130116E+00
         25   -1    0    0    0    0  0.00000000000E+00  0.00000000000E+00  0.99999998245E-14  0.12500000000E+03  0.12500000000E+03 0.  0.
        -11    1    3    3    0    0  0.12684482362E+02  0.31204157895E+02 -0.20557728600E+02  0.39461573311E+02  0.51100000000E-03 0.  1.
         23    2    1    0    0    0 -0.21123589263E+02  0.32544781164E+02  0.98693977172E+01  0.84965342318E+02  0.74942214937E+02 0.  0.
         11    1    3    3    0    0 -0.33808071624E+02  0.13406232694E+01  0.30427126317E+02  0.45503769008E+02  0.51100000000E-03 0. -1.
         22    1    1    0    0    0  0.21123589263E+02 -0.32544781164E+02 -0.98693977172E+01  0.40034657682E+02  0.00000000000E+00 0. -1.
</event>
<event>
 5    1  0.1102386E-009  0.9118800E+02  0.7818608E-02  0.1130116E+00
         25   -1    0    0    0    0  0.00000000000E+00  0.00000000000E+00  0.99999998245E-14  0.12500000000E+03  0.12500000000E+03 0.  0.
        -11    1    3    3    0    0  0.40550217091E+02  0.27404070770E+01  0.40876224086E+02  0.57642828113E+02  0.51100000000E-03 0.  1.
         23    2    1    0    0    0  0.12379036920E+02  0.17413891223E+02  0.20565110772E+02  0.95345186839E+02  0.90616205557E+02 0.  0.
         11    1    3    3    0    0 -0.28171180171E+02  0.14673484146E+02 -0.20311113313E+02  0.37702358726E+02  0.51100000000E-03 0. -1.
         22    1    1    0    0    0 -0.12379036920E+02 -0.17413891223E+02 -0.20565110772E+02  0.29654813161E+02  0.00000000000E+00 0. -1.
</event>
<event>
 5    1  0.1102386E-009  0.9118800E+02  0.7818608E-02  0.1130116E+00
         25   -1    0    0    0    0  0.00000000000E+00  0.00000000000E+00  0.99999998245E-14  0.12500000000E+03  0.12500000000E+03 0.  0.
        -11    1    3    3    0    0 -0.16899004827E+02  0.52343170226E+02 -0.74119530025E+01  0.55500638564E+02  0.51100000000E-03 0. -1.
         23    2    1    0    0    0  0.10708697406E+02  0.24742229555E+02 -0.13227208986E+02  0.94969795521E+02  0.90096886074E+02 0.  0.
         11    1    3    3    0    0  0.27607702232E+02 -0.27600940671E+02 -0.58152559832E+01  0.39469156957E+02  0.51100000000E-03 0.  1.
         22    1    1    0    0    0 -0.10708697406E+02 -0.24742229555E+02  0.13227208986E+02  0.30030204479E+02  0.00000000000E+00 0. -1.
</event>
<event>
 5    1  0.1102386E-009  0.9118800E+02  0.7818608E-02  0.1130116E+00
         25   -1    0    0    0    0  0.00000000000E+00  0.00000000000E+00  0.99999998245E-14  0.12500000000E+03  0.12500000000E+03 0.  0.
        -11    1    3    3    0    0  0.52175016940E+01  0.13988037849E+02  0.35529507036E+02  0.38538725942E+02  0.51100000000E-03 0. -1.
         23    2    1    0    0    0 -0.25795407514E+02  0.25632748139E+01 -0.12003966114E+02  0.96433085062E+02  0.92104675590E+02 0.  0.
         11    1    3    3    0    0 -0.31012909208E+02 -0.11424763035E+02 -0.47533473150E+02  0.57894359120E+02  0.51100000000E-03 0.  1.
         22    1    1    0    0    0  0.25795407514E+02 -0.25632748139E+01  0.12003966114E+02  0.28566914938E+02  0.00000000000E+00 0.  1.
</event>
<event>
 5    1  0.1102386E-009  0.9118800E+02  0.7818608E-02  0.1130116E+00
         25   -1    0    0    0    0  0.00000000000E+00  0.00000000000E+00  0.99999998245E-14  0.12500000000E+03  0.12500000000E+03 0.  0.
        -11    1    3    3    0    0 -0.28034522303E+01 -0.21999204869E+02 -0.55497484339E+02  0.59764497216E+02  0.51100000000E-03 0.  1.
         23    2    1    0    0    0  0.11510928103E+02 -0.67391652630E+01 -0.22876402780E+02  0.98518919615E+02  0.94893255312E+02 0.  0.
         11    1    3    3    0    0  0.14314380333E+02  0.15260039606E+02  0.32621081559E+02  0.38754422399E+02  0.51100000000E-03 0. -1.
         22    1    1    0    0    0 -0.11510928103E+02  0.67391652630E+01  0.22876402780E+02  0.26481080385E+02  0.00000000000E+00 0.  1.
</event>
<event>
 4    1  0.1102386E-009  0.9118800E+02  0.7818608E-02  0.1130116E+00
         25   -1    0    0    0    0  0.00000000000E+00  0.00000000000E+00  0.99999998245E-14  0.12500000000E+03  0.12500000000E+03 0.  0.
        -11    1    1    0    0    0  0.18815586573E+02  0.28604084707E+02  0.29753530837E+02  0.45359591682E+02  0.51100000000E-03 0.  1.
         11    1    1    0    0    0 -0.19845292869E+02 -0.83139723539E+01  0.17802550446E+02  0.27926485421E+02  0.51100000000E-03 0. -1.
         22    1    1    0    0    0  0.10297062958E+01 -0.20290112353E+02 -0.47556081283E+02  0.51713922896E+02  0.00000000000E+00 0. -1.
</event>
<event>
 5    1  0.1102386E-009  0.9118800E+02  0.7818608E-02  0.1130116E+00
         25   -1    0    0    0    0  0.00000000000E+00  0.00000000000E+00  0.99999998245E-14  0.12500000000E+03  0.12500000000E+03 0.  0.
        -11    1    3    3    0    0  0.49110946172E+02 -0.30577311795E+02  0.58838101598E+01  0.58150462189E+02  0.51100000000E-03 0. -1.
         23    2    1    0    0    0  0.25091090861E+02  0.10584301646E+01 -0.51249846319E+01  0.99368991778E+02  0.96006499491E+02 0.  0.
         11    1    3    3    0    0 -0.24019855311E+02  0.31635741959E+02 -0.11008794792E+02  0.41218529589E+02  0.51100000000E-03 0.  1.
         22    1    1    0    0    0 -0.25091090861E+02 -0.10584301646E+01  0.51249846319E+01  0.25631008222E+02  0.00000000000E+00 0. -1.
</event>
<event>
 5    1  0.1102386E-009  0.9118800E+02  0.7818608E-02  0.1130116E+00
         25   -1    0    0    0    0  0.00000000000E+00  0.00000000000E+00  0.99999998245E-14  0.12500000000E+03  0.12500000000E+03 0.  0.
        -11    1    3    3    0    0  0.12744634759E+02  0.38859565756E+02  0.35404575578E+02  0.54092287232E+02  0.51100000000E-03 0.  1.
         23    2    1    0    0    0 -0.55319413020E+01  0.30074844941E+02  0.55103583971E+00  0.94415652479E+02  0.89324762075E+02 0.  0.
         11    1    3    3    0    0 -0.18276576061E+02 -0.87847208155E+01 -0.34853539738E+02  0.40323365247E+02  0.51100000000E-03 0. -1.
         22    1    1    0    0    0  0.55319413020E+01 -0.30074844941E+02 -0.55103583971E+00  0.30584347521E+02  0.00000000000E+00 0. -1.
</event>
<event>
 5    1  0.1102386E-009  0.9118800E+02  0.7818608E-02  0.1130116E+00
         25   -1    0    0    0    0  0.00000000000E+00  0.00000000000E+00  0.99999998245E-14  0.12500000000E+03  0.12500000000E+03 0.  0.
        -11    1    3    3    0    0 -0.15951520111E+02 -0.25246480264E+02  0.30569350326E+02  0.42735476354E+02  0.51100000000E-03 0.  1.
         23    2    1    0    0    0  0.23684944065E+02  0.60846471750E+01  0.17520033933E+02  0.94917594916E+02  0.90024434067E+02 0.  0.
         11    1    3    3    0    0  0.39636464176E+02  0.31331127439E+02 -0.13049316393E+02  0.52182118562E+02  0.51100000000E-03 0. -1.
         22    1    1    0    0    0 -0.23684944065E+02 -0.60846471750E+01 -0.17520033933E+02  0.30082405084E+02  0.00000000000E+00 0. -1.
</event>
<event>
 5    1  0.1102386E-009  0.9118800E+02  0.7818608E-02  0.1130116E+00
         25   -1    0    0    0    0  0.00000000000E+00  0.00000000000E+00  0.99999998245E-14  0.12500000000E+03  0.12500000000E+03 0.  0.
        -11    1    3    3    0    0 -0.13624347704E+02  0.19845841208E+02  0.23867714325E+02  0.33899086285E+02  0.51100000000E-03 0.  1.
         23    2    1    0    0    0  0.14823708563E+02  0.52393580392E+01 -0.26866758405E+02  0.93870979530E+02  0.88559273272E+02 0.  0.
         11    1    3    3    0    0  0.28448056267E+02 -0.14606483169E+02 -0.50734472730E+02  0.59971893245E+02  0.51100000000E-03 0. -1.
         22    1    1    0    0    0 -0.14823708563E+02 -0.52393580392E+01  0.26866758405E+02  0.31129020470E+02  0.00000000000E+00 0. -1.
</event>
<event>
 5    1  0.1102386E-009  0.9118800E+02  0.7818608E-02  0.1130116E+00
         25   -1    0    0    0    0  0.00000000000E+00  0.00000000000E+00  0.99999998245E-14  0.12500000000E+03  0.12500000000E+03 0.  0.
        -11    1    3    3    0    0  0.27415083258E+02 -0.22940825731E+02 -0.28139661419E+02  0.45494052582E+02  0.51100000000E-03 0. -1.
         23    2    1    0    0    0 -0.13811051467E+01  0.14523402660E+02 -0.28760937078E+02  0.92750532130E+02  0.86963400535E+02 0.  0.
         11    1    3    3    0    0 -0.28796188405E+02  0.37464228391E+02 -0.62127565944E+00  0.47256479548E+02  0.51100000000E-03 0.  1.
         22    1    1    0    0    0  0.13811051467E+01 -0.14523402660E+02  0.28760937078E+02  0.32249467870E+02  0.00000000000E+00 0. -1.
</event>
<event>
 5    1  0.1102386E-009  0.9118800E+02  0.7818608E-02  0.1130116E+00
         25   -1    0    0    0    0  0.00000000000E+00  0.00000000000E+00  0.99999998245E-14  0.12500000000E+03  0.12500000000E+03 0.  0.
        -11    1    3    3    0    0  0.45273988422E+02  0.16746719255E+02  0.16692929272E+02  0.51076810015E+02  0.51100000000E-03 0.  1.
         23    2    1    0    0    0  0.20649470008E+02 -0.19290582094E+02  0.85481202619E+01  0.95477169357E+02  0.90798085549E+02 0.  0.
         11    1    3    3    0    0 -0.24624518414E+02 -0.36037301349E+02 -0.81448090104E+01  0.44400359342E+02  0.51100000000E-03 0. -1.
         22    1    1    0    0    0 -0.20649470008E+02  0.19290582094E+02 -0.85481202619E+01  0.29522830643E+02  0.00000000000E+00 0.  1.
</event>
<event>
 5    1  0.1102386E-009  0.9118800E+02  0.7818608E-02  0.1130116E+00
         25   -1    0    0    0    0  0.00000000000E+00  0.00000000000E+00  0.99999998245E-14  0.12500000000E+03  0.12500000000E+03 0.  0.
        -11    1    3    3    0    0 -0.18297026073E+02  0.22356054484E+02 -0.33581709873E+02  0.44297918388E+02  0.51100000000E-03 0.  1.
         23    2    1    0    0    0 -0.29176075130E+02 -0.49197785967E+01  0.71967589745E+01  0.94549369117E+02  0.89511687948E+02 0.  0.
         11    1    3    3    0    0 -0.10879049057E+02 -0.27275833080E+02  0.40778468848E+02  0.50251450730E+02  0.51100000000E-03 0. -1.
         22    1    1    0    0    0  0.29176075130E+02  0.49197785967E+01 -0.71967589745E+01  0.30450630883E+02  0.00000000000E+00 0. -1.
</event>
<event>
 5    1  0.1102386E-009  0.9118800E+02  0.7818608E-02  0.1130116E+00
         25   -1    0    0    0    0  0.00000000000E+00  0.00000000000E+00  0.99999998245E-14  0.12500000000E+03  0.12500000000E+03 0.  0.
        -11    1    3    3    0    0  0.50261814734E+02 -0.21517461537E+02 -0.25986071342E+02  0.60535337411E+02  0.51100000000E-03 0. -1.
         23    2    1    0    0    0  0.17749104165E+02 -0.19571526803E+02 -0.11964631609E+02  0.95996073204E+02  0.91509662336E+02 0.  0.
         11    1    3    3    0    0 -0.32512710569E+02  0.19459347334E+01  0.14021439733E+02  0.35460735793E+02  0.51100000000E-03 0.  1.
         22    1    1    0    0    0 -0.17749104165E+02  0.19571526803E+02  0.11964631609E+02  0.29003926796E+02  0.00000000000E+00 0. -1.
</event>
<event>
 5    1  0.1102386E-009  0.9118800E+02  0.7818608E-02  0.1130116E+00
         25   -1    0    0    0    0  0.00000000000E+00  0.00000000000E+00  0.99999998245E-14  0.12500000000E+03  0.12500000000E+03 0.  0.
        -11    1    3    3    0    0 -0.10906338162E+02 -0.52539776421E+02  0.48095793056E+01  0.53874932686E+02  0.51100000000E-03 0.  1.
         23    2    1    0    0    0  0.13184680244E+01 -0.17458449832E+02 -0.19901630989E+02  0.98493194374E+02  0.94859362181E+02 0.  0.
         11    1    3    3    0    0  0.12224806186E+02  0.35081326589E+02 -0.24711210295E+02  0.44618261688E+02  0.51100000000E-03 0. -1.
         22    1    1    0    0    0 -0.13184680244E+01  0.17458449832E+02  0.19901630989E+02  0.26506805626E+02  0.00000000000E+00 0. -1.
</event>
<event>
 5    1  0.1102386E-009  0.9118800E+02  0.7818608E-02  0.1130116E+00
         25   -1    0    0    0    0  0.00000000000E+00  0.00000000000E+00  0.99999998245E-14  0.12500000000E+03  0.12500000000E+03 0.  0.
        -11    1    3    3    0    0 -0.21770095141E+02  0.16362030011E+02 -0.55719081280E+02  0.62018296393E+02  0.51100000000E-03 0.  1.
         23    2    1    0    0    0 -0.15053831585E+02  0.83173472450E+01 -0.23640726102E+02  0.95765088657E+02  0.91193597167E+02 0.  0.
         11    1    3    3    0    0  0.67162635556E+01 -0.80446827656E+01  0.32078355178E+02  0.33746792264E+02  0.51100000000E-03 0. -1.
         22    1    1    0    0    0  0.15053831585E+02 -0.83173472450E+01  0.23640726102E+02  0.29234911343E+02  0.00000000000E+00 0.  1.
</event>
<event>
 5    1  0.1102386E-009  0.9118800E+02  0.7818608E-02  0.1130116E+00
         25   -1    0    0    0    0  0.00000000000E+00  0.00000000000E+00  0.99999998245E-14  0.12500000000E+03  0.12500000000E+03 0.  0.
        -11    1    3    3    0    0 -0.98699161368E+00 -0.47377474593E+01  0.41980465314E+02  0.42258488752E+02  0.51100000000E-03 0. -1.
         23    2    1    0    0    0 -0.27484728765E+02 -0.10024863289E+02 -0.38810110197E+01  0.95487791581E+02  0.90812707785E+02 0.  0.
         11    1    3    3    0    0 -0.26497737151E+02 -0.52871158294E+01 -0.45861476333E+02  0.53229302829E+02  0.51100000000E-03 0.  1.
         22    1    1    0    0    0  0.27484728765E+02  0.10024863289E+02  0.38810110197E+01  0.29512208419E+02  0.00000000000E+00 0.  1.
</event>
<event>
 5    1  0.1102386E-009  0.9118800E+02  0.7818608E-02  0.1130116E+00
         25   -1    0    0    0    0  0.00000000000E+00  0.00000000000E+00  0.99999998245E-14  0.12500000000E+03  0.12500000000E+03 0.  0.
        -11    1    3    3    0    0 -0.16657585203E+02  0.58583891090E+02 -0.87096164885E+01  0.61525643919E+02  0.51100000000E-03 0.  1.
         23    2    1    0    0    0 -0.37351511861E+01  0.27323143557E+02 -0.10721729070E+02  0.95411809747E+02  0.90708061586E+02 0.  0.
         11    1    3    3    0    0  0.12922434017E+02 -0.31260747533E+02 -0.20121125817E+01  0.33886165828E+02  0.51100000000E-03 0. -1.
         22    1    1    0    0    0  0.37351511861E+01 -0.27323143557E+02  0.10721729070E+02  0.29588190253E+02  0.00000000000E+00 0.  1.
</event>
<event>
 5    1  0.1102386E-009  0.9118800E+02  0.7818608E-02  0.1130116E+00
         25   -1    0    0    0    0  0.00000000000E+00  0.00000000000E+00  0.99999998245E-14  0.12500000000E+03  0.12500000000E+03 0.  0.
        -11    1    3    3    0    0 -0.22034392009E+02  0.28242139405E+02  0.28899715662E+02  0.46025280390E+02  0.51100000000E-03 0. -1.
         23    2    1    0    0    0  0.21604362120E+02  0.18559106251E+02  0.77100218774E+01  0.95493503685E+02  0.90820569923E+02 0.  0.
         11    1    3    3    0    0  0.43638754129E+02 -0.96830331541E+01 -0.21189693784E+02  0.49468223295E+02  0.51100000000E-03 0.  1.
         22    1    1    0    0    0 -0.21604362120E+02 -0.18559106251E+02 -0.77100218774E+01  0.29506496315E+02  0.00000000000E+00 0.  1.
</event>
<event>
 5    1  0.1102386E-009  0.9118800E+02  0.7818608E-02  0.1130116E+00
         25   -1    0    0    0    0  0.00000000000E+00  0.00000000000E+00  0.99999998245E-14  0.12500000000E+03  0.12500000000E+03 0.  0.
        -11    1    3    3    0    0  0.15442481739E+02 -0.20152815075E+02 -0.53366865217E+02  0.59098464456E+02  0.51100000000E-03 0. -1.
         23    2    1    0    0    0 -0.49207030215E+01 -0.17225585530E+02 -0.21707302164E+02  0.96854998982E+02  0.92675507797E+02 0.  0.
         11    1    3    3    0    0 -0.20363184760E+02  0.29272295455E+01  0.31659563053E+02  0.37756534525E+02  0.51100000000E-03 0.  1.
         22    1    1    0    0    0  0.49207030215E+01  0.17225585530E+02  0.21707302164E+02  0.28145001018E+02  0.00000000000E+00 0. -1.
</event>
<event>
 5    1  0.1102386E-009  0.9118800E+02  0.7818608E-02  0.1130116E+00
         25   -1    0    0    0    0  0.00000000000E+00  0.00000000000E+00  0.99999998245E-14  0.12500000000E+03  0.12500000000E+03 0.  0.
        -11    1    3    3    0    0 -0.29002513783E+02  0.32091563527E+01 -0.53841203353E+02  0.61239853601E+02  0.51100000000E-03 0. -1.
         23    2    1    0    0    0 -0.49907606550E+01 -0.35815590032E+01 -0.24425144468E+02  0.99814231418E+02  0.96584459694E+02 0.  0.
         11    1    3    3    0    0  0.24011753128E+02 -0.67907153559E+01  0.29416058885E+02  0.38574377817E+02  0.51100000000E-03 0.  1.
         22    1    1    0    0    0  0.49907606550E+01  0.35815590032E+01  0.24425144468E+02  0.25185768582E+02  0.00000000000E+00 0. -1.
</event>
<event>
 5    1  0.1102386E-009  0.9118800E+02  0.7818608E-02  0.1130116E+00
         25   -1    0    0    0    0  0.00000000000E+00  0.00000000000E+00  0.99999998245E-14  0.12500000000E+03  0.12500000000E+03 0.  0.
        -11    1    3    3    0    0 -0.28254705990E+02 -0.14594756609E+02  0.12887881745E+02  0.34313741085E+02  0.51100000000E-03 0.  1.
         23    2    1    0    0    0  0.23930701707E+02  0.35482069384E+01 -0.15337697267E+02  0.96355398168E+02  0.91999182290E+02 0.  0.
         11    1    3    3    0    0  0.52185407697E+02  0.18142963547E+02 -0.28225579012E+02  0.62041657083E+02  0.51100000000E-03 0. -1.
         22    1    1    0    0    0 -0.23930701707E+02 -0.35482069384E+01  0.15337697267E+02  0.28644601832E+02  0.00000000000E+00 0. -1.
</event>
<event>
 5    1  0.1102386E-009  0.9118800E+02  0.7818608E-02  0.1130116E+00
         25   -1    0    0    0    0  0.00000000000E+00  0.00000000000E+00  0.99999998245E-14  0.12500000000E+03  0.12500000000E+03 0.  0.
        -11    1    3    3    0    0  0.15353476239E+02 -0.42484505572E+02 -0.32208959573E+02  0.55480442710E+02  0.51100000000E-03 0.  1.
         23    2    1    0    0    0 -0.32595156600E+01 -0.67217278928E+01 -0.28005272322E+02  0.96015498175E+02  0.91536192534E+02 0.  0.
         11    1    3    3    0    0 -0.18612991899E+02  0.35762777679E+02  0.42036872509E+01  0.40535055464E+02  0.51100000000E-03 0. -1.
         22    1    1    0    0    0  0.32595156600E+01  0.67217278928E+01  0.28005272322E+02  0.28984501825E+02  0.00000000000E+00 0.  1.
</event>
<event>
 5    1  0.1102386E-009  0.9118800E+02  0.7818608E-02  0.1130116E+00
         25   -1    0    0    0    0  0.00000000000E+00  0.00000000000E+00  0.99999998245E-14  0.12500000000E+03  0.12500000000E+03 0.  0.
        -11    1    3    3    0    0 -0.26580028685E+02  0.40975082660E+01  0.26379945252E+02  0.37672125114E+02  0.51100000000E-03 0. -1.
         23    2    1    0    0    0  0.17557205855E+02  0.16448405778E+02 -0.12602381148E+02  0.97840737480E+02  0.93995661442E+02 0.  0.
         11    1    3    3    0    0  0.44137234539E+02  0.12350897512E+02 -0.38982326400E+02  0.60168612365E+02  0.51100000000E-03 0.  1.
         22    1    1    0    0    0 -0.17557205855E+02 -0.16448405778E+02  0.12602381148E+02  0.27159262520E+02  0.00000000000E+00 0.  1.
</event>
<event>
 5    1  0.1102386E-009  0.9118800E+02  0.7818608E-02  0.1130116E+00
         25   -1    0    0    0    0  0.00000000000E+00  0.00000000000E+00  0.99999998245E-14  0.12500000000E+03  0.12500000000E+03 0.  0.
        -11    1    3    3    0    0 -0.23837843543E+02  0.25605976531E+02  0.42869905224E+02  0.55332970218E+02  0.51100000000E-03 0. -1.
         23    2    1    0    0    0 -0.10802020644E+02 -0.89207642665E+01  0.25011258000E+02  0.96332479845E+02  0.91968037715E+02 0.  0.
         11    1    3    3    0    0  0.13035822899E+02 -0.34526740797E+02 -0.17858647224E+02  0.40999509627E+02  0.51100000000E-03 0.  1.
         22    1    1    0    0    0  0.10802020644E+02  0.89207642665E+01 -0.25011258000E+02  0.28667520155E+02  0.00000000000E+00 0. -1.
</event>
<event>
 5    1  0.1102386E-009  0.9118800E+02  0.7818608E-02  0.1130116E+00
         25   -1    0    0    0    0  0.00000000000E+00  0.00000000000E+00  0.99999998245E-14  0.12500000000E+03  0.12500000000E+03 0.  0.
        -11    1    3    3    0    0 -0.51248819649E+02 -0.21663624216E+02 -0.25002544822E+02  0.60999027677E+02  0.51100000000E-03 0. -1.
         23    2    1    0    0    0 -0.21015427365E+02 -0.47024644887E+01 -0.19202453097E+02  0.96147000771E+02  0.91715594054E+02 0.  0.
         11    1    3    3    0    0  0.30233392285E+02  0.16961159728E+02  0.58000917253E+01  0.35147973094E+02  0.51100000000E-03 0.  1.
         22    1    1    0    0    0  0.21015427365E+02  0.47024644887E+01  0.19202453097E+02  0.28852999229E+02  0.00000000000E+00 0. -1.
</event>
<event>
 5    1  0.1102386E-009  0.9118800E+02  0.7818608E-02  0.1130116E+00
         25   -1    0    0    0    0  0.00000000000E+00  0.00000000000E+00  0.99999998245E-14  0.12500000000E+03  0.12500000000E+03 0.  0.
        -11    1    3    3    0    0  0.76011938505E+01  0.17248708592E+02  0.27835946644E+02  0.33617495770E+02  0.51100000000E-03 0.  1.
         23    2    1    0    0    0 -0.25923036661E+02 -0.15914275315E+02 -0.88024677982E+01  0.93333749388E+02  0.87797706957E+02 0.  0.
         11    1    3    3    0    0 -0.33524230511E+02 -0.33162983908E+02 -0.36638414442E+02  0.59716253617E+02  0.51100000000E-03 0. -1.
         22    1    1    0    0    0  0.25923036661E+02  0.15914275315E+02  0.88024677982E+01  0.31666250612E+02  0.00000000000E+00 0. -1.
</event>
<event>
 5    1  0.1102386E-009  0.9118800E+02  0.7818608E-02  0.1130116E+00
         25   -1    0    0    0    0  0.00000000000E+00  0.00000000000E+00  0.99999998245E-14  0.12500000000E+03  0.12500000000E+03 0.  0.
        -11    1    3    3    0    0  0.28592955247E+02 -0.35025376950E+02  0.20920458757E+02  0.49819671970E+02  0.51100000000E-03 0.  1.
         23    2    1    0    0    0  0.38358932536E+01  0.29583715072E+01  0.28762486310E+02  0.95832438262E+02  0.91285867282E+02 0.  0.
         11    1    3    3    0    0 -0.24757061994E+02  0.37983748458E+02  0.78420275532E+01  0.46012766292E+02  0.51100000000E-03 0. -1.
         22    1    1    0    0    0 -0.38358932536E+01 -0.29583715072E+01 -0.28762486310E+02  0.29167561738E+02  0.00000000000E+00 0.  1.
</event>
<event>
 5    1  0.1102386E-009  0.9118800E+02  0.7818608E-02  0.1130116E+00
         25   -1    0    0    0    0  0.00000000000E+00  0.00000000000E+00  0.99999998245E-14  0.12500000000E+03  0.12500000000E+03 0.  0.
        -11    1    3    3    0    0  0.23552552350E+02  0.41643869208E+01  0.24969339321E+02  0.34576476787E+02  0.51100000000E-03 0.  1.
         23    2    1    0    0    0 -0.21187102946E+02  0.36270117067E+01 -0.18263260120E+02  0.96793702559E+02  0.92592794750E+02 0.  0.
         11    1    3    3    0    0 -0.44739655295E+02 -0.53737521406E+00 -0.43232599441E+02  0.62217225772E+02  0.51100000000E-03 0. -1.
         22    1    1    0    0    0  0.21187102946E+02 -0.36270117067E+01  0.18263260120E+02  0.28206297441E+02  0.00000000000E+00 0. -1.
</event>
<event>
 5    1  0.1102386E-009  0.9118800E+02  0.7818608E-02  0.1130116E+00
         25   -1    0    0    0    0  0.00000000000E+00  0.00000000000E+00  0.99999998245E-14  0.12500000000E+03  0.12500000000E+03 0.  0.
        -11    1    3    3    0    0  0.12157394348E+02 -0.35283003738E+02  0.25855569664E+01  0.37408257046E+02  0.51100000000E-03 0.  1.
         23    2    1    0    0    0 -0.15251168192E+01  0.23091210617E+02  0.13291683557E+02  0.98312946194E+02  0.94621543787E+02 0.  0.
         11    1    3    3    0    0 -0.13682511167E+02  0.58374214355E+02  0.10706126591E+02  0.60904689148E+02  0.51100000000E-03 0. -1.
         22    1    1    0    0    0  0.15251168192E+01 -0.23091210617E+02 -0.13291683557E+02  0.26687053806E+02  0.00000000000E+00 0. -1.
</event>
<event>
 5    1  0.1102386E-009  0.9118800E+02  0.7818608E-02  0.1130116E+00
         25   -1    0    0    0    0  0.00000000000E+00  0.00000000000E+00  0.99999998245E-14  0.12500000000E+03  0.12500000000E+03 0.  0.
        -11    1    3    3    0    0  0.15943754471E+02 -0.36416043043E+02 -0.65528291904E+01  0.40289838275E+02  0.51100000000E-03 0. -1.
         23    2    1    0    0    0 -0.25694887544E+01  0.22442656147E+02 -0.41107771698E+01  0.10203973919E+03  0.99423009400E+02 0.  0.
         11    1    3    3    0    0 -0.18513243226E+02  0.58858699190E+02  0.24420520206E+01  0.61749900918E+02  0.51100000000E-03 0.  1.
         22    1    1    0    0    0  0.25694887544E+01 -0.22442656147E+02  0.41107771698E+01  0.22960260807E+02  0.00000000000E+00 0.  1.
</event>
<event>
 5    1  0.1102386E-009  0.9118800E+02  0.7818608E-02  0.1130116E+00
         25   -1    0    0    0    0  0.00000000000E+00  0.00000000000E+00  0.99999998245E-14  0.12500000000E+03  0.12500000000E+03 0.  0.
        -11    1    3    3    0    0  0.29021439785E+02  0.87045247903E+01 -0.13343581648E+02  0.33106855641E+02  0.51100000000E-03 0. -1.
         23    2    1    0    0    0 -0.21134558772E+01  0.68006702412E+01  0.34253199744E+02  0.90014324300E+02  0.82937211642E+02 0.  0.
         11    1    3    3    0    0 -0.31134895662E+02 -0.19038545492E+01  0.47596781392E+02  0.56907468659E+02  0.51100000000E-03 0.  1.
         22    1    1    0    0    0  0.21134558772E+01 -0.68006702412E+01 -0.34253199744E+02  0.34985675700E+02  0.00000000000E+00 0.  1.
</event>
<event>
 5    1  0.1102386E-009  0.9118800E+02  0.7818608E-02  0.1130116E+00
         25   -1    0    0    0    0  0.00000000000E+00  0.00000000000E+00  0.99999998245E-14  0.12500000000E+03  0.12500000000E+03 0.  0.
        -11    1    3    3    0    0  0.22674506351E+02 -0.41798603712E+02 -0.30779898568E+01  0.47652182871E+02  0.51100000000E-03 0.  1.
         23    2    1    0    0    0  0.28628491971E+02  0.34568832311E+01  0.88603274673E+01  0.94833031358E+02  0.89906939885E+02 0.  0.
         11    1    3    3    0    0  0.59539856202E+01  0.45255486943E+02  0.11938317324E+02  0.47180848487E+02  0.51100000000E-03 0. -1.
         22    1    1    0    0    0 -0.28628491971E+02 -0.34568832311E+01 -0.88603274673E+01  0.30166968642E+02  0.00000000000E+00 0. -1.
</event>
<event>
 5    1  0.1102386E-009  0.9118800E+02  0.7818608E-02  0.1130116E+00
         25   -1    0    0    0    0  0.00000000000E+00  0.00000000000E+00  0.99999998245E-14  0.12500000000E+03  0.12500000000E+03 0.  0.
        -11    1    3    3    0    0  0.16447971233E+02  0.17770248615E+02 -0.47311921969E+02  0.53148240368E+02  0.51100000000E-03 0.  1.
         23    2    1    0    0    0  0.10771415714E+02 -0.15728496624E+02 -0.23987044140E+02  0.94360364083E+02  0.89247358621E+02 0.  0.
         11    1    3    3    0    0 -0.56765555186E+01 -0.33498745239E+02  0.23324877829E+02  0.41212123716E+02  0.51100000000E-03 0. -1.
         22    1    1    0    0    0 -0.10771415714E+02  0.15728496624E+02  0.23987044140E+02  0.30639635917E+02  0.00000000000E+00 0.  1.
</event>
<event>
 5    1  0.1102386E-009  0.9118800E+02  0.7818608E-02  0.1130116E+00
         25   -1    0    0    0    0  0.00000000000E+00  0.00000000000E+00  0.99999998245E-14  0.12500000000E+03  0.12500000000E+03 0.  0.
        -11    1    3    3    0    0 -0.12020003985E+02  0.25983757211E+02  0.29820843378E+02  0.41339071526E+02  0.51100000000E-03 0. -1.
         23    2    1    0    0    0  0.17170405999E+02 -0.18121149835E+02  0.13091879388E+02  0.96811416861E+02  0.92616705918E+02 0.  0.
         11    1    3    3    0    0  0.29190409984E+02 -0.44104907045E+02 -0.16728963990E+02  0.55472345335E+02  0.51100000000E-03 0.  1.
         22    1    1    0    0    0 -0.17170405999E+02  0.18121149835E+02 -0.13091879388E+02  0.28188583139E+02  0.00000000000E+00 0.  1.
</event>
<event>
 5    1  0.1102386E-009  0.9118800E+02  0.7818608E-02  0.1130116E+00
         25   -1    0    0    0    0  0.00000000000E+00  0.00000000000E+00  0.99999998245E-14  0.12500000000E+03  0.12500000000E+03 0.  0.
        -11    1    3    3    0    0 -0.64661665113E+01  0.18416030292E+02  0.52672106900E+02  0.56172166832E+02  0.51100000000E-03 0.  1.
         23    2    1    0    0    0 -0.39209225635E+01 -0.11085158089E+02  0.27701862468E+02  0.94906021403E+02  0.90008362672E+02 0.  0.
         11    1    3    3    0    0  0.25452439478E+01 -0.29501188381E+02 -0.24970244433E+02  0.38733854571E+02  0.51100000000E-03 0. -1.
         22    1    1    0    0    0  0.39209225635E+01  0.11085158089E+02 -0.27701862468E+02  0.30093978597E+02  0.00000000000E+00 0.  1.
</event>
<event>
 5    1  0.1102386E-009  0.9118800E+02  0.7818608E-02  0.1130116E+00
         25   -1    0    0    0    0  0.00000000000E+00  0.00000000000E+00  0.99999998245E-14  0.12500000000E+03  0.12500000000E+03 0.  0.
        -11    1    3    3    0    0  0.32531224775E+02 -0.27174472060E+02  0.59227322059E+01  0.42799664416E+02  0.51100000000E-03 0. -1.
         23    2    1    0    0    0  0.27775179323E+01 -0.64456979873E+01 -0.30206741056E+02  0.93988569307E+02  0.88725094121E+02 0.  0.
         11    1    3    3    0    0 -0.29753706843E+02  0.20728774072E+02 -0.36129473262E+02  0.51188904891E+02  0.51100000000E-03 0.  1.
         22    1    1    0    0    0 -0.27775179323E+01  0.64456979873E+01  0.30206741056E+02  0.31011430693E+02  0.00000000000E+00 0.  1.
</event>
<event>
 5    1  0.1102386E-009  0.9118800E+02  0.7818608E-02  0.1130116E+00
         25   -1    0    0    0    0  0.00000000000E+00  0.00000000000E+00  0.99999998245E-14  0.12500000000E+03  0.12500000000E+03 0.  0.
        -11    1    3    3    0    0 -0.14287283603E+02  0.24122624287E+02 -0.17446436757E+02  0.33021290572E+02  0.51100000000E-03 0. -1.
         23    2    1    0    0    0  0.20614870856E+02 -0.22563803914E+02  0.17379744254E+01  0.94387605409E+02  0.89285504715E+02 0.  0.
         11    1    3    3    0    0  0.34902154459E+02 -0.46686428201E+02  0.19184411182E+02  0.61366314838E+02  0.51100000000E-03 0.  1.
         22    1    1    0    0    0 -0.20614870856E+02  0.22563803914E+02 -0.17379744254E+01  0.30612394591E+02  0.00000000000E+00 0.  1.
</event>
<event>
 5    1  0.1102386E-009  0.9118800E+02  0.7818608E-02  0.1130116E+00
         25   -1    0    0    0    0  0.00000000000E+00  0.00000000000E+00  0.99999998245E-14  0.12500000000E+03  0.12500000000E+03 0.  0.
        -11    1    3    3    0    0 -0.21666444006E+02  0.44171996712E+02 -0.33185602218E+02  0.59345465574E+02  0.51100000000E-03 0. -1.
         23    2    1    0    0    0  0.38179503219E+01  0.21551795558E+02 -0.18045296364E+02  0.96632952968E+02  0.92375528372E+02 0.  0.
         11    1    3    3    0    0  0.25484394328E+02 -0.22620201154E+02  0.15140305854E+02  0.37287487394E+02  0.51100000000E-03 0.  1.
         22    1    1    0    0    0 -0.38179503219E+01 -0.21551795558E+02  0.18045296364E+02  0.28367047032E+02  0.00000000000E+00 0. -1.
</event>
<event>
 5    1  0.1102386E-009  0.9118800E+02  0.7818608E-02  0.1130116E+00
         25   -1    0    0    0    0  0.00000000000E+00  0.00000000000E+00  0.99999998245E-14  0.12500000000E+03  0.12500000000E+03 0.  0.
        -11    1    3    3    0    0 -0.22285832886E+02 -0.25573394718E+02 -0.27609583065E+02  0.43737237477E+02  0.51100000000E-03 0. -1.
         23    2    1    0    0    0  0.13099952954E+00 -0.24502511432E+02  0.18018090737E+02  0.94585499821E+02  0.89562129023E+02 0.  0.
         11    1    3    3    0    0  0.22416832416E+02  0.10708832856E+01  0.45627673802E+02  0.50848262344E+02  0.51100000000E-03 0.  1.
         22    1    1    0    0    0 -0.13099952954E+00  0.24502511432E+02 -0.18018090737E+02  0.30414500179E+02  0.00000000000E+00 0.  1.
</event>
<event>
 5    1  0.1102386E-009  0.9118800E+02  0.7818608E-02  0.1130116E+00
         25   -1    0    0    0    0  0.00000000000E+00  0.00000000000E+00  0.99999998245E-14  0.12500000000E+03  0.12500000000E+03 0.  0.
        -11    1    3    3    0    0 -0.21864211870E+02 -0.12252290879E+02 -0.29413986704E+02  0.38643822360E+02  0.51100000000E-03 0. -1.
         23    2    1    0    0    0 -0.53300368593E+00  0.28504803354E+02  0.49499514405E+01  0.96063691900E+02  0.91601981283E+02 0.  0.
         11    1    3    3    0    0  0.21331208184E+02  0.40757094233E+02  0.34363938145E+02  0.57419869540E+02  0.51100000000E-03 0.  1.
         22    1    1    0    0    0  0.53300368593E+00 -0.28504803354E+02 -0.49499514405E+01  0.28936308100E+02  0.00000000000E+00 0.  1.
</event>
<event>
 5    1  0.1102386E-009  0.9118800E+02  0.7818608E-02  0.1130116E+00
         25   -1    0    0    0    0  0.00000000000E+00  0.00000000000E+00  0.99999998245E-14  0.12500000000E+03  0.12500000000E+03 0.  0.
        -11    1    3    3    0    0  0.16254555163E+02  0.20467189297E+02  0.23449852185E+02  0.35114270162E+02  0.51100000000E-03 0.  1.
         23    2    1    0    0    0 -0.22839346673E+01 -0.10787839198E+02 -0.26160701131E+02  0.96610281512E+02  0.92344844892E+02 0.  0.
         11    1    3    3    0    0 -0.18538489830E+02 -0.31255028495E+02 -0.49610553316E+02  0.61496011350E+02  0.51100000000E-03 0. -1.
         22    1    1    0    0    0  0.22839346673E+01  0.10787839198E+02  0.26160701131E+02  0.28389718488E+02  0.00000000000E+00 0. -1.
</event>
<event>
 5    1  0.1102386E-009  0.9118800E+02  0.7818608E-02  0.1130116E+00
         25   -1    0    0    0    0  0.00000000000E+00  0.00000000000E+00  0.99999998245E-14  0.12500000000E+03  0.12500000000E+03 0.  0.
        -11    1    3    3    0    0 -0.34766057627E+02  0.45497229060E+02 -0.13144452820E+02  0.58749070250E+02  0.51100000000E-03 0.  1.
         23    2    1    0    0    0 -0.19805031967E+02  0.14585920442E+02 -0.19422295512E+02  0.93659707575E+02  0.88260562505E+02 0.  0.
         11    1    3    3    0    0  0.14961025660E+02 -0.30911308618E+02 -0.62778426920E+01  0.34910637325E+02  0.51100000000E-03 0. -1.
         22    1    1    0    0    0  0.19805031967E+02 -0.14585920442E+02  0.19422295512E+02  0.31340292425E+02  0.00000000000E+00 0.  1.
</event>
<event>
 5    1  0.1102386E-009  0.9118800E+02  0.7818608E-02  0.1130116E+00
         25   -1    0    0    0    0  0.00000000000E+00  0.00000000000E+00  0.99999998245E-14  0.12500000000E+03  0.12500000000E+03 0.  0.
        -11    1    3    3    0    0 -0.48342056089E+02  0.19656029519E+02 -0.30073069147E+01  0.52271959773E+02  0.51100000000E-03 0. -1.
         23    2    1    0    0    0 -0.33375866029E+02 -0.11002552705E+02  0.94787014510E+01  0.88601505794E+02  0.80779802232E+02 0.  0.
         11    1    3    3    0    0  0.14966190060E+02 -0.30658582225E+02  0.12486008366E+02  0.36329546021E+02  0.51100000000E-03 0.  1.
         22    1    1    0    0    0  0.33375866029E+02  0.11002552705E+02 -0.94787014510E+01  0.36398494206E+02  0.00000000000E+00 0. -1.
</event>
<event>
 5    1  0.1102386E-009  0.9118800E+02  0.7818608E-02  0.1130116E+00
         25   -1    0    0    0    0  0.00000000000E+00  0.00000000000E+00  0.99999998245E-14  0.12500000000E+03  0.12500000000E+03 0.  0.
        -11    1    3    3    0    0 -0.42251109446E+02  0.22217689572E+02  0.10740951721E+02  0.48930052355E+02  0.51100000000E-03 0.  1.
         23    2    1    0    0    0 -0.20390558503E+02 -0.18117350210E+02 -0.46683112430E+01  0.97326793020E+02  0.93309690038E+02 0.  0.
         11    1    3    3    0    0  0.21860550943E+02 -0.40335039782E+02 -0.15409262963E+02  0.48396740665E+02  0.51100000000E-03 0. -1.
         22    1    1    0    0    0  0.20390558503E+02  0.18117350210E+02  0.46683112430E+01  0.27673206980E+02  0.00000000000E+00 0.  1.
</event>
<event>
 5    1  0.1102386E-009  0.9118800E+02  0.7818608E-02  0.1130116E+00
         25   -1    0    0    0    0  0.00000000000E+00  0.00000000000E+00  0.99999998245E-14  0.12500000000E+03  0.12500000000E+03 0.  0.
        -11    1    3    3    0    0 -0.49763582661E+02  0.13612549109E+02 -0.24529804180E+02  0.57126411981E+02  0.51100000000E-03 0.  1.
         23    2    1    0    0    0 -0.18255803652E+02 -0.75756299470E+01 -0.22358118154E+02  0.95157915899E+02  0.90357506466E+02 0.  0.
         11    1    3    3    0    0  0.31507779009E+02 -0.21188179056E+02  0.21716860253E+01  0.38031503918E+02  0.51100000000E-03 0. -1.
         22    1    1    0    0    0  0.18255803652E+02  0.75756299470E+01  0.22358118154E+02  0.29842084101E+02  0.00000000000E+00 0.  1.
</event>
<event>
 5    1  0.1102386E-009  0.9118800E+02  0.7818608E-02  0.1130116E+00
         25   -1    0    0    0    0  0.00000000000E+00  0.00000000000E+00  0.99999998245E-14  0.12500000000E+03  0.12500000000E+03 0.  0.
        -11    1    3    3    0    0 -0.20464173050E+01  0.48022524102E+02 -0.30555041792E+02  0.56955783061E+02  0.51100000000E-03 0.  1.
         23    2    1    0    0    0 -0.18611882864E+02  0.20662926546E+02 -0.81001105991E+01  0.96035012361E+02  0.91562836841E+02 0.  0.
         11    1    3    3    0    0 -0.16565465559E+02 -0.27359597556E+02  0.22454931192E+02  0.39079229301E+02  0.51100000000E-03 0. -1.
         22    1    1    0    0    0  0.18611882864E+02 -0.20662926546E+02  0.81001105991E+01  0.28964987639E+02  0.00000000000E+00 0.  1.
</event>
<event>
 5    1  0.1102386E-009  0.9118800E+02  0.7818608E-02  0.1130116E+00
         25   -1    0    0    0    0  0.00000000000E+00  0.00000000000E+00  0.99999998245E-14  0.12500000000E+03  0.12500000000E+03 0.  0.
        -11    1    3    3    0    0 -0.27024822711E+02  0.98415365537E+01  0.26242737202E+02  0.38934279760E+02  0.51100000000E-03 0.  1.
         23    2    1    0    0    0 -0.48266480618E+01 -0.26001120885E+02 -0.12096129713E+02  0.95919574061E+02  0.91405106614E+02 0.  0.
         11    1    3    3    0    0  0.22198174649E+02 -0.35842657438E+02 -0.38338866915E+02  0.56985294301E+02  0.51100000000E-03 0. -1.
         22    1    1    0    0    0  0.48266480618E+01  0.26001120885E+02  0.12096129713E+02  0.29080425939E+02  0.00000000000E+00 0. -1.
</event>
<event>
 5    1  0.1102386E-009  0.9118800E+02  0.7818608E-02  0.1130116E+00
         25   -1    0    0    0    0  0.00000000000E+00  0.00000000000E+00  0.99999998245E-14  0.12500000000E+03  0.12500000000E+03 0.  0.
        -11    1    3    3    0    0 -0.32168155780E+02 -0.13617889806E+02  0.28547956796E+01  0.35048352710E+02  0.51100000000E-03 0.  1.
         23    2    1    0    0    0  0.22521783753E+02  0.37197827991E+01 -0.17829270455E+02  0.96035359273E+02  0.91563310437E+02 0.  0.
         11    1    3    3    0    0  0.54689939533E+02  0.17337672605E+02 -0.20684066134E+02  0.60987006563E+02  0.51100000000E-03 0. -1.
         22    1    1    0    0    0 -0.22521783753E+02 -0.37197827991E+01  0.17829270455E+02  0.28964640727E+02  0.00000000000E+00 0. -1.
</event>
<event>
 5    1  0.1102386E-009  0.9118800E+02  0.7818608E-02  0.1130116E+00
         25   -1    0    0    0    0  0.00000000000E+00  0.00000000000E+00  0.99999998245E-14  0.12500000000E+03  0.12500000000E+03 0.  0.
        -11    1    3    3    0    0  0.11629953191E+02  0.53929332110E+02 -0.16641613636E+02  0.57624404359E+02  0.51100000000E-03 0.  1.
         23    2    1    0    0    0 -0.84640798391E+01  0.22578853046E+02 -0.18035919144E+02  0.94887882310E+02  0.89983168302E+02 0.  0.
         11    1    3    3    0    0 -0.20094033030E+02 -0.31350479064E+02 -0.13943055080E+01  0.37263477952E+02  0.51100000000E-03 0. -1.
         22    1    1    0    0    0  0.84640798391E+01 -0.22578853046E+02  0.18035919144E+02  0.30112117690E+02  0.00000000000E+00 0.  1.
</event>
<event>
 5    1  0.1102386E-009  0.9118800E+02  0.7818608E-02  0.1130116E+00
         25   -1    0    0    0    0  0.00000000000E+00  0.00000000000E+00  0.99999998245E-14  0.12500000000E+03  0.12500000000E+03 0.  0.
        -11    1    3    3    0    0  0.10080868663E+02 -0.39675895440E+01 -0.33733426202E+02  0.35430350314E+02  0.51100000000E-03 0. -1.
         23    2    1    0    0    0  0.86939785804E+01  0.12666223363E+02  0.24540343833E+02  0.96047505232E+02  0.91579890304E+02 0.  0.
         11    1    3    3    0    0 -0.13868900822E+01  0.16633812907E+02  0.58273770035E+02  0.60617154918E+02  0.51100000000E-03 0.  1.
         22    1    1    0    0    0 -0.86939785804E+01 -0.12666223363E+02 -0.24540343833E+02  0.28952494768E+02  0.00000000000E+00 0.  1.
</event>
<event>
 5    1  0.1102386E-009  0.9118800E+02  0.7818608E-02  0.1130116E+00
         25   -1    0    0    0    0  0.00000000000E+00  0.00000000000E+00  0.99999998245E-14  0.12500000000E+03  0.12500000000E+03 0.  0.
        -11    1    3    3    0    0  0.67558896627E+01 -0.36357994020E+02 -0.44416404066E+02  0.57795871174E+02  0.51100000000E-03 0.  1.
         23    2    1    0    0    0  0.93332500295E+01 -0.26530545266E+02 -0.77735745476E+01  0.95821106096E+02  0.91270348548E+02 0.  0.
         11    1    3    3    0    0  0.25773603668E+01  0.98274487546E+01  0.36642829519E+02  0.38025234922E+02  0.51100000000E-03 0. -1.
         22    1    1    0    0    0 -0.93332500295E+01  0.26530545266E+02  0.77735745476E+01  0.29178893904E+02  0.00000000000E+00 0.  1.
</event>
<event>
 5    1  0.1102386E-009  0.9118800E+02  0.7818608E-02  0.1130116E+00
         25   -1    0    0    0    0  0.00000000000E+00  0.00000000000E+00  0.99999998245E-14  0.12500000000E+03  0.12500000000E+03 0.  0.
        -11    1    3    3    0    0 -0.28515208397E+02 -0.25664486280E+02 -0.17011711199E+02  0.41966430443E+02  0.51100000000E-03 0.  1.
         23    2    1    0    0    0  0.19530621445E+02 -0.10124957184E+01 -0.21233710188E+02  0.96132357735E+02  0.91695634759E+02 0.  0.
         11    1    3    3    0    0  0.48045829841E+02  0.24651990561E+02 -0.42219989883E+01  0.54165927293E+02  0.51100000000E-03 0. -1.
         22    1    1    0    0    0 -0.19530621445E+02  0.10124957184E+01  0.21233710188E+02  0.28867642265E+02  0.00000000000E+00 0. -1.
</event>
<event>
 5    1  0.1102386E-009  0.9118800E+02  0.7818608E-02  0.1130116E+00
         25   -1    0    0    0    0  0.00000000000E+00  0.00000000000E+00  0.99999998245E-14  0.12500000000E+03  0.12500000000E+03 0.  0.
        -11    1    3    3    0    0 -0.64801219076E-01 -0.23498903725E+02 -0.29880358601E+02  0.38013662095E+02  0.51100000000E-03 0.  1.
         23    2    1    0    0    0 -0.55468520177E+01 -0.13390285824E+02  0.26090728404E+02  0.95153837258E+02  0.90351863924E+02 0.  0.
         11    1    3    3    0    0 -0.54820507986E+01  0.10108617901E+02  0.55971087005E+02  0.57140175163E+02  0.51100000000E-03 0. -1.
         22    1    1    0    0    0  0.55468520177E+01  0.13390285824E+02 -0.26090728404E+02  0.29846162742E+02  0.00000000000E+00 0. -1.
</event>
<event>
 5    1  0.1102386E-009  0.9118800E+02  0.7818608E-02  0.1130116E+00
         25   -1    0    0    0    0  0.00000000000E+00  0.00000000000E+00  0.99999998245E-14  0.12500000000E+03  0.12500000000E+03 0.  0.
        -11    1    3    3    0    0  0.13051174932E+02  0.12175099778E+02  0.46024114214E+02  0.49363805680E+02  0.51100000000E-03 0.  1.
         23    2    1    0    0    0  0.31914423883E+02 -0.35992837068E+01  0.38035532916E+02  0.75218607299E+02  0.56388401509E+02 0.  0.
         11    1    3    3    0    0  0.18863248952E+02 -0.15774383485E+02 -0.79885812978E+01  0.25854801619E+02  0.51100000000E-03 0. -1.
         22    1    1    0    0    0 -0.31914423883E+02  0.35992837068E+01 -0.38035532916E+02  0.49781392701E+02  0.00000000000E+00 0.  1.
</event>
<event>
 5    1  0.1102386E-009  0.9118800E+02  0.7818608E-02  0.1130116E+00
         25   -1    0    0    0    0  0.00000000000E+00  0.00000000000E+00  0.99999998245E-14  0.12500000000E+03  0.12500000000E+03 0.  0.
        -11    1    3    3    0    0 -0.98274268123E+01 -0.49819890596E+02  0.18583894652E+02  0.54073662327E+02  0.51100000000E-03 0. -1.
         23    2    1    0    0    0 -0.55138649082E+01 -0.15287485191E+02  0.30152397368E+02  0.90746869096E+02  0.84034024502E+02 0.  0.
         11    1    3    3    0    0  0.43135619041E+01  0.34532405405E+02  0.11568502716E+02  0.36673206769E+02  0.51100000000E-03 0.  1.
         22    1    1    0    0    0  0.55138649082E+01  0.15287485191E+02 -0.30152397368E+02  0.34253130904E+02  0.00000000000E+00 0. -1.
</event>
<event>
 5    1  0.1102386E-009  0.9118800E+02  0.7818608E-02  0.1130116E+00
         25   -1    0    0    0    0  0.00000000000E+00  0.00000000000E+00  0.99999998245E-14  0.12500000000E+03  0.12500000000E+03 0.  0.
        -11    1    3    3    0    0 -0.18246994305E+02  0.19152755555E+02 -0.22494376375E+02  0.34724311588E+02  0.51100000000E-03 0.  1.
         23    2    1    0    0    0  0.27035771679E+02  0.68928566608E+01  0.13643284990E+02  0.93942253002E+02  0.88659817565E+02 0.  0.
         11    1    3    3    0    0  0.45282765985E+02 -0.12259898894E+02  0.36137661365E+02  0.59217941414E+02  0.51100000000E-03 0. -1.
         22    1    1    0    0    0 -0.27035771679E+02 -0.68928566608E+01 -0.13643284990E+02  0.31057746998E+02  0.00000000000E+00 0. -1.
</event>
<event>
 5    1  0.1102386E-009  0.9118800E+02  0.7818608E-02  0.1130116E+00
         25   -1    0    0    0    0  0.00000000000E+00  0.00000000000E+00  0.99999998245E-14  0.12500000000E+03  0.12500000000E+03 0.  0.
        -11    1    3    3    0    0 -0.63074200483E+01  0.38502569733E+02  0.34506355550E+02  0.52085698587E+02  0.51100000000E-03 0. -1.
         23    2    1    0    0    0 -0.25761865004E+02  0.61799584201E+01  0.14986594125E+02  0.94562135784E+02  0.89529514385E+02 0.  0.
         11    1    3    3    0    0 -0.19454444956E+02 -0.32322611313E+02 -0.19519761424E+02  0.42476437197E+02  0.51100000000E-03 0.  1.
         22    1    1    0    0    0  0.25761865004E+02 -0.61799584201E+01 -0.14986594125E+02  0.30437864216E+02  0.00000000000E+00 0. -1.
</event>
<event>
 5    1  0.1102386E-009  0.9118800E+02  0.7818608E-02  0.1130116E+00
         25   -1    0    0    0    0  0.00000000000E+00  0.00000000000E+00  0.99999998245E-14  0.12500000000E+03  0.12500000000E+03 0.  0.
        -11    1    3    3    0    0 -0.24500878590E+02  0.52273659500E+02 -0.22746126588E+02  0.62050099147E+02  0.51100000000E-03 0.  1.
         23    2    1    0    0    0 -0.10093794836E+02  0.22713229749E+02 -0.15450597576E+02  0.95734039136E+02  0.91151027334E+02 0.  0.
         11    1    3    3    0    0  0.14407083754E+02 -0.29560429751E+02  0.72955290122E+01  0.33683939989E+02  0.51100000000E-03 0. -1.
         22    1    1    0    0    0  0.10093794836E+02 -0.22713229749E+02  0.15450597576E+02  0.29265960864E+02  0.00000000000E+00 0.  1.
</event>
<event>
 5    1  0.1102386E-009  0.9118800E+02  0.7818608E-02  0.1130116E+00
         25   -1    0    0    0    0  0.00000000000E+00  0.00000000000E+00  0.99999998245E-14  0.12500000000E+03  0.12500000000E+03 0.  0.
        -11    1    3    3    0    0 -0.45743366995E+01 -0.56947644499E+02 -0.21671438146E+02  0.61103273249E+02  0.51100000000E-03 0.  1.
         23    2    1    0    0    0  0.27531722302E+01 -0.23015126553E+02 -0.17267089745E+02  0.96096221773E+02  0.91646360774E+02 0.  0.
         11    1    3    3    0    0  0.73275089297E+01  0.33932517946E+02  0.44043484018E+01  0.34992948523E+02  0.51100000000E-03 0. -1.
         22    1    1    0    0    0 -0.27531722302E+01  0.23015126553E+02  0.17267089745E+02  0.28903778227E+02  0.00000000000E+00 0.  1.
</event>
<event>
 5    1  0.1102386E-009  0.9118800E+02  0.7818608E-02  0.1130116E+00
         25   -1    0    0    0    0  0.00000000000E+00  0.00000000000E+00  0.99999998245E-14  0.12500000000E+03  0.12500000000E+03 0.  0.
        -11    1    3    3    0    0  0.12306876181E+02  0.51204147162E+02 -0.25833776880E+02  0.58657547819E+02  0.51100000000E-03 0.  1.
         23    2    1    0    0    0  0.14338038598E+02  0.13951463968E+02 -0.20519486125E+02  0.96342156248E+02  0.91981188631E+02 0.  0.
         11    1    3    3    0    0  0.20311624172E+01 -0.37252683194E+02  0.53142907553E+01  0.37684608429E+02  0.51100000000E-03 0. -1.
         22    1    1    0    0    0 -0.14338038598E+02 -0.13951463968E+02  0.20519486125E+02  0.28657843752E+02  0.00000000000E+00 0.  1.
</event>
<event>
 5    1  0.1102386E-009  0.9118800E+02  0.7818608E-02  0.1130116E+00
         25   -1    0    0    0    0  0.00000000000E+00  0.00000000000E+00  0.99999998245E-14  0.12500000000E+03  0.12500000000E+03 0.  0.
        -11    1    3    3    0    0 -0.20289680429E+02 -0.54390763352E+02  0.10247122285E+02  0.58949383248E+02  0.51100000000E-03 0.  1.
         23    2    1    0    0    0  0.33099312066E+01 -0.26305634576E+02  0.12470266661E+02  0.95700689332E+02  0.91105281587E+02 0.  0.
         11    1    3    3    0    0  0.23599611636E+02  0.28085128776E+02  0.22231443758E+01  0.36751306084E+02  0.51100000000E-03 0. -1.
         22    1    1    0    0    0 -0.33099312066E+01  0.26305634576E+02 -0.12470266661E+02  0.29299310668E+02  0.00000000000E+00 0.  1.
</event>
<event>
 5    1  0.1102386E-009  0.9118800E+02  0.7818608E-02  0.1130116E+00
         25   -1    0    0    0    0  0.00000000000E+00  0.00000000000E+00  0.99999998245E-14  0.12500000000E+03  0.12500000000E+03 0.  0.
        -11    1    3    3    0    0 -0.39689258601E+02  0.11471026798E+02  0.37927574338E+02  0.56083175727E+02  0.51100000000E-03 0.  1.
         23    2    1    0    0    0 -0.28587696056E+02 -0.20154190255E+01  0.17132890913E+01  0.96290182182E+02  0.91910530112E+02 0.  0.
         11    1    3    3    0    0  0.11101562545E+02 -0.13486445823E+02 -0.36214285247E+02  0.40207006455E+02  0.51100000000E-03 0. -1.
         22    1    1    0    0    0  0.28587696056E+02  0.20154190255E+01 -0.17132890913E+01  0.28709817818E+02  0.00000000000E+00 0.  1.
</event>
<event>
 5    1  0.1102386E-009  0.9118800E+02  0.7818608E-02  0.1130116E+00
         25   -1    0    0    0    0  0.00000000000E+00  0.00000000000E+00  0.99999998245E-14  0.12500000000E+03  0.12500000000E+03 0.  0.
        -11    1    3    3    0    0 -0.29537647745E+02 -0.71820549449E+01  0.30761239978E+02  0.43247062707E+02  0.51100000000E-03 0. -1.
         23    2    1    0    0    0  0.16495847384E+01  0.28262020159E+02  0.85168422582E+01  0.95436517199E+02  0.90742103236E+02 0.  0.
         11    1    3    3    0    0  0.31187232483E+02  0.35444075104E+02 -0.22244397720E+02  0.52189454492E+02  0.51100000000E-03 0.  1.
         22    1    1    0    0    0 -0.16495847384E+01 -0.28262020159E+02 -0.85168422582E+01  0.29563482801E+02  0.00000000000E+00 0. -1.
</event>
<event>
 5    1  0.1102386E-009  0.9118800E+02  0.7818608E-02  0.1130116E+00
         25   -1    0    0    0    0  0.00000000000E+00  0.00000000000E+00  0.99999998245E-14  0.12500000000E+03  0.12500000000E+03 0.  0.
        -11    1    3    3    0    0 -0.44160250836E+02  0.24276086516E+02  0.26746973431E+02  0.57051351591E+02  0.51100000000E-03 0.  1.
         23    2    1    0    0    0 -0.12298728693E+02  0.31957153596E+01  0.26893521414E+02  0.95255541387E+02  0.90492460165E+02 0.  0.
         11    1    3    3    0    0  0.31861522143E+02 -0.21080371156E+02  0.14654798341E+00  0.38204189796E+02  0.51100000000E-03 0. -1.
         22    1    1    0    0    0  0.12298728693E+02 -0.31957153596E+01 -0.26893521414E+02  0.29744458613E+02  0.00000000000E+00 0.  1.
</event>
<event>
 5    1  0.1102386E-009  0.9118800E+02  0.7818608E-02  0.1130116E+00
         25   -1    0    0    0    0  0.00000000000E+00  0.00000000000E+00  0.99999998245E-14  0.12500000000E+03  0.12500000000E+03 0.  0.
        -11    1    3    3    0    0 -0.37599419329E+02 -0.44634315072E+01 -0.10021693163E+02  0.39167242548E+02  0.51100000000E-03 0.  1.
         23    2    1    0    0    0  0.44392665465E+01  0.23809957586E+02  0.15851548272E+02  0.96053622846E+02  0.91588240029E+02 0.  0.
         11    1    3    3    0    0  0.42038685875E+02  0.28273389093E+02  0.25873241435E+02  0.56886380299E+02  0.51100000000E-03 0. -1.
         22    1    1    0    0    0 -0.44392665465E+01 -0.23809957586E+02 -0.15851548272E+02  0.28946377154E+02  0.00000000000E+00 0. -1.
</event>
<event>
 5    1  0.1102386E-009  0.9118800E+02  0.7818608E-02  0.1130116E+00
         25   -1    0    0    0    0  0.00000000000E+00  0.00000000000E+00  0.99999998245E-14  0.12500000000E+03  0.12500000000E+03 0.  0.
        -11    1    3    3    0    0 -0.39606635178E+02 -0.13125955656E+02  0.26306085951E+02  0.49325312167E+02  0.51100000000E-03 0.  1.
         23    2    1    0    0    0  0.70479830444E+01 -0.24240708498E+01  0.26788439143E+02  0.97194053582E+02  0.93131699199E+02 0.  0.
         11    1    3    3    0    0  0.46654618222E+02  0.10701884806E+02  0.48235319152E+00  0.47868741416E+02  0.51100000000E-03 0. -1.
         22    1    1    0    0    0 -0.70479830444E+01  0.24240708498E+01 -0.26788439143E+02  0.27805946418E+02  0.00000000000E+00 0.  1.
</event>
<event>
 5    1  0.1102386E-009  0.9118800E+02  0.7818608E-02  0.1130116E+00
         25   -1    0    0    0    0  0.00000000000E+00  0.00000000000E+00  0.99999998245E-14  0.12500000000E+03  0.12500000000E+03 0.  0.
        -11    1    3    3    0    0 -0.81056598239E+00  0.40309287847E+02 -0.22954146292E+02  0.46393841577E+02  0.51100000000E-03 0. -1.
         23    2    1    0    0    0  0.19710716722E+02  0.13425752576E+02  0.14682547024E+02  0.96993922570E+02  0.92862697799E+02 0.  0.
         11    1    3    3    0    0  0.20521282704E+02 -0.26883535272E+02  0.37636693316E+02  0.50600080993E+02  0.51100000000E-03 0.  1.
         22    1    1    0    0    0 -0.19710716722E+02 -0.13425752576E+02 -0.14682547024E+02  0.28006077430E+02  0.00000000000E+00 0.  1.
</event>
<event>
 5    1  0.1102386E-009  0.9118800E+02  0.7818608E-02  0.1130116E+00
         25   -1    0    0    0    0  0.00000000000E+00  0.00000000000E+00  0.99999998245E-14  0.12500000000E+03  0.12500000000E+03 0.  0.
        -11    1    3    3    0    0 -0.18916592562E+02  0.28565637229E+02 -0.47937132069E+01  0.34594982165E+02  0.51100000000E-03 0. -1.
         23    2    1    0    0    0  0.15876869713E+02 -0.20122885547E+02 -0.14999343256E+02  0.95301754046E+02  0.90556272624E+02 0.  0.
         11    1    3    3    0    0  0.34793462275E+02 -0.48688522776E+02 -0.10205630050E+02  0.60706771881E+02  0.51100000000E-03 0.  1.
         22    1    1    0    0    0 -0.15876869713E+02  0.20122885547E+02  0.14999343256E+02  0.29698245954E+02  0.00000000000E+00 0.  1.
</event>
<event>
 5    1  0.1102386E-009  0.9118800E+02  0.7818608E-02  0.1130116E+00
         25   -1    0    0    0    0  0.00000000000E+00  0.00000000000E+00  0.99999998245E-14  0.12500000000E+03  0.12500000000E+03 0.  0.
        -11    1    3    3    0    0 -0.42501893565E+02  0.14050222314E+02  0.40940761475E+02  0.60662720464E+02  0.51100000000E-03 0. -1.
         23    2    1    0    0    0 -0.25338113847E+02  0.84723359352E+01  0.10018407019E+02  0.96466353743E+02  0.92149815170E+02 0.  0.
         11    1    3    3    0    0  0.17163779718E+02 -0.55778863786E+01 -0.30922354456E+02  0.35803633280E+02  0.51100000000E-03 0.  1.
         22    1    1    0    0    0  0.25338113847E+02 -0.84723359352E+01 -0.10018407019E+02  0.28533646257E+02  0.00000000000E+00 0. -1.
</event>
<event>
 5    1  0.1102386E-009  0.9118800E+02  0.7818608E-02  0.1130116E+00
         25   -1    0    0    0    0  0.00000000000E+00  0.00000000000E+00  0.99999998245E-14  0.12500000000E+03  0.12500000000E+03 0.  0.
        -11    1    3    3    0    0 -0.32122407183E+02 -0.17622117599E+02  0.23762096976E+02  0.43669501083E+02  0.51100000000E-03 0.  1.
         23    2    1    0    0    0 -0.10889785083E+02  0.26031813113E+02  0.15154102259E+02  0.92970489726E+02  0.87278991926E+02 0.  0.
         11    1    3    3    0    0  0.21232622101E+02  0.43653930712E+02 -0.86079947167E+01  0.49300988643E+02  0.51100000000E-03 0. -1.
         22    1    1    0    0    0  0.10889785083E+02 -0.26031813113E+02 -0.15154102259E+02  0.32029510274E+02  0.00000000000E+00 0. -1.
</event>
<event>
 5    1  0.1102386E-009  0.9118800E+02  0.7818608E-02  0.1130116E+00
         25   -1    0    0    0    0  0.00000000000E+00  0.00000000000E+00  0.99999998245E-14  0.12500000000E+03  0.12500000000E+03 0.  0.
        -11    1    3    3    0    0 -0.75257039390E+01  0.33689747952E+02  0.11656647782E+02  0.36435048712E+02  0.51100000000E-03 0. -1.
         23    2    1    0    0    0  0.94276257039E+01 -0.24144434315E+02  0.11351255554E+02  0.96703625012E+02  0.92471110369E+02 0.  0.
         11    1    3    3    0    0  0.16953329643E+02 -0.57834182268E+02 -0.30539222774E+00  0.60268576300E+02  0.51100000000E-03 0.  1.
         22    1    1    0    0    0 -0.94276257039E+01  0.24144434315E+02 -0.11351255554E+02  0.28296374988E+02  0.00000000000E+00 0.  1.
</event>
<event>
 5    1  0.1102386E-009  0.9118800E+02  0.7818608E-02  0.1130116E+00
         25   -1    0    0    0    0  0.00000000000E+00  0.00000000000E+00  0.99999998245E-14  0.12500000000E+03  0.12500000000E+03 0.  0.
        -11    1    3    3    0    0 -0.35041649016E+02 -0.47416778748E+00  0.75345840966E+01  0.35845668617E+02  0.51100000000E-03 0. -1.
         23    2    1    0    0    0  0.24486476311E+02 -0.94779260009E+01  0.11824520254E+02  0.96203509196E+02  0.91792577581E+02 0.  0.
         11    1    3    3    0    0  0.59528125327E+02 -0.90037582134E+01  0.42899361572E+01  0.60357840579E+02  0.51100000000E-03 0.  1.
         22    1    1    0    0    0 -0.24486476311E+02  0.94779260009E+01 -0.11824520254E+02  0.28796490804E+02  0.00000000000E+00 0.  1.
</event>
<event>
 5    1  0.1102386E-009  0.9118800E+02  0.7818608E-02  0.1130116E+00
         25   -1    0    0    0    0  0.00000000000E+00  0.00000000000E+00  0.99999998245E-14  0.12500000000E+03  0.12500000000E+03 0.  0.
        -11    1    3    3    0    0  0.80793608781E+01  0.37921633048E+02 -0.33746407042E+02  0.51401812359E+02  0.51100000000E-03 0. -1.
         23    2    1    0    0    0 -0.19606646278E+02  0.18611123816E+02 -0.17525917607E+01  0.97910037175E+02  0.94087774412E+02 0.  0.
         11    1    3    3    0    0 -0.27686007156E+02 -0.19310509232E+02  0.31993815282E+02  0.46508224816E+02  0.51100000000E-03 0.  1.
         22    1    1    0    0    0  0.19606646278E+02 -0.18611123816E+02  0.17525917607E+01  0.27089962825E+02  0.00000000000E+00 0.  1.
</event>
<event>
 5    1  0.1102386E-009  0.9118800E+02  0.7818608E-02  0.1130116E+00
         25   -1    0    0    0    0  0.00000000000E+00  0.00000000000E+00  0.99999998245E-14  0.12500000000E+03  0.12500000000E+03 0.  0.
        -11    1    3    3    0    0  0.38512798352E+02  0.96351496672E+01  0.16465931459E+02  0.42979048908E+02  0.51100000000E-03 0.  1.
         23    2    1    0    0    0 -0.13962758273E+02  0.51208887028E+01  0.24581169582E+02  0.96269945741E+02  0.91883004061E+02 0.  0.
         11    1    3    3    0    0 -0.52475556625E+02 -0.45142609644E+01  0.81152381231E+01  0.53290896833E+02  0.51100000000E-03 0. -1.
         22    1    1    0    0    0  0.13962758273E+02 -0.51208887028E+01 -0.24581169582E+02  0.28730054259E+02  0.00000000000E+00 0. -1.
</event>
<event>
 5    1  0.1102386E-009  0.9118800E+02  0.7818608E-02  0.1130116E+00
         25   -1    0    0    0    0  0.00000000000E+00  0.00000000000E+00  0.99999998245E-14  0.12500000000E+03  0.12500000000E+03 0.  0.
        -11    1    3    3    0    0 -0.91933058292E+01  0.11503647728E+01  0.54373810294E+02  0.55157514967E+02  0.51100000000E-03 0.  1.
         23    2    1    0    0    0  0.45196323649E+01 -0.18887663864E+02  0.21484412892E+02  0.96038803197E+02  0.91568011878E+02 0.  0.
         11    1    3    3    0    0  0.13712938194E+02 -0.20038028637E+02 -0.32889397402E+02  0.40881288230E+02  0.51100000000E-03 0. -1.
         22    1    1    0    0    0 -0.45196323649E+01  0.18887663864E+02 -0.21484412892E+02  0.28961196803E+02  0.00000000000E+00 0.  1.
</event>
<event>
 5    1  0.1102386E-009  0.9118800E+02  0.7818608E-02  0.1130116E+00
         25   -1    0    0    0    0  0.00000000000E+00  0.00000000000E+00  0.99999998245E-14  0.12500000000E+03  0.12500000000E+03 0.  0.
        -11    1    3    3    0    0  0.48789794653E+00 -0.36260720654E+02  0.18242456713E+02  0.40593905133E+02  0.51100000000E-03 0.  1.
         23    2    1    0    0    0  0.28779576584E+01  0.22790616834E+02  0.16976774552E+01  0.10196574367E+03  0.99329934649E+02 0.  0.
         11    1    3    3    0    0  0.23900597119E+01  0.59051337487E+02 -0.16544779258E+02  0.61371838537E+02  0.51100000000E-03 0. -1.
         22    1    1    0    0    0 -0.28779576584E+01 -0.22790616834E+02 -0.16976774552E+01  0.23034256330E+02  0.00000000000E+00 0. -1.
</event>
<event>
 5    1  0.1102386E-009  0.9118800E+02  0.7818608E-02  0.1130116E+00
         25   -1    0    0    0    0  0.00000000000E+00  0.00000000000E+00  0.99999998245E-14  0.12500000000E+03  0.12500000000E+03 0.  0.
        -11    1    3    3    0    0 -0.30184774546E+02 -0.42470880100E+02  0.15553628052E+02  0.54376572314E+02  0.51100000000E-03 0.  1.
         23    2    1    0    0    0 -0.57796486582E+01 -0.26165333204E+02 -0.12904373029E+02  0.95258583700E+02  0.90496662508E+02 0.  0.
         11    1    3    3    0    0  0.24405125887E+02  0.16305546896E+02 -0.28458001081E+02  0.40882011386E+02  0.51100000000E-03 0. -1.
         22    1    1    0    0    0  0.57796486582E+01  0.26165333204E+02  0.12904373029E+02  0.29741416300E+02  0.00000000000E+00 0.  1.
</event>
<event>
 5    1  0.1102386E-009  0.9118800E+02  0.7818608E-02  0.1130116E+00
         25   -1    0    0    0    0  0.00000000000E+00  0.00000000000E+00  0.99999998245E-14  0.12500000000E+03  0.12500000000E+03 0.  0.
        -11    1    3    3    0    0 -0.28418906183E+02  0.12927403012E+02  0.51049937882E+02  0.59840188296E+02  0.51100000000E-03 0.  1.
         23    2    1    0    0    0 -0.21112873265E+02  0.11371069411E+02  0.14869425166E+02  0.96783791150E+02  0.92579413412E+02 0.  0.
         11    1    3    3    0    0  0.73060329181E+01 -0.15563336008E+01 -0.36180512715E+02  0.36943602855E+02  0.51100000000E-03 0. -1.
         22    1    1    0    0    0  0.21112873265E+02 -0.11371069411E+02 -0.14869425166E+02  0.28216208850E+02  0.00000000000E+00 0.  1.
</event>
<event>
 5    1  0.1102386E-009  0.9118800E+02  0.7818608E-02  0.1130116E+00
         25   -1    0    0    0    0  0.00000000000E+00  0.00000000000E+00  0.99999998245E-14  0.12500000000E+03  0.12500000000E+03 0.  0.
        -11    1    3    3    0    0 -0.18006158509E+02 -0.17394811955E+02  0.26538185278E+02  0.36483921189E+02  0.51100000000E-03 0. -1.
         23    2    1    0    0    0  0.25190339170E+02 -0.88538578002E+01 -0.12672262951E+02  0.95444455110E+02  0.90753037290E+02 0.  0.
         11    1    3    3    0    0  0.43196497679E+02  0.85409541547E+01 -0.39210448229E+02  0.58960533921E+02  0.51100000000E-03 0.  1.
         22    1    1    0    0    0 -0.25190339170E+02  0.88538578002E+01  0.12672262951E+02  0.29555544890E+02  0.00000000000E+00 0.  1.
</event>
<event>
 5    1  0.1102386E-009  0.9118800E+02  0.7818608E-02  0.1130116E+00
         25   -1    0    0    0    0  0.00000000000E+00  0.00000000000E+00  0.99999998245E-14  0.12500000000E+03  0.12500000000E+03 0.  0.
        -11    1    3    3    0    0  0.16273573833E+01  0.41359091430E+02 -0.15155016258E+02  0.44078308202E+02  0.51100000000E-03 0.  1.
         23    2    1    0    0    0  0.29069334256E+02  0.67368012720E+00  0.14505506437E+01  0.95886701730E+02  0.91360141377E+02 0.  0.
         11    1    3    3    0    0  0.27441976873E+02 -0.40685411302E+02  0.16605566902E+02  0.51808393528E+02  0.51100000000E-03 0. -1.
         22    1    1    0    0    0 -0.29069334256E+02 -0.67368012720E+00 -0.14505506437E+01  0.29113298270E+02  0.00000000000E+00 0.  1.
</event>
<event>
 5    1  0.1102386E-009  0.9118800E+02  0.7818608E-02  0.1130116E+00
         25   -1    0    0    0    0  0.00000000000E+00  0.00000000000E+00  0.99999998245E-14  0.12500000000E+03  0.12500000000E+03 0.  0.
        -11    1    3    3    0    0 -0.18887601451E+02 -0.21950773926E+02  0.38930222615E+02  0.48519482660E+02  0.51100000000E-03 0.  1.
         23    2    1    0    0    0  0.20765833222E+02 -0.12392458104E+01  0.15768494196E+02  0.98896341851E+02  0.95389126543E+02 0.  0.
         11    1    3    3    0    0  0.39653434673E+02  0.20711528116E+02 -0.23161728419E+02  0.50376859190E+02  0.51100000000E-03 0. -1.
         22    1    1    0    0    0 -0.20765833222E+02  0.12392458104E+01 -0.15768494196E+02  0.26103658149E+02  0.00000000000E+00 0.  1.
</event>
<event>
 5    1  0.1102386E-009  0.9118800E+02  0.7818608E-02  0.1130116E+00
         25   -1    0    0    0    0  0.00000000000E+00  0.00000000000E+00  0.99999998245E-14  0.12500000000E+03  0.12500000000E+03 0.  0.
        -11    1    3    3    0    0  0.14057960962E+02 -0.50162929776E+01  0.13933729395E+02  0.20419066500E+02  0.51100000000E-03 0.  1.
         23    2    1    0    0    0 -0.32588666889E+02 -0.46421936853E+01 -0.26957646906E+02  0.82452545334E+02  0.70626739508E+02 0.  0.
         11    1    3    3    0    0 -0.46646627851E+02  0.37409929237E+00 -0.40891376301E+02  0.62033478834E+02  0.51100000000E-03 0. -1.
         22    1    1    0    0    0  0.32588666889E+02  0.46421936853E+01  0.26957646906E+02  0.42547454666E+02  0.00000000000E+00 0. -1.
</event>
<event>
 5    1  0.1102386E-009  0.9118800E+02  0.7818608E-02  0.1130116E+00
         25   -1    0    0    0    0  0.00000000000E+00  0.00000000000E+00  0.99999998245E-14  0.12500000000E+03  0.12500000000E+03 0.  0.
        -11    1    3    3    0    0 -0.39299762263E+02 -0.11210670979E+02 -0.13367140319E+02  0.42998033656E+02  0.51100000000E-03 0.  1.
         23    2    1    0    0    0  0.24095313829E+01 -0.28500886520E+02  0.11060411043E+02  0.94333421020E+02  0.89209614140E+02 0.  0.
         11    1    3    3    0    0  0.41709293646E+02 -0.17290215541E+02  0.24427551363E+02  0.51335387364E+02  0.51100000000E-03 0. -1.
         22    1    1    0    0    0 -0.24095313829E+01  0.28500886520E+02 -0.11060411043E+02  0.30666578980E+02  0.00000000000E+00 0. -1.
</event>
<event>
 5    1  0.1102386E-009  0.9118800E+02  0.7818608E-02  0.1130116E+00
         25   -1    0    0    0    0  0.00000000000E+00  0.00000000000E+00  0.99999998245E-14  0.12500000000E+03  0.12500000000E+03 0.  0.
        -11    1    3    3    0    0  0.11136798978E+02 -0.16508168057E+01 -0.57137571826E+02  0.58236205251E+02  0.51100000000E-03 0. -1.
         23    2    1    0    0    0 -0.40684177213E+01  0.12745304111E+02 -0.26003995288E+02  0.95756153287E+02  0.91181348541E+02 0.  0.
         11    1    3    3    0    0 -0.15205216700E+02  0.14396120917E+02  0.31133576538E+02  0.37519948036E+02  0.51100000000E-03 0.  1.
         22    1    1    0    0    0  0.40684177213E+01 -0.12745304111E+02  0.26003995288E+02  0.29243846713E+02  0.00000000000E+00 0. -1.
</event>
<event>
 5    1  0.1102386E-009  0.9118800E+02  0.7818608E-02  0.1130116E+00
         25   -1    0    0    0    0  0.00000000000E+00  0.00000000000E+00  0.99999998245E-14  0.12500000000E+03  0.12500000000E+03 0.  0.
        -11    1    3    3    0    0 -0.23970930412E+02 -0.26038121188E+02 -0.48961843621E+00  0.35395324356E+02  0.51100000000E-03 0. -1.
         23    2    1    0    0    0  0.23037317266E+02  0.81605070540E+01 -0.16280654216E+02  0.95633836412E+02  0.91013510552E+02 0.  0.
         11    1    3    3    0    0  0.47008247678E+02  0.34198628242E+02 -0.15791035779E+02  0.60238512055E+02  0.51100000000E-03 0.  1.
         22    1    1    0    0    0 -0.23037317266E+02 -0.81605070540E+01  0.16280654216E+02  0.29366163588E+02  0.00000000000E+00 0.  1.
</event>
<event>
 5    1  0.1102386E-009  0.9118800E+02  0.7818608E-02  0.1130116E+00
         25   -1    0    0    0    0  0.00000000000E+00  0.00000000000E+00  0.99999998245E-14  0.12500000000E+03  0.12500000000E+03 0.  0.
        -11    1    3    3    0    0  0.12457307160E+02 -0.52051123288E+02 -0.26851675669E+02  0.59879181889E+02  0.51100000000E-03 0.  1.
         23    2    1    0    0    0  0.59829226618E+01 -0.27156517227E+02  0.17724801116E+00  0.97191670163E+02  0.93128500153E+02 0.  0.
         11    1    3    3    0    0 -0.64743844977E+01  0.24894606061E+02  0.27028923681E+02  0.37312488273E+02  0.51100000000E-03 0. -1.
         22    1    1    0    0    0 -0.59829226618E+01  0.27156517227E+02 -0.17724801116E+00  0.27808329837E+02  0.00000000000E+00 0.  1.
</event>
<event>
 5    1  0.1102386E-009  0.9118800E+02  0.7818608E-02  0.1130116E+00
         25   -1    0    0    0    0  0.00000000000E+00  0.00000000000E+00  0.99999998245E-14  0.12500000000E+03  0.12500000000E+03 0.  0.
        -11    1    3    3    0    0 -0.41871807906E+02 -0.13201418543E+01 -0.10059553143E+02  0.43083473415E+02  0.51100000000E-03 0.  1.
         23    2    1    0    0    0 -0.89144278089E+01 -0.30230050825E+01  0.29170510488E+02  0.94348339930E+02  0.89230515983E+02 0.  0.
         11    1    3    3    0    0  0.32957380097E+02 -0.17028632281E+01  0.39230063631E+02  0.51264866515E+02  0.51100000000E-03 0. -1.
         22    1    1    0    0    0  0.89144278089E+01  0.30230050825E+01 -0.29170510488E+02  0.30651660070E+02  0.00000000000E+00 0. -1.
</event>
<event>
 5    1  0.1102386E-009  0.9118800E+02  0.7818608E-02  0.1130116E+00
         25   -1    0    0    0    0  0.00000000000E+00  0.00000000000E+00  0.99999998245E-14  0.12500000000E+03  0.12500000000E+03 0.  0.
        -11    1    3    3    0    0  0.26136342614E+02 -0.28105561862E+02  0.29518765838E+02  0.48418886291E+02  0.51100000000E-03 0.  1.
         23    2    1    0    0    0  0.54529604212E+01 -0.24861480786E+02 -0.13446715930E+02  0.96213854486E+02  0.91806664363E+02 0.  0.
         11    1    3    3    0    0 -0.20683382193E+02  0.32440810756E+01 -0.42965481768E+02  0.47794968195E+02  0.51100000000E-03 0. -1.
         22    1    1    0    0    0 -0.54529604212E+01  0.24861480786E+02  0.13446715930E+02  0.28786145514E+02  0.00000000000E+00 0. -1.
</event>
<event>
 5    1  0.1102386E-009  0.9118800E+02  0.7818608E-02  0.1130116E+00
         25   -1    0    0    0    0  0.00000000000E+00  0.00000000000E+00  0.99999998245E-14  0.12500000000E+03  0.12500000000E+03 0.  0.
        -11    1    3    3    0    0 -0.22811497726E+02  0.17544064475E+02  0.36418815410E+02  0.46416470599E+02  0.51100000000E-03 0.  1.
         23    2    1    0    0    0 -0.16289261776E+02 -0.22909557532E+02  0.10033306107E+02  0.95152804035E+02  0.90350434469E+02 0.  0.
         11    1    3    3    0    0  0.65222359501E+01 -0.40453622008E+02 -0.26385509303E+02  0.48736333436E+02  0.51100000000E-03 0. -1.
         22    1    1    0    0    0  0.16289261776E+02  0.22909557532E+02 -0.10033306107E+02  0.29847195965E+02  0.00000000000E+00 0. -1.
</event>
<event>
 5    1  0.1102386E-009  0.9118800E+02  0.7818608E-02  0.1130116E+00
         25   -1    0    0    0    0  0.00000000000E+00  0.00000000000E+00  0.99999998245E-14  0.12500000000E+03  0.12500000000E+03 0.  0.
        -11    1    3    3    0    0 -0.42064859211E+02  0.44737091674E+02  0.99554255216E+01  0.62209084943E+02  0.51100000000E-03 0.  1.
         23    2    1    0    0    0 -0.26204003334E+02  0.29682700565E+02  0.10330724047E+02  0.84080122644E+02  0.73450872431E+02 0.  0.
         11    1    3    3    0    0  0.15860855877E+02 -0.15054391110E+02  0.37529852500E+00  0.21871037700E+02  0.51100000000E-03 0. -1.
         22    1    1    0    0    0  0.26204003334E+02 -0.29682700565E+02 -0.10330724047E+02  0.40919877356E+02  0.00000000000E+00 0.  1.
</event>
<event>
 5    1  0.1102386E-009  0.9118800E+02  0.7818608E-02  0.1130116E+00
         25   -1    0    0    0    0  0.00000000000E+00  0.00000000000E+00  0.99999998245E-14  0.12500000000E+03  0.12500000000E+03 0.  0.
        -11    1    3    3    0    0  0.22666443795E+02 -0.10437536685E+02  0.29895928094E+02  0.38941961471E+02  0.51100000000E-03 0.  1.
         23    2    1    0    0    0  0.76965376966E+01  0.24404399846E+02 -0.13083963916E+02  0.96259757549E+02  0.91869142738E+02 0.  0.
         11    1    3    3    0    0 -0.14969906098E+02  0.34841936531E+02 -0.42979892010E+02  0.57317796078E+02  0.51100000000E-03 0. -1.
         22    1    1    0    0    0 -0.76965376966E+01 -0.24404399846E+02  0.13083963916E+02  0.28740242451E+02  0.00000000000E+00 0. -1.
</event>
<event>
 5    1  0.1102386E-009  0.9118800E+02  0.7818608E-02  0.1130116E+00
         25   -1    0    0    0    0  0.00000000000E+00  0.00000000000E+00  0.99999998245E-14  0.12500000000E+03  0.12500000000E+03 0.  0.
        -11    1    3    3    0    0 -0.19641691352E+02 -0.48123773335E+01 -0.36838424866E+02  0.42024095013E+02  0.51100000000E-03 0. -1.
         23    2    1    0    0    0  0.25958813338E+02  0.50096197259E+01 -0.61616118287E+01  0.97853697489E+02  0.94012894712E+02 0.  0.
         11    1    3    3    0    0  0.45600504690E+02  0.98219970595E+01  0.30676813037E+02  0.55829602476E+02  0.51100000000E-03 0.  1.
         22    1    1    0    0    0 -0.25958813338E+02 -0.50096197259E+01  0.61616118287E+01  0.27146302511E+02  0.00000000000E+00 0.  1.
</event>
<event>
 5    1  0.1102386E-009  0.9118800E+02  0.7818608E-02  0.1130116E+00
         25   -1    0    0    0    0  0.00000000000E+00  0.00000000000E+00  0.99999998245E-14  0.12500000000E+03  0.12500000000E+03 0.  0.
        -11    1    3    3    0    0 -0.38938737979E+01  0.17487389953E+02  0.40385172077E+02  0.44180687913E+02  0.51100000000E-03 0. -1.
         23    2    1    0    0    0  0.21815872089E+02 -0.15607823769E+02  0.84284633868E+01  0.96882826727E+02  0.92713034044E+02 0.  0.
         11    1    3    3    0    0  0.25709745887E+02 -0.33095213722E+02 -0.31956708690E+02  0.52702138813E+02  0.51100000000E-03 0.  1.
         22    1    1    0    0    0 -0.21815872089E+02  0.15607823769E+02 -0.84284633868E+01  0.28117173273E+02  0.00000000000E+00 0.  1.
</event>
<event>
 5    1  0.1102386E-009  0.9118800E+02  0.7818608E-02  0.1130116E+00
         25   -1    0    0    0    0  0.00000000000E+00  0.00000000000E+00  0.99999998245E-14  0.12500000000E+03  0.12500000000E+03 0.  0.
        -11    1    3    3    0    0  0.83983478124E+01 -0.59105281591E+02  0.33422002174E+01  0.59792448189E+02  0.51100000000E-03 0.  1.
         23    2    1    0    0    0 -0.24366366541E+01 -0.27683541702E+02 -0.97976907465E+01  0.95532892519E+02  0.90874766188E+02 0.  0.
         11    1    3    3    0    0 -0.10834984466E+02  0.31421739889E+02 -0.13139890964E+02  0.35740444329E+02  0.51100000000E-03 0. -1.
         22    1    1    0    0    0  0.24366366541E+01  0.27683541702E+02  0.97976907465E+01  0.29467107481E+02  0.00000000000E+00 0.  1.
</event>
<event>
 5    1  0.1102386E-009  0.9118800E+02  0.7818608E-02  0.1130116E+00
         25   -1    0    0    0    0  0.00000000000E+00  0.00000000000E+00  0.99999998245E-14  0.12500000000E+03  0.12500000000E+03 0.  0.
        -11    1    3    3    0    0 -0.99268870601E+01  0.12855405260E+02 -0.30306296540E+02  0.34384242631E+02  0.51100000000E-03 0.  1.
         23    2    1    0    0    0 -0.89076627209E+01  0.17940913193E+01  0.28942140320E+02  0.94664992087E+02  0.89673006092E+02 0.  0.
         11    1    3    3    0    0  0.10192243392E+01 -0.11061313941E+02  0.59248436860E+02  0.60280749455E+02  0.51100000000E-03 0. -1.
         22    1    1    0    0    0  0.89076627209E+01 -0.17940913193E+01 -0.28942140320E+02  0.30335007913E+02  0.00000000000E+00 0. -1.
</event>
<event>
 5    1  0.1102386E-009  0.9118800E+02  0.7818608E-02  0.1130116E+00
         25   -1    0    0    0    0  0.00000000000E+00  0.00000000000E+00  0.99999998245E-14  0.12500000000E+03  0.12500000000E+03 0.  0.
        -11    1    3    3    0    0 -0.39743553230E+01 -0.20468976476E+02 -0.13633636187E+02  0.24912858811E+02  0.51100000000E-03 0.  1.
         23    2    1    0    0    0 -0.12071360997E+02  0.17609556505E+02  0.33022231024E+02  0.85677207902E+02  0.76120312502E+02 0.  0.
         11    1    3    3    0    0 -0.80970056738E+01  0.38078532981E+02  0.46655867211E+02  0.60764349090E+02  0.51100000000E-03 0. -1.
         22    1    1    0    0    0  0.12071360997E+02 -0.17609556505E+02 -0.33022231024E+02  0.39322792098E+02  0.00000000000E+00 0. -1.
</event>
<event>
 5    1  0.1102386E-009  0.9118800E+02  0.7818608E-02  0.1130116E+00
         25   -1    0    0    0    0  0.00000000000E+00  0.00000000000E+00  0.99999998245E-14  0.12500000000E+03  0.12500000000E+03 0.  0.
        -11    1    3    3    0    0  0.34067479126E+02  0.23750473044E+02  0.29144966049E+01  0.41631387132E+02  0.51100000000E-03 0.  1.
         23    2    1    0    0    0 -0.82583756660E+00 -0.13183321349E+02  0.24758733730E+02  0.96937981801E+02  0.92787366868E+02 0.  0.
         11    1    3    3    0    0 -0.34893316693E+02 -0.36933794393E+02  0.21844237125E+02  0.55306594669E+02  0.51100000000E-03 0. -1.
         22    1    1    0    0    0  0.82583756660E+00  0.13183321349E+02 -0.24758733730E+02  0.28062018199E+02  0.00000000000E+00 0. -1.
</event>
<event>
 5    1  0.1102386E-009  0.9118800E+02  0.7818608E-02  0.1130116E+00
         25   -1    0    0    0    0  0.00000000000E+00  0.00000000000E+00  0.99999998245E-14  0.12500000000E+03  0.12500000000E+03 0.  0.
        -11    1    3    3    0    0  0.35620200007E+02  0.35461717955E+02 -0.13093242987E+02  0.51940014450E+02  0.51100000000E-03 0. -1.
         23    2    1    0    0    0  0.52397102882E+01  0.35482709797E+02  0.71229663346E+01  0.88432064485E+02  0.80517179045E+02 0.  0.
         11    1    3    3    0    0 -0.30380489718E+02  0.20991841242E-01  0.20216209322E+02  0.36492050035E+02  0.51100000000E-03 0.  1.
         22    1    1    0    0    0 -0.52397102882E+01 -0.35482709797E+02 -0.71229663346E+01  0.36567935515E+02  0.00000000000E+00 0.  1.
</event>
<event>
 5    1  0.1102386E-009  0.9118800E+02  0.7818608E-02  0.1130116E+00
         25   -1    0    0    0    0  0.00000000000E+00  0.00000000000E+00  0.99999998245E-14  0.12500000000E+03  0.12500000000E+03 0.  0.
        -11    1    3    3    0    0 -0.21324339647E+02 -0.18802820355E+02  0.32382753677E+02  0.43091951113E+02  0.51100000000E-03 0. -1.
         23    2    1    0    0    0 -0.27392717990E+02  0.10827875055E+01 -0.14216475140E+02  0.94118912048E+02  0.88908537341E+02 0.  0.
         11    1    3    3    0    0 -0.60683783426E+01  0.19885607860E+02 -0.46599228818E+02  0.51026960936E+02  0.51100000000E-03 0.  1.
         22    1    1    0    0    0  0.27392717990E+02 -0.10827875055E+01  0.14216475140E+02  0.30881087952E+02  0.00000000000E+00 0. -1.
</event>
<event>
 5    1  0.1102386E-009  0.9118800E+02  0.7818608E-02  0.1130116E+00
         25   -1    0    0    0    0  0.00000000000E+00  0.00000000000E+00  0.99999998245E-14  0.12500000000E+03  0.12500000000E+03 0.  0.
        -11    1    3    3    0    0  0.16698529655E+02 -0.16986040920E+02 -0.37157723638E+02  0.44136865600E+02  0.51100000000E-03 0. -1.
         23    2    1    0    0    0 -0.12038600528E+02 -0.18007763585E+02 -0.45944985954E+02  0.74204831073E+02  0.54094433801E+02 0.  0.
         11    1    3    3    0    0 -0.28737130184E+02 -0.10217226647E+01 -0.87872623167E+01  0.30067965473E+02  0.51100000000E-03 0.  1.
         22    1    1    0    0    0  0.12038600528E+02  0.18007763585E+02  0.45944985954E+02  0.50795168927E+02  0.00000000000E+00 0.  1.
</event>
<event>
 5    1  0.1102386E-009  0.9118800E+02  0.7818608E-02  0.1130116E+00
         25   -1    0    0    0    0  0.00000000000E+00  0.00000000000E+00  0.99999998245E-14  0.12500000000E+03  0.12500000000E+03 0.  0.
        -11    1    3    3    0    0 -0.16609160106E+02 -0.18788546405E+02 -0.51500074671E+02  0.57281160662E+02  0.51100000000E-03 0. -1.
         23    2    1    0    0    0 -0.16407713297E+02  0.72218742858E+01 -0.22339151174E+02  0.96357266210E+02  0.92001720377E+02 0.  0.
         11    1    3    3    0    0  0.20144680920E+00  0.26010420691E+02  0.29160923497E+02  0.39076105548E+02  0.51100000000E-03 0.  1.
         22    1    1    0    0    0  0.16407713297E+02 -0.72218742858E+01  0.22339151174E+02  0.28642733790E+02  0.00000000000E+00 0. -1.
</event>
<event>
 5    1  0.1102386E-009  0.9118800E+02  0.7818608E-02  0.1130116E+00
         25   -1    0    0    0    0  0.00000000000E+00  0.00000000000E+00  0.99999998245E-14  0.12500000000E+03  0.12500000000E+03 0.  0.
        -11    1    3    3    0    0  0.35826697906E+02 -0.45726604919E+02 -0.11882955193E+02  0.59293164064E+02  0.51100000000E-03 0.  1.
         23    2    1    0    0    0  0.24803823570E+02 -0.11727091994E+02 -0.12047040118E+02  0.95035261958E+02  0.90187668168E+02 0.  0.
         11    1    3    3    0    0 -0.11022874336E+02  0.33999512925E+02 -0.16408492416E+00  0.35742097895E+02  0.51100000000E-03 0. -1.
         22    1    1    0    0    0 -0.24803823570E+02  0.11727091994E+02  0.12047040118E+02  0.29964738042E+02  0.00000000000E+00 0.  1.
</event>
<event>
 5    1  0.1102386E-009  0.9118800E+02  0.7818608E-02  0.1130116E+00
         25   -1    0    0    0    0  0.00000000000E+00  0.00000000000E+00  0.99999998245E-14  0.12500000000E+03  0.12500000000E+03 0.  0.
        -11    1    3    3    0    0  0.30991035154E+02 -0.34004595408E+02 -0.25473856237E+02  0.52589676940E+02  0.51100000000E-03 0. -1.
         23    2    1    0    0    0  0.15487165524E+02 -0.21963187396E+02  0.12517733823E+02  0.95353287592E+02  0.90627379405E+02 0.  0.
         11    1    3    3    0    0 -0.15503869630E+02  0.12041408012E+02  0.37991590060E+02  0.42763610652E+02  0.51100000000E-03 0.  1.
         22    1    1    0    0    0 -0.15487165524E+02  0.21963187396E+02 -0.12517733823E+02  0.29646712408E+02  0.00000000000E+00 0. -1.
</event>
<event>
 5    1  0.1102386E-009  0.9118800E+02  0.7818608E-02  0.1130116E+00
         25   -1    0    0    0    0  0.00000000000E+00  0.00000000000E+00  0.99999998245E-14  0.12500000000E+03  0.12500000000E+03 0.  0.
        -11    1    3    3    0    0 -0.35814354557E+02  0.21161986886E+02 -0.29733377693E+02  0.51132880132E+02  0.51100000000E-03 0.  1.
         23    2    1    0    0    0  0.12097591205E+02  0.10330234752E+02 -0.16661859193E+02  0.10196344178E+03  0.99327037831E+02 0.  0.
         11    1    3    3    0    0  0.47911945762E+02 -0.10831752133E+02  0.13071518499E+02  0.50830561645E+02  0.51100000000E-03 0. -1.
         22    1    1    0    0    0 -0.12097591205E+02 -0.10330234752E+02  0.16661859193E+02  0.23036558223E+02  0.00000000000E+00 0.  1.
</event>
<event>
 5    1  0.1102386E-009  0.9118800E+02  0.7818608E-02  0.1130116E+00
         25   -1    0    0    0    0  0.00000000000E+00  0.00000000000E+00  0.99999998245E-14  0.12500000000E+03  0.12500000000E+03 0.  0.
        -11    1    3    3    0    0 -0.21933977704E+02 -0.51322289882E+02  0.25122592098E+02  0.61206384068E+02  0.51100000000E-03 0.  1.
         23    2    1    0    0    0 -0.18535108832E+01 -0.24030807306E+02  0.15171660253E+02  0.96520279545E+02  0.92222935792E+02 0.  0.
         11    1    3    3    0    0  0.20080466821E+02  0.27291482576E+02 -0.99509318448E+01  0.35313895477E+02  0.51100000000E-03 0. -1.
         22    1    1    0    0    0  0.18535108832E+01  0.24030807306E+02 -0.15171660253E+02  0.28479720455E+02  0.00000000000E+00 0.  1.
</event>
<event>
 5    1  0.1102386E-009  0.9118800E+02  0.7818608E-02  0.1130116E+00
         25   -1    0    0    0    0  0.00000000000E+00  0.00000000000E+00  0.99999998245E-14  0.12500000000E+03  0.12500000000E+03 0.  0.
        -11    1    3    3    0    0 -0.21823284302E+02  0.30656262089E+02 -0.87303278605E+01  0.38630050062E+02  0.51100000000E-03 0.  1.
         23    2    1    0    0    0 -0.21841354128E+02 -0.23304700823E+02 -0.42887268379E+01  0.92773504558E+02  0.86996414521E+02 0.  0.
         11    1    3    3    0    0 -0.18069825575E-01 -0.53960962912E+02  0.44416010226E+01  0.54143454496E+02  0.51100000000E-03 0. -1.
         22    1    1    0    0    0  0.21841354128E+02  0.23304700823E+02  0.42887268379E+01  0.32226495442E+02  0.00000000000E+00 0. -1.
</event>
<event>
 5    1  0.1102386E-009  0.9118800E+02  0.7818608E-02  0.1130116E+00
         25   -1    0    0    0    0  0.00000000000E+00  0.00000000000E+00  0.99999998245E-14  0.12500000000E+03  0.12500000000E+03 0.  0.
        -11    1    3    3    0    0 -0.96328219717E+01  0.96009063740E+01  0.38797511573E+02  0.41112231354E+02  0.51100000000E-03 0.  1.
         23    2    1    0    0    0  0.13716336596E+02 -0.26300627459E+02  0.68103501424E+01  0.94565779730E+02  0.89534601873E+02 0.  0.
         11    1    3    3    0    0  0.23349158567E+02 -0.35901533833E+02 -0.31987161431E+02  0.53453548377E+02  0.51100000000E-03 0. -1.
         22    1    1    0    0    0 -0.13716336596E+02  0.26300627459E+02 -0.68103501424E+01  0.30434220270E+02  0.00000000000E+00 0.  1.
</event>
<event>
 5    1  0.1102386E-009  0.9118800E+02  0.7818608E-02  0.1130116E+00
         25   -1    0    0    0    0  0.00000000000E+00  0.00000000000E+00  0.99999998245E-14  0.12500000000E+03  0.12500000000E+03 0.  0.
        -11    1    3    3    0    0  0.52261667196E+02 -0.76006236116E+01 -0.73725722133E+01  0.53323598516E+02  0.51100000000E-03 0.  1.
         23    2    1    0    0    0  0.22205049862E+02 -0.20784227359E+02  0.12967768104E+02  0.91936253148E+02  0.85784982876E+02 0.  0.
         11    1    3    3    0    0 -0.30056617333E+02 -0.13183603747E+02  0.20340340317E+02  0.38612654632E+02  0.51100000000E-03 0. -1.
         22    1    1    0    0    0 -0.22205049862E+02  0.20784227359E+02 -0.12967768104E+02  0.33063746852E+02  0.00000000000E+00 0.  1.
</event>
<event>
 5    1  0.1102386E-009  0.9118800E+02  0.7818608E-02  0.1130116E+00
         25   -1    0    0    0    0  0.00000000000E+00  0.00000000000E+00  0.99999998245E-14  0.12500000000E+03  0.12500000000E+03 0.  0.
        -11    1    3    3    0    0  0.14501645675E+02  0.30527912602E+02 -0.51472077909E+02  0.61576180294E+02  0.51100000000E-03 0. -1.
         23    2    1    0    0    0  0.79500549461E+01  0.19751260667E+02 -0.18805141577E+02  0.96593151859E+02  0.92321654907E+02 0.  0.
         11    1    3    3    0    0 -0.65515907286E+01 -0.10776651936E+02  0.32666936331E+02  0.35016971565E+02  0.51100000000E-03 0.  1.
         22    1    1    0    0    0 -0.79500549461E+01 -0.19751260667E+02  0.18805141577E+02  0.28406848141E+02  0.00000000000E+00 0. -1.
</event>
<event>
 5    1  0.1102386E-009  0.9118800E+02  0.7818608E-02  0.1130116E+00
         25   -1    0    0    0    0  0.00000000000E+00  0.00000000000E+00  0.99999998245E-14  0.12500000000E+03  0.12500000000E+03 0.  0.
        -11    1    3    3    0    0 -0.33513298331E+02 -0.10022865274E+02 -0.91294381557E+01  0.36151703066E+02  0.51100000000E-03 0.  1.
         23    2    1    0    0    0  0.68265256407E+01 -0.33440456501E+02  0.13871450348E+02  0.88158681917E+02  0.80091638011E+02 0.  0.
         11    1    3    3    0    0  0.40339823972E+02 -0.23417591227E+02  0.23000888504E+02  0.52006978851E+02  0.51100000000E-03 0. -1.
         22    1    1    0    0    0 -0.68265256407E+01  0.33440456501E+02 -0.13871450348E+02  0.36841318083E+02  0.00000000000E+00 0. -1.
</event>
<event>
 5    1  0.1102386E-009  0.9118800E+02  0.7818608E-02  0.1130116E+00
         25   -1    0    0    0    0  0.00000000000E+00  0.00000000000E+00  0.99999998245E-14  0.12500000000E+03  0.12500000000E+03 0.  0.
        -11    1    3    3    0    0 -0.37486924415E+02  0.71652432871E+01  0.78515694103E+01  0.38964822031E+02  0.51100000000E-03 0. -1.
         23    2    1    0    0    0  0.56459583888E+01 -0.25340819018E+02 -0.11856944890E+02  0.96458432125E+02  0.92139068974E+02 0.  0.
         11    1    3    3    0    0  0.43132882804E+02 -0.32506062305E+02 -0.19708514300E+02  0.57493610094E+02  0.51100000000E-03 0.  1.
         22    1    1    0    0    0 -0.56459583888E+01  0.25340819018E+02  0.11856944890E+02  0.28541567875E+02  0.00000000000E+00 0.  1.
</event>
<event>
 5    1  0.1102386E-009  0.9118800E+02  0.7818608E-02  0.1130116E+00
         25   -1    0    0    0    0  0.00000000000E+00  0.00000000000E+00  0.99999998245E-14  0.12500000000E+03  0.12500000000E+03 0.  0.
        -11    1    3    3    0    0 -0.24345238062E+02  0.90964318327E+01  0.32718807440E+02  0.41784638911E+02  0.51100000000E-03 0. -1.
         23    2    1    0    0    0  0.23738369008E+02  0.14826835036E+02  0.14056055906E+02  0.93680390999E+02  0.88289850775E+02 0.  0.
         11    1    3    3    0    0  0.48083607070E+02  0.57304032031E+01 -0.18662751534E+02  0.51895752088E+02  0.51100000000E-03 0.  1.
         22    1    1    0    0    0 -0.23738369008E+02 -0.14826835036E+02 -0.14056055906E+02  0.31319609001E+02  0.00000000000E+00 0.  1.
</event>
<event>
 5    1  0.1102386E-009  0.9118800E+02  0.7818608E-02  0.1130116E+00
         25   -1    0    0    0    0  0.00000000000E+00  0.00000000000E+00  0.99999998245E-14  0.12500000000E+03  0.12500000000E+03 0.  0.
        -11    1    3    3    0    0 -0.11125425492E+02  0.82146959239E+01  0.37317045012E+02  0.39797213096E+02  0.51100000000E-03 0.  1.
         23    2    1    0    0    0 -0.18614720458E+02 -0.21003325825E+02 -0.93976057350E+01  0.95403336219E+02  0.90696383912E+02 0.  0.
         11    1    3    3    0    0 -0.74892949654E+01 -0.29218021749E+02 -0.46714650747E+02  0.55606123123E+02  0.51100000000E-03 0. -1.
         22    1    1    0    0    0  0.18614720458E+02  0.21003325825E+02  0.93976057350E+01  0.29596663781E+02  0.00000000000E+00 0. -1.
</event>
<event>
 5    1  0.1102386E-009  0.9118800E+02  0.7818608E-02  0.1130116E+00
         25   -1    0    0    0    0  0.00000000000E+00  0.00000000000E+00  0.99999998245E-14  0.12500000000E+03  0.12500000000E+03 0.  0.
        -11    1    3    3    0    0  0.37828675078E+02 -0.88433981693E+01  0.13555187597E+01  0.38872249493E+02  0.51100000000E-03 0.  1.
         23    2    1    0    0    0 -0.81528303893E+01  0.10982762632E+02  0.26704276847E+02  0.94996531528E+02  0.90133971854E+02 0.  0.
         11    1    3    3    0    0 -0.45981505467E+02  0.19826160802E+02  0.25348758087E+02  0.56124282035E+02  0.51100000000E-03 0. -1.
         22    1    1    0    0    0  0.81528303893E+01 -0.10982762632E+02 -0.26704276847E+02  0.30003468472E+02  0.00000000000E+00 0. -1.
</event>
<event>
 5    1  0.1102386E-009  0.9118800E+02  0.7818608E-02  0.1130116E+00
         25   -1    0    0    0    0  0.00000000000E+00  0.00000000000E+00  0.99999998245E-14  0.12500000000E+03  0.12500000000E+03 0.  0.
        -11    1    3    3    0    0  0.42718644144E+02  0.24022286522E+02 -0.17101634454E+02  0.51907790441E+02  0.51100000000E-03 0. -1.
         23    2    1    0    0    0 -0.10189720238E+01  0.27191972333E+02 -0.65679866676E+01  0.97007499000E+02  0.92880970871E+02 0.  0.
         11    1    3    3    0    0 -0.43737616168E+02  0.31696858118E+01  0.10533647786E+02  0.45099708559E+02  0.51100000000E-03 0.  1.
         22    1    1    0    0    0  0.10189720238E+01 -0.27191972333E+02  0.65679866676E+01  0.27992501000E+02  0.00000000000E+00 0.  1.
</event>
<event>
 5    1  0.1102386E-009  0.9118800E+02  0.7818608E-02  0.1130116E+00
         25   -1    0    0    0    0  0.00000000000E+00  0.00000000000E+00  0.99999998245E-14  0.12500000000E+03  0.12500000000E+03 0.  0.
        -11    1    3    3    0    0 -0.60875968476E+01  0.17217669727E+02  0.31344238893E+02  0.36276277349E+02  0.51100000000E-03 0.  1.
         23    2    1    0    0    0  0.14141146626E+01 -0.28478301743E+02 -0.61153870201E+01  0.95838186805E+02  0.91293738565E+02 0.  0.
         11    1    3    3    0    0  0.75017115102E+01 -0.45695971470E+02 -0.37459625913E+02  0.59561909456E+02  0.51100000000E-03 0. -1.
         22    1    1    0    0    0 -0.14141146626E+01  0.28478301743E+02  0.61153870201E+01  0.29161813195E+02  0.00000000000E+00 0. -1.
</event>
<event>
 5    1  0.1102386E-009  0.9118800E+02  0.7818608E-02  0.1130116E+00
         25   -1    0    0    0    0  0.00000000000E+00  0.00000000000E+00  0.99999998245E-14  0.12500000000E+03  0.12500000000E+03 0.  0.
        -11    1    3    3    0    0 -0.49752198556E+02 -0.34659063280E+01  0.82509344472E+01  0.50550684341E+02  0.51100000000E-03 0.  1.
         23    2    1    0    0    0 -0.17246587697E+02  0.16909063732E+02 -0.16084429631E+02  0.95981555865E+02  0.91489829851E+02 0.  0.
         11    1    3    3    0    0  0.32505610859E+02  0.20374970060E+02 -0.24335364079E+02  0.45430871523E+02  0.51100000000E-03 0. -1.
         22    1    1    0    0    0  0.17246587697E+02 -0.16909063732E+02  0.16084429631E+02  0.29018444135E+02  0.00000000000E+00 0.  1.
</event>
<event>
 5    1  0.1102386E-009  0.9118800E+02  0.7818608E-02  0.1130116E+00
         25   -1    0    0    0    0  0.00000000000E+00  0.00000000000E+00  0.99999998245E-14  0.12500000000E+03  0.12500000000E+03 0.  0.
        -11    1    3    3    0    0 -0.14970541976E+02  0.88505118423E+01  0.35382913258E+02  0.39425870159E+02  0.51100000000E-03 0.  1.
         23    2    1    0    0    0  0.17922943276E+02 -0.24722284235E+02  0.18094613661E+02  0.89505799389E+02  0.82167206642E+02 0.  0.
         11    1    3    3    0    0  0.32893485253E+02 -0.33572796077E+02 -0.17288299597E+02  0.50079929230E+02  0.51100000000E-03 0. -1.
         22    1    1    0    0    0 -0.17922943276E+02  0.24722284235E+02 -0.18094613661E+02  0.35494200611E+02  0.00000000000E+00 0. -1.
</event>
<event>
 5    1  0.1102386E-009  0.9118800E+02  0.7818608E-02  0.1130116E+00
         25   -1    0    0    0    0  0.00000000000E+00  0.00000000000E+00  0.99999998245E-14  0.12500000000E+03  0.12500000000E+03 0.  0.
        -11    1    3    3    0    0  0.54211092325E+02  0.24056372108E+02 -0.56978808295E+01  0.59582022593E+02  0.51100000000E-03 0. -1.
         23    2    1    0    0    0  0.20396120017E+02  0.20181492314E+02 -0.11460735893E+02  0.94102705442E+02  0.88885748917E+02 0.  0.
         11    1    3    3    0    0 -0.33814972308E+02 -0.38748797940E+01 -0.57628550635E+01  0.34520682849E+02  0.51100000000E-03 0.  1.
         22    1    1    0    0    0 -0.20396120017E+02 -0.20181492314E+02  0.11460735893E+02  0.30897294558E+02  0.00000000000E+00 0. -1.
</event>
<event>
 5    1  0.1102386E-009  0.9118800E+02  0.7818608E-02  0.1130116E+00
         25   -1    0    0    0    0  0.00000000000E+00  0.00000000000E+00  0.99999998245E-14  0.12500000000E+03  0.12500000000E+03 0.  0.
        -11    1    3    3    0    0 -0.45400623177E+02 -0.30541455938E+02  0.29779630126E+02  0.62296255797E+02  0.51100000000E-03 0.  1.
         23    2    1    0    0    0 -0.18627768733E+02 -0.15827983257E+02  0.15812513637E+02  0.95887212269E+02  0.91360839900E+02 0.  0.
         11    1    3    3    0    0  0.26772854444E+02  0.14713472681E+02 -0.13967116488E+02  0.33590956472E+02  0.51100000000E-03 0. -1.
         22    1    1    0    0    0  0.18627768733E+02  0.15827983257E+02 -0.15812513637E+02  0.29112787731E+02  0.00000000000E+00 0.  1.
</event>
<event>
 5    1  0.1102386E-009  0.9118800E+02  0.7818608E-02  0.1130116E+00
         25   -1    0    0    0    0  0.00000000000E+00  0.00000000000E+00  0.99999998245E-14  0.12500000000E+03  0.12500000000E+03 0.  0.
        -11    1    3    3    0    0  0.24516771925E+02  0.12745929526E+02 -0.44319432125E+02  0.52227798051E+02  0.51100000000E-03 0. -1.
         23    2    1    0    0    0  0.28874556721E+02 -0.25014771369E+01 -0.37633427274E+01  0.95773981417E+02  0.91205785751E+02 0.  0.
         11    1    3    3    0    0  0.43577847965E+01 -0.15247406662E+02  0.40556089398E+02  0.43546183366E+02  0.51100000000E-03 0.  1.
         22    1    1    0    0    0 -0.28874556721E+02  0.25014771369E+01  0.37633427274E+01  0.29226018583E+02  0.00000000000E+00 0. -1.
</event>
<event>
 5    1  0.1102386E-009  0.9118800E+02  0.7818608E-02  0.1130116E+00
         25   -1    0    0    0    0  0.00000000000E+00  0.00000000000E+00  0.99999998245E-14  0.12500000000E+03  0.12500000000E+03 0.  0.
        -11    1    3    3    0    0 -0.41329261334E+02 -0.13775883053E+01  0.18175343411E+02  0.45170219175E+02  0.51100000000E-03 0.  1.
         23    2    1    0    0    0 -0.13788767608E+02  0.39357335051E+01 -0.24720176414E+02  0.96421909925E+02  0.92089507987E+02 0.  0.
         11    1    3    3    0    0  0.27540493726E+02  0.53133218104E+01 -0.42895519825E+02  0.51251690750E+02  0.51100000000E-03 0. -1.
         22    1    1    0    0    0  0.13788767608E+02 -0.39357335051E+01  0.24720176414E+02  0.28578090075E+02  0.00000000000E+00 0.  1.
</event>
<event>
 5    1  0.1102386E-009  0.9118800E+02  0.7818608E-02  0.1130116E+00
         25   -1    0    0    0    0  0.00000000000E+00  0.00000000000E+00  0.99999998245E-14  0.12500000000E+03  0.12500000000E+03 0.  0.
        -11    1    3    3    0    0 -0.26334568015E+01  0.42265077994E+02  0.21286543151E+01  0.42400508040E+02  0.51100000000E-03 0.  1.
         23    2    1    0    0    0 -0.18302591399E+02 -0.39820526276E+01 -0.21364169702E+02  0.96587514327E+02  0.92314021588E+02 0.  0.
         11    1    3    3    0    0 -0.15669134598E+02 -0.46247130622E+02 -0.23492824017E+02  0.54187006287E+02  0.51100000000E-03 0. -1.
         22    1    1    0    0    0  0.18302591399E+02  0.39820526276E+01  0.21364169702E+02  0.28412485673E+02  0.00000000000E+00 0. -1.
</event>
<event>
 5    1  0.1102386E-009  0.9118800E+02  0.7818608E-02  0.1130116E+00
         25   -1    0    0    0    0  0.00000000000E+00  0.00000000000E+00  0.99999998245E-14  0.12500000000E+03  0.12500000000E+03 0.  0.
        -11    1    3    3    0    0  0.32014312904E+02  0.38171831901E+02  0.26613487637E+02  0.56482587634E+02  0.51100000000E-03 0.  1.
         23    2    1    0    0    0  0.26119967654E+00  0.21504829273E+02  0.24490492003E+02  0.92406900947E+02  0.86468059055E+02 0.  0.
         11    1    3    3    0    0 -0.31753113228E+02 -0.16667002628E+02 -0.21229956342E+01  0.35924313312E+02  0.51100000000E-03 0. -1.
         22    1    1    0    0    0 -0.26119967654E+00 -0.21504829273E+02 -0.24490492003E+02  0.32593099053E+02  0.00000000000E+00 0.  1.
</event>
<event>
 5    1  0.1102386E-009  0.9118800E+02  0.7818608E-02  0.1130116E+00
         25   -1    0    0    0    0  0.00000000000E+00  0.00000000000E+00  0.99999998245E-14  0.12500000000E+03  0.12500000000E+03 0.  0.
        -11    1    3    3    0    0  0.40696245934E+02 -0.26526047923E+01 -0.23660162473E+01  0.40851178422E+02  0.51100000000E-03 0.  1.
         23    2    1    0    0    0 -0.12962293744E+02 -0.20333123710E+02 -0.11840328982E+02  0.98136449056E+02  0.94388093868E+02 0.  0.
         11    1    3    3    0    0 -0.53658539678E+02 -0.17680518917E+02 -0.94743127351E+01  0.57285270634E+02  0.51100000000E-03 0. -1.
         22    1    1    0    0    0  0.12962293744E+02  0.20333123710E+02  0.11840328982E+02  0.26863550944E+02  0.00000000000E+00 0. -1.
</event>
<event>
 5    1  0.1102386E-009  0.9118800E+02  0.7818608E-02  0.1130116E+00
         25   -1    0    0    0    0  0.00000000000E+00  0.00000000000E+00  0.99999998245E-14  0.12500000000E+03  0.12500000000E+03 0.  0.
        -11    1    3    3    0    0 -0.30537110498E+02  0.18142319753E+02  0.17686557224E+02  0.39679631932E+02  0.51100000000E-03 0. -1.
         23    2    1    0    0    0 -0.23019979458E+02 -0.11373523375E+02 -0.23016956175E+02  0.90517297673E+02  0.83691842005E+02 0.  0.
         11    1    3    3    0    0  0.75171310405E+01 -0.29515843128E+02 -0.40703513399E+02  0.50837665740E+02  0.51100000000E-03 0.  1.
         22    1    1    0    0    0  0.23019979458E+02  0.11373523375E+02  0.23016956175E+02  0.34482702327E+02  0.00000000000E+00 0.  1.
</event>
<event>
 5    1  0.1102386E-009  0.9118800E+02  0.7818608E-02  0.1130116E+00
         25   -1    0    0    0    0  0.00000000000E+00  0.00000000000E+00  0.99999998245E-14  0.12500000000E+03  0.12500000000E+03 0.  0.
        -11    1    3    3    0    0 -0.43526577824E+02 -0.32983546052E+02 -0.13559211448E+02  0.56270147526E+02  0.51100000000E-03 0.  1.
         23    2    1    0    0    0 -0.76784946870E+01 -0.18534315218E+02 -0.21355525891E+02  0.95699170535E+02  0.91103197715E+02 0.  0.
         11    1    3    3    0    0  0.35848083137E+02  0.14449230834E+02 -0.77963144424E+01  0.39429023009E+02  0.51100000000E-03 0. -1.
         22    1    1    0    0    0  0.76784946870E+01  0.18534315218E+02  0.21355525891E+02  0.29300829465E+02  0.00000000000E+00 0.  1.
</event>
<event>
 5    1  0.1102386E-009  0.9118800E+02  0.7818608E-02  0.1130116E+00
         25   -1    0    0    0    0  0.00000000000E+00  0.00000000000E+00  0.99999998245E-14  0.12500000000E+03  0.12500000000E+03 0.  0.
        -11    1    3    3    0    0 -0.25415633086E+02 -0.25771260118E+01  0.39723417156E+02  0.47228655014E+02  0.51100000000E-03 0.  1.
         23    2    1    0    0    0 -0.25227896331E+02  0.11681082638E+02 -0.72090588110E+01  0.96279537368E+02  0.91896051830E+02 0.  0.
         11    1    3    3    0    0  0.18773675506E+00  0.14258208649E+02 -0.46932475967E+02  0.49050882354E+02  0.51100000000E-03 0. -1.
         22    1    1    0    0    0  0.25227896331E+02 -0.11681082638E+02  0.72090588110E+01  0.28720462632E+02  0.00000000000E+00 0. -1.
</event>
<event>
 5    1  0.1102386E-009  0.9118800E+02  0.7818608E-02  0.1130116E+00
         25   -1    0    0    0    0  0.00000000000E+00  0.00000000000E+00  0.99999998245E-14  0.12500000000E+03  0.12500000000E+03 0.  0.
        -11    1    3    3    0    0 -0.10735702827E+02 -0.72922639377E+01 -0.41684806693E+02  0.43658395960E+02  0.51100000000E-03 0. -1.
         23    2    1    0    0    0  0.25241908353E+02  0.13081115263E+02 -0.15166714194E+02  0.92777356824E+02  0.87001949437E+02 0.  0.
         11    1    3    3    0    0  0.35977611180E+02  0.20373379201E+02  0.26518092499E+02  0.49118960864E+02  0.51100000000E-03 0.  1.
         22    1    1    0    0    0 -0.25241908353E+02 -0.13081115263E+02  0.15166714194E+02  0.32222643176E+02  0.00000000000E+00 0.  1.
</event>
<event>
 5    1  0.1102386E-009  0.9118800E+02  0.7818608E-02  0.1130116E+00
         25   -1    0    0    0    0  0.00000000000E+00  0.00000000000E+00  0.99999998245E-14  0.12500000000E+03  0.12500000000E+03 0.  0.
        -11    1    3    3    0    0  0.21569148476E+02 -0.44838198514E+01  0.42064578090E+02  0.47484329380E+02  0.51100000000E-03 0.  1.
         23    2    1    0    0    0 -0.45153122818E+01  0.25000354025E+02  0.12691885232E+02  0.96601237754E+02  0.92332602251E+02 0.  0.
         11    1    3    3    0    0 -0.26084460758E+02  0.29484173876E+02 -0.29372692859E+02  0.49116908374E+02  0.51100000000E-03 0. -1.
         22    1    1    0    0    0  0.45153122818E+01 -0.25000354025E+02 -0.12691885232E+02  0.28398762246E+02  0.00000000000E+00 0.  1.
</event>
<event>
 5    1  0.1102386E-009  0.9118800E+02  0.7818608E-02  0.1130116E+00
         25   -1    0    0    0    0  0.00000000000E+00  0.00000000000E+00  0.99999998245E-14  0.12500000000E+03  0.12500000000E+03 0.  0.
        -11    1    3    3    0    0 -0.27798178440E+02 -0.55338094330E+01 -0.22605967695E+02  0.36254538297E+02  0.51100000000E-03 0. -1.
         23    2    1    0    0    0  0.74062967792E+01 -0.17702623535E+02  0.22939965987E+02  0.95092172404E+02  0.90266511515E+02 0.  0.
         11    1    3    3    0    0  0.35204475219E+02 -0.12168814102E+02  0.45545933683E+02  0.58837634107E+02  0.51100000000E-03 0.  1.
         22    1    1    0    0    0 -0.74062967792E+01  0.17702623535E+02 -0.22939965987E+02  0.29907827596E+02  0.00000000000E+00 0.  1.
</event>
<event>
 5    1  0.1102386E-009  0.9118800E+02  0.7818608E-02  0.1130116E+00
         25   -1    0    0    0    0  0.00000000000E+00  0.00000000000E+00  0.99999998245E-14  0.12500000000E+03  0.12500000000E+03 0.  0.
        -11    1    3    3    0    0 -0.29065746091E+02 -0.86636401323E+00  0.18572770134E+02  0.34503854468E+02  0.51100000000E-03 0. -1.
         23    2    1    0    0    0  0.26414272964E+02 -0.76048378563E+01 -0.79788758351E+01  0.96378158084E+02  0.92030101168E+02 0.  0.
         11    1    3    3    0    0  0.55480019055E+02 -0.67384738431E+01 -0.26551645969E+02  0.61874303617E+02  0.51100000000E-03 0.  1.
         22    1    1    0    0    0 -0.26414272964E+02  0.76048378563E+01  0.79788758351E+01  0.28621841916E+02  0.00000000000E+00 0.  1.
</event>
<event>
 5    1  0.1102386E-009  0.9118800E+02  0.7818608E-02  0.1130116E+00
         25   -1    0    0    0    0  0.00000000000E+00  0.00000000000E+00  0.99999998245E-14  0.12500000000E+03  0.12500000000E+03 0.  0.
        -11    1    3    3    0    0 -0.15937366350E+02 -0.50683791878E+01  0.36793182693E+02  0.40415670311E+02  0.51100000000E-03 0.  1.
         23    2    1    0    0    0  0.12684087997E+02  0.26271402761E+02  0.12086892382E+01  0.95801821615E+02  0.91243933518E+02 0.  0.
         11    1    3    3    0    0  0.28621454347E+02  0.31339781949E+02 -0.35584493455E+02  0.55386151304E+02  0.51100000000E-03 0. -1.
         22    1    1    0    0    0 -0.12684087997E+02 -0.26271402761E+02 -0.12086892382E+01  0.29198178385E+02  0.00000000000E+00 0. -1.
</event>
<event>
 5    1  0.1102386E-009  0.9118800E+02  0.7818608E-02  0.1130116E+00
         25   -1    0    0    0    0  0.00000000000E+00  0.00000000000E+00  0.99999998245E-14  0.12500000000E+03  0.12500000000E+03 0.  0.
        -11    1    3    3    0    0  0.10285327577E+02  0.27302621387E+02 -0.21398402056E+02  0.36181662604E+02  0.51100000000E-03 0.  1.
         23    2    1    0    0    0 -0.17368303955E+02 -0.76391876434E+01  0.20302554527E+02  0.97211353209E+02  0.93154915610E+02 0.  0.
         11    1    3    3    0    0 -0.27653631533E+02 -0.34941809030E+02  0.41700956583E+02  0.61029690606E+02  0.51100000000E-03 0. -1.
         22    1    1    0    0    0  0.17368303955E+02  0.76391876434E+01 -0.20302554527E+02  0.27788646791E+02  0.00000000000E+00 0. -1.
</event>
<event>
 5    1  0.1102386E-009  0.9118800E+02  0.7818608E-02  0.1130116E+00
         25   -1    0    0    0    0  0.00000000000E+00  0.00000000000E+00  0.99999998245E-14  0.12500000000E+03  0.12500000000E+03 0.  0.
        -11    1    3    3    0    0  0.95583721175E+01  0.74010676778E+01  0.58011630411E+02  0.59257805760E+02  0.51100000000E-03 0.  1.
         23    2    1    0    0    0 -0.69630902132E+01  0.11914776194E+02  0.25418363160E+02  0.96077003911E+02  0.91620145043E+02 0.  0.
         11    1    3    3    0    0 -0.16521462331E+02  0.45137085158E+01 -0.32593267251E+02  0.36819198151E+02  0.51100000000E-03 0. -1.
         22    1    1    0    0    0  0.69630902132E+01 -0.11914776194E+02 -0.25418363160E+02  0.28922996089E+02  0.00000000000E+00 0.  1.
</event>
<event>
 5    1  0.1102386E-009  0.9118800E+02  0.7818608E-02  0.1130116E+00
         25   -1    0    0    0    0  0.00000000000E+00  0.00000000000E+00  0.99999998245E-14  0.12500000000E+03  0.12500000000E+03 0.  0.
        -11    1    3    3    0    0  0.50411393134E+02 -0.21830519984E+01  0.22803213994E+02  0.55372022200E+02  0.51100000000E-03 0.  1.
         23    2    1    0    0    0  0.17732071542E+02  0.16805725912E+02  0.20274778684E+02  0.93252158573E+02  0.87681466931E+02 0.  0.
         11    1    3    3    0    0 -0.32679321592E+02  0.18988777910E+02 -0.25284353094E+01  0.37880136373E+02  0.51100000000E-03 0. -1.
         22    1    1    0    0    0 -0.17732071542E+02 -0.16805725912E+02 -0.20274778684E+02  0.31747841427E+02  0.00000000000E+00 0.  1.
</event>
<event>
 5    1  0.1102386E-009  0.9118800E+02  0.7818608E-02  0.1130116E+00
         25   -1    0    0    0    0  0.00000000000E+00  0.00000000000E+00  0.99999998245E-14  0.12500000000E+03  0.12500000000E+03 0.  0.
        -11    1    3    3    0    0 -0.26466810170E+02 -0.23104248256E+01 -0.14225658092E+02  0.30136347687E+02  0.51100000000E-03 0. -1.
         23    2    1    0    0    0  0.33046636357E+02 -0.77179342969E+01 -0.72236596818E+01  0.90303776236E+02  0.83372321900E+02 0.  0.
         11    1    3    3    0    0  0.59513446527E+02 -0.54075094713E+01  0.70019984104E+01  0.60167428549E+02  0.51100000000E-03 0.  1.
         22    1    1    0    0    0 -0.33046636357E+02  0.77179342969E+01  0.72236596818E+01  0.34696223764E+02  0.00000000000E+00 0.  1.
</event>
<event>
 5    1  0.1102386E-009  0.9118800E+02  0.7818608E-02  0.1130116E+00
         25   -1    0    0    0    0  0.00000000000E+00  0.00000000000E+00  0.99999998245E-14  0.12500000000E+03  0.12500000000E+03 0.  0.
        -11    1    3    3    0    0  0.38935030904E+02  0.42107328419E+02  0.21397781236E+02  0.61211345192E+02  0.51100000000E-03 0.  1.
         23    2    1    0    0    0  0.12684138072E+02  0.19537691236E+02  0.17114679650E+02  0.96094619930E+02  0.91644175934E+02 0.  0.
         11    1    3    3    0    0 -0.26250892831E+02 -0.22569637183E+02 -0.42831015861E+01  0.34883274739E+02  0.51100000000E-03 0. -1.
         22    1    1    0    0    0 -0.12684138072E+02 -0.19537691236E+02 -0.17114679650E+02  0.28905380070E+02  0.00000000000E+00 0.  1.
</event>
<event>
 5    1  0.1102386E-009  0.9118800E+02  0.7818608E-02  0.1130116E+00
         25   -1    0    0    0    0  0.00000000000E+00  0.00000000000E+00  0.99999998245E-14  0.12500000000E+03  0.12500000000E+03 0.  0.
        -11    1    3    3    0    0  0.79126278074E+01 -0.28944332540E+02  0.29911282157E+02  0.42368253038E+02  0.51100000000E-03 0. -1.
         23    2    1    0    0    0 -0.28555096974E+02  0.27122268897E+01  0.96650271395E+01  0.94731823849E+02  0.89766118120E+02 0.  0.
         11    1    3    3    0    0 -0.36467724781E+02  0.31656559429E+02 -0.20246255017E+02  0.52363570811E+02  0.51100000000E-03 0.  1.
         22    1    1    0    0    0  0.28555096974E+02 -0.27122268897E+01 -0.96650271395E+01  0.30268176151E+02  0.00000000000E+00 0.  1.
</event>
<event>
 5    1  0.1102386E-009  0.9118800E+02  0.7818608E-02  0.1130116E+00
         25   -1    0    0    0    0  0.00000000000E+00  0.00000000000E+00  0.99999998245E-14  0.12500000000E+03  0.12500000000E+03 0.  0.
        -11    1    3    3    0    0 -0.62353854008E+01 -0.10302423195E+02  0.47574963131E+02  0.49075422280E+02  0.51100000000E-03 0.  1.
         23    2    1    0    0    0 -0.27336095203E+02 -0.86156704582E+01  0.60175387510E+01  0.95713439072E+02  0.91122773048E+02 0.  0.
         11    1    3    3    0    0 -0.21100709802E+02  0.16867527370E+01 -0.41557424380E+02  0.46638016792E+02  0.51100000000E-03 0. -1.
         22    1    1    0    0    0  0.27336095203E+02  0.86156704582E+01 -0.60175387510E+01  0.29286560928E+02  0.00000000000E+00 0.  1.
</event>
<event>
 5    1  0.1102386E-009  0.9118800E+02  0.7818608E-02  0.1130116E+00
         25   -1    0    0    0    0  0.00000000000E+00  0.00000000000E+00  0.99999998245E-14  0.12500000000E+03  0.12500000000E+03 0.  0.
        -11    1    3    3    0    0 -0.26775794360E+02 -0.65635859036E+01  0.25981672175E+02  0.37882332462E+02  0.51100000000E-03 0.  1.
         23    2    1    0    0    0 -0.14655411251E+02  0.30145358019E+02 -0.92942676405E+01  0.90216281107E+02  0.83241037216E+02 0.  0.
         11    1    3    3    0    0  0.12120383109E+02  0.36708943923E+02 -0.35275939815E+02  0.52333948645E+02  0.51100000000E-03 0. -1.
         22    1    1    0    0    0  0.14655411251E+02 -0.30145358019E+02  0.92942676405E+01  0.34783718893E+02  0.00000000000E+00 0. -1.
</event>
<event>
 5    1  0.1102386E-009  0.9118800E+02  0.7818608E-02  0.1130116E+00
         25   -1    0    0    0    0  0.00000000000E+00  0.00000000000E+00  0.99999998245E-14  0.12500000000E+03  0.12500000000E+03 0.  0.
        -11    1    3    3    0    0 -0.14537247899E+02 -0.12243333998E+02  0.47838540936E+02  0.51475788513E+02  0.51100000000E-03 0.  1.
         23    2    1    0    0    0  0.18463321939E+02  0.41978129787E+01  0.17357327249E+02  0.99313569729E+02  0.95934313112E+02 0.  0.
         11    1    3    3    0    0  0.33000569838E+02  0.16441146976E+02 -0.30481213687E+02  0.47837781216E+02  0.51100000000E-03 0. -1.
         22    1    1    0    0    0 -0.18463321939E+02 -0.41978129787E+01 -0.17357327249E+02  0.25686430271E+02  0.00000000000E+00 0.  1.
</event>
<event>
 5    1  0.1102386E-009  0.9118800E+02  0.7818608E-02  0.1130116E+00
         25   -1    0    0    0    0  0.00000000000E+00  0.00000000000E+00  0.99999998245E-14  0.12500000000E+03  0.12500000000E+03 0.  0.
        -11    1    3    3    0    0  0.28400811097E+02 -0.39286153536E+02 -0.31926944681E+02  0.58045996654E+02  0.51100000000E-03 0. -1.
         23    2    1    0    0    0  0.22575608206E+02 -0.19972519378E+02 -0.11616478356E+01  0.94835301396E+02  0.89910095923E+02 0.  0.
         11    1    3    3    0    0 -0.58252028911E+01  0.19313634158E+02  0.30765296846E+02  0.36789304742E+02  0.51100000000E-03 0.  1.
         22    1    1    0    0    0 -0.22575608206E+02  0.19972519378E+02  0.11616478356E+01  0.30164698604E+02  0.00000000000E+00 0. -1.
</event>
<event>
 5    1  0.1102386E-009  0.9118800E+02  0.7818608E-02  0.1130116E+00
         25   -1    0    0    0    0  0.00000000000E+00  0.00000000000E+00  0.99999998245E-14  0.12500000000E+03  0.12500000000E+03 0.  0.
        -11    1    3    3    0    0  0.14996702170E+02  0.15754362341E+02  0.33279050942E+02  0.39756713152E+02  0.51100000000E-03 0.  1.
         23    2    1    0    0    0  0.14955332134E+02  0.10578392375E+02 -0.22618817580E+02  0.95893724848E+02  0.91369749983E+02 0.  0.
         11    1    3    3    0    0 -0.41370036036E-01 -0.51759699660E+01 -0.55897868523E+02  0.56137011696E+02  0.51100000000E-03 0. -1.
         22    1    1    0    0    0 -0.14955332134E+02 -0.10578392375E+02  0.22618817580E+02  0.29106275152E+02  0.00000000000E+00 0. -1.
</event>
<event>
 5    1  0.1102386E-009  0.9118800E+02  0.7818608E-02  0.1130116E+00
         25   -1    0    0    0    0  0.00000000000E+00  0.00000000000E+00  0.99999998245E-14  0.12500000000E+03  0.12500000000E+03 0.  0.
        -11    1    3    3    0    0 -0.34683167364E+02 -0.75320155729E+01  0.22178500817E+02  0.41851394908E+02  0.51100000000E-03 0.  1.
         23    2    1    0    0    0 -0.11084202844E+02 -0.60618910254E+01 -0.26319041039E+02  0.95805856809E+02  0.91249461380E+02 0.  0.
         11    1    3    3    0    0  0.23598964520E+02  0.14701245475E+01 -0.48497541856E+02  0.53954461900E+02  0.51100000000E-03 0. -1.
         22    1    1    0    0    0  0.11084202844E+02  0.60618910254E+01  0.26319041039E+02  0.29194143191E+02  0.00000000000E+00 0. -1.
</event>
<event>
 5    1  0.1102386E-009  0.9118800E+02  0.7818608E-02  0.1130116E+00
         25   -1    0    0    0    0  0.00000000000E+00  0.00000000000E+00  0.99999998245E-14  0.12500000000E+03  0.12500000000E+03 0.  0.
        -11    1    3    3    0    0  0.71516668342E+01 -0.49731344361E+01  0.32885640369E+02  0.34019755251E+02  0.51100000000E-03 0. -1.
         23    2    1    0    0    0  0.38148083388E+00  0.18035820705E+02 -0.23546552402E+02  0.95337287950E+02  0.90605308827E+02 0.  0.
         11    1    3    3    0    0 -0.67701860004E+01  0.23008955141E+02 -0.56432192771E+02  0.61317532699E+02  0.51100000000E-03 0.  1.
         22    1    1    0    0    0 -0.38148083388E+00 -0.18035820705E+02  0.23546552402E+02  0.29662712050E+02  0.00000000000E+00 0.  1.
</event>
<event>
 5    1  0.1102386E-009  0.9118800E+02  0.7818608E-02  0.1130116E+00
         25   -1    0    0    0    0  0.00000000000E+00  0.00000000000E+00  0.99999998245E-14  0.12500000000E+03  0.12500000000E+03 0.  0.
        -11    1    3    3    0    0  0.17050363115E+02 -0.33846336791E+02 -0.33316918431E+02  0.50460939850E+02  0.51100000000E-03 0. -1.
         23    2    1    0    0    0 -0.16124332779E+02 -0.26575909205E+02 -0.77702094354E+01  0.92958632796E+02  0.87262008909E+02 0.  0.
         11    1    3    3    0    0 -0.33174695894E+02  0.72704275857E+01  0.25546708996E+02  0.42497692946E+02  0.51100000000E-03 0.  1.
         22    1    1    0    0    0  0.16124332779E+02  0.26575909205E+02  0.77702094354E+01  0.32041367204E+02  0.00000000000E+00 0. -1.
</event>
<event>
 5    1  0.1102386E-009  0.9118800E+02  0.7818608E-02  0.1130116E+00
         25   -1    0    0    0    0  0.00000000000E+00  0.00000000000E+00  0.99999998245E-14  0.12500000000E+03  0.12500000000E+03 0.  0.
        -11    1    3    3    0    0 -0.11587552190E+02  0.50559938224E+02 -0.38088516724E+01  0.52010441935E+02  0.51100000000E-03 0.  1.
         23    2    1    0    0    0  0.10459798355E+02  0.20084014011E+02  0.18514004762E+02  0.95750326963E+02  0.91173360916E+02 0.  0.
         11    1    3    3    0    0  0.22047350545E+02 -0.30475924212E+02  0.22322856435E+02  0.43739885028E+02  0.51100000000E-03 0. -1.
         22    1    1    0    0    0 -0.10459798355E+02 -0.20084014011E+02 -0.18514004762E+02  0.29249673037E+02  0.00000000000E+00 0.  1.
</event>
<event>
 5    1  0.1102386E-009  0.9118800E+02  0.7818608E-02  0.1130116E+00
         25   -1    0    0    0    0  0.00000000000E+00  0.00000000000E+00  0.99999998245E-14  0.12500000000E+03  0.12500000000E+03 0.  0.
        -11    1    3    3    0    0  0.33389386910E+02 -0.10639936453E+01 -0.98039385340E+01  0.34815233042E+02  0.51100000000E-03 0.  1.
         23    2    1    0    0    0 -0.26727302560E+02 -0.46900056278E+01 -0.12547788021E+02  0.95103648397E+02  0.90282401936E+02 0.  0.
         11    1    3    3    0    0 -0.60116689470E+02 -0.36260119825E+01 -0.27438494872E+01  0.60288415355E+02  0.51100000000E-03 0. -1.
         22    1    1    0    0    0  0.26727302560E+02  0.46900056278E+01  0.12547788021E+02  0.29896351603E+02  0.00000000000E+00 0. -1.
</event>
<event>
 5    1  0.1102386E-009  0.9118800E+02  0.7818608E-02  0.1130116E+00
         25   -1    0    0    0    0  0.00000000000E+00  0.00000000000E+00  0.99999998245E-14  0.12500000000E+03  0.12500000000E+03 0.  0.
        -11    1    3    3    0    0  0.51812749544E+02  0.19776978316E+02 -0.25284329478E+02  0.60950694861E+02  0.51100000000E-03 0.  1.
         23    2    1    0    0    0  0.27607575111E+02  0.49096826918E+01 -0.35141334781E+01  0.96739916459E+02  0.92520155182E+02 0.  0.
         11    1    3    3    0    0 -0.24205174433E+02 -0.14867295624E+02  0.21770196000E+02  0.35789221599E+02  0.51100000000E-03 0. -1.
         22    1    1    0    0    0 -0.27607575111E+02 -0.49096826918E+01  0.35141334781E+01  0.28260083541E+02  0.00000000000E+00 0.  1.
</event>
<event>
 5    1  0.1102386E-009  0.9118800E+02  0.7818608E-02  0.1130116E+00
         25   -1    0    0    0    0  0.00000000000E+00  0.00000000000E+00  0.99999998245E-14  0.12500000000E+03  0.12500000000E+03 0.  0.
        -11    1    3    3    0    0  0.15787703114E+02 -0.53356188919E+02  0.19224592204E+02  0.58870361059E+02  0.51100000000E-03 0. -1.
         23    2    1    0    0    0  0.23469155616E+02 -0.29439184119E+02  0.15583214205E+02  0.84253179365E+02  0.73744795350E+02 0.  0.
         11    1    3    3    0    0  0.76814525020E+01  0.23917004800E+02 -0.36413779993E+01  0.25382818306E+02  0.51100000000E-03 0.  1.
         22    1    1    0    0    0 -0.23469155616E+02  0.29439184119E+02 -0.15583214205E+02  0.40746820635E+02  0.00000000000E+00 0. -1.
</event>
<event>
 5    1  0.1102386E-009  0.9118800E+02  0.7818608E-02  0.1130116E+00
         25   -1    0    0    0    0  0.00000000000E+00  0.00000000000E+00  0.99999998245E-14  0.12500000000E+03  0.12500000000E+03 0.  0.
        -11    1    3    3    0    0 -0.54159379723E+01  0.32748790765E+02  0.35578687242E+02  0.48658592940E+02  0.51100000000E-03 0.  1.
         23    2    1    0    0    0 -0.14442007255E+02 -0.12954507673E+02  0.18253761850E+02  0.98361856967E+02  0.94686135425E+02 0.  0.
         11    1    3    3    0    0 -0.90260692829E+01 -0.45703298438E+02 -0.17324925393E+02  0.49703264027E+02  0.51100000000E-03 0. -1.
         22    1    1    0    0    0  0.14442007255E+02  0.12954507673E+02 -0.18253761850E+02  0.26638143033E+02  0.00000000000E+00 0. -1.
</event>
<event>
 5    1  0.1102386E-009  0.9118800E+02  0.7818608E-02  0.1130116E+00
         25   -1    0    0    0    0  0.00000000000E+00  0.00000000000E+00  0.99999998245E-14  0.12500000000E+03  0.12500000000E+03 0.  0.
        -11    1    3    3    0    0  0.20758705074E+02 -0.10056569480E+02  0.28192900430E+02  0.36426611988E+02  0.51100000000E-03 0.  1.
         23    2    1    0    0    0  0.59060983640E+01  0.20154718671E+02 -0.20518019974E+02  0.95638735956E+02  0.91020239447E+02 0.  0.
         11    1    3    3    0    0 -0.14852606710E+02  0.30211288151E+02 -0.48710920404E+02  0.59212123967E+02  0.51100000000E-03 0. -1.
         22    1    1    0    0    0 -0.59060983640E+01 -0.20154718671E+02  0.20518019974E+02  0.29361264044E+02  0.00000000000E+00 0. -1.
</event>
<event>
 5    1  0.1102386E-009  0.9118800E+02  0.7818608E-02  0.1130116E+00
         25   -1    0    0    0    0  0.00000000000E+00  0.00000000000E+00  0.99999998245E-14  0.12500000000E+03  0.12500000000E+03 0.  0.
        -11    1    3    3    0    0 -0.31039555481E+02  0.25753412855E+02 -0.38548565097E+02  0.55791434374E+02  0.51100000000E-03 0. -1.
         23    2    1    0    0    0  0.52928447705E+01  0.15325920395E+02 -0.23440709289E+02  0.96497984393E+02  0.92192711741E+02 0.  0.
         11    1    3    3    0    0  0.36332400252E+02 -0.10427492460E+02  0.15107855809E+02  0.40706550019E+02  0.51100000000E-03 0.  1.
         22    1    1    0    0    0 -0.52928447705E+01 -0.15325920395E+02  0.23440709289E+02  0.28502015607E+02  0.00000000000E+00 0. -1.
</event>
<event>
 5    1  0.1102386E-009  0.9118800E+02  0.7818608E-02  0.1130116E+00
         25   -1    0    0    0    0  0.00000000000E+00  0.00000000000E+00  0.99999998245E-14  0.12500000000E+03  0.12500000000E+03 0.  0.
        -11    1    3    3    0    0 -0.29897423243E+02  0.73079575231E+01 -0.45078943030E+02  0.54583635503E+02  0.51100000000E-03 0. -1.
         23    2    1    0    0    0 -0.21320200780E+02 -0.16286791850E+02 -0.13381866455E+02  0.95018590762E+02  0.90164558950E+02 0.  0.
         11    1    3    3    0    0  0.85772224626E+01 -0.23594749373E+02  0.31697076575E+02  0.40434955260E+02  0.51100000000E-03 0.  1.
         22    1    1    0    0    0  0.21320200780E+02  0.16286791850E+02  0.13381866455E+02  0.29981409238E+02  0.00000000000E+00 0. -1.
</event>
<event>
 5    1  0.1102386E-009  0.9118800E+02  0.7818608E-02  0.1130116E+00
         25   -1    0    0    0    0  0.00000000000E+00  0.00000000000E+00  0.99999998245E-14  0.12500000000E+03  0.12500000000E+03 0.  0.
        -11    1    3    3    0    0  0.13016333949E+02 -0.30038789936E+01  0.31385546063E+02  0.34110126655E+02  0.51100000000E-03 0. -1.
         23    2    1    0    0    0 -0.14477145429E+02  0.18388561179E+02 -0.18647402960E+02  0.95075886661E+02  0.90243956391E+02 0.  0.
         11    1    3    3    0    0 -0.27493479378E+02  0.21392440173E+02 -0.50032949023E+02  0.60965760005E+02  0.51100000000E-03 0.  1.
         22    1    1    0    0    0  0.14477145429E+02 -0.18388561179E+02  0.18647402960E+02  0.29924113339E+02  0.00000000000E+00 0.  1.
</event>
<event>
 5    1  0.1102386E-009  0.9118800E+02  0.7818608E-02  0.1130116E+00
         25   -1    0    0    0    0  0.00000000000E+00  0.00000000000E+00  0.99999998245E-14  0.12500000000E+03  0.12500000000E+03 0.  0.
        -11    1    3    3    0    0  0.17871986281E+01 -0.58156766370E+01  0.39926606799E+02  0.40387499358E+02  0.51100000000E-03 0. -1.
         23    2    1    0    0    0 -0.13399134546E+02  0.27429051655E+02  0.59166938312E-01  0.94473074475E+02  0.89405081616E+02 0.  0.
         11    1    3    3    0    0 -0.15186333174E+02  0.33244728292E+02 -0.39867439860E+02  0.54085575117E+02  0.51100000000E-03 0.  1.
         22    1    1    0    0    0  0.13399134546E+02 -0.27429051655E+02 -0.59166938312E-01  0.30526925525E+02  0.00000000000E+00 0.  1.
</event>
<event>
 5    1  0.1102386E-009  0.9118800E+02  0.7818608E-02  0.1130116E+00
         25   -1    0    0    0    0  0.00000000000E+00  0.00000000000E+00  0.99999998245E-14  0.12500000000E+03  0.12500000000E+03 0.  0.
        -11    1    3    3    0    0 -0.63803361263E+01 -0.11539310199E+02 -0.55840244842E+02  0.57375929738E+02  0.51100000000E-03 0.  1.
         23    2    1    0    0    0  0.12729804990E+02  0.36172243594E+01 -0.25175855289E+02  0.96557849296E+02  0.92273844203E+02 0.  0.
         11    1    3    3    0    0  0.19110141116E+02  0.15156534558E+02  0.30664389553E+02  0.39181919558E+02  0.51100000000E-03 0. -1.
         22    1    1    0    0    0 -0.12729804990E+02 -0.36172243594E+01  0.25175855289E+02  0.28442150704E+02  0.00000000000E+00 0.  1.
</event>
<event>
 5    1  0.1102386E-009  0.9118800E+02  0.7818608E-02  0.1130116E+00
         25   -1    0    0    0    0  0.00000000000E+00  0.00000000000E+00  0.99999998245E-14  0.12500000000E+03  0.12500000000E+03 0.  0.
        -11    1    3    3    0    0 -0.30331154555E+02  0.44137644655E+02 -0.20024349493E+02  0.57175914380E+02  0.51100000000E-03 0. -1.
         23    2    1    0    0    0 -0.23027678561E+02  0.86868386727E+01 -0.19865099858E+02  0.93371573887E+02  0.87851542227E+02 0.  0.
         11    1    3    3    0    0  0.73034759938E+01 -0.35450805983E+02  0.15924963490E+00  0.36195659507E+02  0.51100000000E-03 0.  1.
         22    1    1    0    0    0  0.23027678561E+02 -0.86868386727E+01  0.19865099858E+02  0.31628426113E+02  0.00000000000E+00 0. -1.
</event>
<event>
 5    1  0.1102386E-009  0.9118800E+02  0.7818608E-02  0.1130116E+00
         25   -1    0    0    0    0  0.00000000000E+00  0.00000000000E+00  0.99999998245E-14  0.12500000000E+03  0.12500000000E+03 0.  0.
        -11    1    3    3    0    0  0.18205234979E+02  0.39764182547E+02 -0.25574972883E+02  0.50662609808E+02  0.51100000000E-03 0.  1.
         23    2    1    0    0    0  0.20672240496E+02  0.16136796206E+02  0.12817602047E+02  0.95810470351E+02  0.91255781119E+02 0.  0.
         11    1    3    3    0    0  0.24670055177E+01 -0.23627386342E+02  0.38392574930E+02  0.45147860543E+02  0.51100000000E-03 0. -1.
         22    1    1    0    0    0 -0.20672240496E+02 -0.16136796206E+02 -0.12817602047E+02  0.29189529649E+02  0.00000000000E+00 0.  1.
</event>
<event>
 5    1  0.1102386E-009  0.9118800E+02  0.7818608E-02  0.1130116E+00
         25   -1    0    0    0    0  0.00000000000E+00  0.00000000000E+00  0.99999998245E-14  0.12500000000E+03  0.12500000000E+03 0.  0.
        -11    1    3    3    0    0 -0.36829297453E+02 -0.44261630479E+01 -0.34147498517E+02  0.50418644621E+02  0.51100000000E-03 0. -1.
         23    2    1    0    0    0  0.65819720880E+01  0.89600535924E+01 -0.26202445165E+02  0.96536461050E+02  0.92244865778E+02 0.  0.
         11    1    3    3    0    0  0.43411269541E+02  0.13386216640E+02  0.79450533522E+01  0.46117816429E+02  0.51100000000E-03 0.  1.
         22    1    1    0    0    0 -0.65819720880E+01 -0.89600535924E+01  0.26202445165E+02  0.28463538950E+02  0.00000000000E+00 0. -1.
</event>
<event>
 5    1  0.1102386E-009  0.9118800E+02  0.7818608E-02  0.1130116E+00
         25   -1    0    0    0    0  0.00000000000E+00  0.00000000000E+00  0.99999998245E-14  0.12500000000E+03  0.12500000000E+03 0.  0.
        -11    1    3    3    0    0 -0.36176433752E+02 -0.17786815810E+02  0.33725957081E+01  0.40453424796E+02  0.51100000000E-03 0.  1.
         23    2    1    0    0    0  0.17023137160E+02 -0.25282636743E+02  0.44988479145E+01  0.94190284779E+02  0.89008826500E+02 0.  0.
         11    1    3    3    0    0  0.53199570911E+02 -0.74958209329E+01  0.11262522064E+01  0.53736859984E+02  0.51100000000E-03 0. -1.
         22    1    1    0    0    0 -0.17023137160E+02  0.25282636743E+02 -0.44988479145E+01  0.30809715221E+02  0.00000000000E+00 0. -1.
</event>
<event>
 5    1  0.1102386E-009  0.9118800E+02  0.7818608E-02  0.1130116E+00
         25   -1    0    0    0    0  0.00000000000E+00  0.00000000000E+00  0.99999998245E-14  0.12500000000E+03  0.12500000000E+03 0.  0.
        -11    1    3    3    0    0 -0.24391279876E+02  0.37804216370E+02 -0.61448760514E+01  0.45407629439E+02  0.51100000000E-03 0.  1.
         23    2    1    0    0    0 -0.10110440477E+02 -0.72294549985E+01 -0.25632607291E+02  0.96512869875E+02  0.92212892097E+02 0.  0.
         11    1    3    3    0    0  0.14280839399E+02 -0.45033671369E+02 -0.19487731240E+02  0.51105240436E+02  0.51100000000E-03 0. -1.
         22    1    1    0    0    0  0.10110440477E+02  0.72294549985E+01  0.25632607291E+02  0.28487130125E+02  0.00000000000E+00 0.  1.
</event>
<event>
 5    1  0.1102386E-009  0.9118800E+02  0.7818608E-02  0.1130116E+00
         25   -1    0    0    0    0  0.00000000000E+00  0.00000000000E+00  0.99999998245E-14  0.12500000000E+03  0.12500000000E+03 0.  0.
        -11    1    3    3    0    0 -0.47671928710E+02  0.16916233666E+02 -0.17178971795E+02  0.53421800986E+02  0.51100000000E-03 0.  1.
         23    2    1    0    0    0 -0.99655771697E+01  0.56406880902E+01 -0.28426563044E+02  0.94353636807E+02  0.89237935890E+02 0.  0.
         11    1    3    3    0    0  0.37706351541E+02 -0.11275545576E+02 -0.11247591248E+02  0.40931835821E+02  0.51100000000E-03 0. -1.
         22    1    1    0    0    0  0.99655771697E+01 -0.56406880902E+01  0.28426563044E+02  0.30646363193E+02  0.00000000000E+00 0.  1.
</event>
<event>
 5    1  0.1102386E-009  0.9118800E+02  0.7818608E-02  0.1130116E+00
         25   -1    0    0    0    0  0.00000000000E+00  0.00000000000E+00  0.99999998245E-14  0.12500000000E+03  0.12500000000E+03 0.  0.
        -11    1    3    3    0    0  0.11314789087E+02 -0.28040398253E+01  0.38839529335E+02  0.40551154493E+02  0.51100000000E-03 0.  1.
         23    2    1    0    0    0 -0.29302684983E+02 -0.91971741925E+00  0.16793195976E+01  0.95634827743E+02  0.91014872058E+02 0.  0.
         11    1    3    3    0    0 -0.40617474070E+02  0.18843224061E+01 -0.37160209738E+02  0.55083673251E+02  0.51100000000E-03 0. -1.
         22    1    1    0    0    0  0.29302684983E+02  0.91971741925E+00 -0.16793195976E+01  0.29365172257E+02  0.00000000000E+00 0. -1.
</event>
<event>
 5    1  0.1102386E-009  0.9118800E+02  0.7818608E-02  0.1130116E+00
         25   -1    0    0    0    0  0.00000000000E+00  0.00000000000E+00  0.99999998245E-14  0.12500000000E+03  0.12500000000E+03 0.  0.
        -11    1    3    3    0    0 -0.25380069060E+02  0.36988121735E+02 -0.24704892601E+02  0.51211334426E+02  0.51100000000E-03 0. -1.
         23    2    1    0    0    0 -0.15109559071E+02  0.19680904736E+02  0.15198876113E+02  0.95902876059E+02  0.91382268601E+02 0.  0.
         11    1    3    3    0    0  0.10270509990E+02 -0.17307216999E+02  0.39903768714E+02  0.44691541633E+02  0.51100000000E-03 0.  1.
         22    1    1    0    0    0  0.15109559071E+02 -0.19680904736E+02 -0.15198876113E+02  0.29097123941E+02  0.00000000000E+00 0.  1.
</event>
<event>
 5    1  0.1102386E-009  0.9118800E+02  0.7818608E-02  0.1130116E+00
         25   -1    0    0    0    0  0.00000000000E+00  0.00000000000E+00  0.99999998245E-14  0.12500000000E+03  0.12500000000E+03 0.  0.
        -11    1    3    3    0    0  0.34019193645E+02  0.15595228630E+02 -0.38349726189E+02  0.53583749321E+02  0.51100000000E-03 0. -1.
         23    2    1    0    0    0  0.22476385996E+02  0.21346451264E+02 -0.43828430723E-01  0.94002244760E+02  0.88744358637E+02 0.  0.
         11    1    3    3    0    0 -0.11542807650E+02  0.57512226341E+01  0.38305897758E+02  0.40418495439E+02  0.51100000000E-03 0.  1.
         22    1    1    0    0    0 -0.22476385996E+02 -0.21346451264E+02  0.43828430723E-01  0.30997755240E+02  0.00000000000E+00 0. -1.
</event>
<event>
 5    1  0.1102386E-009  0.9118800E+02  0.7818608E-02  0.1130116E+00
         25   -1    0    0    0    0  0.00000000000E+00  0.00000000000E+00  0.99999998245E-14  0.12500000000E+03  0.12500000000E+03 0.  0.
        -11    1    3    3    0    0  0.20797402826E+02  0.20245880925E+02 -0.31280373599E+02  0.42671881040E+02  0.51100000000E-03 0.  1.
         23    2    1    0    0    0  0.16988204981E+02  0.96533214653E+01  0.21096683179E+02  0.96244900192E+02  0.91848925133E+02 0.  0.
         11    1    3    3    0    0 -0.38091978454E+01 -0.10592559459E+02  0.52377056778E+02  0.53573019153E+02  0.51100000000E-03 0. -1.
         22    1    1    0    0    0 -0.16988204981E+02 -0.96533214653E+01 -0.21096683179E+02  0.28755099808E+02  0.00000000000E+00 0. -1.
</event>
<event>
 5    1  0.1102386E-009  0.9118800E+02  0.7818608E-02  0.1130116E+00
         25   -1    0    0    0    0  0.00000000000E+00  0.00000000000E+00  0.99999998245E-14  0.12500000000E+03  0.12500000000E+03 0.  0.
        -11    1    3    3    0    0 -0.11302809227E+02 -0.82036175501E+01  0.38161348862E+02  0.40636699971E+02  0.51100000000E-03 0. -1.
         23    2    1    0    0    0  0.15722891835E+02 -0.21979193326E+02 -0.88315193510E+01  0.96569558551E+02  0.92289704940E+02 0.  0.
         11    1    3    3    0    0  0.27025701062E+02 -0.13775575776E+02 -0.46992868213E+02  0.55932858580E+02  0.51100000000E-03 0.  1.
         22    1    1    0    0    0 -0.15722891835E+02  0.21979193326E+02  0.88315193510E+01  0.28430441449E+02  0.00000000000E+00 0.  1.
</event>
<event>
 5    1  0.1102386E-009  0.9118800E+02  0.7818608E-02  0.1130116E+00
         25   -1    0    0    0    0  0.00000000000E+00  0.00000000000E+00  0.99999998245E-14  0.12500000000E+03  0.12500000000E+03 0.  0.
        -11    1    3    3    0    0 -0.29955577251E+02  0.38328135292E+02 -0.30630879356E+02  0.57485940313E+02  0.51100000000E-03 0.  1.
         23    2    1    0    0    0 -0.10355027598E+02  0.29220099580E+02 -0.12318196536E+01  0.93974877991E+02  0.88705803067E+02 0.  0.
         11    1    3    3    0    0  0.19600549653E+02 -0.91080357118E+01  0.29399059702E+02  0.36488937678E+02  0.51100000000E-03 0. -1.
         22    1    1    0    0    0  0.10355027598E+02 -0.29220099580E+02  0.12318196536E+01  0.31025122009E+02  0.00000000000E+00 0.  1.
</event>
<event>
 5    1  0.1102386E-009  0.9118800E+02  0.7818608E-02  0.1130116E+00
         25   -1    0    0    0    0  0.00000000000E+00  0.00000000000E+00  0.99999998245E-14  0.12500000000E+03  0.12500000000E+03 0.  0.
        -11    1    3    3    0    0  0.54620792996E+02 -0.62820231477E+01  0.23379878438E+02  0.59745406169E+02  0.51100000000E-03 0. -1.
         23    2    1    0    0    0  0.29040412610E+02  0.52065859405E+01  0.12457258805E+01  0.95470253393E+02  0.90788563972E+02 0.  0.
         11    1    3    3    0    0 -0.25580380385E+02  0.11488609088E+02 -0.22134152557E+02  0.35724847223E+02  0.51100000000E-03 0.  1.
         22    1    1    0    0    0 -0.29040412610E+02 -0.52065859405E+01 -0.12457258805E+01  0.29529746607E+02  0.00000000000E+00 0. -1.
</event>
<event>
 5    1  0.1102386E-009  0.9118800E+02  0.7818608E-02  0.1130116E+00
         25   -1    0    0    0    0  0.00000000000E+00  0.00000000000E+00  0.99999998245E-14  0.12500000000E+03  0.12500000000E+03 0.  0.
        -11    1    3    3    0    0  0.25085095724E+02  0.45596100147E+02  0.11671644722E+02  0.53333794792E+02  0.51100000000E-03 0. -1.
         23    2    1    0    0    0 -0.97535653097E+01  0.24950520605E+02 -0.60467095932E+01  0.97536875422E+02  0.93590698552E+02 0.  0.
         11    1    3    3    0    0 -0.34838661034E+02 -0.20645579542E+02 -0.17718354315E+02  0.44203080630E+02  0.51100000000E-03 0.  1.
         22    1    1    0    0    0  0.97535653097E+01 -0.24950520605E+02  0.60467095932E+01  0.27463124578E+02  0.00000000000E+00 0. -1.
</event>
<event>
 5    1  0.1102386E-009  0.9118800E+02  0.7818608E-02  0.1130116E+00
         25   -1    0    0    0    0  0.00000000000E+00  0.00000000000E+00  0.99999998245E-14  0.12500000000E+03  0.12500000000E+03 0.  0.
        -11    1    3    3    0    0  0.17299573317E+01 -0.44574574204E+02  0.41303838016E+02  0.60793852098E+02  0.51100000000E-03 0. -1.
         23    2    1    0    0    0 -0.86965271169E+01 -0.22860142512E+02  0.15760973419E+02  0.95903196350E+02  0.91382706720E+02 0.  0.
         11    1    3    3    0    0 -0.10426484449E+02  0.21714431692E+02 -0.25542864597E+02  0.35109344251E+02  0.51100000000E-03 0.  1.
         22    1    1    0    0    0  0.86965271169E+01  0.22860142512E+02 -0.15760973419E+02  0.29096803650E+02  0.00000000000E+00 0. -1.
</event>
<event>
 5    1  0.1102386E-009  0.9118800E+02  0.7818608E-02  0.1130116E+00
         25   -1    0    0    0    0  0.00000000000E+00  0.00000000000E+00  0.99999998245E-14  0.12500000000E+03  0.12500000000E+03 0.  0.
        -11    1    3    3    0    0 -0.58529329551E+01 -0.60753305201E+01  0.56753887777E+02  0.57377436708E+02  0.51100000000E-03 0.  1.
         23    2    1    0    0    0 -0.19612536806E+02 -0.16906640624E+01  0.19680607514E+02  0.97164119251E+02  0.93091513108E+02 0.  0.
         11    1    3    3    0    0 -0.13759603851E+02  0.43846664576E+01 -0.37073280263E+02  0.39786682543E+02  0.51100000000E-03 0. -1.
         22    1    1    0    0    0  0.19612536806E+02  0.16906640624E+01 -0.19680607514E+02  0.27835880749E+02  0.00000000000E+00 0.  1.
</event>
<event>
 5    1  0.1102386E-009  0.9118800E+02  0.7818608E-02  0.1130116E+00
         25   -1    0    0    0    0  0.00000000000E+00  0.00000000000E+00  0.99999998245E-14  0.12500000000E+03  0.12500000000E+03 0.  0.
        -11    1    3    3    0    0 -0.30575152673E+02  0.88758325715E+01 -0.99695110461E+01  0.33361827221E+02  0.51100000000E-03 0.  1.
         23    2    1    0    0    0  0.18126446010E+02 -0.22840875059E+02  0.89754819208E+01  0.94490445855E+02  0.89429365779E+02 0.  0.
         11    1    3    3    0    0  0.48701598683E+02 -0.31716707631E+02  0.18944992967E+02  0.61128618633E+02  0.51100000000E-03 0. -1.
         22    1    1    0    0    0 -0.18126446010E+02  0.22840875059E+02 -0.89754819208E+01  0.30509554145E+02  0.00000000000E+00 0. -1.
</event>
<event>
 5    1  0.1102386E-009  0.9118800E+02  0.7818608E-02  0.1130116E+00
         25   -1    0    0    0    0  0.00000000000E+00  0.00000000000E+00  0.99999998245E-14  0.12500000000E+03  0.12500000000E+03 0.  0.
        -11    1    3    3    0    0  0.19470657509E+02 -0.24312421782E+02  0.18978109703E+02  0.36474223843E+02  0.51100000000E-03 0. -1.
         23    2    1    0    0    0  0.81460624576E+01  0.29562992421E+02  0.12546963607E+01  0.94309559837E+02  0.89176173719E+02 0.  0.
         11    1    3    3    0    0 -0.11324595052E+02  0.53875414204E+02 -0.17723413343E+02  0.57835335994E+02  0.51100000000E-03 0.  1.
         22    1    1    0    0    0 -0.81460624576E+01 -0.29562992421E+02 -0.12546963607E+01  0.30690440163E+02  0.00000000000E+00 0.  1.
</event>
<event>
 5    1  0.1102386E-009  0.9118800E+02  0.7818608E-02  0.1130116E+00
         25   -1    0    0    0    0  0.00000000000E+00  0.00000000000E+00  0.99999998245E-14  0.12500000000E+03  0.12500000000E+03 0.  0.
        -11    1    3    3    0    0 -0.26146308042E+02  0.17394134007E+02  0.28049783957E+02  0.42106718019E+02  0.51100000000E-03 0. -1.
         23    2    1    0    0    0  0.24073780668E+02  0.34525843220E+01  0.16842216877E+02  0.95417445623E+02  0.90715827758E+02 0.  0.
         11    1    3    3    0    0  0.50220088709E+02 -0.13941549685E+02 -0.11207567080E+02  0.53310727604E+02  0.51100000000E-03 0.  1.
         22    1    1    0    0    0 -0.24073780668E+02 -0.34525843220E+01 -0.16842216877E+02  0.29582554377E+02  0.00000000000E+00 0. -1.
</event>
<event>
 5    1  0.1102386E-009  0.9118800E+02  0.7818608E-02  0.1130116E+00
         25   -1    0    0    0    0  0.00000000000E+00  0.00000000000E+00  0.99999998245E-14  0.12500000000E+03  0.12500000000E+03 0.  0.
        -11    1    3    3    0    0 -0.18590960278E+02  0.49956814167E+02 -0.20777516447E+02  0.57210246248E+02  0.51100000000E-03 0. -1.
         23    2    1    0    0    0  0.87862233007E+01  0.27329070226E+02 -0.60378873059E+01  0.95665176284E+02  0.91056543263E+02 0.  0.
         11    1    3    3    0    0  0.27377183579E+02 -0.22627743941E+02  0.14739629141E+02  0.38454930036E+02  0.51100000000E-03 0.  1.
         22    1    1    0    0    0 -0.87862233007E+01 -0.27329070226E+02  0.60378873059E+01  0.29334823716E+02  0.00000000000E+00 0. -1.
</event>
<event>
 5    1  0.1102386E-009  0.9118800E+02  0.7818608E-02  0.1130116E+00
         25   -1    0    0    0    0  0.00000000000E+00  0.00000000000E+00  0.99999998245E-14  0.12500000000E+03  0.12500000000E+03 0.  0.
        -11    1    3    3    0    0 -0.36245211733E+02  0.78252394345E+00  0.30542460879E+02  0.47404320838E+02  0.51100000000E-03 0. -1.
         23    2    1    0    0    0 -0.21702557508E+02  0.11157844550E+02 -0.15020937020E+02  0.96344685548E+02  0.91984625819E+02 0.  0.
         11    1    3    3    0    0  0.14542654226E+02  0.10375320607E+02 -0.45563397899E+02  0.48940364710E+02  0.51100000000E-03 0.  1.
         22    1    1    0    0    0  0.21702557508E+02 -0.11157844550E+02  0.15020937020E+02  0.28655314452E+02  0.00000000000E+00 0. -1.
</event>
<event>
 5    1  0.1102386E-009  0.9118800E+02  0.7818608E-02  0.1130116E+00
         25   -1    0    0    0    0  0.00000000000E+00  0.00000000000E+00  0.99999998245E-14  0.12500000000E+03  0.12500000000E+03 0.  0.
        -11    1    3    3    0    0  0.23410160111E+02  0.20674768281E+02  0.37412664741E+02  0.48735912048E+02  0.51100000000E-03 0.  1.
         23    2    1    0    0    0  0.25782536192E+02 -0.55834756151E+01 -0.44874171677E+01  0.98240865386E+02  0.94526273314E+02 0.  0.
         11    1    3    3    0    0  0.23723760816E+01 -0.26258243896E+02 -0.41900081909E+02  0.49504953338E+02  0.51100000000E-03 0. -1.
         22    1    1    0    0    0 -0.25782536192E+02  0.55834756151E+01  0.44874171677E+01  0.26759134614E+02  0.00000000000E+00 0.  1.
</event>
<event>
 5    1  0.1102386E-009  0.9118800E+02  0.7818608E-02  0.1130116E+00
         25   -1    0    0    0    0  0.00000000000E+00  0.00000000000E+00  0.99999998245E-14  0.12500000000E+03  0.12500000000E+03 0.  0.
        -11    1    3    3    0    0  0.34226076028E+02  0.18996215455E+02  0.43006348768E+02  0.58153473812E+02  0.51100000000E-03 0. -1.
         23    2    1    0    0    0  0.24947677454E+02 -0.40605634595E+01  0.14955136558E+02  0.95631123695E+02  0.91009784769E+02 0.  0.
         11    1    3    3    0    0 -0.92783985732E+01 -0.23056778914E+02 -0.28051212210E+02  0.37477649882E+02  0.51100000000E-03 0.  1.
         22    1    1    0    0    0 -0.24947677454E+02  0.40605634595E+01 -0.14955136558E+02  0.29368876305E+02  0.00000000000E+00 0. -1.
</event>
<event>
 5    1  0.1102386E-009  0.9118800E+02  0.7818608E-02  0.1130116E+00
         25   -1    0    0    0    0  0.00000000000E+00  0.00000000000E+00  0.99999998245E-14  0.12500000000E+03  0.12500000000E+03 0.  0.
        -11    1    3    3    0    0 -0.21241253784E+02 -0.46153059521E+02 -0.11401652063E+02  0.52070081962E+02  0.51100000000E-03 0.  1.
         23    2    1    0    0    0 -0.26717129697E+02 -0.77682047607E+01  0.88357405217E+01  0.95807186929E+02  0.91251283455E+02 0.  0.
         11    1    3    3    0    0 -0.54758759132E+01  0.38384854761E+02  0.20237392585E+02  0.43737104967E+02  0.51100000000E-03 0. -1.
         22    1    1    0    0    0  0.26717129697E+02  0.77682047607E+01 -0.88357405217E+01  0.29192813071E+02  0.00000000000E+00 0.  1.
</event>
<event>
 5    1  0.1102386E-009  0.9118800E+02  0.7818608E-02  0.1130116E+00
         25   -1    0    0    0    0  0.00000000000E+00  0.00000000000E+00  0.99999998245E-14  0.12500000000E+03  0.12500000000E+03 0.  0.
        -11    1    3    3    0    0  0.28504424706E+02 -0.45332877848E+02 -0.11750470133E+02  0.54823768481E+02  0.51100000000E-03 0. -1.
         23    2    1    0    0    0  0.27430500681E+02 -0.59538913375E+01 -0.12613698812E+02  0.94226852819E+02  0.89060166207E+02 0.  0.
         11    1    3    3    0    0 -0.10739240251E+01  0.39378986510E+02 -0.86322867859E+00  0.39403084339E+02  0.51100000000E-03 0.  1.
         22    1    1    0    0    0 -0.27430500681E+02  0.59538913375E+01  0.12613698812E+02  0.30773147181E+02  0.00000000000E+00 0. -1.
</event>
<event>
 5    1  0.1102386E-009  0.9118800E+02  0.7818608E-02  0.1130116E+00
         25   -1    0    0    0    0  0.00000000000E+00  0.00000000000E+00  0.99999998245E-14  0.12500000000E+03  0.12500000000E+03 0.  0.
        -11    1    3    3    0    0  0.44576080515E+02  0.10016195965E+02 -0.18764216899E+00  0.45687923410E+02  0.51100000000E-03 0.  1.
         23    2    1    0    0    0 -0.38021505199E+01  0.22867088649E+02  0.14256092740E+02  0.97786101490E+02  0.93922975744E+02 0.  0.
         11    1    3    3    0    0 -0.48378231035E+02  0.12850892685E+02  0.14443734909E+02  0.52098178080E+02  0.51100000000E-03 0. -1.
         22    1    1    0    0    0  0.38021505199E+01 -0.22867088649E+02 -0.14256092740E+02  0.27213898510E+02  0.00000000000E+00 0. -1.
</event>
<event>
 5    1  0.1102386E-009  0.9118800E+02  0.7818608E-02  0.1130116E+00
         25   -1    0    0    0    0  0.00000000000E+00  0.00000000000E+00  0.99999998245E-14  0.12500000000E+03  0.12500000000E+03 0.  0.
        -11    1    3    3    0    0  0.20304964706E+02 -0.21339762855E+02  0.17403941338E+02  0.34213655822E+02  0.51100000000E-03 0.  1.
         23    2    1    0    0    0 -0.51137772386E+01  0.33585447674E+00 -0.31305588128E+02  0.93277715027E+02  0.87717893025E+02 0.  0.
         11    1    3    3    0    0 -0.25418741944E+02  0.21675617331E+02 -0.48709529466E+02  0.59064059205E+02  0.51100000000E-03 0. -1.
         22    1    1    0    0    0  0.51137772386E+01 -0.33585447674E+00  0.31305588128E+02  0.31722284973E+02  0.00000000000E+00 0. -1.
</event>
<event>
 5    1  0.1102386E-009  0.9118800E+02  0.7818608E-02  0.1130116E+00
         25   -1    0    0    0    0  0.00000000000E+00  0.00000000000E+00  0.99999998245E-14  0.12500000000E+03  0.12500000000E+03 0.  0.
        -11    1    3    3    0    0  0.30644520542E+02 -0.33776910683E+02 -0.18128026530E+02  0.49077404991E+02  0.51100000000E-03 0. -1.
         23    2    1    0    0    0  0.18440455652E+02 -0.11283371896E+02  0.20364316732E+02  0.95300331955E+02  0.90554309609E+02 0.  0.
         11    1    3    3    0    0 -0.12204064890E+02  0.22493538787E+02  0.38492343262E+02  0.46222926964E+02  0.51100000000E-03 0.  1.
         22    1    1    0    0    0 -0.18440455652E+02  0.11283371896E+02 -0.20364316732E+02  0.29699668045E+02  0.00000000000E+00 0.  1.
</event>
<event>
 5    1  0.1102386E-009  0.9118800E+02  0.7818608E-02  0.1130116E+00
         25   -1    0    0    0    0  0.00000000000E+00  0.00000000000E+00  0.99999998245E-14  0.12500000000E+03  0.12500000000E+03 0.  0.
        -11    1    3    3    0    0 -0.15780961910E+02 -0.33879725090E+02  0.12924999538E+02  0.39546556668E+02  0.51100000000E-03 0.  1.
         23    2    1    0    0    0 -0.10997098103E+01  0.19527259350E+02  0.21878763083E+02  0.95653731184E+02  0.91040830378E+02 0.  0.
         11    1    3    3    0    0  0.14681252100E+02  0.53406984440E+02  0.89537635446E+01  0.56107174515E+02  0.51100000000E-03 0. -1.
         22    1    1    0    0    0  0.10997098103E+01 -0.19527259350E+02 -0.21878763083E+02  0.29346268816E+02  0.00000000000E+00 0. -1.
</event>
<event>
 5    1  0.1102386E-009  0.9118800E+02  0.7818608E-02  0.1130116E+00
         25   -1    0    0    0    0  0.00000000000E+00  0.00000000000E+00  0.99999998245E-14  0.12500000000E+03  0.12500000000E+03 0.  0.
        -11    1    3    3    0    0 -0.34394996237E+02 -0.45587194713E+01 -0.13014139823E+02  0.37056248123E+02  0.51100000000E-03 0. -1.
         23    2    1    0    0    0  0.17141559164E+02  0.22855722133E+02 -0.53914143473E+01  0.95926224300E+02  0.91414200620E+02 0.  0.
         11    1    3    3    0    0  0.51536555401E+02  0.27414441604E+02  0.76227254759E+01  0.58869976177E+02  0.51100000000E-03 0.  1.
         22    1    1    0    0    0 -0.17141559164E+02 -0.22855722133E+02  0.53914143473E+01  0.29073775700E+02  0.00000000000E+00 0.  1.
</event>
<event>
 5    1  0.1102386E-009  0.9118800E+02  0.7818608E-02  0.1130116E+00
         25   -1    0    0    0    0  0.00000000000E+00  0.00000000000E+00  0.99999998245E-14  0.12500000000E+03  0.12500000000E+03 0.  0.
        -11    1    3    3    0    0 -0.33618907850E+02 -0.24905571641E+02  0.38497974709E+02  0.56856068460E+02  0.51100000000E-03 0.  1.
         23    2    1    0    0    0  0.12380449402E+01 -0.19031984645E+02  0.22056825925E+02  0.95840905969E+02  0.91297461587E+02 0.  0.
         11    1    3    3    0    0  0.34856952790E+02  0.58735869957E+01 -0.16441148784E+02  0.38984837509E+02  0.51100000000E-03 0. -1.
         22    1    1    0    0    0 -0.12380449402E+01  0.19031984645E+02 -0.22056825925E+02  0.29159094031E+02  0.00000000000E+00 0.  1.
</event>
<event>
 5    1  0.1102386E-009  0.9118800E+02  0.7818608E-02  0.1130116E+00
         25   -1    0    0    0    0  0.00000000000E+00  0.00000000000E+00  0.99999998245E-14  0.12500000000E+03  0.12500000000E+03 0.  0.
        -11    1    3    3    0    0  0.46990937226E+02  0.14972243334E+02 -0.21012524154E+02  0.53608230929E+02  0.51100000000E-03 0. -1.
         23    2    1    0    0    0  0.12988091903E+02  0.26395808321E+02  0.76490518130E+00  0.95571878957E+02  0.90928376975E+02 0.  0.
         11    1    3    3    0    0 -0.34002845323E+02  0.11423564987E+02  0.21777429335E+02  0.41963648028E+02  0.51100000000E-03 0.  1.
         22    1    1    0    0    0 -0.12988091903E+02 -0.26395808321E+02 -0.76490518130E+00  0.29428121043E+02  0.00000000000E+00 0.  1.
</event>
<event>
 5    1  0.1102386E-009  0.9118800E+02  0.7818608E-02  0.1130116E+00
         25   -1    0    0    0    0  0.00000000000E+00  0.00000000000E+00  0.99999998245E-14  0.12500000000E+03  0.12500000000E+03 0.  0.
        -11    1    3    3    0    0  0.25128704085E+02 -0.19436518204E+01 -0.54654234457E+02  0.60185670186E+02  0.51100000000E-03 0.  1.
         23    2    1    0    0    0  0.84980402067E+01  0.10697439169E+02 -0.25773674810E+02  0.95829223436E+02  0.91281465035E+02 0.  0.
         11    1    3    3    0    0 -0.16630663879E+02  0.12641090989E+02  0.28880559647E+02  0.35643553249E+02  0.51100000000E-03 0. -1.
         22    1    1    0    0    0 -0.84980402067E+01 -0.10697439169E+02  0.25773674810E+02  0.29170776564E+02  0.00000000000E+00 0.  1.
</event>
<event>
 5    1  0.1102386E-009  0.9118800E+02  0.7818608E-02  0.1130116E+00
         25   -1    0    0    0    0  0.00000000000E+00  0.00000000000E+00  0.99999998245E-14  0.12500000000E+03  0.12500000000E+03 0.  0.
        -11    1    3    3    0    0  0.18287784885E+02 -0.27230737606E+02 -0.36232989261E+01  0.33001279398E+02  0.51100000000E-03 0.  1.
         23    2    1    0    0    0 -0.33980608329E+01  0.29667090473E+02  0.56955248556E+01  0.94600623725E+02  0.89583234655E+02 0.  0.
         11    1    3    3    0    0 -0.21685845718E+02  0.56897828078E+02  0.93188237818E+01  0.61599344327E+02  0.51100000000E-03 0. -1.
         22    1    1    0    0    0  0.33980608329E+01 -0.29667090473E+02 -0.56955248556E+01  0.30399376275E+02  0.00000000000E+00 0. -1.
</event>
<event>
 5    1  0.1102386E-009  0.9118800E+02  0.7818608E-02  0.1130116E+00
         25   -1    0    0    0    0  0.00000000000E+00  0.00000000000E+00  0.99999998245E-14  0.12500000000E+03  0.12500000000E+03 0.  0.
        -11    1    3    3    0    0 -0.55789211460E+00 -0.54793352467E+02 -0.50831681800E+01  0.55031457524E+02  0.51100000000E-03 0. -1.
         23    2    1    0    0    0 -0.17929623528E+02 -0.19156456903E+02 -0.13397310773E+02  0.95539362246E+02  0.90883664987E+02 0.  0.
         11    1    3    3    0    0 -0.17371731413E+02  0.35636895563E+02 -0.83141425929E+01  0.40507904722E+02  0.51100000000E-03 0.  1.
         22    1    1    0    0    0  0.17929623528E+02  0.19156456903E+02  0.13397310773E+02  0.29460637754E+02  0.00000000000E+00 0. -1.
</event>
<event>
 5    1  0.1102386E-009  0.9118800E+02  0.7818608E-02  0.1130116E+00
         25   -1    0    0    0    0  0.00000000000E+00  0.00000000000E+00  0.99999998245E-14  0.12500000000E+03  0.12500000000E+03 0.  0.
        -11    1    3    3    0    0  0.97970856947E+01  0.32832245752E+02 -0.12663006239E+02  0.36527947882E+02  0.51100000000E-03 0. -1.
         23    2    1    0    0    0  0.15193202063E+01 -0.26620081764E+02 -0.97004577978E+01  0.96626844228E+02  0.92367261824E+02 0.  0.
         11    1    3    3    0    0 -0.82777654884E+01 -0.59452327515E+02  0.29625484409E+01  0.60098896346E+02  0.51100000000E-03 0.  1.
         22    1    1    0    0    0 -0.15193202063E+01  0.26620081764E+02  0.97004577978E+01  0.28373155772E+02  0.00000000000E+00 0.  1.
</event>
<event>
 5    1  0.1102386E-009  0.9118800E+02  0.7818608E-02  0.1130116E+00
         25   -1    0    0    0    0  0.00000000000E+00  0.00000000000E+00  0.99999998245E-14  0.12500000000E+03  0.12500000000E+03 0.  0.
        -11    1    3    3    0    0  0.53289811569E+02 -0.23427672285E+01  0.38545079768E+01  0.53480368429E+02  0.51100000000E-03 0.  1.
         23    2    1    0    0    0  0.10446955757E+02 -0.16848430267E+02 -0.12483513498E+02  0.10157252476E+03  0.98833856492E+02 0.  0.
         11    1    3    3    0    0 -0.42842855811E+02 -0.14505663038E+02 -0.16338021474E+02  0.48092156327E+02  0.51100000000E-03 0. -1.
         22    1    1    0    0    0 -0.10446955757E+02  0.16848430267E+02  0.12483513498E+02  0.23427475244E+02  0.00000000000E+00 0.  1.
</event>
<event>
 5    1  0.1102386E-009  0.9118800E+02  0.7818608E-02  0.1130116E+00
         25   -1    0    0    0    0  0.00000000000E+00  0.00000000000E+00  0.99999998245E-14  0.12500000000E+03  0.12500000000E+03 0.  0.
        -11    1    3    3    0    0  0.19227352063E+02 -0.38052697051E+02  0.34302247618E+02  0.54720590386E+02  0.51100000000E-03 0. -1.
         23    2    1    0    0    0  0.67448509031E+01  0.68292796413E+00  0.28349924856E+02  0.95850769416E+02  0.91310965136E+02 0.  0.
         11    1    3    3    0    0 -0.12482501160E+02  0.38735625015E+02 -0.59523227622E+01  0.41130179030E+02  0.51100000000E-03 0.  1.
         22    1    1    0    0    0 -0.67448509031E+01 -0.68292796413E+00 -0.28349924856E+02  0.29149230584E+02  0.00000000000E+00 0. -1.
</event>
<event>
 5    1  0.1102386E-009  0.9118800E+02  0.7818608E-02  0.1130116E+00
         25   -1    0    0    0    0  0.00000000000E+00  0.00000000000E+00  0.99999998245E-14  0.12500000000E+03  0.12500000000E+03 0.  0.
        -11    1    3    3    0    0  0.21108564013E+02 -0.39893213569E+02  0.27410738363E+01  0.45216738600E+02  0.51100000000E-03 0.  1.
         23    2    1    0    0    0 -0.23591377146E+02 -0.18500093569E+02 -0.17059507834E+01  0.94971400203E+02  0.90099112375E+02 0.  0.
         11    1    3    3    0    0 -0.44699941159E+02  0.21393120000E+02 -0.44470246197E+01  0.49754661603E+02  0.51100000000E-03 0. -1.
         22    1    1    0    0    0  0.23591377146E+02  0.18500093569E+02  0.17059507834E+01  0.30028599797E+02  0.00000000000E+00 0. -1.
</event>
<event>
 5    1  0.1102386E-009  0.9118800E+02  0.7818608E-02  0.1130116E+00
         25   -1    0    0    0    0  0.00000000000E+00  0.00000000000E+00  0.99999998245E-14  0.12500000000E+03  0.12500000000E+03 0.  0.
        -11    1    3    3    0    0 -0.88499406151E+01  0.23804689091E+02 -0.28282101296E+02  0.38011339434E+02  0.51100000000E-03 0.  1.
         23    2    1    0    0    0  0.26377560777E+02  0.81948368858E+00  0.11780098960E+02  0.96099861634E+02  0.91651325187E+02 0.  0.
         11    1    3    3    0    0  0.35227501392E+02 -0.22985205402E+02  0.40062200256E+02  0.58088522200E+02  0.51100000000E-03 0. -1.
         22    1    1    0    0    0 -0.26377560777E+02 -0.81948368858E+00 -0.11780098960E+02  0.28900138366E+02  0.00000000000E+00 0. -1.
</event>
<event>
 5    1  0.1102386E-009  0.9118800E+02  0.7818608E-02  0.1130116E+00
         25   -1    0    0    0    0  0.00000000000E+00  0.00000000000E+00  0.99999998245E-14  0.12500000000E+03  0.12500000000E+03 0.  0.
        -11    1    3    3    0    0  0.29751252332E+02 -0.60981070103E+01 -0.23187959381E+02  0.38210016815E+02  0.51100000000E-03 0. -1.
         23    2    1    0    0    0 -0.19916065852E+02 -0.19857083128E+02  0.41855650955E+01  0.96566351192E+02  0.92285360692E+02 0.  0.
         11    1    3    3    0    0 -0.49667318185E+02 -0.13758976117E+02  0.27373524477E+02  0.58356334377E+02  0.51100000000E-03 0.  1.
         22    1    1    0    0    0  0.19916065852E+02  0.19857083128E+02 -0.41855650955E+01  0.28433648808E+02  0.00000000000E+00 0.  1.
</event>
<event>
 5    1  0.1102386E-009  0.9118800E+02  0.7818608E-02  0.1130116E+00
         25   -1    0    0    0    0  0.00000000000E+00  0.00000000000E+00  0.99999998245E-14  0.12500000000E+03  0.12500000000E+03 0.  0.
        -11    1    3    3    0    0  0.39918394492E+02  0.71300805612E+01  0.13285889389E+02  0.42671197836E+02  0.51100000000E-03 0. -1.
         23    2    1    0    0    0 -0.10133363916E+02 -0.16298098451E+02  0.18706430645E+02  0.98199932372E+02  0.94472128658E+02 0.  0.
         11    1    3    3    0    0 -0.50051758407E+02 -0.23428179012E+02  0.54205412557E+01  0.55528734537E+02  0.51100000000E-03 0.  1.
         22    1    1    0    0    0  0.10133363916E+02  0.16298098451E+02 -0.18706430645E+02  0.26800067628E+02  0.00000000000E+00 0.  1.
</event>
<event>
 5    1  0.1102386E-009  0.9118800E+02  0.7818608E-02  0.1130116E+00
         25   -1    0    0    0    0  0.00000000000E+00  0.00000000000E+00  0.99999998245E-14  0.12500000000E+03  0.12500000000E+03 0.  0.
        -11    1    3    3    0    0 -0.39411870085E+02 -0.30545987391E+02  0.37125811403E+02  0.62166540212E+02  0.51100000000E-03 0.  1.
         23    2    1    0    0    0 -0.15751761793E+02 -0.17475029918E+02  0.19572095926E+02  0.94396705910E+02  0.89298244537E+02 0.  0.
         11    1    3    3    0    0  0.23660108292E+02  0.13070957473E+02 -0.17553715476E+02  0.32230165698E+02  0.51100000000E-03 0. -1.
         22    1    1    0    0    0  0.15751761793E+02  0.17475029918E+02 -0.19572095926E+02  0.30603294090E+02  0.00000000000E+00 0.  1.
</event>
<event>
 5    1  0.1102386E-009  0.9118800E+02  0.7818608E-02  0.1130116E+00
         25   -1    0    0    0    0  0.00000000000E+00  0.00000000000E+00  0.99999998245E-14  0.12500000000E+03  0.12500000000E+03 0.  0.
        -11    1    3    3    0    0  0.30745164665E+02  0.21625393163E+01  0.15496902000E+02  0.34497763673E+02  0.51100000000E-03 0.  1.
         23    2    1    0    0    0 -0.25043259453E+02  0.96453337188E+01 -0.10091232185E+02  0.96328929675E+02  0.91963212311E+02 0.  0.
         11    1    3    3    0    0 -0.55788424119E+02  0.74827944025E+01 -0.25588134185E+02  0.61831166001E+02  0.51100000000E-03 0. -1.
         22    1    1    0    0    0  0.25043259453E+02 -0.96453337188E+01  0.10091232185E+02  0.28671070325E+02  0.00000000000E+00 0. -1.
</event>
<event>
 5    1  0.1102386E-009  0.9118800E+02  0.7818608E-02  0.1130116E+00
         25   -1    0    0    0    0  0.00000000000E+00  0.00000000000E+00  0.99999998245E-14  0.12500000000E+03  0.12500000000E+03 0.  0.
        -11    1    3    3    0    0 -0.43209470414E+02  0.36579956135E+02 -0.49968367039E+01  0.56834143801E+02  0.51100000000E-03 0.  1.
         23    2    1    0    0    0 -0.12178846146E+02  0.19812839673E+02 -0.19184650196E+02  0.94851638312E+02  0.89932805905E+02 0.  0.
         11    1    3    3    0    0  0.31030624267E+02 -0.16767116463E+02 -0.14187813492E+02  0.38017494510E+02  0.51100000000E-03 0. -1.
         22    1    1    0    0    0  0.12178846146E+02 -0.19812839673E+02  0.19184650196E+02  0.30148361688E+02  0.00000000000E+00 0.  1.
</event>
<event>
 5    1  0.1102386E-009  0.9118800E+02  0.7818608E-02  0.1130116E+00
         25   -1    0    0    0    0  0.00000000000E+00  0.00000000000E+00  0.99999998245E-14  0.12500000000E+03  0.12500000000E+03 0.  0.
        -11    1    3    3    0    0  0.44102911426E+02 -0.14688774343E+02  0.69251817783E+01  0.46997713038E+02  0.51100000000E-03 0.  1.
         23    2    1    0    0    0  0.50897547882E-01 -0.30607823957E+02  0.57759251258E+01  0.93851921584E+02  0.88532369199E+02 0.  0.
         11    1    3    3    0    0 -0.44052013878E+02 -0.15919049614E+02 -0.11492566525E+01  0.46854208545E+02  0.51100000000E-03 0. -1.
         22    1    1    0    0    0 -0.50897547882E-01  0.30607823957E+02 -0.57759251258E+01  0.31148078416E+02  0.00000000000E+00 0.  1.
</event>
<event>
 5    1  0.1102386E-009  0.9118800E+02  0.7818608E-02  0.1130116E+00
         25   -1    0    0    0    0  0.00000000000E+00  0.00000000000E+00  0.99999998245E-14  0.12500000000E+03  0.12500000000E+03 0.  0.
        -11    1    3    3    0    0  0.44634743823E+01 -0.99221749950E+00  0.54925773070E+02  0.55115765864E+02  0.51100000000E-03 0. -1.
         23    2    1    0    0    0 -0.13630248689E+02  0.14020638333E+02  0.22124867407E+02  0.95472525737E+02  0.90791692539E+02 0.  0.
         11    1    3    3    0    0 -0.18093723071E+02  0.15012855833E+02 -0.32800905663E+02  0.40356759873E+02  0.51100000000E-03 0.  1.
         22    1    1    0    0    0  0.13630248689E+02 -0.14020638333E+02 -0.22124867407E+02  0.29527474263E+02  0.00000000000E+00 0.  1.
</event>
<event>
 5    1  0.1102386E-009  0.9118800E+02  0.7818608E-02  0.1130116E+00
         25   -1    0    0    0    0  0.00000000000E+00  0.00000000000E+00  0.99999998245E-14  0.12500000000E+03  0.12500000000E+03 0.  0.
        -11    1    3    3    0    0 -0.34934088812E+02 -0.43127650826E+02  0.50296956480E+00  0.55503493633E+02  0.51100000000E-03 0.  1.
         23    2    1    0    0    0 -0.58405937876E+01 -0.24837027130E+02 -0.17267528485E+02  0.94191592179E+02  0.89010662534E+02 0.  0.
         11    1    3    3    0    0  0.29093495024E+02  0.18290623696E+02 -0.17770498050E+02  0.38688098546E+02  0.51100000000E-03 0. -1.
         22    1    1    0    0    0  0.58405937876E+01  0.24837027130E+02  0.17267528485E+02  0.30808407821E+02  0.00000000000E+00 0.  1.
</event>
<event>
 5    1  0.1102386E-009  0.9118800E+02  0.7818608E-02  0.1130116E+00
         25   -1    0    0    0    0  0.00000000000E+00  0.00000000000E+00  0.99999998245E-14  0.12500000000E+03  0.12500000000E+03 0.  0.
        -11    1    3    3    0    0  0.36963699430E+02 -0.33746233477E+02 -0.22864506846E+02  0.55026439309E+02  0.51100000000E-03 0.  1.
         23    2    1    0    0    0  0.15181738780E+02 -0.22561124232E+02  0.10014162798E+02  0.96021163316E+02  0.91543928412E+02 0.  0.
         11    1    3    3    0    0 -0.21781960650E+02  0.11185109245E+02  0.32878669644E+02  0.40994724007E+02  0.51100000000E-03 0. -1.
         22    1    1    0    0    0 -0.15181738780E+02  0.22561124232E+02 -0.10014162798E+02  0.28978836684E+02  0.00000000000E+00 0.  1.
</event>
<event>
 5    1  0.1102386E-009  0.9118800E+02  0.7818608E-02  0.1130116E+00
         25   -1    0    0    0    0  0.00000000000E+00  0.00000000000E+00  0.99999998245E-14  0.12500000000E+03  0.12500000000E+03 0.  0.
        -11    1    3    3    0    0 -0.40852757534E+02 -0.42431631797E+02  0.90373089468E+01  0.59590805737E+02  0.51100000000E-03 0. -1.
         23    2    1    0    0    0 -0.25657614742E+02 -0.14091942418E+02 -0.60467045141E+01  0.95109220973E+02  0.90290117086E+02 0.  0.
         11    1    3    3    0    0  0.15195142793E+02  0.28339689379E+02 -0.15084013461E+02  0.35518415237E+02  0.51100000000E-03 0.  1.
         22    1    1    0    0    0  0.25657614742E+02  0.14091942418E+02  0.60467045141E+01  0.29890779027E+02  0.00000000000E+00 0. -1.
</event>
<event>
 5    1  0.1102386E-009  0.9118800E+02  0.7818608E-02  0.1130116E+00
         25   -1    0    0    0    0  0.00000000000E+00  0.00000000000E+00  0.99999998245E-14  0.12500000000E+03  0.12500000000E+03 0.  0.
        -11    1    3    3    0    0  0.32041720119E+02  0.30208605078E+02  0.34935690114E+02  0.56211512103E+02  0.51100000000E-03 0. -1.
         23    2    1    0    0    0  0.61335837998E+01  0.28781344221E+02  0.62041602519E+01  0.94925455451E+02  0.90035347851E+02 0.  0.
         11    1    3    3    0    0 -0.25908136319E+02 -0.14272608564E+01 -0.28731529862E+02  0.38713943348E+02  0.51100000000E-03 0.  1.
         22    1    1    0    0    0 -0.61335837998E+01 -0.28781344221E+02 -0.62041602519E+01  0.30074544549E+02  0.00000000000E+00 0. -1.
</event>
<event>
 5    1  0.1102386E-009  0.9118800E+02  0.7818608E-02  0.1130116E+00
         25   -1    0    0    0    0  0.00000000000E+00  0.00000000000E+00  0.99999998245E-14  0.12500000000E+03  0.12500000000E+03 0.  0.
        -11    1    3    3    0    0 -0.48078923119E+02  0.83682669148E+01  0.83705928214E+01  0.49514417737E+02  0.51100000000E-03 0. -1.
         23    2    1    0    0    0 -0.14359362100E+02 -0.23610165238E+02  0.88336879973E+01  0.95988532851E+02  0.91499361816E+02 0.  0.
         11    1    3    3    0    0  0.33719561018E+02 -0.31978432153E+02  0.46309517591E+00  0.46474115114E+02  0.51100000000E-03 0.  1.
         22    1    1    0    0    0  0.14359362100E+02  0.23610165238E+02 -0.88336879973E+01  0.29011467149E+02  0.00000000000E+00 0. -1.
</event>
<event>
 5    1  0.1102386E-009  0.9118800E+02  0.7818608E-02  0.1130116E+00
         25   -1    0    0    0    0  0.00000000000E+00  0.00000000000E+00  0.99999998245E-14  0.12500000000E+03  0.12500000000E+03 0.  0.
        -11    1    3    3    0    0  0.29252570597E+01  0.36932057286E+02 -0.33081385141E+02  0.49668018154E+02  0.51100000000E-03 0.  1.
         23    2    1    0    0    0 -0.19908956014E+01  0.30454978932E+02  0.95131242532E+01  0.93031751063E+02  0.87366685675E+02 0.  0.
         11    1    3    3    0    0 -0.49161526610E+01 -0.64770783543E+01  0.42594509394E+02  0.43363732909E+02  0.51100000000E-03 0. -1.
         22    1    1    0    0    0  0.19908956014E+01 -0.30454978932E+02 -0.95131242532E+01  0.31968248937E+02  0.00000000000E+00 0.  1.
</event>
<event>
 5    1  0.1102386E-009  0.9118800E+02  0.7818608E-02  0.1130116E+00
         25   -1    0    0    0    0  0.00000000000E+00  0.00000000000E+00  0.99999998245E-14  0.12500000000E+03  0.12500000000E+03 0.  0.
        -11    1    3    3    0    0 -0.28608668345E+02 -0.49880788483E+02  0.49992841485E+01  0.57719509755E+02  0.51100000000E-03 0. -1.
         23    2    1    0    0    0  0.30569625957E+01 -0.28683979226E+02 -0.16772509675E-01  0.96153579670E+02  0.91724560056E+02 0.  0.
         11    1    3    3    0    0  0.31665630941E+02  0.21196809257E+02 -0.50160566581E+01  0.38434069915E+02  0.51100000000E-03 0.  1.
         22    1    1    0    0    0 -0.30569625957E+01  0.28683979226E+02  0.16772509675E-01  0.28846420330E+02  0.00000000000E+00 0. -1.
</event>
<event>
 5    1  0.1102386E-009  0.9118800E+02  0.7818608E-02  0.1130116E+00
         25   -1    0    0    0    0  0.00000000000E+00  0.00000000000E+00  0.99999998245E-14  0.12500000000E+03  0.12500000000E+03 0.  0.
        -11    1    3    3    0    0  0.29033743250E+01 -0.38566560155E+02  0.42011622751E+02  0.57103288794E+02  0.51100000000E-03 0. -1.
         23    2    1    0    0    0  0.10106682296E+01 -0.28881449268E+02  0.46710986087E+01  0.95725801047E+02  0.91139729327E+02 0.  0.
         11    1    3    3    0    0 -0.18927060954E+01  0.96851108863E+01 -0.37340524143E+02  0.38622512253E+02  0.51100000000E-03 0.  1.
         22    1    1    0    0    0 -0.10106682296E+01  0.28881449268E+02 -0.46710986087E+01  0.29274198953E+02  0.00000000000E+00 0. -1.
</event>
<event>
 5    1  0.1102386E-009  0.9118800E+02  0.7818608E-02  0.1130116E+00
         25   -1    0    0    0    0  0.00000000000E+00  0.00000000000E+00  0.99999998245E-14  0.12500000000E+03  0.12500000000E+03 0.  0.
        -11    1    3    3    0    0  0.28013179630E+02  0.64644872618E+01  0.35618151799E+02  0.45773142413E+02  0.51100000000E-03 0. -1.
         23    2    1    0    0    0 -0.10305544336E+02  0.25088889276E+02  0.73651764862E+01  0.96894797032E+02  0.92729171559E+02 0.  0.
         11    1    3    3    0    0 -0.38318723966E+02  0.18624402014E+02 -0.28252975312E+02  0.51121654620E+02  0.51100000000E-03 0.  1.
         22    1    1    0    0    0  0.10305544336E+02 -0.25088889276E+02 -0.73651764862E+01  0.28105202968E+02  0.00000000000E+00 0. -1.
</event>
<event>
 5    1  0.1102386E-009  0.9118800E+02  0.7818608E-02  0.1130116E+00
         25   -1    0    0    0    0  0.00000000000E+00  0.00000000000E+00  0.99999998245E-14  0.12500000000E+03  0.12500000000E+03 0.  0.
        -11    1    3    3    0    0 -0.18458283574E+02  0.73326244637E+01 -0.47223569864E+02  0.51230275862E+02  0.51100000000E-03 0.  1.
         23    2    1    0    0    0  0.61065832564E+01  0.24496253473E+02 -0.13404127169E+02  0.96416308523E+02  0.92081904470E+02 0.  0.
         11    1    3    3    0    0  0.24564866830E+02  0.17163629010E+02  0.33819442695E+02  0.45186032661E+02  0.51100000000E-03 0. -1.
         22    1    1    0    0    0 -0.61065832564E+01 -0.24496253473E+02  0.13404127169E+02  0.28583691477E+02  0.00000000000E+00 0.  1.
</event>
<event>
 5    1  0.1102386E-009  0.9118800E+02  0.7818608E-02  0.1130116E+00
         25   -1    0    0    0    0  0.00000000000E+00  0.00000000000E+00  0.99999998245E-14  0.12500000000E+03  0.12500000000E+03 0.  0.
        -11    1    3    3    0    0 -0.39946412256E+02 -0.43955572762E+02 -0.49972106387E+01  0.59605203996E+02  0.51100000000E-03 0.  1.
         23    2    1    0    0    0 -0.27237672598E+02 -0.10200864897E+02 -0.35105230468E+01  0.95703716528E+02  0.91109434923E+02 0.  0.
         11    1    3    3    0    0  0.12708739658E+02  0.33754707865E+02  0.14866875919E+01  0.36098512532E+02  0.51100000000E-03 0. -1.
         22    1    1    0    0    0  0.27237672598E+02  0.10200864897E+02  0.35105230468E+01  0.29296283472E+02  0.00000000000E+00 0.  1.
</event>
<event>
 5    1  0.1102386E-009  0.9118800E+02  0.7818608E-02  0.1130116E+00
         25   -1    0    0    0    0  0.00000000000E+00  0.00000000000E+00  0.99999998245E-14  0.12500000000E+03  0.12500000000E+03 0.  0.
        -11    1    3    3    0    0  0.52023917816E+02 -0.18901352400E+02 -0.12313831916E+02  0.56704317333E+02  0.51100000000E-03 0.  1.
         23    2    1    0    0    0  0.19118281418E+02 -0.18084231846E+02  0.10407280969E+02  0.96700536701E+02  0.92466935579E+02 0.  0.
         11    1    3    3    0    0 -0.32905636398E+02  0.81712055429E+00  0.22721112885E+02  0.39996219368E+02  0.51100000000E-03 0. -1.
         22    1    1    0    0    0 -0.19118281418E+02  0.18084231846E+02 -0.10407280969E+02  0.28299463299E+02  0.00000000000E+00 0.  1.
</event>
<event>
 5    1  0.1102386E-009  0.9118800E+02  0.7818608E-02  0.1130116E+00
         25   -1    0    0    0    0  0.00000000000E+00  0.00000000000E+00  0.99999998245E-14  0.12500000000E+03  0.12500000000E+03 0.  0.
        -11    1    3    3    0    0  0.90887438459E+01  0.32233694776E+02 -0.18941237067E+02  0.38475795060E+02  0.51100000000E-03 0. -1.
         23    2    1    0    0    0 -0.14125852433E+02  0.30559619174E+01  0.25011269605E+02  0.96113286489E+02  0.91669633043E+02 0.  0.
         11    1    3    3    0    0 -0.23214596279E+02 -0.29177732858E+02  0.43952506673E+02  0.57637491429E+02  0.51100000000E-03 0.  1.
         22    1    1    0    0    0  0.14125852433E+02 -0.30559619174E+01 -0.25011269605E+02  0.28886713511E+02  0.00000000000E+00 0.  1.
</event>
<event>
 5    1  0.1102386E-009  0.9118800E+02  0.7818608E-02  0.1130116E+00
         25   -1    0    0    0    0  0.00000000000E+00  0.00000000000E+00  0.99999998245E-14  0.12500000000E+03  0.12500000000E+03 0.  0.
        -11    1    3    3    0    0 -0.33186656898E+02 -0.51871839959E+02 -0.96369405302E+00  0.61587098351E+02  0.51100000000E-03 0.  1.
         23    2    1    0    0    0 -0.14775979141E+02 -0.24124964671E+02 -0.79552175921E+01  0.95612435166E+02  0.90984112852E+02 0.  0.
         11    1    3    3    0    0  0.18410677757E+02  0.27746875287E+02 -0.69915235391E+01  0.34025336815E+02  0.51100000000E-03 0. -1.
         22    1    1    0    0    0  0.14775979141E+02  0.24124964671E+02  0.79552175921E+01  0.29387564834E+02  0.00000000000E+00 0.  1.
</event>
<event>
 5    1  0.1102386E-009  0.9118800E+02  0.7818608E-02  0.1130116E+00
         25   -1    0    0    0    0  0.00000000000E+00  0.00000000000E+00  0.99999998245E-14  0.12500000000E+03  0.12500000000E+03 0.  0.
        -11    1    3    3    0    0  0.21397445327E+02  0.20714605391E+02 -0.21730709317E+02  0.36866912953E+02  0.51100000000E-03 0. -1.
         23    2    1    0    0    0 -0.23814708160E+02 -0.59698795030E+01  0.10310082521E+02  0.98371489196E+02  0.94698850569E+02 0.  0.
         11    1    3    3    0    0 -0.45212153487E+02 -0.26684484894E+02  0.32040791837E+02  0.61504576243E+02  0.51100000000E-03 0.  1.
         22    1    1    0    0    0  0.23814708160E+02  0.59698795030E+01 -0.10310082521E+02  0.26628510804E+02  0.00000000000E+00 0.  1.
</event>
<event>
 5    1  0.1102386E-009  0.9118800E+02  0.7818608E-02  0.1130116E+00
         25   -1    0    0    0    0  0.00000000000E+00  0.00000000000E+00  0.99999998245E-14  0.12500000000E+03  0.12500000000E+03 0.  0.
        -11    1    3    3    0    0 -0.36684939923E+02  0.17808206606E+02  0.24184273413E+02  0.47410928281E+02  0.51100000000E-03 0. -1.
         23    2    1    0    0    0 -0.96676001679E+01  0.24527017304E+02 -0.14376335446E+02  0.94971412093E+02  0.90099128871E+02 0.  0.
         11    1    3    3    0    0  0.27017339755E+02  0.67188106976E+01 -0.38560608859E+02  0.47560483812E+02  0.51100000000E-03 0.  1.
         22    1    1    0    0    0  0.96676001679E+01 -0.24527017304E+02  0.14376335446E+02  0.30028587907E+02  0.00000000000E+00 0. -1.
</event>
<event>
 5    1  0.1102386E-009  0.9118800E+02  0.7818608E-02  0.1130116E+00
         25   -1    0    0    0    0  0.00000000000E+00  0.00000000000E+00  0.99999998245E-14  0.12500000000E+03  0.12500000000E+03 0.  0.
        -11    1    3    3    0    0  0.28265358196E+02 -0.69391014003E+01 -0.21595676371E+02  0.36241617519E+02  0.51100000000E-03 0.  1.
         23    2    1    0    0    0 -0.13569028524E+02 -0.12925951189E+02  0.21417148962E+02  0.96541380587E+02  0.92251531948E+02 0.  0.
         11    1    3    3    0    0 -0.41834386720E+02 -0.59868497886E+01  0.43012825334E+02  0.60299763068E+02  0.51100000000E-03 0. -1.
         22    1    1    0    0    0  0.13569028524E+02  0.12925951189E+02 -0.21417148962E+02  0.28458619413E+02  0.00000000000E+00 0. -1.
</event>
<event>
 5    1  0.1102386E-009  0.9118800E+02  0.7818608E-02  0.1130116E+00
         25   -1    0    0    0    0  0.00000000000E+00  0.00000000000E+00  0.99999998245E-14  0.12500000000E+03  0.12500000000E+03 0.  0.
        -11    1    3    3    0    0  0.28030865088E+02  0.21366585670E+02  0.40101565265E+02  0.53389099241E+02  0.51100000000E-03 0. -1.
         23    2    1    0    0    0 -0.88675897684E+01  0.18331333388E+02  0.23327291978E+02  0.94034947390E+02  0.88790409660E+02 0.  0.
         11    1    3    3    0    0 -0.36898454857E+02 -0.30352522821E+01 -0.16774273287E+02  0.40645848149E+02  0.51100000000E-03 0.  1.
         22    1    1    0    0    0  0.88675897684E+01 -0.18331333388E+02 -0.23327291978E+02  0.30965052610E+02  0.00000000000E+00 0. -1.
</event>
<event>
 5    1  0.1102386E-009  0.9118800E+02  0.7818608E-02  0.1130116E+00
         25   -1    0    0    0    0  0.00000000000E+00  0.00000000000E+00  0.99999998245E-14  0.12500000000E+03  0.12500000000E+03 0.  0.
        -11    1    3    3    0    0  0.49235129444E+02 -0.22273497610E+02 -0.58640351671E+00  0.54042118172E+02  0.51100000000E-03 0.  1.
         23    2    1    0    0    0  0.25081041670E+02  0.79644048390E+01 -0.14237767838E+02  0.95080032943E+02  0.90249699366E+02 0.  0.
         11    1    3    3    0    0 -0.24154087774E+02  0.30237902449E+02 -0.13651364321E+02  0.41037914771E+02  0.51100000000E-03 0. -1.
         22    1    1    0    0    0 -0.25081041670E+02 -0.79644048390E+01  0.14237767838E+02  0.29919967057E+02  0.00000000000E+00 0.  1.
</event>
<event>
 5    1  0.1102386E-009  0.9118800E+02  0.7818608E-02  0.1130116E+00
         25   -1    0    0    0    0  0.00000000000E+00  0.00000000000E+00  0.99999998245E-14  0.12500000000E+03  0.12500000000E+03 0.  0.
        -11    1    3    3    0    0  0.40463173959E+02  0.40019171557E+02 -0.72156406552E+00  0.56915052437E+02  0.51100000000E-03 0. -1.
         23    2    1    0    0    0  0.20733561844E+02  0.12078845564E+02  0.17149277417E+02  0.95506325885E+02  0.90838215919E+02 0.  0.
         11    1    3    3    0    0 -0.19729612116E+02 -0.27940325993E+02  0.17870841482E+02  0.38591273448E+02  0.51100000000E-03 0.  1.
         22    1    1    0    0    0 -0.20733561844E+02 -0.12078845564E+02 -0.17149277417E+02  0.29493674115E+02  0.00000000000E+00 0. -1.
</event>
<event>
 5    1  0.1102386E-009  0.9118800E+02  0.7818608E-02  0.1130116E+00
         25   -1    0    0    0    0  0.00000000000E+00  0.00000000000E+00  0.99999998245E-14  0.12500000000E+03  0.12500000000E+03 0.  0.
        -11    1    3    3    0    0  0.17084805416E+02  0.15988738524E+02 -0.54294262154E+02  0.59121884601E+02  0.51100000000E-03 0. -1.
         23    2    1    0    0    0  0.29258423840E+01  0.20175531844E+02 -0.20085116060E+02  0.96381395458E+02  0.92034498230E+02 0.  0.
         11    1    3    3    0    0 -0.14158963032E+02  0.41867933196E+01  0.34209146095E+02  0.37259510856E+02  0.51100000000E-03 0.  1.
         22    1    1    0    0    0 -0.29258423840E+01 -0.20175531844E+02  0.20085116060E+02  0.28618604542E+02  0.00000000000E+00 0. -1.
</event>
<event>
 5    1  0.1102386E-009  0.9118800E+02  0.7818608E-02  0.1130116E+00
         25   -1    0    0    0    0  0.00000000000E+00  0.00000000000E+00  0.99999998245E-14  0.12500000000E+03  0.12500000000E+03 0.  0.
        -11    1    3    3    0    0 -0.27772693602E+02  0.24729742563E+02 -0.48917319758E+02  0.61447431595E+02  0.51100000000E-03 0. -1.
         23    2    1    0    0    0 -0.13442510811E+02  0.19922149973E+02 -0.21508623954E+02  0.92747650305E+02  0.86959258140E+02 0.  0.
         11    1    3    3    0    0  0.14330182791E+02 -0.48075925893E+01  0.27408695804E+02  0.31300218710E+02  0.51100000000E-03 0.  1.
         22    1    1    0    0    0  0.13442510811E+02 -0.19922149973E+02  0.21508623954E+02  0.32252349695E+02  0.00000000000E+00 0. -1.
</event>
<event>
 5    1  0.1102386E-009  0.9118800E+02  0.7818608E-02  0.1130116E+00
         25   -1    0    0    0    0  0.00000000000E+00  0.00000000000E+00  0.99999998245E-14  0.12500000000E+03  0.12500000000E+03 0.  0.
        -11    1    3    3    0    0  0.38649343280E+02 -0.28053181541E+02 -0.20626233595E+02  0.52021094212E+02  0.51100000000E-03 0. -1.
         23    2    1    0    0    0 -0.33164574604E+01 -0.26282854879E+02 -0.15425401874E+02  0.94344978003E+02  0.89225806248E+02 0.  0.
         11    1    3    3    0    0 -0.41965800740E+02  0.17703266613E+01  0.52008317210E+01  0.42323883790E+02  0.51100000000E-03 0.  1.
         22    1    1    0    0    0  0.33164574604E+01  0.26282854879E+02  0.15425401874E+02  0.30655021997E+02  0.00000000000E+00 0. -1.
</event>
<event>
 5    1  0.1102386E-009  0.9118800E+02  0.7818608E-02  0.1130116E+00
         25   -1    0    0    0    0  0.00000000000E+00  0.00000000000E+00  0.99999998245E-14  0.12500000000E+03  0.12500000000E+03 0.  0.
        -11    1    3    3    0    0  0.21969267107E+02  0.24996766189E+02  0.24629984169E+02  0.41401970213E+02  0.51100000000E-03 0. -1.
         23    2    1    0    0    0 -0.26522870379E+02  0.50815384239E+01  0.12664651874E+02  0.95172527882E+02  0.90377718329E+02 0.  0.
         11    1    3    3    0    0 -0.48492137485E+02 -0.19915227765E+02 -0.11965332294E+02  0.53770557669E+02  0.51100000000E-03 0.  1.
         22    1    1    0    0    0  0.26522870379E+02 -0.50815384239E+01 -0.12664651874E+02  0.29827472118E+02  0.00000000000E+00 0.  1.
</event>
<event>
 5    1  0.1102386E-009  0.9118800E+02  0.7818608E-02  0.1130116E+00
         25   -1    0    0    0    0  0.00000000000E+00  0.00000000000E+00  0.99999998245E-14  0.12500000000E+03  0.12500000000E+03 0.  0.
        -11    1    3    3    0    0 -0.95557831796E+01  0.50382683302E+02 -0.38212621692E+01  0.51423047495E+02  0.51100000000E-03 0.  1.
         23    2    1    0    0    0  0.18491026801E+02  0.17165793250E+02  0.11167584209E+02  0.97408380491E+02  0.93418922724E+02 0.  0.
         11    1    3    3    0    0  0.28046809981E+02 -0.33216890052E+02  0.14988846378E+02  0.45985332996E+02  0.51100000000E-03 0. -1.
         22    1    1    0    0    0 -0.18491026801E+02 -0.17165793250E+02 -0.11167584209E+02  0.27591619509E+02  0.00000000000E+00 0.  1.
</event>
<event>
 5    1  0.1102386E-009  0.9118800E+02  0.7818608E-02  0.1130116E+00
         25   -1    0    0    0    0  0.00000000000E+00  0.00000000000E+00  0.99999998245E-14  0.12500000000E+03  0.12500000000E+03 0.  0.
        -11    1    3    3    0    0 -0.85661304967E+01  0.58052929230E+02 -0.67859685738E+01  0.59072587159E+02  0.51100000000E-03 0.  1.
         23    2    1    0    0    0  0.10240309330E+02  0.26883633618E+02 -0.66374734455E+01  0.95476285033E+02  0.90796868109E+02 0.  0.
         11    1    3    3    0    0  0.18806439827E+02 -0.31169295612E+02  0.14849512825E+00  0.36403697875E+02  0.51100000000E-03 0. -1.
         22    1    1    0    0    0 -0.10240309330E+02 -0.26883633618E+02  0.66374734455E+01  0.29523714967E+02  0.00000000000E+00 0.  1.
</event>
<event>
 5    1  0.1102386E-009  0.9118800E+02  0.7818608E-02  0.1130116E+00
         25   -1    0    0    0    0  0.00000000000E+00  0.00000000000E+00  0.99999998245E-14  0.12500000000E+03  0.12500000000E+03 0.  0.
        -11    1    3    3    0    0 -0.53309294163E+02  0.18548391165E+02  0.80048908651E+01  0.57008788244E+02  0.51100000000E-03 0. -1.
         23    2    1    0    0    0 -0.98687650357E+01  0.20845507237E+02 -0.26181673395E+01  0.10178831123E+03  0.99106396402E+02 0.  0.
         11    1    3    3    0    0  0.43440529127E+02  0.22971160717E+01 -0.10623058205E+02  0.44779522988E+02  0.51100000000E-03 0.  1.
         22    1    1    0    0    0  0.98687650357E+01 -0.20845507237E+02  0.26181673395E+01  0.23211688769E+02  0.00000000000E+00 0. -1.
</event>
<event>
 5    1  0.1102386E-009  0.9118800E+02  0.7818608E-02  0.1130116E+00
         25   -1    0    0    0    0  0.00000000000E+00  0.00000000000E+00  0.99999998245E-14  0.12500000000E+03  0.12500000000E+03 0.  0.
        -11    1    3    3    0    0  0.60542236123E+01 -0.17197512409E+02  0.38906267850E+02  0.42966332574E+02  0.51100000000E-03 0.  1.
         23    2    1    0    0    0  0.56163352775E+00 -0.39493903257E+02  0.32610840927E+01  0.85367708921E+02  0.75610364569E+02 0.  0.
         11    1    3    3    0    0 -0.54925900845E+01 -0.22296390849E+02 -0.35645183758E+02  0.42401376347E+02  0.51100000000E-03 0. -1.
         22    1    1    0    0    0 -0.56163352775E+00  0.39493903257E+02 -0.32610840927E+01  0.39632291079E+02  0.00000000000E+00 0.  1.
</event>
<event>
 5    1  0.1102386E-009  0.9118800E+02  0.7818608E-02  0.1130116E+00
         25   -1    0    0    0    0  0.00000000000E+00  0.00000000000E+00  0.99999998245E-14  0.12500000000E+03  0.12500000000E+03 0.  0.
        -11    1    3    3    0    0 -0.36632852783E+02  0.18223108715E+02 -0.12556940966E+02  0.42798649055E+02  0.51100000000E-03 0. -1.
         23    2    1    0    0    0  0.15934960592E+02  0.20679188804E+02 -0.13864996373E+02  0.95440061856E+02  0.90746985977E+02 0.  0.
         11    1    3    3    0    0  0.52567813375E+02  0.24560800889E+01 -0.13080554067E+01  0.52641412800E+02  0.51100000000E-03 0.  1.
         22    1    1    0    0    0 -0.15934960592E+02 -0.20679188804E+02  0.13864996373E+02  0.29559938144E+02  0.00000000000E+00 0.  1.
</event>
<event>
 5    1  0.1102386E-009  0.9118800E+02  0.7818608E-02  0.1130116E+00
         25   -1    0    0    0    0  0.00000000000E+00  0.00000000000E+00  0.99999998245E-14  0.12500000000E+03  0.12500000000E+03 0.  0.
        -11    1    3    3    0    0  0.43195234760E+02  0.60403805095E+01 -0.20088583146E+02  0.48019430190E+02  0.51100000000E-03 0.  1.
         23    2    1    0    0    0  0.13879614938E+02 -0.26241927329E+02 -0.19456838346E+01  0.95249905104E+02  0.90484674260E+02 0.  0.
         11    1    3    3    0    0 -0.29315619822E+02 -0.32282307838E+02  0.18142899312E+02  0.47230474914E+02  0.51100000000E-03 0. -1.
         22    1    1    0    0    0 -0.13879614938E+02  0.26241927329E+02  0.19456838346E+01  0.29750094896E+02  0.00000000000E+00 0. -1.
</event>
<event>
 5    1  0.1102386E-009  0.9118800E+02  0.7818608E-02  0.1130116E+00
         25   -1    0    0    0    0  0.00000000000E+00  0.00000000000E+00  0.99999998245E-14  0.12500000000E+03  0.12500000000E+03 0.  0.
        -11    1    3    3    0    0  0.24191289071E+02 -0.11810848522E+02  0.22588615406E+02  0.35141999886E+02  0.51100000000E-03 0.  1.
         23    2    1    0    0    0 -0.30371371447E+01  0.89052882609E+01 -0.27576032589E+02  0.95862980001E+02  0.91327679267E+02 0.  0.
         11    1    3    3    0    0 -0.27228426216E+02  0.20716136783E+02 -0.50164647995E+02  0.60720980115E+02  0.51100000000E-03 0. -1.
         22    1    1    0    0    0  0.30371371447E+01 -0.89052882609E+01  0.27576032589E+02  0.29137019999E+02  0.00000000000E+00 0. -1.
</event>
<event>
 5    1  0.1102386E-009  0.9118800E+02  0.7818608E-02  0.1130116E+00
         25   -1    0    0    0    0  0.00000000000E+00  0.00000000000E+00  0.99999998245E-14  0.12500000000E+03  0.12500000000E+03 0.  0.
        -11    1    3    3    0    0 -0.48311208649E+02  0.24669997902E+02  0.26241890683E+02  0.60259592635E+02  0.51100000000E-03 0. -1.
         23    2    1    0    0    0 -0.23876889125E+02  0.17497580357E+02  0.21420281876E+01  0.95320723773E+02  0.90582453838E+02 0.  0.
         11    1    3    3    0    0  0.24434319525E+02 -0.71724175454E+01 -0.24099862496E+02  0.35061131138E+02  0.51100000000E-03 0.  1.
         22    1    1    0    0    0  0.23876889125E+02 -0.17497580357E+02 -0.21420281876E+01  0.29679276227E+02  0.00000000000E+00 0. -1.
</event>
<event>
 5    1  0.1102386E-009  0.9118800E+02  0.7818608E-02  0.1130116E+00
         25   -1    0    0    0    0  0.00000000000E+00  0.00000000000E+00  0.99999998245E-14  0.12500000000E+03  0.12500000000E+03 0.  0.
        -11    1    3    3    0    0  0.27836833544E+02  0.19140375423E+02  0.25367107836E+02  0.42246105540E+02  0.51100000000E-03 0.  1.
         23    2    1    0    0    0  0.42750052188E+01  0.14828880393E+02 -0.23625418848E+02  0.96780648854E+02  0.92575170611E+02 0.  0.
         11    1    3    3    0    0 -0.23561828325E+02 -0.43114950295E+01 -0.48992526684E+02  0.54534543315E+02  0.51100000000E-03 0. -1.
         22    1    1    0    0    0 -0.42750052188E+01 -0.14828880393E+02  0.23625418848E+02  0.28219351146E+02  0.00000000000E+00 0. -1.
</event>
<event>
 5    1  0.1102386E-009  0.9118800E+02  0.7818608E-02  0.1130116E+00
         25   -1    0    0    0    0  0.00000000000E+00  0.00000000000E+00  0.99999998245E-14  0.12500000000E+03  0.12500000000E+03 0.  0.
        -11    1    3    3    0    0  0.38454495352E+02  0.24775209538E+02  0.41432317259E+02  0.61718685454E+02  0.51100000000E-03 0.  1.
         23    2    1    0    0    0  0.11982892360E+02  0.13119823264E+02  0.22675567301E+02  0.96192000690E+02  0.91776904353E+02 0.  0.
         11    1    3    3    0    0 -0.26471602992E+02 -0.11655386274E+02 -0.18756749957E+02  0.34473315237E+02  0.51100000000E-03 0. -1.
         22    1    1    0    0    0 -0.11982892360E+02 -0.13119823264E+02 -0.22675567301E+02  0.28807999310E+02  0.00000000000E+00 0.  1.
</event>
<event>
 5    1  0.1102386E-009  0.9118800E+02  0.7818608E-02  0.1130116E+00
         25   -1    0    0    0    0  0.00000000000E+00  0.00000000000E+00  0.99999998245E-14  0.12500000000E+03  0.12500000000E+03 0.  0.
        -11    1    3    3    0    0  0.96047641998E+01 -0.39978334579E+02  0.13156901810E+02  0.43169697665E+02  0.51100000000E-03 0.  1.
         23    2    1    0    0    0  0.28164128949E+02  0.58612545853E+01 -0.49016003159E+01  0.95817845343E+02  0.91265882649E+02 0.  0.
         11    1    3    3    0    0  0.18559364749E+02  0.45839589164E+02 -0.18058502126E+02  0.52648147678E+02  0.51100000000E-03 0. -1.
         22    1    1    0    0    0 -0.28164128949E+02 -0.58612545853E+01  0.49016003159E+01  0.29182154657E+02  0.00000000000E+00 0. -1.
</event>
<event>
 5    1  0.1102386E-009  0.9118800E+02  0.7818608E-02  0.1130116E+00
         25   -1    0    0    0    0  0.00000000000E+00  0.00000000000E+00  0.99999998245E-14  0.12500000000E+03  0.12500000000E+03 0.  0.
        -11    1    3    3    0    0  0.46611227786E+01  0.32545648361E+01  0.37855198040E+02  0.38279684909E+02  0.51100000000E-03 0. -1.
         23    2    1    0    0    0 -0.25693161896E+02 -0.15524971241E+01 -0.11806414738E+02  0.96681450522E+02  0.92441130622E+02 0.  0.
         11    1    3    3    0    0 -0.30354284675E+02 -0.48070619602E+01 -0.49661612778E+02  0.58401765614E+02  0.51100000000E-03 0.  1.
         22    1    1    0    0    0  0.25693161896E+02  0.15524971241E+01  0.11806414738E+02  0.28318549478E+02  0.00000000000E+00 0.  1.
</event>
<event>
 5    1  0.1102386E-009  0.9118800E+02  0.7818608E-02  0.1130116E+00
         25   -1    0    0    0    0  0.00000000000E+00  0.00000000000E+00  0.99999998245E-14  0.12500000000E+03  0.12500000000E+03 0.  0.
        -11    1    3    3    0    0 -0.12858019120E+02 -0.77464363115E+01  0.36277252326E+02  0.39260348544E+02  0.51100000000E-03 0.  1.
         23    2    1    0    0    0  0.24419200565E+02 -0.20213521419E+02 -0.79299757590E+00  0.93290180550E+02  0.87735654882E+02 0.  0.
         11    1    3    3    0    0  0.37277219685E+02 -0.12467085107E+02 -0.37070249902E+02  0.54029832006E+02  0.51100000000E-03 0. -1.
         22    1    1    0    0    0 -0.24419200565E+02  0.20213521419E+02  0.79299757590E+00  0.31709819450E+02  0.00000000000E+00 0. -1.
</event>
<event>
 5    1  0.1102386E-009  0.9118800E+02  0.7818608E-02  0.1130116E+00
         25   -1    0    0    0    0  0.00000000000E+00  0.00000000000E+00  0.99999998245E-14  0.12500000000E+03  0.12500000000E+03 0.  0.
        -11    1    3    3    0    0 -0.33678782141E+02  0.16202291101E+02 -0.54739947536E+01  0.37772201713E+02  0.51100000000E-03 0.  1.
         23    2    1    0    0    0  0.17209127279E+02  0.17245919165E+02  0.18861026469E+02  0.94189058615E+02  0.89007104513E+02 0.  0.
         11    1    3    3    0    0  0.50887909419E+02  0.10436280645E+01  0.24335021223E+02  0.56416856903E+02  0.51100000000E-03 0. -1.
         22    1    1    0    0    0 -0.17209127279E+02 -0.17245919165E+02 -0.18861026469E+02  0.30810941385E+02  0.00000000000E+00 0. -1.
</event>
<event>
 5    1  0.1102386E-009  0.9118800E+02  0.7818608E-02  0.1130116E+00
         25   -1    0    0    0    0  0.00000000000E+00  0.00000000000E+00  0.99999998245E-14  0.12500000000E+03  0.12500000000E+03 0.  0.
        -11    1    3    3    0    0  0.15822272085E+02 -0.22775364478E+02 -0.37343111161E+02  0.46514185712E+02  0.51100000000E-03 0. -1.
         23    2    1    0    0    0 -0.19157950510E+02 -0.17688067908E+02  0.13089034750E+01  0.98892375781E+02  0.95383929177E+02 0.  0.
         11    1    3    3    0    0 -0.34980222595E+02  0.50872965698E+01  0.38652014636E+02  0.52378190069E+02  0.51100000000E-03 0.  1.
         22    1    1    0    0    0  0.19157950510E+02  0.17688067908E+02 -0.13089034750E+01  0.26107624219E+02  0.00000000000E+00 0. -1.
</event>
<event>
 5    1  0.1102386E-009  0.9118800E+02  0.7818608E-02  0.1130116E+00
         25   -1    0    0    0    0  0.00000000000E+00  0.00000000000E+00  0.99999998245E-14  0.12500000000E+03  0.12500000000E+03 0.  0.
        -11    1    3    3    0    0  0.39757285211E+01 -0.48376494743E+02 -0.21118206512E+01  0.48585506560E+02  0.51100000000E-03 0.  1.
         23    2    1    0    0    0  0.23858069777E+02 -0.10455054385E+02 -0.16974223646E+02  0.93909166559E+02  0.88613157261E+02 0.  0.
         11    1    3    3    0    0  0.19882341256E+02  0.37921440358E+02 -0.14862402995E+02  0.45323659999E+02  0.51100000000E-03 0. -1.
         22    1    1    0    0    0 -0.23858069777E+02  0.10455054385E+02  0.16974223646E+02  0.31090833441E+02  0.00000000000E+00 0. -1.
</event>
<event>
 5    1  0.1102386E-009  0.9118800E+02  0.7818608E-02  0.1130116E+00
         25   -1    0    0    0    0  0.00000000000E+00  0.00000000000E+00  0.99999998245E-14  0.12500000000E+03  0.12500000000E+03 0.  0.
        -11    1    3    3    0    0  0.38437981324E+02 -0.13223205891E+02  0.38253580504E+02  0.55818169121E+02  0.51100000000E-03 0.  1.
         23    2    1    0    0    0  0.11481806497E+02 -0.25223420967E+02  0.14354173955E+02  0.93789502477E+02  0.88444194944E+02 0.  0.
         11    1    3    3    0    0 -0.26956174828E+02 -0.12000215076E+02 -0.23899406549E+02  0.37971333356E+02  0.51100000000E-03 0. -1.
         22    1    1    0    0    0 -0.11481806497E+02  0.25223420967E+02 -0.14354173955E+02  0.31210497523E+02  0.00000000000E+00 0. -1.
</event>
<event>
 5    1  0.1102386E-009  0.9118800E+02  0.7818608E-02  0.1130116E+00
         25   -1    0    0    0    0  0.00000000000E+00  0.00000000000E+00  0.99999998245E-14  0.12500000000E+03  0.12500000000E+03 0.  0.
        -11    1    3    3    0    0  0.14135613387E+02  0.28546428473E+02 -0.40073849729E+02  0.51192065565E+02  0.51100000000E-03 0. -1.
         23    2    1    0    0    0 -0.11357225813E+02 -0.61145506477E+01 -0.25153727923E+02  0.96731920188E+02  0.92509351133E+02 0.  0.
         11    1    3    3    0    0 -0.25492839201E+02 -0.34660979121E+02  0.14920121806E+02  0.45539854623E+02  0.51100000000E-03 0.  1.
         22    1    1    0    0    0  0.11357225813E+02  0.61145506477E+01  0.25153727923E+02  0.28268079812E+02  0.00000000000E+00 0. -1.
</event>
<event>
 5    1  0.1102386E-009  0.9118800E+02  0.7818608E-02  0.1130116E+00
         25   -1    0    0    0    0  0.00000000000E+00  0.00000000000E+00  0.99999998245E-14  0.12500000000E+03  0.12500000000E+03 0.  0.
        -11    1    3    3    0    0  0.10010241127E+02 -0.12588438131E+02  0.31646931788E+02  0.35499323851E+02  0.51100000000E-03 0. -1.
         23    2    1    0    0    0 -0.99866915828E+01 -0.22751090853E+01 -0.25824683190E+02  0.97218272337E+02  0.93164199584E+02 0.  0.
         11    1    3    3    0    0 -0.19996932710E+02  0.10313329046E+02 -0.57471614978E+02  0.61718948486E+02  0.51100000000E-03 0.  1.
         22    1    1    0    0    0  0.99866915828E+01  0.22751090853E+01  0.25824683190E+02  0.27781727663E+02  0.00000000000E+00 0.  1.
</event>
<event>
 5    1  0.1102386E-009  0.9118800E+02  0.7818608E-02  0.1130116E+00
         25   -1    0    0    0    0  0.00000000000E+00  0.00000000000E+00  0.99999998245E-14  0.12500000000E+03  0.12500000000E+03 0.  0.
        -11    1    3    3    0    0 -0.34986265603E+02 -0.20946744630E+02 -0.10740349017E+02  0.42168234356E+02  0.51100000000E-03 0. -1.
         23    2    1    0    0    0 -0.53824771407E+01 -0.10013427541E+02  0.29545318144E+02  0.93343000529E+02  0.87810877072E+02 0.  0.
         11    1    3    3    0    0  0.29603788463E+02  0.10933317089E+02  0.40285667161E+02  0.51174766172E+02  0.51100000000E-03 0.  1.
         22    1    1    0    0    0  0.53824771407E+01  0.10013427541E+02 -0.29545318144E+02  0.31656999471E+02  0.00000000000E+00 0.  1.
</event>
<event>
 5    1  0.1102386E-009  0.9118800E+02  0.7818608E-02  0.1130116E+00
         25   -1    0    0    0    0  0.00000000000E+00  0.00000000000E+00  0.99999998245E-14  0.12500000000E+03  0.12500000000E+03 0.  0.
        -11    1    3    3    0    0  0.33294992606E+02  0.18587774345E+02 -0.78380810195E+01  0.38929389952E+02  0.51100000000E-03 0.  1.
         23    2    1    0    0    0  0.40098302600E+01 -0.28976208371E+02 -0.75596722198E+01  0.94786624910E+02  0.89842396603E+02 0.  0.
         11    1    3    3    0    0 -0.29285162346E+02 -0.47563982716E+02  0.27840879970E+00  0.55857234958E+02  0.51100000000E-03 0. -1.
         22    1    1    0    0    0 -0.40098302600E+01  0.28976208371E+02  0.75596722198E+01  0.30213375090E+02  0.00000000000E+00 0.  1.
</event>
<event>
 5    1  0.1102386E-009  0.9118800E+02  0.7818608E-02  0.1130116E+00
         25   -1    0    0    0    0  0.00000000000E+00  0.00000000000E+00  0.99999998245E-14  0.12500000000E+03  0.12500000000E+03 0.  0.
        -11    1    3    3    0    0  0.93501109977E+00 -0.57118924290E+02 -0.13829637231E+02  0.58776735398E+02  0.51100000000E-03 0.  1.
         23    2    1    0    0    0 -0.65540486035E+01 -0.23327362495E+02 -0.19560457200E+02  0.93859465645E+02  0.88543020115E+02 0.  0.
         11    1    3    3    0    0 -0.74890597032E+01  0.33791561795E+02 -0.57308199690E+01  0.35082730247E+02  0.51100000000E-03 0. -1.
         22    1    1    0    0    0  0.65540486035E+01  0.23327362495E+02  0.19560457200E+02  0.31140534355E+02  0.00000000000E+00 0.  1.
</event>
<event>
 5    1  0.1102386E-009  0.9118800E+02  0.7818608E-02  0.1130116E+00
         25   -1    0    0    0    0  0.00000000000E+00  0.00000000000E+00  0.99999998245E-14  0.12500000000E+03  0.12500000000E+03 0.  0.
        -11    1    3    3    0    0 -0.28260730101E+02  0.17776887288E+02 -0.46594073668E+02  0.57320975993E+02  0.51100000000E-03 0. -1.
         23    2    1    0    0    0 -0.24354039745E+02 -0.38730355593E+01 -0.14005075243E+02  0.96640490326E+02  0.92385727153E+02 0.  0.
         11    1    3    3    0    0  0.39066903560E+01 -0.21649922847E+02  0.32588998425E+02  0.39319514333E+02  0.51100000000E-03 0.  1.
         22    1    1    0    0    0  0.24354039745E+02  0.38730355593E+01  0.14005075243E+02  0.28359509674E+02  0.00000000000E+00 0. -1.
</event>
<event>
 5    1  0.1102386E-009  0.9118800E+02  0.7818608E-02  0.1130116E+00
         25   -1    0    0    0    0  0.00000000000E+00  0.00000000000E+00  0.99999998245E-14  0.12500000000E+03  0.12500000000E+03 0.  0.
        -11    1    3    3    0    0 -0.22794429824E+02 -0.89085530836E+01  0.28268664553E+02  0.37390717363E+02  0.51100000000E-03 0.  1.
         23    2    1    0    0    0  0.60819044714E+01  0.28531430717E+02 -0.52638641875E+01  0.95356444766E+02  0.90631733909E+02 0.  0.
         11    1    3    3    0    0  0.28876334296E+02  0.37439983800E+02 -0.33532528741E+02  0.57965727403E+02  0.51100000000E-03 0. -1.
         22    1    1    0    0    0 -0.60819044714E+01 -0.28531430717E+02  0.52638641875E+01  0.29643555234E+02  0.00000000000E+00 0. -1.
</event>
<event>
 5    1  0.1102386E-009  0.9118800E+02  0.7818608E-02  0.1130116E+00
         25   -1    0    0    0    0  0.00000000000E+00  0.00000000000E+00  0.99999998245E-14  0.12500000000E+03  0.12500000000E+03 0.  0.
        -11    1    3    3    0    0  0.20865135702E+02  0.24991232380E+02  0.23229985322E+01  0.32639116198E+02  0.51100000000E-03 0.  1.
         23    2    1    0    0    0 -0.79250879149E+01 -0.29293013634E+02 -0.39196190090E+01  0.94401779801E+02  0.89305346705E+02 0.  0.
         11    1    3    3    0    0 -0.28790223617E+02 -0.54284246014E+02 -0.62426175412E+01  0.61762663602E+02  0.51100000000E-03 0. -1.
         22    1    1    0    0    0  0.79250879149E+01  0.29293013634E+02  0.39196190090E+01  0.30598220199E+02  0.00000000000E+00 0. -1.
</event>
<event>
 5    1  0.1102386E-009  0.9118800E+02  0.7818608E-02  0.1130116E+00
         25   -1    0    0    0    0  0.00000000000E+00  0.00000000000E+00  0.99999998245E-14  0.12500000000E+03  0.12500000000E+03 0.  0.
        -11    1    3    3    0    0 -0.25504212095E+02 -0.18779216322E+02 -0.45796302739E+02  0.55681461413E+02  0.51100000000E-03 0. -1.
         23    2    1    0    0    0  0.71415278126E+01 -0.13822472374E+02 -0.27428209506E+02  0.93466385574E+02  0.87986342086E+02 0.  0.
         11    1    3    3    0    0  0.32645739907E+02  0.49567439479E+01  0.18368093233E+02  0.37784924162E+02  0.51100000000E-03 0.  1.
         22    1    1    0    0    0 -0.71415278126E+01  0.13822472374E+02  0.27428209506E+02  0.31533614426E+02  0.00000000000E+00 0. -1.
</event>
<event>
 5    1  0.1102386E-009  0.9118800E+02  0.7818608E-02  0.1130116E+00
         25   -1    0    0    0    0  0.00000000000E+00  0.00000000000E+00  0.99999998245E-14  0.12500000000E+03  0.12500000000E+03 0.  0.
        -11    1    3    3    0    0  0.41764181841E+02  0.37836593763E+02 -0.54811604360E+01  0.56620648463E+02  0.51100000000E-03 0. -1.
         23    2    1    0    0    0  0.25675327330E+02  0.39101283481E+01 -0.14525505057E+02  0.95242617146E+02  0.90474605755E+02 0.  0.
         11    1    3    3    0    0 -0.16088854511E+02 -0.33926465415E+02 -0.90443446208E+01  0.38621968682E+02  0.51100000000E-03 0.  1.
         22    1    1    0    0    0 -0.25675327330E+02 -0.39101283481E+01  0.14525505057E+02  0.29757382854E+02  0.00000000000E+00 0. -1.
</event>
<event>
 5    1  0.1102386E-009  0.9118800E+02  0.7818608E-02  0.1130116E+00
         25   -1    0    0    0    0  0.00000000000E+00  0.00000000000E+00  0.99999998245E-14  0.12500000000E+03  0.12500000000E+03 0.  0.
        -11    1    3    3    0    0  0.87744088333E+01 -0.23802742762E+02 -0.22431355468E+02  0.33863350716E+02  0.51100000000E-03 0. -1.
         23    2    1    0    0    0 -0.84531819876E+01  0.25268462923E+02  0.11519464516E+02  0.95971573124E+02  0.91476189694E+02 0.  0.
         11    1    3    3    0    0 -0.17227590821E+02  0.49071205684E+02  0.33950819984E+02  0.62108222407E+02  0.51100000000E-03 0.  1.
         22    1    1    0    0    0  0.84531819876E+01 -0.25268462923E+02 -0.11519464516E+02  0.29028426876E+02  0.00000000000E+00 0.  1.
</event>
<event>
 5    1  0.1102386E-009  0.9118800E+02  0.7818608E-02  0.1130116E+00
         25   -1    0    0    0    0  0.00000000000E+00  0.00000000000E+00  0.99999998245E-14  0.12500000000E+03  0.12500000000E+03 0.  0.
        -11    1    3    3    0    0  0.79264521002E+01  0.46911582757E+02 -0.40357148300E+02  0.62387696374E+02  0.51100000000E-03 0.  1.
         23    2    1    0    0    0  0.55929400336E+01  0.23060828072E+02 -0.17392661324E+02  0.95579132618E+02  0.90938348096E+02 0.  0.
         11    1    3    3    0    0 -0.23335120666E+01 -0.23850754686E+02  0.22964486975E+02  0.33191436244E+02  0.51100000000E-03 0. -1.
         22    1    1    0    0    0 -0.55929400336E+01 -0.23060828072E+02  0.17392661324E+02  0.29420867382E+02  0.00000000000E+00 0.  1.
</event>
<event>
 5    1  0.1102386E-009  0.9118800E+02  0.7818608E-02  0.1130116E+00
         25   -1    0    0    0    0  0.00000000000E+00  0.00000000000E+00  0.99999998245E-14  0.12500000000E+03  0.12500000000E+03 0.  0.
        -11    1    3    3    0    0  0.37124320110E+02  0.11461585889E+02 -0.17192092768E+02  0.42487070371E+02  0.51100000000E-03 0. -1.
         23    2    1    0    0    0  0.41915082826E+00  0.21307645034E+02  0.20081200720E+02  0.95717820323E+02  0.91128782943E+02 0.  0.
         11    1    3    3    0    0 -0.36705169282E+02  0.98460591445E+01  0.37273293488E+02  0.53230749951E+02  0.51100000000E-03 0.  1.
         22    1    1    0    0    0 -0.41915082826E+00 -0.21307645034E+02 -0.20081200720E+02  0.29282179677E+02  0.00000000000E+00 0.  1.
</event>
<event>
 5    1  0.1102386E-009  0.9118800E+02  0.7818608E-02  0.1130116E+00
         25   -1    0    0    0    0  0.00000000000E+00  0.00000000000E+00  0.99999998245E-14  0.12500000000E+03  0.12500000000E+03 0.  0.
        -11    1    3    3    0    0 -0.13380533593E+02 -0.32840254118E+02  0.88346637787E+01  0.36545481993E+02  0.51100000000E-03 0.  1.
         23    2    1    0    0    0 -0.15228442752E+02  0.18422735968E+02 -0.18596569543E+02  0.94715762055E+02  0.89743749162E+02 0.  0.
         11    1    3    3    0    0 -0.18479091591E+01  0.51262990085E+02 -0.27431233321E+02  0.58170280062E+02  0.51100000000E-03 0. -1.
         22    1    1    0    0    0  0.15228442752E+02 -0.18422735968E+02  0.18596569543E+02  0.30284237945E+02  0.00000000000E+00 0. -1.
</event>
<event>
 5    1  0.1102386E-009  0.9118800E+02  0.7818608E-02  0.1130116E+00
         25   -1    0    0    0    0  0.00000000000E+00  0.00000000000E+00  0.99999998245E-14  0.12500000000E+03  0.12500000000E+03 0.  0.
        -11    1    3    3    0    0 -0.35322728562E+01  0.32582429792E+02  0.72882516470E+01  0.33573952627E+02  0.51100000000E-03 0.  1.
         23    2    1    0    0    0 -0.66268326595E+01 -0.28291283824E+02 -0.43252900188E+01  0.95622801610E+02  0.90998353845E+02 0.  0.
         11    1    3    3    0    0 -0.30945598033E+01 -0.60873713616E+02 -0.11613541666E+02  0.62048848983E+02  0.51100000000E-03 0. -1.
         22    1    1    0    0    0  0.66268326595E+01  0.28291283824E+02  0.43252900188E+01  0.29377198390E+02  0.00000000000E+00 0. -1.
</event>
<event>
 5    1  0.1102386E-009  0.9118800E+02  0.7818608E-02  0.1130116E+00
         25   -1    0    0    0    0  0.00000000000E+00  0.00000000000E+00  0.99999998245E-14  0.12500000000E+03  0.12500000000E+03 0.  0.
        -11    1    3    3    0    0  0.21141630864E+02 -0.31415805922E+02 -0.14177813680E+02  0.40434290130E+02  0.51100000000E-03 0.  1.
         23    2    1    0    0    0  0.21822471109E+02  0.75429842968E+01  0.21636070740E+02  0.93357680008E+02  0.87831771029E+02 0.  0.
         11    1    3    3    0    0  0.68084024541E+00  0.38958790219E+02  0.35813884419E+02  0.52923389878E+02  0.51100000000E-03 0. -1.
         22    1    1    0    0    0 -0.21822471109E+02 -0.75429842968E+01 -0.21636070740E+02  0.31642319992E+02  0.00000000000E+00 0. -1.
</event>
<event>
 5    1  0.1102386E-009  0.9118800E+02  0.7818608E-02  0.1130116E+00
         25   -1    0    0    0    0  0.00000000000E+00  0.00000000000E+00  0.99999998245E-14  0.12500000000E+03  0.12500000000E+03 0.  0.
        -11    1    3    3    0    0  0.39857882916E+02 -0.14238255098E+02 -0.21466822341E+02  0.47457382992E+02  0.51100000000E-03 0.  1.
         23    2    1    0    0    0  0.11952078177E+02 -0.24180298412E+02  0.14758642425E+02  0.94253349283E+02  0.89097347440E+02 0.  0.
         11    1    3    3    0    0 -0.27905804739E+02 -0.99420433143E+01  0.36225464765E+02  0.46795966291E+02  0.51100000000E-03 0. -1.
         22    1    1    0    0    0 -0.11952078177E+02  0.24180298412E+02 -0.14758642425E+02  0.30746650717E+02  0.00000000000E+00 0.  1.
</event>
<event>
 5    1  0.1102386E-009  0.9118800E+02  0.7818608E-02  0.1130116E+00
         25   -1    0    0    0    0  0.00000000000E+00  0.00000000000E+00  0.99999998245E-14  0.12500000000E+03  0.12500000000E+03 0.  0.
        -11    1    3    3    0    0  0.34558949312E+02  0.62388138373E+01 -0.24611874513E+01  0.35203710310E+02  0.51100000000E-03 0. -1.
         23    2    1    0    0    0 -0.20778743270E+02 -0.11957083448E+02 -0.17443465864E+02  0.95352023378E+02  0.90625635691E+02 0.  0.
         11    1    3    3    0    0 -0.55337692581E+02 -0.18195897286E+02 -0.14982278412E+02  0.60148313068E+02  0.51100000000E-03 0.  1.
         22    1    1    0    0    0  0.20778743270E+02  0.11957083448E+02  0.17443465864E+02  0.29647976622E+02  0.00000000000E+00 0.  1.
</event>
<event>
 5    1  0.1102386E-009  0.9118800E+02  0.7818608E-02  0.1130116E+00
         25   -1    0    0    0    0  0.00000000000E+00  0.00000000000E+00  0.99999998245E-14  0.12500000000E+03  0.12500000000E+03 0.  0.
        -11    1    3    3    0    0  0.13161228362E+02  0.20602609975E+02 -0.25751121582E+02  0.35507826360E+02  0.51100000000E-03 0.  1.
         23    2    1    0    0    0 -0.14539234169E+02  0.78018738757E+01  0.25188559733E+02  0.94888173293E+02  0.89983572519E+02 0.  0.
         11    1    3    3    0    0 -0.27700462531E+02 -0.12800736100E+02  0.50939681316E+02  0.59380346933E+02  0.51100000000E-03 0. -1.
         22    1    1    0    0    0  0.14539234169E+02 -0.78018738757E+01 -0.25188559733E+02  0.30111826707E+02  0.00000000000E+00 0. -1.
</event>
<event>
 5    1  0.1102386E-009  0.9118800E+02  0.7818608E-02  0.1130116E+00
         25   -1    0    0    0    0  0.00000000000E+00  0.00000000000E+00  0.99999998245E-14  0.12500000000E+03  0.12500000000E+03 0.  0.
        -11    1    3    3    0    0 -0.31519342553E+01  0.13673742213E+02  0.37906924364E+02  0.40420797007E+02  0.51100000000E-03 0.  1.
         23    2    1    0    0    0 -0.22314530512E+02  0.22066397026E+02 -0.94773489052E+01  0.92217622235E+02  0.86193999551E+02 0.  0.
         11    1    3    3    0    0 -0.19162596256E+02  0.83926548134E+01 -0.47384273270E+02  0.51796825228E+02  0.51100000000E-03 0. -1.
         22    1    1    0    0    0  0.22314530512E+02 -0.22066397026E+02  0.94773489052E+01  0.32782377765E+02  0.00000000000E+00 0. -1.
</event>
<event>
 5    1  0.1102386E-009  0.9118800E+02  0.7818608E-02  0.1130116E+00
         25   -1    0    0    0    0  0.00000000000E+00  0.00000000000E+00  0.99999998245E-14  0.12500000000E+03  0.12500000000E+03 0.  0.
        -11    1    3    3    0    0 -0.31736540607E+02 -0.42888544145E+02 -0.26213041794E+02  0.59445426981E+02  0.51100000000E-03 0. -1.
         23    2    1    0    0    0 -0.25474709780E+02 -0.11873347772E+02 -0.88700568577E+01  0.95527722614E+02  0.90867654605E+02 0.  0.
         11    1    3    3    0    0  0.62618308265E+01  0.31015196373E+02  0.17342984937E+02  0.36082295633E+02  0.51100000000E-03 0.  1.
         22    1    1    0    0    0  0.25474709780E+02  0.11873347772E+02  0.88700568577E+01  0.29472277386E+02  0.00000000000E+00 0. -1.
</event>
<event>
 5    1  0.1102386E-009  0.9118800E+02  0.7818608E-02  0.1130116E+00
         25   -1    0    0    0    0  0.00000000000E+00  0.00000000000E+00  0.99999998245E-14  0.12500000000E+03  0.12500000000E+03 0.  0.
        -11    1    3    3    0    0 -0.39511680646E+02 -0.83402395218E+01 -0.26387705471E+02  0.48239439290E+02  0.51100000000E-03 0.  1.
         23    2    1    0    0    0 -0.39497476359E+01 -0.29150114286E+02 -0.34910836218E+01  0.95377080931E+02  0.90660191004E+02 0.  0.
         11    1    3    3    0    0  0.35561933010E+02 -0.20809874765E+02  0.22896621850E+02  0.47137641641E+02  0.51100000000E-03 0. -1.
         22    1    1    0    0    0  0.39497476359E+01  0.29150114286E+02  0.34910836218E+01  0.29622919069E+02  0.00000000000E+00 0.  1.
</event>
<event>
 5    1  0.1102386E-009  0.9118800E+02  0.7818608E-02  0.1130116E+00
         25   -1    0    0    0    0  0.00000000000E+00  0.00000000000E+00  0.99999998245E-14  0.12500000000E+03  0.12500000000E+03 0.  0.
        -11    1    3    3    0    0  0.16335451673E+02 -0.40918267977E+02  0.10252037556E+02  0.45235560236E+02  0.51100000000E-03 0.  1.
         23    2    1    0    0    0 -0.23985076466E+02 -0.13055176730E+02  0.13853843585E+02  0.94378920420E+02  0.89273344875E+02 0.  0.
         11    1    3    3    0    0 -0.40320528139E+02  0.27863091247E+02  0.36018060296E+01  0.49143360184E+02  0.51100000000E-03 0. -1.
         22    1    1    0    0    0  0.23985076466E+02  0.13055176730E+02 -0.13853843585E+02  0.30621079580E+02  0.00000000000E+00 0. -1.
</event>
<event>
 5    1  0.1102386E-009  0.9118800E+02  0.7818608E-02  0.1130116E+00
         25   -1    0    0    0    0  0.00000000000E+00  0.00000000000E+00  0.99999998245E-14  0.12500000000E+03  0.12500000000E+03 0.  0.
        -11    1    3    3    0    0  0.22603712999E+02  0.46169732716E+01  0.49087446897E+02  0.54238563096E+02  0.51100000000E-03 0.  1.
         23    2    1    0    0    0 -0.10565808820E+02 -0.39374319380E+01  0.28849893814E+02  0.94024912278E+02  0.88776281008E+02 0.  0.
         11    1    3    3    0    0 -0.33169521820E+02 -0.85544052096E+01 -0.20237553083E+02  0.39786349183E+02  0.51100000000E-03 0. -1.
         22    1    1    0    0    0  0.10565808820E+02  0.39374319380E+01 -0.28849893814E+02  0.30975087722E+02  0.00000000000E+00 0.  1.
</event>
<event>
 5    1  0.1102386E-009  0.9118800E+02  0.7818608E-02  0.1130116E+00
         25   -1    0    0    0    0  0.00000000000E+00  0.00000000000E+00  0.99999998245E-14  0.12500000000E+03  0.12500000000E+03 0.  0.
        -11    1    3    3    0    0 -0.14840116248E+02  0.25798642673E+02 -0.20100545950E+02  0.35914216709E+02  0.51100000000E-03 0. -1.
         23    2    1    0    0    0 -0.19265237123E+01 -0.13831052195E+02  0.24400235147E+02  0.96886284954E+02  0.92717696469E+02 0.  0.
         11    1    3    3    0    0  0.12913592536E+02 -0.39629694869E+02  0.44500781097E+02  0.60972068245E+02  0.51100000000E-03 0.  1.
         22    1    1    0    0    0  0.19265237123E+01  0.13831052195E+02 -0.24400235147E+02  0.28113715046E+02  0.00000000000E+00 0.  1.
</event>
<event>
 5    1  0.1102386E-009  0.9118800E+02  0.7818608E-02  0.1130116E+00
         25   -1    0    0    0    0  0.00000000000E+00  0.00000000000E+00  0.99999998245E-14  0.12500000000E+03  0.12500000000E+03 0.  0.
        -11    1    3    3    0    0 -0.56091414782E+01 -0.12941078517E+02  0.39271324542E+02  0.41727340113E+02  0.51100000000E-03 0.  1.
         23    2    1    0    0    0 -0.11156627267E+02 -0.21834429670E+02 -0.14502059475E+02  0.96512768123E+02  0.92212754165E+02 0.  0.
         11    1    3    3    0    0 -0.55474857888E+01 -0.88933511537E+01 -0.53773384017E+02  0.54785428010E+02  0.51100000000E-03 0. -1.
         22    1    1    0    0    0  0.11156627267E+02  0.21834429670E+02  0.14502059475E+02  0.28487231877E+02  0.00000000000E+00 0. -1.
</event>
<event>
 5    1  0.1102386E-009  0.9118800E+02  0.7818608E-02  0.1130116E+00
         25   -1    0    0    0    0  0.00000000000E+00  0.00000000000E+00  0.99999998245E-14  0.12500000000E+03  0.12500000000E+03 0.  0.
        -11    1    3    3    0    0  0.74504380059E+01 -0.44602752815E+02  0.12781174476E+02  0.46992265390E+02  0.51100000000E-03 0.  1.
         23    2    1    0    0    0 -0.22476182550E+02 -0.78793314634E+01  0.18679856930E+02  0.94731209121E+02  0.89765262103E+02 0.  0.
         11    1    3    3    0    0 -0.29926620556E+02  0.36723421352E+02  0.58986824540E+01  0.47738943732E+02  0.51100000000E-03 0. -1.
         22    1    1    0    0    0  0.22476182550E+02  0.78793314634E+01 -0.18679856930E+02  0.30268790879E+02  0.00000000000E+00 0.  1.
</event>
<event>
 5    1  0.1102386E-009  0.9118800E+02  0.7818608E-02  0.1130116E+00
         25   -1    0    0    0    0  0.00000000000E+00  0.00000000000E+00  0.99999998245E-14  0.12500000000E+03  0.12500000000E+03 0.  0.
        -11    1    3    3    0    0  0.30941949766E+02 -0.66042182595E+01 -0.15618421612E+02  0.35283920531E+02  0.51100000000E-03 0. -1.
         23    2    1    0    0    0 -0.21025136784E+02 -0.10042468673E+02  0.16479084156E+02  0.96461118304E+02  0.92142713092E+02 0.  0.
         11    1    3    3    0    0 -0.51967086550E+02 -0.34382504139E+01  0.32097505769E+02  0.61177197772E+02  0.51100000000E-03 0.  1.
         22    1    1    0    0    0  0.21025136784E+02  0.10042468673E+02 -0.16479084156E+02  0.28538881696E+02  0.00000000000E+00 0.  1.
</event>
<event>
 5    1  0.1102386E-009  0.9118800E+02  0.7818608E-02  0.1130116E+00
         25   -1    0    0    0    0  0.00000000000E+00  0.00000000000E+00  0.99999998245E-14  0.12500000000E+03  0.12500000000E+03 0.  0.
        -11    1    3    3    0    0  0.41905015218E+02  0.18787508257E+02  0.91571021613E+01  0.46827911412E+02  0.51100000000E-03 0. -1.
         23    2    1    0    0    0  0.99789162992E+01  0.20244864086E+02 -0.23426979191E+02  0.92469143166E+02  0.86557990916E+02 0.  0.
         11    1    3    3    0    0 -0.31926098919E+02  0.14573558285E+01 -0.32584081352E+02  0.45641231754E+02  0.51100000000E-03 0.  1.
         22    1    1    0    0    0 -0.99789162992E+01 -0.20244864086E+02  0.23426979191E+02  0.32530856834E+02  0.00000000000E+00 0. -1.
</event>
<event>
 5    1  0.1102386E-009  0.9118800E+02  0.7818608E-02  0.1130116E+00
         25   -1    0    0    0    0  0.00000000000E+00  0.00000000000E+00  0.99999998245E-14  0.12500000000E+03  0.12500000000E+03 0.  0.
        -11    1    3    3    0    0  0.22997955013E+02  0.47441161549E+02 -0.29473530453E+02  0.60400817391E+02  0.51100000000E-03 0. -1.
         23    2    1    0    0    0  0.15540972452E+02  0.14308759474E+02 -0.20581025959E+02  0.95506932137E+02  0.90839050162E+02 0.  0.
         11    1    3    3    0    0 -0.74569825613E+01 -0.33132402074E+02  0.88925044945E+01  0.35106114746E+02  0.51100000000E-03 0.  1.
         22    1    1    0    0    0 -0.15540972452E+02 -0.14308759474E+02  0.20581025959E+02  0.29493067863E+02  0.00000000000E+00 0. -1.
</event>
<event>
 5    1  0.1102386E-009  0.9118800E+02  0.7818608E-02  0.1130116E+00
         25   -1    0    0    0    0  0.00000000000E+00  0.00000000000E+00  0.99999998245E-14  0.12500000000E+03  0.12500000000E+03 0.  0.
        -11    1    3    3    0    0  0.47530930463E+01  0.54546391284E+02 -0.18193340652E+02  0.57696605965E+02  0.51100000000E-03 0.  1.
         23    2    1    0    0    0  0.91884634681E+01  0.27213427090E+02  0.73310851058E+01  0.95356395568E+02  0.90631666055E+02 0.  0.
         11    1    3    3    0    0  0.44353704217E+01 -0.27332964193E+02  0.25524425758E+02  0.37659789603E+02  0.51100000000E-03 0. -1.
         22    1    1    0    0    0 -0.91884634681E+01 -0.27213427090E+02 -0.73310851058E+01  0.29643604432E+02  0.00000000000E+00 0.  1.
</event>
<event>
 4    1  0.1102386E-009  0.9118800E+02  0.7818608E-02  0.1130116E+00
         25   -1    0    0    0    0  0.00000000000E+00  0.00000000000E+00  0.99999998245E-14  0.12500000000E+03  0.12500000000E+03 0.  0.
        -11    1    1    0    0    0 -0.12237388704E+02  0.50033669718E+02 -0.21140334022E+02  0.55677962521E+02  0.51100000000E-03 0.  1.
         11    1    1    0    0    0 -0.67507814959E+01 -0.26233665463E+01  0.16525062168E+02  0.18042527061E+02  0.51100000000E-03 0. -1.
         22    1    1    0    0    0  0.18988170200E+02 -0.47410303171E+02  0.46152718537E+01  0.51279510417E+02  0.00000000000E+00 0.  1.
</event>
<event>
 5    1  0.1102386E-009  0.9118800E+02  0.7818608E-02  0.1130116E+00
         25   -1    0    0    0    0  0.00000000000E+00  0.00000000000E+00  0.99999998245E-14  0.12500000000E+03  0.12500000000E+03 0.  0.
        -11    1    3    3    0    0 -0.32392286998E+01 -0.29300317050E+02  0.13300086032E+02  0.32340276290E+02  0.51100000000E-03 0. -1.
         23    2    1    0    0    0  0.21258079275E+02  0.21384492870E+02 -0.99510225603E+01  0.93247436013E+02  0.87674734121E+02 0.  0.
         11    1    3    3    0    0  0.24497307975E+02  0.50684809919E+02 -0.23251108592E+02  0.60907159723E+02  0.51100000000E-03 0.  1.
         22    1    1    0    0    0 -0.21258079275E+02 -0.21384492870E+02  0.99510225603E+01  0.31752563987E+02  0.00000000000E+00 0.  1.
</event>
<event>
 5    1  0.1102386E-009  0.9118800E+02  0.7818608E-02  0.1130116E+00
         25   -1    0    0    0    0  0.00000000000E+00  0.00000000000E+00  0.99999998245E-14  0.12500000000E+03  0.12500000000E+03 0.  0.
        -11    1    3    3    0    0 -0.17807325634E+02 -0.50220296886E+02 -0.26763434238E+02  0.59627682145E+02  0.51100000000E-03 0. -1.
         23    2    1    0    0    0  0.35687415175E+01 -0.27357370606E+02 -0.73880674882E+01  0.96438746812E+02  0.92112359121E+02 0.  0.
         11    1    3    3    0    0  0.21376067151E+02  0.22862926280E+02  0.19375366749E+02  0.36811064667E+02  0.51100000000E-03 0.  1.
         22    1    1    0    0    0 -0.35687415175E+01  0.27357370606E+02  0.73880674882E+01  0.28561253188E+02  0.00000000000E+00 0. -1.
</event>
<event>
 5    1  0.1102386E-009  0.9118800E+02  0.7818608E-02  0.1130116E+00
         25   -1    0    0    0    0  0.00000000000E+00  0.00000000000E+00  0.99999998245E-14  0.12500000000E+03  0.12500000000E+03 0.  0.
        -11    1    3    3    0    0 -0.22677208730E+02 -0.49321427242E+02 -0.27463265853E+02  0.60836583998E+02  0.51100000000E-03 0. -1.
         23    2    1    0    0    0 -0.21645401418E+02 -0.23795864625E+02 -0.18390770187E+02  0.87946160741E+02  0.79759263946E+02 0.  0.
         11    1    3    3    0    0  0.10318073123E+01  0.25525562617E+02  0.90724956667E+01  0.27109576742E+02  0.51100000000E-03 0.  1.
         22    1    1    0    0    0  0.21645401418E+02  0.23795864625E+02  0.18390770187E+02  0.37053839259E+02  0.00000000000E+00 0. -1.
</event>
<event>
 5    1  0.1102386E-009  0.9118800E+02  0.7818608E-02  0.1130116E+00
         25   -1    0    0    0    0  0.00000000000E+00  0.00000000000E+00  0.99999998245E-14  0.12500000000E+03  0.12500000000E+03 0.  0.
        -11    1    3    3    0    0 -0.36056758641E+01  0.87659058076E-01 -0.27882568064E+02  0.28114874793E+02  0.51100000000E-03 0. -1.
         23    2    1    0    0    0 -0.28357783070E+02 -0.19165155997E+02  0.20004740480E+02  0.85355874247E+02  0.75590796806E+02 0.  0.
         11    1    3    3    0    0 -0.24752107206E+02 -0.19252815056E+02  0.47887308543E+02  0.57240999454E+02  0.51100000000E-03 0.  1.
         22    1    1    0    0    0  0.28357783070E+02  0.19165155997E+02 -0.20004740480E+02  0.39644125753E+02  0.00000000000E+00 0.  1.
</event>
<event>
 5    1  0.1102386E-009  0.9118800E+02  0.7818608E-02  0.1130116E+00
         25   -1    0    0    0    0  0.00000000000E+00  0.00000000000E+00  0.99999998245E-14  0.12500000000E+03  0.12500000000E+03 0.  0.
        -11    1    3    3    0    0 -0.27319881150E+02  0.95887071126E+01 -0.43143198132E+02  0.51958202004E+02  0.51100000000E-03 0. -1.
         23    2    1    0    0    0 -0.30858232120E+02 -0.53165261101E-02 -0.23065374669E+01  0.94055684966E+02  0.88819599422E+02 0.  0.
         11    1    3    3    0    0 -0.35383509694E+01 -0.95940236387E+01  0.40836660665E+02  0.42097482962E+02  0.51100000000E-03 0.  1.
         22    1    1    0    0    0  0.30858232120E+02  0.53165261101E-02  0.23065374669E+01  0.30944315034E+02  0.00000000000E+00 0. -1.
</event>
<event>
 5    1  0.1102386E-009  0.9118800E+02  0.7818608E-02  0.1130116E+00
         25   -1    0    0    0    0  0.00000000000E+00  0.00000000000E+00  0.99999998245E-14  0.12500000000E+03  0.12500000000E+03 0.  0.
        -11    1    3    3    0    0 -0.25652227579E+02 -0.35973887789E+02 -0.16490648946E+02  0.47160352897E+02  0.51100000000E-03 0. -1.
         23    2    1    0    0    0 -0.55938982756E+01  0.68609691665E+01 -0.27827260550E+02  0.95798612609E+02  0.91239537221E+02 0.  0.
         11    1    3    3    0    0  0.20058329304E+02  0.42834856956E+02 -0.11336611604E+02  0.48638259712E+02  0.51100000000E-03 0.  1.
         22    1    1    0    0    0  0.55938982756E+01 -0.68609691665E+01  0.27827260550E+02  0.29201387391E+02  0.00000000000E+00 0. -1.
</event>
<event>
 5    1  0.1102386E-009  0.9118800E+02  0.7818608E-02  0.1130116E+00
         25   -1    0    0    0    0  0.00000000000E+00  0.00000000000E+00  0.99999998245E-14  0.12500000000E+03  0.12500000000E+03 0.  0.
        -11    1    3    3    0    0 -0.28645987626E+02 -0.46177449467E+02  0.15551407272E+02  0.56522523959E+02  0.51100000000E-03 0.  1.
         23    2    1    0    0    0 -0.13597583857E+02 -0.21980487623E+02 -0.12307350876E+02  0.96372967173E+02  0.92023050336E+02 0.  0.
         11    1    3    3    0    0  0.15048403770E+02  0.24196961843E+02 -0.27858758149E+02  0.39850443213E+02  0.51100000000E-03 0. -1.
         22    1    1    0    0    0  0.13597583857E+02  0.21980487623E+02  0.12307350876E+02  0.28627032827E+02  0.00000000000E+00 0.  1.
</event>
<event>
 5    1  0.1102386E-009  0.9118800E+02  0.7818608E-02  0.1130116E+00
         25   -1    0    0    0    0  0.00000000000E+00  0.00000000000E+00  0.99999998245E-14  0.12500000000E+03  0.12500000000E+03 0.  0.
        -11    1    3    3    0    0 -0.83514642705E+01 -0.35246011054E+02  0.27240746163E+01  0.36324218277E+02  0.51100000000E-03 0. -1.
         23    2    1    0    0    0 -0.21143844240E+02  0.18919368535E+02 -0.12457270467E+02  0.94013095629E+02  0.88759641207E+02 0.  0.
         11    1    3    3    0    0 -0.12792379970E+02  0.54165379589E+02 -0.15181345083E+02  0.57688877352E+02  0.51100000000E-03 0.  1.
         22    1    1    0    0    0  0.21143844240E+02 -0.18919368535E+02  0.12457270467E+02  0.30986904371E+02  0.00000000000E+00 0.  1.
</event>
<event>
 5    1  0.1102386E-009  0.9118800E+02  0.7818608E-02  0.1130116E+00
         25   -1    0    0    0    0  0.00000000000E+00  0.00000000000E+00  0.99999998245E-14  0.12500000000E+03  0.12500000000E+03 0.  0.
        -11    1    3    3    0    0  0.42260140495E+02 -0.42692530696E+02  0.86310715458E+01  0.60688277684E+02  0.51100000000E-03 0. -1.
         23    2    1    0    0    0  0.18186758362E+02 -0.15674578376E+02  0.13900638241E+02  0.97256922837E+02  0.93216043197E+02 0.  0.
         11    1    3    3    0    0 -0.24073382133E+02  0.27017952320E+02  0.52695666951E+01  0.36568645153E+02  0.51100000000E-03 0.  1.
         22    1    1    0    0    0 -0.18186758362E+02  0.15674578376E+02 -0.13900638241E+02  0.27743077163E+02  0.00000000000E+00 0. -1.
</event>
<event>
 5    1  0.1102386E-009  0.9118800E+02  0.7818608E-02  0.1130116E+00
         25   -1    0    0    0    0  0.00000000000E+00  0.00000000000E+00  0.99999998245E-14  0.12500000000E+03  0.12500000000E+03 0.  0.
        -11    1    3    3    0    0  0.27437628858E+02 -0.18906190418E+02 -0.79476432510E+01  0.34255401719E+02  0.51100000000E-03 0.  1.
         23    2    1    0    0    0 -0.16895972881E+02  0.16978435230E+02 -0.21425610380E+02  0.92862826157E+02  0.87124660913E+02 0.  0.
         11    1    3    3    0    0 -0.44333601738E+02  0.35884625648E+02 -0.13477967129E+02  0.58607424438E+02  0.51100000000E-03 0. -1.
         22    1    1    0    0    0  0.16895972881E+02 -0.16978435230E+02  0.21425610380E+02  0.32137173843E+02  0.00000000000E+00 0. -1.
</event>
<event>
 5    1  0.1102386E-009  0.9118800E+02  0.7818608E-02  0.1130116E+00
         25   -1    0    0    0    0  0.00000000000E+00  0.00000000000E+00  0.99999998245E-14  0.12500000000E+03  0.12500000000E+03 0.  0.
        -11    1    3    3    0    0  0.57921141405E+02  0.77142890892E+01 -0.14407466202E+01  0.58450360383E+02  0.51100000000E-03 0.  1.
         23    2    1    0    0    0  0.26448928183E+02  0.18414914169E+02  0.52175263278E+01  0.92352221410E+02  0.86388977031E+02 0.  0.
         11    1    3    3    0    0 -0.31472213222E+02  0.10700625080E+02  0.66582729480E+01  0.33901861027E+02  0.51100000000E-03 0. -1.
         22    1    1    0    0    0 -0.26448928183E+02 -0.18414914169E+02 -0.52175263278E+01  0.32647778590E+02  0.00000000000E+00 0.  1.
</event>
<event>
 5    1  0.1102386E-009  0.9118800E+02  0.7818608E-02  0.1130116E+00
         25   -1    0    0    0    0  0.00000000000E+00  0.00000000000E+00  0.99999998245E-14  0.12500000000E+03  0.12500000000E+03 0.  0.
        -11    1    3    3    0    0  0.91823494021E+01  0.31502338330E+02  0.13997038953E+02  0.35673939515E+02  0.51100000000E-03 0.  1.
         23    2    1    0    0    0 -0.13950060218E+02  0.26448955145E+01 -0.29194033095E+02  0.92536309194E+02  0.86654932338E+02 0.  0.
         11    1    3    3    0    0 -0.23132409620E+02 -0.28857442815E+02 -0.43191072048E+02  0.56862369680E+02  0.51100000000E-03 0. -1.
         22    1    1    0    0    0  0.13950060218E+02 -0.26448955145E+01  0.29194033095E+02  0.32463690806E+02  0.00000000000E+00 0. -1.
</event>
<event>
 5    1  0.1102386E-009  0.9118800E+02  0.7818608E-02  0.1130116E+00
         25   -1    0    0    0    0  0.00000000000E+00  0.00000000000E+00  0.99999998245E-14  0.12500000000E+03  0.12500000000E+03 0.  0.
        -11    1    3    3    0    0 -0.11532342811E+02 -0.37122190134E+02  0.39576715633E+02  0.55474033129E+02  0.51100000000E-03 0.  1.
         23    2    1    0    0    0  0.21953615488E+01 -0.27540320536E+02  0.11965854757E+01  0.97346416428E+02  0.93335974346E+02 0.  0.
         11    1    3    3    0    0  0.13727704360E+02  0.95818695979E+01 -0.38380130157E+02  0.41872383299E+02  0.51100000000E-03 0. -1.
         22    1    1    0    0    0 -0.21953615488E+01  0.27540320536E+02 -0.11965854757E+01  0.27653583572E+02  0.00000000000E+00 0.  1.
</event>
<event>
 5    1  0.1102386E-009  0.9118800E+02  0.7818608E-02  0.1130116E+00
         25   -1    0    0    0    0  0.00000000000E+00  0.00000000000E+00  0.99999998245E-14  0.12500000000E+03  0.12500000000E+03 0.  0.
        -11    1    3    3    0    0 -0.41848940547E+02 -0.44791149275E+01 -0.42865067517E+01  0.42305678530E+02  0.51100000000E-03 0.  1.
         23    2    1    0    0    0  0.27268560005E+01  0.11755887547E+02  0.24424029544E+02  0.97757205451E+02  0.93884510771E+02 0.  0.
         11    1    3    3    0    0  0.44575796548E+02  0.16235002475E+02  0.28710536296E+02  0.55451526921E+02  0.51100000000E-03 0. -1.
         22    1    1    0    0    0 -0.27268560005E+01 -0.11755887547E+02 -0.24424029544E+02  0.27242794549E+02  0.00000000000E+00 0.  1.
</event>
<event>
 5    1  0.1102386E-009  0.9118800E+02  0.7818608E-02  0.1130116E+00
         25   -1    0    0    0    0  0.00000000000E+00  0.00000000000E+00  0.99999998245E-14  0.12500000000E+03  0.12500000000E+03 0.  0.
        -11    1    3    3    0    0  0.17899422804E+02  0.70866225331E+01  0.27655971570E+02  0.33696621780E+02  0.51100000000E-03 0.  1.
         23    2    1    0    0    0 -0.19720481979E+02  0.51144936563E+01 -0.21337249675E+02  0.95498581753E+02  0.90827558804E+02 0.  0.
         11    1    3    3    0    0 -0.37619904784E+02 -0.19721288768E+01 -0.48993221245E+02  0.61801959973E+02  0.51100000000E-03 0. -1.
         22    1    1    0    0    0  0.19720481979E+02 -0.51144936563E+01  0.21337249675E+02  0.29501418247E+02  0.00000000000E+00 0. -1.
</event>
<event>
 5    1  0.1102386E-009  0.9118800E+02  0.7818608E-02  0.1130116E+00
         25   -1    0    0    0    0  0.00000000000E+00  0.00000000000E+00  0.99999998245E-14  0.12500000000E+03  0.12500000000E+03 0.  0.
        -11    1    3    3    0    0  0.12379888533E+02 -0.83668035448E+01  0.32969974531E+02  0.36197848865E+02  0.51100000000E-03 0.  1.
         23    2    1    0    0    0 -0.15266546016E+02 -0.19854900785E+02 -0.17196836422E+02  0.94618826629E+02  0.89608630484E+02 0.  0.
         11    1    3    3    0    0 -0.27646434549E+02 -0.11488097240E+02 -0.50166810953E+02  0.58420977764E+02  0.51100000000E-03 0. -1.
         22    1    1    0    0    0  0.15266546016E+02  0.19854900785E+02  0.17196836422E+02  0.30381173371E+02  0.00000000000E+00 0. -1.
</event>
<event>
 5    1  0.1102386E-009  0.9118800E+02  0.7818608E-02  0.1130116E+00
         25   -1    0    0    0    0  0.00000000000E+00  0.00000000000E+00  0.99999998245E-14  0.12500000000E+03  0.12500000000E+03 0.  0.
        -11    1    3    3    0    0 -0.44964747653E+02 -0.10782356112E+02 -0.13166015859E+02  0.48077351307E+02  0.51100000000E-03 0.  1.
         23    2    1    0    0    0 -0.71568849492E+01 -0.26146563016E+02  0.11267759789E+02  0.95643123967E+02  0.91026265395E+02 0.  0.
         11    1    3    3    0    0  0.37807862704E+02 -0.15364206905E+02  0.24433775649E+02  0.47565772660E+02  0.51100000000E-03 0. -1.
         22    1    1    0    0    0  0.71568849492E+01  0.26146563016E+02 -0.11267759789E+02  0.29356876033E+02  0.00000000000E+00 0. -1.
</event>
<event>
 5    1  0.1102386E-009  0.9118800E+02  0.7818608E-02  0.1130116E+00
         25   -1    0    0    0    0  0.00000000000E+00  0.00000000000E+00  0.99999998245E-14  0.12500000000E+03  0.12500000000E+03 0.  0.
        -11    1    3    3    0    0 -0.16584447585E+02 -0.10822618242E+02  0.32786561140E+02  0.38303153382E+02  0.51100000000E-03 0. -1.
         23    2    1    0    0    0 -0.35860134508E+01  0.29182218188E+02 -0.53903011387E+01  0.95108250349E+02  0.90288773318E+02 0.  0.
         11    1    3    3    0    0  0.12998434135E+02  0.40004836430E+02 -0.38176862279E+02  0.56805096967E+02  0.51100000000E-03 0.  1.
         22    1    1    0    0    0  0.35860134508E+01 -0.29182218188E+02  0.53903011387E+01  0.29891749651E+02  0.00000000000E+00 0.  1.
</event>
<event>
 5    1  0.1102386E-009  0.9118800E+02  0.7818608E-02  0.1130116E+00
         25   -1    0    0    0    0  0.00000000000E+00  0.00000000000E+00  0.99999998245E-14  0.12500000000E+03  0.12500000000E+03 0.  0.
        -11    1    3    3    0    0 -0.20886199119E+02  0.29970381612E+02  0.22986996960E+02  0.43160851673E+02  0.51100000000E-03 0.  1.
         23    2    1    0    0    0  0.88149190286E+00  0.17762132533E+02 -0.23264785521E+02  0.95716546901E+02  0.91127036193E+02 0.  0.
         11    1    3    3    0    0  0.21767691022E+02 -0.12208249079E+02 -0.46251782481E+02  0.52555695228E+02  0.51100000000E-03 0. -1.
         22    1    1    0    0    0 -0.88149190286E+00 -0.17762132533E+02  0.23264785521E+02  0.29283453099E+02  0.00000000000E+00 0. -1.
</event>
<event>
 5    1  0.1102386E-009  0.9118800E+02  0.7818608E-02  0.1130116E+00
         25   -1    0    0    0    0  0.00000000000E+00  0.00000000000E+00  0.99999998245E-14  0.12500000000E+03  0.12500000000E+03 0.  0.
        -11    1    3    3    0    0  0.22063561528E+02  0.60576516002E+01 -0.23362914672E+02  0.32700484284E+02  0.51100000000E-03 0.  1.
         23    2    1    0    0    0 -0.30659884734E+02  0.65556441858E+01  0.60401183563E+01  0.93070577326E+02  0.87422218751E+02 0.  0.
         11    1    3    3    0    0 -0.52723446261E+02  0.49799258560E+00  0.29403033028E+02  0.60370093041E+02  0.51100000000E-03 0. -1.
         22    1    1    0    0    0  0.30659884734E+02 -0.65556441858E+01 -0.60401183563E+01  0.31929422674E+02  0.00000000000E+00 0. -1.
</event>
<event>
 5    1  0.1102386E-009  0.9118800E+02  0.7818608E-02  0.1130116E+00
         25   -1    0    0    0    0  0.00000000000E+00  0.00000000000E+00  0.99999998245E-14  0.12500000000E+03  0.12500000000E+03 0.  0.
        -11    1    3    3    0    0 -0.10127041565E+02 -0.23415240742E+02 -0.30564838363E+02  0.39812558499E+02  0.51100000000E-03 0. -1.
         23    2    1    0    0    0 -0.20529181834E+02 -0.26968293218E+01  0.20481028837E+02  0.95876251317E+02  0.91345841882E+02 0.  0.
         11    1    3    3    0    0 -0.10402140269E+02  0.20718411420E+02  0.51045867199E+02  0.56063692818E+02  0.51100000000E-03 0.  1.
         22    1    1    0    0    0  0.20529181834E+02  0.26968293218E+01 -0.20481028837E+02  0.29123748683E+02  0.00000000000E+00 0. -1.
</event>
<event>
 5    1  0.1102386E-009  0.9118800E+02  0.7818608E-02  0.1130116E+00
         25   -1    0    0    0    0  0.00000000000E+00  0.00000000000E+00  0.99999998245E-14  0.12500000000E+03  0.12500000000E+03 0.  0.
        -11    1    3    3    0    0  0.15698023428E+02  0.28516045051E+02  0.12659683035E+02  0.34926499105E+02  0.51100000000E-03 0.  1.
         23    2    1    0    0    0 -0.26548077536E+02 -0.12659998377E+02 -0.13371757174E+01  0.95557445446E+02  0.90908532941E+02 0.  0.
         11    1    3    3    0    0 -0.42246100964E+02 -0.41176043429E+02 -0.13996858752E+02  0.60630946341E+02  0.51100000000E-03 0. -1.
         22    1    1    0    0    0  0.26548077536E+02  0.12659998377E+02  0.13371757174E+01  0.29442554554E+02  0.00000000000E+00 0. -1.
</event>
<event>
 5    1  0.1102386E-009  0.9118800E+02  0.7818608E-02  0.1130116E+00
         25   -1    0    0    0    0  0.00000000000E+00  0.00000000000E+00  0.99999998245E-14  0.12500000000E+03  0.12500000000E+03 0.  0.
        -11    1    3    3    0    0 -0.30495435409E+02 -0.40796573346E+02 -0.32464909448E+02  0.60401178162E+02  0.51100000000E-03 0. -1.
         23    2    1    0    0    0 -0.63825624914E+01 -0.27044271903E+02 -0.12884973035E+02  0.94370728431E+02  0.89261873764E+02 0.  0.
         11    1    3    3    0    0  0.24112872917E+02  0.13752301443E+02  0.19579936413E+02  0.33969550270E+02  0.51100000000E-03 0.  1.
         22    1    1    0    0    0  0.63825624914E+01  0.27044271903E+02  0.12884973035E+02  0.30629271569E+02  0.00000000000E+00 0. -1.
</event>
<event>
 5    1  0.1102386E-009  0.9118800E+02  0.7818608E-02  0.1130116E+00
         25   -1    0    0    0    0  0.00000000000E+00  0.00000000000E+00  0.99999998245E-14  0.12500000000E+03  0.12500000000E+03 0.  0.
        -11    1    3    3    0    0 -0.30400122075E+02 -0.26972539189E+02 -0.27751429405E+02  0.49212062817E+02  0.51100000000E-03 0. -1.
         23    2    1    0    0    0 -0.26293492668E+02  0.44783237896E+01  0.81432251799E+01  0.97112453371E+02  0.93022112117E+02 0.  0.
         11    1    3    3    0    0  0.41066294069E+01  0.31450862979E+02  0.35894654584E+02  0.47900390553E+02  0.51100000000E-03 0.  1.
         22    1    1    0    0    0  0.26293492668E+02 -0.44783237896E+01 -0.81432251799E+01  0.27887546629E+02  0.00000000000E+00 0. -1.
</event>
<event>
 5    1  0.1102386E-009  0.9118800E+02  0.7818608E-02  0.1130116E+00
         25   -1    0    0    0    0  0.00000000000E+00  0.00000000000E+00  0.99999998245E-14  0.12500000000E+03  0.12500000000E+03 0.  0.
        -11    1    3    3    0    0 -0.11437551903E+01 -0.60840944572E+02  0.67250171472E+01  0.61222173828E+02  0.51100000000E-03 0.  1.
         23    2    1    0    0    0  0.20912453710E+01 -0.28935309617E+02 -0.53699575212E+01  0.95496408801E+02  0.90824568264E+02 0.  0.
         11    1    3    3    0    0  0.32350005613E+01  0.31905634955E+02 -0.12094974668E+02  0.34274234973E+02  0.51100000000E-03 0. -1.
         22    1    1    0    0    0 -0.20912453710E+01  0.28935309617E+02  0.53699575212E+01  0.29503591199E+02  0.00000000000E+00 0.  1.
</event>
<event>
 5    1  0.1102386E-009  0.9118800E+02  0.7818608E-02  0.1130116E+00
         25   -1    0    0    0    0  0.00000000000E+00  0.00000000000E+00  0.99999998245E-14  0.12500000000E+03  0.12500000000E+03 0.  0.
        -11    1    3    3    0    0  0.46328863565E+01  0.64411387989E+01 -0.35728974198E+02  0.36599337460E+02  0.51100000000E-03 0. -1.
         23    2    1    0    0    0 -0.31198647724E+01  0.24113492695E+02  0.18685806458E+02  0.94334816988E+02  0.89211570141E+02 0.  0.
         11    1    3    3    0    0 -0.77527511289E+01  0.17672353896E+02  0.54414780656E+02  0.57735479528E+02  0.51100000000E-03 0.  1.
         22    1    1    0    0    0  0.31198647724E+01 -0.24113492695E+02 -0.18685806458E+02  0.30665183012E+02  0.00000000000E+00 0.  1.
</event>
<event>
 5    1  0.1102386E-009  0.9118800E+02  0.7818608E-02  0.1130116E+00
         25   -1    0    0    0    0  0.00000000000E+00  0.00000000000E+00  0.99999998245E-14  0.12500000000E+03  0.12500000000E+03 0.  0.
        -11    1    3    3    0    0 -0.39875447395E+02  0.20042495972E+02  0.11666747058E+02  0.46128797263E+02  0.51100000000E-03 0. -1.
         23    2    1    0    0    0 -0.65280425300E+01  0.17459859075E+02 -0.23727282880E+02  0.94826402749E+02  0.89897723482E+02 0.  0.
         11    1    3    3    0    0  0.33347404865E+02 -0.25826368970E+01 -0.35394029938E+02  0.48697605486E+02  0.51100000000E-03 0.  1.
         22    1    1    0    0    0  0.65280425300E+01 -0.17459859075E+02  0.23727282880E+02  0.30173597251E+02  0.00000000000E+00 0.  1.
</event>
<event>
 5    1  0.1102386E-009  0.9118800E+02  0.7818608E-02  0.1130116E+00
         25   -1    0    0    0    0  0.00000000000E+00  0.00000000000E+00  0.99999998245E-14  0.12500000000E+03  0.12500000000E+03 0.  0.
        -11    1    3    3    0    0  0.15301491018E+02  0.47051092420E+02 -0.27771194343E+02  0.56737819493E+02  0.51100000000E-03 0. -1.
         23    2    1    0    0    0 -0.60496025193E+00  0.40623029265E+02 -0.68415339815E+01  0.83800448172E+02  0.72973365299E+02 0.  0.
         11    1    3    3    0    0 -0.15906451270E+02 -0.64280631545E+01  0.20929660361E+02  0.27062628679E+02  0.51100000000E-03 0.  1.
         22    1    1    0    0    0  0.60496025193E+00 -0.40623029265E+02  0.68415339815E+01  0.41199551828E+02  0.00000000000E+00 0. -1.
</event>
<event>
 5    1  0.1102386E-009  0.9118800E+02  0.7818608E-02  0.1130116E+00
         25   -1    0    0    0    0  0.00000000000E+00  0.00000000000E+00  0.99999998245E-14  0.12500000000E+03  0.12500000000E+03 0.  0.
        -11    1    3    3    0    0  0.28635238789E+02  0.69759113678E+01 -0.26235313286E+02  0.39457976423E+02  0.51100000000E-03 0.  1.
         23    2    1    0    0    0 -0.20726105120E+02 -0.16753235086E+02 -0.84527529342E+01  0.97041256261E+02  0.92926390575E+02 0.  0.
         11    1    3    3    0    0 -0.49361343910E+02 -0.23729146453E+02  0.17782560352E+02  0.57583279838E+02  0.51100000000E-03 0. -1.
         22    1    1    0    0    0  0.20726105120E+02  0.16753235086E+02  0.84527529342E+01  0.27958743739E+02  0.00000000000E+00 0. -1.
</event>
<event>
 5    1  0.1102386E-009  0.9118800E+02  0.7818608E-02  0.1130116E+00
         25   -1    0    0    0    0  0.00000000000E+00  0.00000000000E+00  0.99999998245E-14  0.12500000000E+03  0.12500000000E+03 0.  0.
        -11    1    3    3    0    0 -0.26564058628E+02  0.54201596953E+02  0.15546931496E+02  0.62331127074E+02  0.51100000000E-03 0.  1.
         23    2    1    0    0    0 -0.15311689153E+02  0.24067285133E+02  0.80701231813E+01  0.95355288388E+02  0.90630139010E+02 0.  0.
         11    1    3    3    0    0  0.11252369475E+02 -0.30134311820E+02 -0.74768083149E+01  0.33024161314E+02  0.51100000000E-03 0. -1.
         22    1    1    0    0    0  0.15311689153E+02 -0.24067285133E+02 -0.80701231813E+01  0.29644711612E+02  0.00000000000E+00 0.  1.
</event>
<event>
 5    1  0.1102386E-009  0.9118800E+02  0.7818608E-02  0.1130116E+00
         25   -1    0    0    0    0  0.00000000000E+00  0.00000000000E+00  0.99999998245E-14  0.12500000000E+03  0.12500000000E+03 0.  0.
        -11    1    3    3    0    0 -0.48556913999E+02 -0.38154692317E+02 -0.35444476455E+01  0.61855618599E+02  0.51100000000E-03 0.  1.
         23    2    1    0    0    0 -0.25134885237E+02 -0.12866528452E+02 -0.48544174487E+01  0.96349077169E+02  0.91990593499E+02 0.  0.
         11    1    3    3    0    0  0.23422028763E+02  0.25288163864E+02 -0.13099698032E+01  0.34493458570E+02  0.51100000000E-03 0. -1.
         22    1    1    0    0    0  0.25134885237E+02  0.12866528452E+02  0.48544174487E+01  0.28650922831E+02  0.00000000000E+00 0.  1.
</event>
<event>
 5    1  0.1102386E-009  0.9118800E+02  0.7818608E-02  0.1130116E+00
         25   -1    0    0    0    0  0.00000000000E+00  0.00000000000E+00  0.99999998245E-14  0.12500000000E+03  0.12500000000E+03 0.  0.
        -11    1    3    3    0    0  0.13473237976E+02 -0.26301521435E+02  0.51211566820E+02  0.59126328719E+02  0.51100000000E-03 0. -1.
         23    2    1    0    0    0  0.60466125553E+01 -0.24130955964E+02  0.15449080492E+02  0.95716239190E+02  0.91126614102E+02 0.  0.
         11    1    3    3    0    0 -0.74266254204E+01  0.21705654713E+01 -0.35762486329E+02  0.36589910471E+02  0.51100000000E-03 0.  1.
         22    1    1    0    0    0 -0.60466125553E+01  0.24130955964E+02 -0.15449080492E+02  0.29283760810E+02  0.00000000000E+00 0. -1.
</event>
<event>
 5    1  0.1102386E-009  0.9118800E+02  0.7818608E-02  0.1130116E+00
         25   -1    0    0    0    0  0.00000000000E+00  0.00000000000E+00  0.99999998245E-14  0.12500000000E+03  0.12500000000E+03 0.  0.
        -11    1    3    3    0    0  0.27235392202E+02  0.22039472076E+02 -0.36788268920E+02  0.50802378372E+02  0.51100000000E-03 0.  1.
         23    2    1    0    0    0  0.22819643242E+02 -0.14233749251E+02 -0.92478565995E+01  0.96559560709E+02  0.92276162562E+02 0.  0.
         11    1    3    3    0    0 -0.44157489607E+01 -0.36273221327E+02  0.27540412321E+02  0.45757182337E+02  0.51100000000E-03 0. -1.
         22    1    1    0    0    0 -0.22819643242E+02  0.14233749251E+02  0.92478565995E+01  0.28440439291E+02  0.00000000000E+00 0.  1.
</event>
<event>
 5    1  0.1102386E-009  0.9118800E+02  0.7818608E-02  0.1130116E+00
         25   -1    0    0    0    0  0.00000000000E+00  0.00000000000E+00  0.99999998245E-14  0.12500000000E+03  0.12500000000E+03 0.  0.
        -11    1    3    3    0    0 -0.35643888962E+01 -0.73040852980E+01 -0.52697852743E+02  0.53320898475E+02  0.51100000000E-03 0. -1.
         23    2    1    0    0    0  0.20998411614E+02 -0.40266866424E+01 -0.13439723049E+02  0.99745819133E+02  0.96495879618E+02 0.  0.
         11    1    3    3    0    0  0.24562800510E+02  0.32773986556E+01  0.39258129693E+02  0.46424920658E+02  0.51100000000E-03 0.  1.
         22    1    1    0    0    0 -0.20998411614E+02  0.40266866424E+01  0.13439723049E+02  0.25254180867E+02  0.00000000000E+00 0.  1.
</event>
<event>
 5    1  0.1102386E-009  0.9118800E+02  0.7818608E-02  0.1130116E+00
         25   -1    0    0    0    0  0.00000000000E+00  0.00000000000E+00  0.99999998245E-14  0.12500000000E+03  0.12500000000E+03 0.  0.
        -11    1    3    3    0    0  0.16344335948E+02  0.38771275249E+02 -0.15163892400E+02  0.44724632307E+02  0.51100000000E-03 0. -1.
         23    2    1    0    0    0 -0.90196398407E+01 -0.25449509542E+01 -0.28493974937E+02  0.95004378887E+02  0.90144854106E+02 0.  0.
         11    1    3    3    0    0 -0.25363975788E+02 -0.41316226203E+02 -0.13330082538E+02  0.50279746580E+02  0.51100000000E-03 0.  1.
         22    1    1    0    0    0  0.90196398407E+01  0.25449509542E+01  0.28493974937E+02  0.29995621113E+02  0.00000000000E+00 0.  1.
</event>
<event>
 5    1  0.1102386E-009  0.9118800E+02  0.7818608E-02  0.1130116E+00
         25   -1    0    0    0    0  0.00000000000E+00  0.00000000000E+00  0.99999998245E-14  0.12500000000E+03  0.12500000000E+03 0.  0.
        -11    1    3    3    0    0 -0.63356663067E+01  0.41543671671E+02 -0.15715034566E+02  0.44866241598E+02  0.51100000000E-03 0. -1.
         23    2    1    0    0    0 -0.28731114396E+02 -0.23962393387E+01 -0.98554414957E+01  0.94531186034E+02  0.89486292294E+02 0.  0.
         11    1    3    3    0    0 -0.22395448089E+02 -0.43939911010E+02  0.58595930703E+01  0.49664944436E+02  0.51100000000E-03 0.  1.
         22    1    1    0    0    0  0.28731114396E+02  0.23962393387E+01  0.98554414957E+01  0.30468813966E+02  0.00000000000E+00 0. -1.
</event>
<event>
 5    1  0.1102386E-009  0.9118800E+02  0.7818608E-02  0.1130116E+00
         25   -1    0    0    0    0  0.00000000000E+00  0.00000000000E+00  0.99999998245E-14  0.12500000000E+03  0.12500000000E+03 0.  0.
        -11    1    3    3    0    0 -0.44758919517E+01  0.80260609505E+00 -0.53801750444E+02  0.53993574955E+02  0.51100000000E-03 0.  1.
         23    2    1    0    0    0 -0.16332767780E+02  0.17095941617E+02 -0.17248331182E+02  0.95733373072E+02  0.91150113922E+02 0.  0.
         11    1    3    3    0    0 -0.11856875829E+02  0.16293335522E+02  0.36553419262E+02  0.41739798117E+02  0.51100000000E-03 0. -1.
         22    1    1    0    0    0  0.16332767780E+02 -0.17095941617E+02  0.17248331182E+02  0.29266626928E+02  0.00000000000E+00 0.  1.
</event>
<event>
 5    1  0.1102386E-009  0.9118800E+02  0.7818608E-02  0.1130116E+00
         25   -1    0    0    0    0  0.00000000000E+00  0.00000000000E+00  0.99999998245E-14  0.12500000000E+03  0.12500000000E+03 0.  0.
        -11    1    3    3    0    0 -0.33979432215E+02  0.41751683036E+02  0.13713635886E+01  0.53848727825E+02  0.51100000000E-03 0. -1.
         23    2    1    0    0    0 -0.64869261473E+01  0.17347204451E+02  0.22190539988E+02  0.96096267057E+02  0.91646422539E+02 0.  0.
         11    1    3    3    0    0  0.27492506067E+02 -0.24404478586E+02  0.20819176400E+02  0.42247539232E+02  0.51100000000E-03 0.  1.
         22    1    1    0    0    0  0.64869261473E+01 -0.17347204451E+02 -0.22190539988E+02  0.28903732943E+02  0.00000000000E+00 0. -1.
</event>
<event>
 5    1  0.1102386E-009  0.9118800E+02  0.7818608E-02  0.1130116E+00
         25   -1    0    0    0    0  0.00000000000E+00  0.00000000000E+00  0.99999998245E-14  0.12500000000E+03  0.12500000000E+03 0.  0.
        -11    1    3    3    0    0 -0.15570448143E+02  0.37803613450E+02  0.41373894203E+02  0.58166581187E+02  0.51100000000E-03 0.  1.
         23    2    1    0    0    0  0.63572403126E+01  0.25529578153E+02  0.14497436330E+02  0.94960866770E+02  0.90084497515E+02 0.  0.
         11    1    3    3    0    0  0.21927688455E+02 -0.12274035297E+02 -0.26876457873E+02  0.36794285583E+02  0.51100000000E-03 0. -1.
         22    1    1    0    0    0 -0.63572403126E+01 -0.25529578153E+02 -0.14497436330E+02  0.30039133230E+02  0.00000000000E+00 0.  1.
</event>
<event>
 5    1  0.1102386E-009  0.9118800E+02  0.7818608E-02  0.1130116E+00
         25   -1    0    0    0    0  0.00000000000E+00  0.00000000000E+00  0.99999998245E-14  0.12500000000E+03  0.12500000000E+03 0.  0.
        -11    1    3    3    0    0  0.35790951118E+02  0.53557843227E+01 -0.17072345543E+02  0.40014267334E+02  0.51100000000E-03 0.  1.
         23    2    1    0    0    0 -0.60036397360E+01  0.22741687941E+02  0.16411994718E+02  0.96319316062E+02  0.91950144185E+02 0.  0.
         11    1    3    3    0    0 -0.41794590854E+02  0.17385903619E+02  0.33484340261E+02  0.56305048728E+02  0.51100000000E-03 0. -1.
         22    1    1    0    0    0  0.60036397360E+01 -0.22741687941E+02 -0.16411994718E+02  0.28680683938E+02  0.00000000000E+00 0. -1.
</event>
<event>
 5    1  0.1102386E-009  0.9118800E+02  0.7818608E-02  0.1130116E+00
         25   -1    0    0    0    0  0.00000000000E+00  0.00000000000E+00  0.99999998245E-14  0.12500000000E+03  0.12500000000E+03 0.  0.
        -11    1    3    3    0    0 -0.10967320990E+02 -0.32013006539E+02  0.17259540018E+02  0.37986924583E+02  0.51100000000E-03 0. -1.
         23    2    1    0    0    0  0.27206435728E+02  0.75956876188E+01  0.14939686236E+02  0.93045675719E+02  0.87386606123E+02 0.  0.
         11    1    3    3    0    0  0.38173756718E+02  0.39608694158E+02 -0.23198537820E+01  0.55058751136E+02  0.51100000000E-03 0.  1.
         22    1    1    0    0    0 -0.27206435728E+02 -0.75956876188E+01 -0.14939686236E+02  0.31954324281E+02  0.00000000000E+00 0.  1.
</event>
<event>
 5    1  0.1102386E-009  0.9118800E+02  0.7818608E-02  0.1130116E+00
         25   -1    0    0    0    0  0.00000000000E+00  0.00000000000E+00  0.99999998245E-14  0.12500000000E+03  0.12500000000E+03 0.  0.
        -11    1    3    3    0    0  0.19767023777E+02 -0.25918717701E+02  0.20276452922E+01  0.32659248337E+02  0.51100000000E-03 0. -1.
         23    2    1    0    0    0 -0.24742050266E+02  0.17369029827E+02  0.84021940848E+00  0.94758336402E+02  0.89803029462E+02 0.  0.
         11    1    3    3    0    0 -0.44509074043E+02  0.43287747527E+02 -0.11874258837E+01  0.62099088066E+02  0.51100000000E-03 0.  1.
         22    1    1    0    0    0  0.24742050266E+02 -0.17369029827E+02 -0.84021940848E+00  0.30241663598E+02  0.00000000000E+00 0.  1.
</event>
<event>
 5    1  0.1102386E-009  0.9118800E+02  0.7818608E-02  0.1130116E+00
         25   -1    0    0    0    0  0.00000000000E+00  0.00000000000E+00  0.99999998245E-14  0.12500000000E+03  0.12500000000E+03 0.  0.
        -11    1    3    3    0    0 -0.10057473763E+02 -0.77686143583E+01 -0.45104749903E+02  0.46860885732E+02  0.51100000000E-03 0. -1.
         23    2    1    0    0    0  0.23582475580E+02  0.98679550016E+01 -0.14725098251E+02  0.95498504972E+02  0.90827453135E+02 0.  0.
         11    1    3    3    0    0  0.33639949343E+02  0.17636569360E+02  0.30379651652E+02  0.48637619240E+02  0.51100000000E-03 0.  1.
         22    1    1    0    0    0 -0.23582475580E+02 -0.98679550016E+01  0.14725098251E+02  0.29501495028E+02  0.00000000000E+00 0. -1.
</event>
<event>
 5    1  0.1102386E-009  0.9118800E+02  0.7818608E-02  0.1130116E+00
         25   -1    0    0    0    0  0.00000000000E+00  0.00000000000E+00  0.99999998245E-14  0.12500000000E+03  0.12500000000E+03 0.  0.
        -11    1    3    3    0    0 -0.33751347550E+02  0.15812181390E+02  0.16582319824E+00  0.37272054403E+02  0.51100000000E-03 0.  1.
         23    2    1    0    0    0  0.24945721699E+02  0.12830879319E+02  0.59339241884E+01  0.96327156551E+02  0.91960802181E+02 0.  0.
         11    1    3    3    0    0  0.58697069249E+02 -0.29813020718E+01  0.57681009902E+01  0.59055102149E+02  0.51100000000E-03 0. -1.
         22    1    1    0    0    0 -0.24945721699E+02 -0.12830879319E+02 -0.59339241884E+01  0.28672843449E+02  0.00000000000E+00 0. -1.
</event>
<event>
 5    1  0.1102386E-009  0.9118800E+02  0.7818608E-02  0.1130116E+00
         25   -1    0    0    0    0  0.00000000000E+00  0.00000000000E+00  0.99999998245E-14  0.12500000000E+03  0.12500000000E+03 0.  0.
        -11    1    3    3    0    0 -0.34013655553E+01 -0.29297152484E+02 -0.17319576001E+02  0.34203218334E+02  0.51100000000E-03 0. -1.
         23    2    1    0    0    0 -0.14088772841E+02  0.22044000344E+02  0.14043019142E+02  0.95307612795E+02  0.90564359429E+02 0.  0.
         11    1    3    3    0    0 -0.10687407285E+02  0.51341152827E+02  0.31362595143E+02  0.61104394461E+02  0.51100000000E-03 0.  1.
         22    1    1    0    0    0  0.14088772841E+02 -0.22044000344E+02 -0.14043019142E+02  0.29692387205E+02  0.00000000000E+00 0.  1.
</event>
<event>
 5    1  0.1102386E-009  0.9118800E+02  0.7818608E-02  0.1130116E+00
         25   -1    0    0    0    0  0.00000000000E+00  0.00000000000E+00  0.99999998245E-14  0.12500000000E+03  0.12500000000E+03 0.  0.
        -11    1    3    3    0    0 -0.30952312354E+02  0.21682168090E+02 -0.45753614132E+02  0.59342693396E+02  0.51100000000E-03 0.  1.
         23    2    1    0    0    0 -0.26171314440E+02  0.80030568851E+01 -0.13971467939E+02  0.94272349009E+02  0.89123999306E+02 0.  0.
         11    1    3    3    0    0  0.47809979136E+01 -0.13679111205E+02  0.31782146192E+02  0.34929655613E+02  0.51100000000E-03 0. -1.
         22    1    1    0    0    0  0.26171314440E+02 -0.80030568851E+01  0.13971467939E+02  0.30727650991E+02  0.00000000000E+00 0.  1.
</event>
<event>
 5    1  0.1102386E-009  0.9118800E+02  0.7818608E-02  0.1130116E+00
         25   -1    0    0    0    0  0.00000000000E+00  0.00000000000E+00  0.99999998245E-14  0.12500000000E+03  0.12500000000E+03 0.  0.
        -11    1    3    3    0    0 -0.20579445833E+01  0.34028764981E+02 -0.10932375609E+02  0.35800961143E+02  0.51100000000E-03 0. -1.
         23    2    1    0    0    0  0.58437960533E+01 -0.10938872786E+02  0.27083168330E+02  0.95212302927E+02  0.90432713836E+02 0.  0.
         11    1    3    3    0    0  0.79017406366E+01 -0.44967637767E+02  0.38015543938E+02  0.59411341784E+02  0.51100000000E-03 0.  1.
         22    1    1    0    0    0 -0.58437960533E+01  0.10938872786E+02 -0.27083168330E+02  0.29787697073E+02  0.00000000000E+00 0. -1.
</event>
<event>
 5    1  0.1102386E-009  0.9118800E+02  0.7818608E-02  0.1130116E+00
         25   -1    0    0    0    0  0.00000000000E+00  0.00000000000E+00  0.99999998245E-14  0.12500000000E+03  0.12500000000E+03 0.  0.
        -11    1    3    3    0    0  0.38938981612E+02 -0.19479795603E+01  0.38810915540E+01  0.39180375002E+02  0.51100000000E-03 0. -1.
         23    2    1    0    0    0 -0.13033319363E+02 -0.17952891479E+02 -0.16601877152E+02  0.97290867010E+02  0.93261550236E+02 0.  0.
         11    1    3    3    0    0 -0.51972300975E+02 -0.16004911918E+02 -0.20482968706E+02  0.58110492008E+02  0.51100000000E-03 0.  1.
         22    1    1    0    0    0  0.13033319363E+02  0.17952891479E+02  0.16601877152E+02  0.27709132990E+02  0.00000000000E+00 0.  1.
</event>
<event>
 5    1  0.1102386E-009  0.9118800E+02  0.7818608E-02  0.1130116E+00
         25   -1    0    0    0    0  0.00000000000E+00  0.00000000000E+00  0.99999998245E-14  0.12500000000E+03  0.12500000000E+03 0.  0.
        -11    1    3    3    0    0  0.32078393236E+02 -0.19106953605E+02 -0.17693856229E+02  0.41317932392E+02  0.51100000000E-03 0. -1.
         23    2    1    0    0    0  0.12335677637E+02  0.25902296253E+02  0.56988650781E+01  0.95749787058E+02  0.91172620696E+02 0.  0.
         11    1    3    3    0    0 -0.19742715598E+02  0.45009249858E+02  0.23392721307E+02  0.54431854666E+02  0.51100000000E-03 0.  1.
         22    1    1    0    0    0 -0.12335677637E+02 -0.25902296253E+02 -0.56988650781E+01  0.29250212942E+02  0.00000000000E+00 0.  1.
</event>
<event>
 5    1  0.1102386E-009  0.9118800E+02  0.7818608E-02  0.1130116E+00
         25   -1    0    0    0    0  0.00000000000E+00  0.00000000000E+00  0.99999998245E-14  0.12500000000E+03  0.12500000000E+03 0.  0.
        -11    1    3    3    0    0 -0.32956069994E+02 -0.19811531162E+02 -0.45586500614E+02  0.59638312811E+02  0.51100000000E-03 0. -1.
         23    2    1    0    0    0 -0.14716508357E+02 -0.23967518651E+02 -0.27977696581E+02  0.85329241569E+02  0.75546743095E+02 0.  0.
         11    1    3    3    0    0  0.18239561637E+02 -0.41559874896E+01  0.17608804033E+02  0.25690928759E+02  0.51100000000E-03 0.  1.
         22    1    1    0    0    0  0.14716508357E+02  0.23967518651E+02  0.27977696581E+02  0.39670758431E+02  0.00000000000E+00 0. -1.
</event>
<event>
 5    1  0.1102386E-009  0.9118800E+02  0.7818608E-02  0.1130116E+00
         25   -1    0    0    0    0  0.00000000000E+00  0.00000000000E+00  0.99999998245E-14  0.12500000000E+03  0.12500000000E+03 0.  0.
        -11    1    3    3    0    0 -0.80921701635E+01 -0.13907710170E+02 -0.40757853008E+02  0.43819062087E+02  0.51100000000E-03 0.  1.
         23    2    1    0    0    0  0.14198994863E+02  0.20538310869E+02 -0.25197139354E+01  0.99904529756E+02  0.96701253554E+02 0.  0.
         11    1    3    3    0    0  0.22291165027E+02  0.34446021039E+02  0.38238139072E+02  0.56085467669E+02  0.51100000000E-03 0. -1.
         22    1    1    0    0    0 -0.14198994863E+02 -0.20538310869E+02  0.25197139354E+01  0.25095470244E+02  0.00000000000E+00 0. -1.
</event>
<event>
 5    1  0.1102386E-009  0.9118800E+02  0.7818608E-02  0.1130116E+00
         25   -1    0    0    0    0  0.00000000000E+00  0.00000000000E+00  0.99999998245E-14  0.12500000000E+03  0.12500000000E+03 0.  0.
        -11    1    3    3    0    0  0.32893957022E+01 -0.21437674390E+02 -0.29450156171E+02  0.36574659343E+02  0.51100000000E-03 0.  1.
         23    2    1    0    0    0  0.32557516345E+01  0.26817733033E+02  0.70511709748E+01  0.97080298428E+02  0.92978893342E+02 0.  0.
         11    1    3    3    0    0 -0.33644067674E-01  0.48255407423E+02  0.36501327146E+02  0.60505639085E+02  0.51100000000E-03 0. -1.
         22    1    1    0    0    0 -0.32557516345E+01 -0.26817733033E+02 -0.70511709748E+01  0.27919701572E+02  0.00000000000E+00 0. -1.
</event>
<event>
 5    1  0.1102386E-009  0.9118800E+02  0.7818608E-02  0.1130116E+00
         25   -1    0    0    0    0  0.00000000000E+00  0.00000000000E+00  0.99999998245E-14  0.12500000000E+03  0.12500000000E+03 0.  0.
        -11    1    3    3    0    0  0.18264559589E+02  0.93142748882E-01 -0.30467302956E+02  0.35522659841E+02  0.51100000000E-03 0.  1.
         23    2    1    0    0    0 -0.30217459842E+02  0.21330993019E+01  0.31339888795E+01  0.94545659123E+02  0.89506506918E+02 0.  0.
         11    1    3    3    0    0 -0.48482019432E+02  0.20399565530E+01  0.33601291835E+02  0.59022999281E+02  0.51100000000E-03 0. -1.
         22    1    1    0    0    0  0.30217459842E+02 -0.21330993019E+01 -0.31339888795E+01  0.30454340877E+02  0.00000000000E+00 0. -1.
</event>
<event>
 5    1  0.1102386E-009  0.9118800E+02  0.7818608E-02  0.1130116E+00
         25   -1    0    0    0    0  0.00000000000E+00  0.00000000000E+00  0.99999998245E-14  0.12500000000E+03  0.12500000000E+03 0.  0.
        -11    1    3    3    0    0 -0.52089777708E+02 -0.26314625439E+02 -0.80129819492E+01  0.58906810588E+02  0.51100000000E-03 0. -1.
         23    2    1    0    0    0 -0.26759971721E+02 -0.70994320185E+01  0.10137806748E+02  0.95516561477E+02  0.90852299746E+02 0.  0.
         11    1    3    3    0    0  0.25329805987E+02  0.19215193421E+02  0.18150788697E+02  0.36609750889E+02  0.51100000000E-03 0.  1.
         22    1    1    0    0    0  0.26759971721E+02  0.70994320185E+01 -0.10137806748E+02  0.29483438523E+02  0.00000000000E+00 0. -1.
</event>
<event>
 5    1  0.1102386E-009  0.9118800E+02  0.7818608E-02  0.1130116E+00
         25   -1    0    0    0    0  0.00000000000E+00  0.00000000000E+00  0.99999998245E-14  0.12500000000E+03  0.12500000000E+03 0.  0.
        -11    1    3    3    0    0  0.17375068192E+02 -0.99480396784E+01  0.27245202779E+02  0.33810613169E+02  0.51100000000E-03 0.  1.
         23    2    1    0    0    0 -0.11722997896E+02  0.12631575120E+02 -0.23093811013E+02  0.96184908871E+02  0.91767244797E+02 0.  0.
         11    1    3    3    0    0 -0.29098066088E+02  0.22579614799E+02 -0.50339013792E+02  0.62374295702E+02  0.51100000000E-03 0. -1.
         22    1    1    0    0    0  0.11722997896E+02 -0.12631575120E+02  0.23093811013E+02  0.28815091129E+02  0.00000000000E+00 0. -1.
</event>
<event>
 5    1  0.1102386E-009  0.9118800E+02  0.7818608E-02  0.1130116E+00
         25   -1    0    0    0    0  0.00000000000E+00  0.00000000000E+00  0.99999998245E-14  0.12500000000E+03  0.12500000000E+03 0.  0.
        -11    1    3    3    0    0 -0.60903575348E+01  0.35252674644E+02  0.30710818454E+01  0.35906476692E+02  0.51100000000E-03 0.  1.
         23    2    1    0    0    0  0.84881880044E+01 -0.17712319655E+02  0.23370769562E+02  0.94471841309E+02  0.89403357471E+02 0.  0.
         11    1    3    3    0    0  0.14578545539E+02 -0.52964994298E+02  0.20299687717E+02  0.58565364617E+02  0.51100000000E-03 0. -1.
         22    1    1    0    0    0 -0.84881880044E+01  0.17712319655E+02 -0.23370769562E+02  0.30528158691E+02  0.00000000000E+00 0. -1.
</event>
<event>
 5    1  0.1102386E-009  0.9118800E+02  0.7818608E-02  0.1130116E+00
         25   -1    0    0    0    0  0.00000000000E+00  0.00000000000E+00  0.99999998245E-14  0.12500000000E+03  0.12500000000E+03 0.  0.
        -11    1    3    3    0    0 -0.66987770263E+00  0.48435034169E+02 -0.12987774419E+02  0.50150608727E+02  0.51100000000E-03 0. -1.
         23    2    1    0    0    0  0.58256505254E+01  0.19704919338E+02  0.21334567853E+02  0.95379300555E+02  0.90663251314E+02 0.  0.
         11    1    3    3    0    0  0.64955282280E+01 -0.28730114831E+02  0.34322342272E+02  0.45228691828E+02  0.51100000000E-03 0.  1.
         22    1    1    0    0    0 -0.58256505254E+01 -0.19704919338E+02 -0.21334567853E+02  0.29620699445E+02  0.00000000000E+00 0. -1.
</event>
<event>
 5    1  0.1102386E-009  0.9118800E+02  0.7818608E-02  0.1130116E+00
         25   -1    0    0    0    0  0.00000000000E+00  0.00000000000E+00  0.99999998245E-14  0.12500000000E+03  0.12500000000E+03 0.  0.
        -11    1    3    3    0    0  0.25408128316E+02 -0.24151914103E+02  0.39688409133E+02  0.52953354560E+02  0.51100000000E-03 0. -1.
         23    2    1    0    0    0  0.12658244388E+02  0.13346548005E+02  0.21979627861E+02  0.96338779936E+02  0.91976600198E+02 0.  0.
         11    1    3    3    0    0 -0.12749883928E+02  0.37498462108E+02 -0.17708781272E+02  0.43385425376E+02  0.51100000000E-03 0.  1.
         22    1    1    0    0    0 -0.12658244388E+02 -0.13346548005E+02 -0.21979627861E+02  0.28661220064E+02  0.00000000000E+00 0. -1.
</event>
<event>
 5    1  0.1102386E-009  0.9118800E+02  0.7818608E-02  0.1130116E+00
         25   -1    0    0    0    0  0.00000000000E+00  0.00000000000E+00  0.99999998245E-14  0.12500000000E+03  0.12500000000E+03 0.  0.
        -11    1    3    3    0    0 -0.31891176470E+01  0.31941089273E+02  0.13975428986E+02  0.35010230946E+02  0.51100000000E-03 0. -1.
         23    2    1    0    0    0 -0.66271025515E+01 -0.26056538479E+02 -0.77188011076E+01  0.97027842838E+02  0.92908345747E+02 0.  0.
         11    1    3    3    0    0 -0.34379849045E+01 -0.57997627753E+02 -0.21694230093E+02  0.62017611892E+02  0.51100000000E-03 0.  1.
         22    1    1    0    0    0  0.66271025515E+01  0.26056538479E+02  0.77188011076E+01  0.27972157162E+02  0.00000000000E+00 0.  1.
</event>
<event>
 5    1  0.1102386E-009  0.9118800E+02  0.7818608E-02  0.1130116E+00
         25   -1    0    0    0    0  0.00000000000E+00  0.00000000000E+00  0.99999998245E-14  0.12500000000E+03  0.12500000000E+03 0.  0.
        -11    1    3    3    0    0 -0.24707670822E+02 -0.76436069156E+01 -0.38783327636E+02  0.46615879557E+02  0.51100000000E-03 0. -1.
         23    2    1    0    0    0 -0.71895730733E+01  0.26957402042E+02 -0.84607936407E+01  0.95845643295E+02  0.91303947471E+02 0.  0.
         11    1    3    3    0    0  0.17518097748E+02  0.34601008958E+02  0.30322533995E+02  0.49229763738E+02  0.51100000000E-03 0.  1.
         22    1    1    0    0    0  0.71895730733E+01 -0.26957402042E+02  0.84607936407E+01  0.29154356705E+02  0.00000000000E+00 0.  1.
</event>
<event>
 5    1  0.1102386E-009  0.9118800E+02  0.7818608E-02  0.1130116E+00
         25   -1    0    0    0    0  0.00000000000E+00  0.00000000000E+00  0.99999998245E-14  0.12500000000E+03  0.12500000000E+03 0.  0.
        -11    1    3    3    0    0 -0.50176543951E+01  0.11382950966E+02 -0.38834445323E+02  0.40778211979E+02  0.51100000000E-03 0. -1.
         23    2    1    0    0    0  0.25002494205E+02  0.12086547036E+02  0.77193766170E+01  0.96176431326E+02  0.91755696453E+02 0.  0.
         11    1    3    3    0    0  0.30020148600E+02  0.70359607014E+00  0.46553821940E+02  0.55398219348E+02  0.51100000000E-03 0.  1.
         22    1    1    0    0    0 -0.25002494205E+02 -0.12086547036E+02 -0.77193766170E+01  0.28823568674E+02  0.00000000000E+00 0.  1.
</event>
<event>
 5    1  0.1102386E-009  0.9118800E+02  0.7818608E-02  0.1130116E+00
         25   -1    0    0    0    0  0.00000000000E+00  0.00000000000E+00  0.99999998245E-14  0.12500000000E+03  0.12500000000E+03 0.  0.
        -11    1    3    3    0    0  0.28718141082E+02 -0.49885777676E+02 -0.85605671513E+01  0.58194550877E+02  0.51100000000E-03 0. -1.
         23    2    1    0    0    0  0.12130857422E+02 -0.25180835323E+02  0.12225829485E+02  0.94492573429E+02  0.89432339550E+02 0.  0.
         11    1    3    3    0    0 -0.16587283660E+02  0.24704942353E+02  0.20786396636E+02  0.36298022553E+02  0.51100000000E-03 0.  1.
         22    1    1    0    0    0 -0.12130857422E+02  0.25180835323E+02 -0.12225829485E+02  0.30507426571E+02  0.00000000000E+00 0. -1.
</event>
<event>
 5    1  0.1102386E-009  0.9118800E+02  0.7818608E-02  0.1130116E+00
         25   -1    0    0    0    0  0.00000000000E+00  0.00000000000E+00  0.99999998245E-14  0.12500000000E+03  0.12500000000E+03 0.  0.
        -11    1    3    3    0    0  0.99897857544E+01 -0.29504790037E+02  0.46103338171E+02  0.55640329306E+02  0.51100000000E-03 0.  1.
         23    2    1    0    0    0  0.30748863551E+01  0.64719572322E+01  0.27213758888E+02  0.96858752172E+02  0.92680569932E+02 0.  0.
         11    1    3    3    0    0 -0.69148993994E+01  0.35976747269E+02 -0.18889579283E+02  0.41218422866E+02  0.51100000000E-03 0. -1.
         22    1    1    0    0    0 -0.30748863551E+01 -0.64719572322E+01 -0.27213758888E+02  0.28141247828E+02  0.00000000000E+00 0.  1.
</event>
<event>
 5    1  0.1102386E-009  0.9118800E+02  0.7818608E-02  0.1130116E+00
         25   -1    0    0    0    0  0.00000000000E+00  0.00000000000E+00  0.99999998245E-14  0.12500000000E+03  0.12500000000E+03 0.  0.
        -11    1    3    3    0    0 -0.25958808617E+02  0.22871097386E+02 -0.12859932177E+02  0.36909682961E+02  0.51100000000E-03 0. -1.
         23    2    1    0    0    0  0.21178566106E+02 -0.11641132132E+02 -0.16961747749E+02  0.95474612512E+02  0.90794565520E+02 0.  0.
         11    1    3    3    0    0  0.47137374723E+02 -0.34512229517E+02 -0.41018155713E+01  0.58564929551E+02  0.51100000000E-03 0.  1.
         22    1    1    0    0    0 -0.21178566106E+02  0.11641132132E+02  0.16961747749E+02  0.29525387488E+02  0.00000000000E+00 0.  1.
</event>
<event>
 5    1  0.1102386E-009  0.9118800E+02  0.7818608E-02  0.1130116E+00
         25   -1    0    0    0    0  0.00000000000E+00  0.00000000000E+00  0.99999998245E-14  0.12500000000E+03  0.12500000000E+03 0.  0.
        -11    1    3    3    0    0  0.37182285403E+02  0.18838788424E+02  0.26269410837E+02  0.49269709183E+02  0.51100000000E-03 0.  1.
         23    2    1    0    0    0  0.11550462208E+02 -0.19515349967E+02  0.17799629120E+02  0.96171388200E+02  0.91748825877E+02 0.  0.
         11    1    3    3    0    0 -0.25631823194E+02 -0.38354138390E+02 -0.84697817171E+01  0.46901679016E+02  0.51100000000E-03 0. -1.
         22    1    1    0    0    0 -0.11550462208E+02  0.19515349967E+02 -0.17799629120E+02  0.28828611800E+02  0.00000000000E+00 0.  1.
</event>
<event>
 5    1  0.1102386E-009  0.9118800E+02  0.7818608E-02  0.1130116E+00
         25   -1    0    0    0    0  0.00000000000E+00  0.00000000000E+00  0.99999998245E-14  0.12500000000E+03  0.12500000000E+03 0.  0.
        -11    1    3    3    0    0  0.31034641812E+02  0.17383155633E+02 -0.30698081337E+02  0.46986118058E+02  0.51100000000E-03 0.  1.
         23    2    1    0    0    0 -0.13989351596E+01  0.28342311129E+02  0.47062715860E+01  0.96235566893E+02  0.91836222283E+02 0.  0.
         11    1    3    3    0    0 -0.32433576972E+02  0.10959155496E+02  0.35404352923E+02  0.49249448835E+02  0.51100000000E-03 0. -1.
         22    1    1    0    0    0  0.13989351596E+01 -0.28342311129E+02 -0.47062715860E+01  0.28764433107E+02  0.00000000000E+00 0. -1.
</event>
<event>
 5    1  0.1102386E-009  0.9118800E+02  0.7818608E-02  0.1130116E+00
         25   -1    0    0    0    0  0.00000000000E+00  0.00000000000E+00  0.99999998245E-14  0.12500000000E+03  0.12500000000E+03 0.  0.
        -11    1    3    3    0    0 -0.38109708911E+02 -0.39302675981E+02  0.16710529934E+01  0.54770819520E+02  0.51100000000E-03 0.  1.
         23    2    1    0    0    0 -0.10594061032E+02 -0.19013396309E+02 -0.20158762976E+02  0.95333198806E+02  0.90599667226E+02 0.  0.
         11    1    3    3    0    0  0.27515647880E+02  0.20289279671E+02 -0.21829815969E+02  0.40562379286E+02  0.51100000000E-03 0. -1.
         22    1    1    0    0    0  0.10594061032E+02  0.19013396309E+02  0.20158762976E+02  0.29666801194E+02  0.00000000000E+00 0.  1.
</event>
<event>
 5    1  0.1102386E-009  0.9118800E+02  0.7818608E-02  0.1130116E+00
         25   -1    0    0    0    0  0.00000000000E+00  0.00000000000E+00  0.99999998245E-14  0.12500000000E+03  0.12500000000E+03 0.  0.
        -11    1    3    3    0    0  0.79194203193E+01 -0.40821151783E+01 -0.30720564120E+02  0.31986464991E+02  0.51100000000E-03 0.  1.
         23    2    1    0    0    0  0.15097056114E+02  0.25845445793E+02  0.18336485708E+02  0.89898221133E+02  0.82762040110E+02 0.  0.
         11    1    3    3    0    0  0.71776357944E+01  0.29927560971E+02  0.49057049828E+02  0.57911756141E+02  0.51100000000E-03 0. -1.
         22    1    1    0    0    0 -0.15097056114E+02 -0.25845445793E+02 -0.18336485708E+02  0.35101778867E+02  0.00000000000E+00 0. -1.
</event>
<event>
 5    1  0.1102386E-009  0.9118800E+02  0.7818608E-02  0.1130116E+00
         25   -1    0    0    0    0  0.00000000000E+00  0.00000000000E+00  0.99999998245E-14  0.12500000000E+03  0.12500000000E+03 0.  0.
        -11    1    3    3    0    0  0.27419167564E+02  0.10285440580E+02 -0.25157119849E+02  0.38606757403E+02  0.51100000000E-03 0. -1.
         23    2    1    0    0    0 -0.26961346297E+02  0.82307157550E+01 -0.98679059905E+01  0.95133054314E+02  0.90323106559E+02 0.  0.
         11    1    3    3    0    0 -0.54380513860E+02 -0.20547248251E+01  0.15289213858E+02  0.56526296911E+02  0.51100000000E-03 0.  1.
         22    1    1    0    0    0  0.26961346297E+02 -0.82307157550E+01  0.98679059905E+01  0.29866945686E+02  0.00000000000E+00 0.  1.
</event>
<event>
 5    1  0.1102386E-009  0.9118800E+02  0.7818608E-02  0.1130116E+00
         25   -1    0    0    0    0  0.00000000000E+00  0.00000000000E+00  0.99999998245E-14  0.12500000000E+03  0.12500000000E+03 0.  0.
        -11    1    3    3    0    0  0.29470230012E+01 -0.38722971960E+02 -0.40994216662E+02  0.56468392061E+02  0.51100000000E-03 0. -1.
         23    2    1    0    0    0  0.19917134884E+02 -0.17105557121E+02 -0.12980652906E+02  0.95711953014E+02  0.91120734488E+02 0.  0.
         11    1    3    3    0    0  0.16970111883E+02  0.21617414840E+02  0.28013563756E+02  0.39243560953E+02  0.51100000000E-03 0.  1.
         22    1    1    0    0    0 -0.19917134884E+02  0.17105557121E+02  0.12980652906E+02  0.29288046986E+02  0.00000000000E+00 0. -1.
</event>
<event>
 5    1  0.1102386E-009  0.9118800E+02  0.7818608E-02  0.1130116E+00
         25   -1    0    0    0    0  0.00000000000E+00  0.00000000000E+00  0.99999998245E-14  0.12500000000E+03  0.12500000000E+03 0.  0.
        -11    1    3    3    0    0  0.18765762486E+02  0.39687475052E+02 -0.16912248115E+02  0.47045442439E+02  0.51100000000E-03 0.  1.
         23    2    1    0    0    0  0.11199920903E+02 -0.63081282565E+01 -0.27320131893E+02  0.94806949194E+02  0.89870669846E+02 0.  0.
         11    1    3    3    0    0 -0.75658415834E+01 -0.45995603308E+02 -0.10407883777E+02  0.47761506755E+02  0.51100000000E-03 0. -1.
         22    1    1    0    0    0 -0.11199920903E+02  0.63081282565E+01  0.27320131893E+02  0.30193050806E+02  0.00000000000E+00 0. -1.
</event>
<event>
 5    1  0.1102386E-009  0.9118800E+02  0.7818608E-02  0.1130116E+00
         25   -1    0    0    0    0  0.00000000000E+00  0.00000000000E+00  0.99999998245E-14  0.12500000000E+03  0.12500000000E+03 0.  0.
        -11    1    3    3    0    0 -0.15100781743E+02  0.52309856818E+02  0.34480874449E+01  0.54554963448E+02  0.51100000000E-03 0. -1.
         23    2    1    0    0    0 -0.24348401792E+02  0.12904234764E+02 -0.74144525783E+01  0.96463391026E+02  0.92145796196E+02 0.  0.
         11    1    3    3    0    0 -0.92476200490E+01 -0.39405622054E+02 -0.10862540023E+02  0.41908427578E+02  0.51100000000E-03 0.  1.
         22    1    1    0    0    0  0.24348401792E+02 -0.12904234764E+02  0.74144525783E+01  0.28536608974E+02  0.00000000000E+00 0. -1.
</event>
<event>
 5    1  0.1102386E-009  0.9118800E+02  0.7818608E-02  0.1130116E+00
         25   -1    0    0    0    0  0.00000000000E+00  0.00000000000E+00  0.99999998245E-14  0.12500000000E+03  0.12500000000E+03 0.  0.
        -11    1    3    3    0    0 -0.12003780789E+02 -0.33086390101E+02 -0.34382197462E+01  0.35364124737E+02  0.51100000000E-03 0. -1.
         23    2    1    0    0    0  0.96495593600E+01  0.21200705865E+02 -0.17959159422E+02  0.95587157020E+02  0.90949377431E+02 0.  0.
         11    1    3    3    0    0  0.21653340149E+02  0.54287095966E+02 -0.14520939676E+02  0.60223032283E+02  0.51100000000E-03 0.  1.
         22    1    1    0    0    0 -0.96495593600E+01 -0.21200705865E+02  0.17959159422E+02  0.29412842980E+02  0.00000000000E+00 0.  1.
</event>
<event>
 5    1  0.1102386E-009  0.9118800E+02  0.7818608E-02  0.1130116E+00
         25   -1    0    0    0    0  0.00000000000E+00  0.00000000000E+00  0.99999998245E-14  0.12500000000E+03  0.12500000000E+03 0.  0.
        -11    1    3    3    0    0  0.40941648173E+02  0.86167416922E+01  0.37668275573E+02  0.56297120507E+02  0.51100000000E-03 0. -1.
         23    2    1    0    0    0  0.22162796315E+02  0.20557083271E+02  0.73770548808E+01  0.93884020956E+02  0.88577679124E+02 0.  0.
         11    1    3    3    0    0 -0.18778851857E+02  0.11940341579E+02 -0.30291220692E+02  0.37586900449E+02  0.51100000000E-03 0.  1.
         22    1    1    0    0    0 -0.22162796315E+02 -0.20557083271E+02 -0.73770548808E+01  0.31115979044E+02  0.00000000000E+00 0. -1.
</event>
<event>
 5    1  0.1102386E-009  0.9118800E+02  0.7818608E-02  0.1130116E+00
         25   -1    0    0    0    0  0.00000000000E+00  0.00000000000E+00  0.99999998245E-14  0.12500000000E+03  0.12500000000E+03 0.  0.
        -11    1    3    3    0    0 -0.34592502088E+02  0.49844450694E+01  0.75888143679E+01  0.35764171976E+02  0.51100000000E-03 0. -1.
         23    2    1    0    0    0  0.13044283285E+02 -0.21555155344E+02 -0.15973980479E+02  0.95168035588E+02  0.90371504895E+02 0.  0.
         11    1    3    3    0    0  0.47636785373E+02 -0.26539600413E+02 -0.23562794847E+02  0.59403863612E+02  0.51100000000E-03 0.  1.
         22    1    1    0    0    0 -0.13044283285E+02  0.21555155344E+02  0.15973980479E+02  0.29831964412E+02  0.00000000000E+00 0.  1.
</event>
<event>
 5    1  0.1102386E-009  0.9118800E+02  0.7818608E-02  0.1130116E+00
         25   -1    0    0    0    0  0.00000000000E+00  0.00000000000E+00  0.99999998245E-14  0.12500000000E+03  0.12500000000E+03 0.  0.
        -11    1    3    3    0    0 -0.21923783335E+02 -0.33491741138E+02  0.10497145778E+02  0.41382835451E+02  0.51100000000E-03 0.  1.
         23    2    1    0    0    0  0.77894233972E+01 -0.77452513944E+01 -0.27085196330E+02  0.95772069929E+02  0.91203165966E+02 0.  0.
         11    1    3    3    0    0  0.29713206733E+02  0.25746489744E+02 -0.37582342108E+02  0.54389234478E+02  0.51100000000E-03 0. -1.
         22    1    1    0    0    0 -0.77894233972E+01  0.77452513944E+01  0.27085196330E+02  0.29227930071E+02  0.00000000000E+00 0. -1.
</event>
<event>
 5    1  0.1102386E-009  0.9118800E+02  0.7818608E-02  0.1130116E+00
         25   -1    0    0    0    0  0.00000000000E+00  0.00000000000E+00  0.99999998245E-14  0.12500000000E+03  0.12500000000E+03 0.  0.
        -11    1    3    3    0    0  0.94631833524E+01 -0.28458851050E+02 -0.27210445317E+02  0.40495263635E+02  0.51100000000E-03 0. -1.
         23    2    1    0    0    0 -0.26083956118E+02 -0.92178072115E+01  0.10144869426E+02  0.95533763182E+02  0.90875963793E+02 0.  0.
         11    1    3    3    0    0 -0.35547139471E+02  0.19241043838E+02  0.37355314743E+02  0.55038499547E+02  0.51100000000E-03 0.  1.
         22    1    1    0    0    0  0.26083956118E+02  0.92178072115E+01 -0.10144869426E+02  0.29466236818E+02  0.00000000000E+00 0.  1.
</event>
<event>
 5    1  0.1102386E-009  0.9118800E+02  0.7818608E-02  0.1130116E+00
         25   -1    0    0    0    0  0.00000000000E+00  0.00000000000E+00  0.99999998245E-14  0.12500000000E+03  0.12500000000E+03 0.  0.
        -11    1    3    3    0    0 -0.53131931553E+01 -0.33184641097E+01 -0.34830365129E+02  0.35389215318E+02  0.51100000000E-03 0. -1.
         23    2    1    0    0    0  0.11477843910E+02 -0.19767655317E+02  0.19734371226E+02  0.94801547967E+02  0.89863157031E+02 0.  0.
         11    1    3    3    0    0  0.16791037065E+02 -0.16449191207E+02  0.54564736354E+02  0.59412332649E+02  0.51100000000E-03 0.  1.
         22    1    1    0    0    0 -0.11477843910E+02  0.19767655317E+02 -0.19734371226E+02  0.30198452033E+02  0.00000000000E+00 0.  1.
</event>
<event>
 5    1  0.1102386E-009  0.9118800E+02  0.7818608E-02  0.1130116E+00
         25   -1    0    0    0    0  0.00000000000E+00  0.00000000000E+00  0.99999998245E-14  0.12500000000E+03  0.12500000000E+03 0.  0.
        -11    1    3    3    0    0  0.11569836030E+02  0.10856997168E+02  0.59649248434E+02  0.61723320813E+02  0.51100000000E-03 0.  1.
         23    2    1    0    0    0  0.16072628865E+01 -0.87610136666E-02  0.31141238193E+02  0.93817311101E+02  0.88483488716E+02 0.  0.
         11    1    3    3    0    0 -0.99625731432E+01 -0.10865758181E+02 -0.28508010240E+02  0.32093990288E+02  0.51100000000E-03 0. -1.
         22    1    1    0    0    0 -0.16072628865E+01  0.87610136666E-02 -0.31141238193E+02  0.31182688899E+02  0.00000000000E+00 0.  1.
</event>
<event>
 5    1  0.1102386E-009  0.9118800E+02  0.7818608E-02  0.1130116E+00
         25   -1    0    0    0    0  0.00000000000E+00  0.00000000000E+00  0.99999998245E-14  0.12500000000E+03  0.12500000000E+03 0.  0.
        -11    1    3    3    0    0  0.12208618095E+01 -0.28904386136E+02  0.30152302954E+02  0.41786545863E+02  0.51100000000E-03 0. -1.
         23    2    1    0    0    0 -0.22373358984E+02  0.15537293541E+02  0.10925947826E+02  0.95651217765E+02  0.91037379362E+02 0.  0.
         11    1    3    3    0    0 -0.23594220793E+02  0.44441679677E+02 -0.19226355128E+02  0.53864671902E+02  0.51100000000E-03 0.  1.
         22    1    1    0    0    0  0.22373358984E+02 -0.15537293541E+02 -0.10925947826E+02  0.29348782235E+02  0.00000000000E+00 0.  1.
</event>
<event>
 5    1  0.1102386E-009  0.9118800E+02  0.7818608E-02  0.1130116E+00
         25   -1    0    0    0    0  0.00000000000E+00  0.00000000000E+00  0.99999998245E-14  0.12500000000E+03  0.12500000000E+03 0.  0.
        -11    1    3    3    0    0  0.21336425368E+02  0.30519464422E+02  0.23702943527E+02  0.44141933443E+02  0.51100000000E-03 0. -1.
         23    2    1    0    0    0  0.23233733723E+01 -0.17058546944E+02  0.24103144133E+02  0.95379843944E+02  0.90664000497E+02 0.  0.
         11    1    3    3    0    0 -0.19013051995E+02 -0.47578011366E+02  0.40020060634E+00  0.51237910501E+02  0.51100000000E-03 0.  1.
         22    1    1    0    0    0 -0.23233733723E+01  0.17058546944E+02 -0.24103144133E+02  0.29620156056E+02  0.00000000000E+00 0. -1.
</event>
<event>
 5    1  0.1102386E-009  0.9118800E+02  0.7818608E-02  0.1130116E+00
         25   -1    0    0    0    0  0.00000000000E+00  0.00000000000E+00  0.99999998245E-14  0.12500000000E+03  0.12500000000E+03 0.  0.
        -11    1    3    3    0    0  0.99538442312E+01 -0.45861305638E+02 -0.58688169035E+01  0.47294623181E+02  0.51100000000E-03 0.  1.
         23    2    1    0    0    0 -0.25569106599E+02 -0.21577245908E+02 -0.87399566897E+01  0.90420474322E+02  0.83547103962E+02 0.  0.
         11    1    3    3    0    0 -0.35522950830E+02  0.24284059730E+02 -0.28711397862E+01  0.43125851140E+02  0.51100000000E-03 0. -1.
         22    1    1    0    0    0  0.25569106599E+02  0.21577245908E+02  0.87399566897E+01  0.34579525678E+02  0.00000000000E+00 0.  1.
</event>
<event>
 5    1  0.1102386E-009  0.9118800E+02  0.7818608E-02  0.1130116E+00
         25   -1    0    0    0    0  0.00000000000E+00  0.00000000000E+00  0.99999998245E-14  0.12500000000E+03  0.12500000000E+03 0.  0.
        -11    1    3    3    0    0  0.21696859651E+01  0.31706426235E+02 -0.13444813024E+02  0.34507506420E+02  0.51100000000E-03 0.  1.
         23    2    1    0    0    0  0.59100046094E+01 -0.20276539919E+02  0.19574004365E+02  0.96204030274E+02  0.91793287165E+02 0.  0.
         11    1    3    3    0    0  0.37403186442E+01 -0.51982966154E+02  0.33018817389E+02  0.61696523855E+02  0.51100000000E-03 0. -1.
         22    1    1    0    0    0 -0.59100046094E+01  0.20276539919E+02 -0.19574004365E+02  0.28795969726E+02  0.00000000000E+00 0. -1.
</event>
<event>
 4    1  0.1102386E-009  0.9118800E+02  0.7818608E-02  0.1130116E+00
         25   -1    0    0    0    0  0.00000000000E+00  0.00000000000E+00  0.99999998245E-14  0.12500000000E+03  0.12500000000E+03 0.  0.
        -11    1    1    0    0    0 -0.85657393391E+00 -0.51041809368E+02  0.29229297561E+02  0.58824755492E+02  0.51100000000E-03 0. -1.
         11    1    1    0    0    0 -0.17020262237E+01  0.84988442123E+00 -0.13327231687E+02  0.13462328978E+02  0.51100000000E-03 0.  1.
         22    1    1    0    0    0  0.25586001576E+01  0.50191924947E+02 -0.15902065874E+02  0.52712915530E+02  0.00000000000E+00 0. -1.
</event>
<event>
 5    1  0.1102386E-009  0.9118800E+02  0.7818608E-02  0.1130116E+00
         25   -1    0    0    0    0  0.00000000000E+00  0.00000000000E+00  0.99999998245E-14  0.12500000000E+03  0.12500000000E+03 0.  0.
        -11    1    3    3    0    0  0.39488418305E+01  0.43822102778E+02  0.39116713131E+01  0.44173195678E+02  0.51100000000E-03 0.  1.
         23    2    1    0    0    0 -0.16201880219E+02  0.72100913350E+01 -0.24534901478E+02  0.94727112291E+02  0.89759556999E+02 0.  0.
         11    1    3    3    0    0 -0.20150722050E+02 -0.36612011443E+02 -0.28446572792E+02  0.50553916613E+02  0.51100000000E-03 0. -1.
         22    1    1    0    0    0  0.16201880219E+02 -0.72100913350E+01  0.24534901478E+02  0.30272887709E+02  0.00000000000E+00 0. -1.
</event>
<event>
 5    1  0.1102386E-009  0.9118800E+02  0.7818608E-02  0.1130116E+00
         25   -1    0    0    0    0  0.00000000000E+00  0.00000000000E+00  0.99999998245E-14  0.12500000000E+03  0.12500000000E+03 0.  0.
        -11    1    3    3    0    0 -0.28699596940E+02 -0.34809746069E+02  0.15980834529E+02  0.47862013731E+02  0.51100000000E-03 0.  1.
         23    2    1    0    0    0  0.16627547900E+02 -0.21588377931E+02  0.11936102821E+02  0.95250983858E+02  0.90486164492E+02 0.  0.
         11    1    3    3    0    0  0.45327144840E+02  0.13221368138E+02 -0.40447317082E+01  0.47388970127E+02  0.51100000000E-03 0. -1.
         22    1    1    0    0    0 -0.16627547900E+02  0.21588377931E+02 -0.11936102821E+02  0.29749016142E+02  0.00000000000E+00 0.  1.
</event>
<event>
 5    1  0.1102386E-009  0.9118800E+02  0.7818608E-02  0.1130116E+00
         25   -1    0    0    0    0  0.00000000000E+00  0.00000000000E+00  0.99999998245E-14  0.12500000000E+03  0.12500000000E+03 0.  0.
        -11    1    3    3    0    0 -0.25689323375E+02 -0.19640665625E+02 -0.11471407875E+02  0.34311663915E+02  0.51100000000E-03 0. -1.
         23    2    1    0    0    0  0.16356450087E+02  0.11853850500E+02  0.20832139945E+02  0.95982328043E+02  0.91490884851E+02 0.  0.
         11    1    3    3    0    0  0.42045773462E+02  0.31494516126E+02  0.32303547820E+02  0.61670664128E+02  0.51100000000E-03 0.  1.
         22    1    1    0    0    0 -0.16356450087E+02 -0.11853850500E+02 -0.20832139945E+02  0.29017671957E+02  0.00000000000E+00 0.  1.
</event>
<event>
 5    1  0.1102386E-009  0.9118800E+02  0.7818608E-02  0.1130116E+00
         25   -1    0    0    0    0  0.00000000000E+00  0.00000000000E+00  0.99999998245E-14  0.12500000000E+03  0.12500000000E+03 0.  0.
        -11    1    3    3    0    0  0.28350334709E+02 -0.29709527352E+02  0.42104516924E+02  0.58814860700E+02  0.51100000000E-03 0. -1.
         23    2    1    0    0    0  0.86745335491E+01 -0.25549424784E+02  0.10983687647E+02  0.95868195500E+02  0.91334817430E+02 0.  0.
         11    1    3    3    0    0 -0.19675801159E+02  0.41601025676E+01 -0.31120829277E+02  0.37053334799E+02  0.51100000000E-03 0.  1.
         22    1    1    0    0    0 -0.86745335491E+01  0.25549424784E+02 -0.10983687647E+02  0.29131804500E+02  0.00000000000E+00 0. -1.
</event>
<event>
 5    1  0.1102386E-009  0.9118800E+02  0.7818608E-02  0.1130116E+00
         25   -1    0    0    0    0  0.00000000000E+00  0.00000000000E+00  0.99999998245E-14  0.12500000000E+03  0.12500000000E+03 0.  0.
        -11    1    3    3    0    0 -0.18575698821E+02  0.71019614637E+01  0.28592301458E+02  0.34828352620E+02  0.51100000000E-03 0. -1.
         23    2    1    0    0    0  0.19469505748E+02 -0.15681407117E+02 -0.14027355820E+02  0.96334081306E+02  0.91970214345E+02 0.  0.
         11    1    3    3    0    0  0.38045204569E+02 -0.22783368581E+02 -0.42619657278E+02  0.61505728687E+02  0.51100000000E-03 0.  1.
         22    1    1    0    0    0 -0.19469505748E+02  0.15681407117E+02  0.14027355820E+02  0.28665918694E+02  0.00000000000E+00 0.  1.
</event>
<event>
 5    1  0.1102386E-009  0.9118800E+02  0.7818608E-02  0.1130116E+00
         25   -1    0    0    0    0  0.00000000000E+00  0.00000000000E+00  0.99999998245E-14  0.12500000000E+03  0.12500000000E+03 0.  0.
        -11    1    3    3    0    0  0.50284973178E+01 -0.10038327422E+02  0.27951158236E+02  0.30121770361E+02  0.51100000000E-03 0. -1.
         23    2    1    0    0    0  0.22508010669E+02 -0.28142694127E+02 -0.19641660471E+02  0.83958355259E+02  0.73243353383E+02 0.  0.
         11    1    3    3    0    0  0.17479513351E+02 -0.18104366705E+02 -0.47592818707E+02  0.53836584898E+02  0.51100000000E-03 0.  1.
         22    1    1    0    0    0 -0.22508010669E+02  0.28142694127E+02  0.19641660471E+02  0.41041644741E+02  0.00000000000E+00 0.  1.
</event>
<event>
 5    1  0.1102386E-009  0.9118800E+02  0.7818608E-02  0.1130116E+00
         25   -1    0    0    0    0  0.00000000000E+00  0.00000000000E+00  0.99999998245E-14  0.12500000000E+03  0.12500000000E+03 0.  0.
        -11    1    3    3    0    0  0.23082689836E+02 -0.18924169562E+02  0.17537518719E+02  0.34619349022E+02  0.51100000000E-03 0. -1.
         23    2    1    0    0    0 -0.17401525492E+02  0.23028589011E+02 -0.18956774195E+01  0.96073842389E+02  0.91615831586E+02 0.  0.
         11    1    3    3    0    0 -0.40484215327E+02  0.41952758573E+02 -0.19433196138E+02  0.61454493367E+02  0.51100000000E-03 0.  1.
         22    1    1    0    0    0  0.17401525492E+02 -0.23028589011E+02  0.18956774195E+01  0.28926157611E+02  0.00000000000E+00 0.  1.
</event>
<event>
 5    1  0.1102386E-009  0.9118800E+02  0.7818608E-02  0.1130116E+00
         25   -1    0    0    0    0  0.00000000000E+00  0.00000000000E+00  0.99999998245E-14  0.12500000000E+03  0.12500000000E+03 0.  0.
        -11    1    3    3    0    0  0.22067544338E+02  0.23593205073E+01  0.56913283056E+02  0.61087352986E+02  0.51100000000E-03 0. -1.
         23    2    1    0    0    0  0.97758857951E+01  0.10269896226E+02  0.23569391796E+02  0.97494456174E+02  0.93534026127E+02 0.  0.
         11    1    3    3    0    0 -0.12291658543E+02  0.79105757183E+01 -0.33343891260E+02  0.36407103188E+02  0.51100000000E-03 0.  1.
         22    1    1    0    0    0 -0.97758857951E+01 -0.10269896226E+02 -0.23569391796E+02  0.27505543826E+02  0.00000000000E+00 0. -1.
</event>
<event>
 5    1  0.1102386E-009  0.9118800E+02  0.7818608E-02  0.1130116E+00
         25   -1    0    0    0    0  0.00000000000E+00  0.00000000000E+00  0.99999998245E-14  0.12500000000E+03  0.12500000000E+03 0.  0.
        -11    1    3    3    0    0  0.17319688746E+02  0.51837280531E+02  0.25240948721E+02  0.60201169122E+02  0.51100000000E-03 0.  1.
         23    2    1    0    0    0 -0.30817184064E+01  0.28525111896E+02  0.11516287067E+02  0.94083922227E+02  0.88859330162E+02 0.  0.
         11    1    3    3    0    0 -0.20401407152E+02 -0.23312168635E+02 -0.13724661653E+02  0.33882753105E+02  0.51100000000E-03 0. -1.
         22    1    1    0    0    0  0.30817184064E+01 -0.28525111896E+02 -0.11516287067E+02  0.30916077773E+02  0.00000000000E+00 0.  1.
</event>
<event>
 5    1  0.1102386E-009  0.9118800E+02  0.7818608E-02  0.1130116E+00
         25   -1    0    0    0    0  0.00000000000E+00  0.00000000000E+00  0.99999998245E-14  0.12500000000E+03  0.12500000000E+03 0.  0.
        -11    1    3    3    0    0  0.10346723926E+02 -0.48706834361E+02 -0.10727773682E+02  0.50936190846E+02  0.51100000000E-03 0.  1.
         23    2    1    0    0    0 -0.21727660769E+02 -0.19043135471E+02 -0.93005732696E+01  0.94648181040E+02  0.89649569212E+02 0.  0.
         11    1    3    3    0    0 -0.32074384695E+02  0.29663698890E+02  0.14272004128E+01  0.43711990193E+02  0.51100000000E-03 0. -1.
         22    1    1    0    0    0  0.21727660769E+02  0.19043135471E+02  0.93005732696E+01  0.30351818960E+02  0.00000000000E+00 0.  1.
</event>
<event>
 5    1  0.1102386E-009  0.9118800E+02  0.7818608E-02  0.1130116E+00
         25   -1    0    0    0    0  0.00000000000E+00  0.00000000000E+00  0.99999998245E-14  0.12500000000E+03  0.12500000000E+03 0.  0.
        -11    1    3    3    0    0  0.16636959749E+02  0.23401643222E+02  0.50054063877E+02  0.57704719443E+02  0.51100000000E-03 0.  1.
         23    2    1    0    0    0  0.10522749058E+02 -0.57197591345E+01  0.27379243375E+02  0.95115775732E+02  0.90299191209E+02 0.  0.
         11    1    3    3    0    0 -0.61142106908E+01 -0.29121402356E+02 -0.22674820502E+02  0.37411056289E+02  0.51100000000E-03 0. -1.
         22    1    1    0    0    0 -0.10522749058E+02  0.57197591345E+01 -0.27379243375E+02  0.29884224268E+02  0.00000000000E+00 0.  1.
</event>
<event>
 5    1  0.1102386E-009  0.9118800E+02  0.7818608E-02  0.1130116E+00
         25   -1    0    0    0    0  0.00000000000E+00  0.00000000000E+00  0.99999998245E-14  0.12500000000E+03  0.12500000000E+03 0.  0.
        -11    1    3    3    0    0  0.24623442625E+02  0.28011534842E+02  0.40850037916E+02  0.55314424962E+02  0.51100000000E-03 0. -1.
         23    2    1    0    0    0 -0.19478397614E+01  0.24322910804E+01  0.31476584569E+02  0.93369547968E+02  0.87848659591E+02 0.  0.
         11    1    3    3    0    0 -0.26571282386E+02 -0.25579243762E+02 -0.93734533468E+01  0.38055123006E+02  0.51100000000E-03 0.  1.
         22    1    1    0    0    0  0.19478397614E+01 -0.24322910804E+01 -0.31476584569E+02  0.31630452032E+02  0.00000000000E+00 0. -1.
</event>
<event>
 5    1  0.1102386E-009  0.9118800E+02  0.7818608E-02  0.1130116E+00
         25   -1    0    0    0    0  0.00000000000E+00  0.00000000000E+00  0.99999998245E-14  0.12500000000E+03  0.12500000000E+03 0.  0.
        -11    1    3    3    0    0 -0.23266073589E+02 -0.25400377731E+02 -0.16133214945E+02  0.38036429825E+02  0.51100000000E-03 0. -1.
         23    2    1    0    0    0  0.24185628074E+02 -0.19804963549E+01 -0.23205928264E+02  0.91423489197E+02  0.85034535920E+02 0.  0.
         11    1    3    3    0    0  0.47451701663E+02  0.23419881376E+02 -0.70727133185E+01  0.53387059371E+02  0.51100000000E-03 0.  1.
         22    1    1    0    0    0 -0.24185628074E+02  0.19804963549E+01  0.23205928264E+02  0.33576510803E+02  0.00000000000E+00 0.  1.
</event>
<event>
 5    1  0.1102386E-009  0.9118800E+02  0.7818608E-02  0.1130116E+00
         25   -1    0    0    0    0  0.00000000000E+00  0.00000000000E+00  0.99999998245E-14  0.12500000000E+03  0.12500000000E+03 0.  0.
        -11    1    3    3    0    0  0.34706907578E+02 -0.67660489771E+01  0.37598982943E+02  0.51614265189E+02  0.51100000000E-03 0.  1.
         23    2    1    0    0    0  0.28337154511E+02 -0.36452606437E+01 -0.60164722589E+01  0.95802736612E+02  0.91245187012E+02 0.  0.
         11    1    3    3    0    0 -0.63697530668E+01  0.31207883334E+01 -0.43615455202E+02  0.44188471423E+02  0.51100000000E-03 0. -1.
         22    1    1    0    0    0 -0.28337154511E+02  0.36452606437E+01  0.60164722589E+01  0.29197263388E+02  0.00000000000E+00 0.  1.
</event>
<event>
 5    1  0.1102386E-009  0.9118800E+02  0.7818608E-02  0.1130116E+00
         25   -1    0    0    0    0  0.00000000000E+00  0.00000000000E+00  0.99999998245E-14  0.12500000000E+03  0.12500000000E+03 0.  0.
        -11    1    3    3    0    0 -0.99091125648E+01  0.10513357072E+01  0.58397856826E+02  0.59241923506E+02  0.51100000000E-03 0. -1.
         23    2    1    0    0    0  0.76288216629E+01 -0.68333870204E+01  0.27725424437E+02  0.95443388924E+02  0.90751568752E+02 0.  0.
         11    1    3    3    0    0  0.17537934228E+02 -0.78847227276E+01 -0.30672432389E+02  0.36201465418E+02  0.51100000000E-03 0.  1.
         22    1    1    0    0    0 -0.76288216629E+01  0.68333870204E+01 -0.27725424437E+02  0.29556611076E+02  0.00000000000E+00 0. -1.
</event>
<event>
 5    1  0.1102386E-009  0.9118800E+02  0.7818608E-02  0.1130116E+00
         25   -1    0    0    0    0  0.00000000000E+00  0.00000000000E+00  0.99999998245E-14  0.12500000000E+03  0.12500000000E+03 0.  0.
        -11    1    3    3    0    0 -0.14511260425E+01  0.47828190317E+02  0.33382654009E+02  0.58344178328E+02  0.51100000000E-03 0. -1.
         23    2    1    0    0    0 -0.15275860267E+02  0.15995864646E+02  0.18735018978E+02  0.96013442274E+02  0.91533384995E+02 0.  0.
         11    1    3    3    0    0 -0.13824734225E+02 -0.31832325671E+02 -0.14647635031E+02  0.37669263946E+02  0.51100000000E-03 0.  1.
         22    1    1    0    0    0  0.15275860267E+02 -0.15995864646E+02 -0.18735018978E+02  0.28986557726E+02  0.00000000000E+00 0. -1.
</event>
<event>
 5    1  0.1102386E-009  0.9118800E+02  0.7818608E-02  0.1130116E+00
         25   -1    0    0    0    0  0.00000000000E+00  0.00000000000E+00  0.99999998245E-14  0.12500000000E+03  0.12500000000E+03 0.  0.
        -11    1    3    3    0    0  0.23690754418E+02 -0.29820220699E+02  0.24411689817E+02  0.45237462434E+02  0.51100000000E-03 0.  1.
         23    2    1    0    0    0  0.29148299256E+02  0.70952621771E+01  0.29531750482E+02  0.82903796117E+02  0.71420928510E+02 0.  0.
         11    1    3    3    0    0  0.54575448374E+01  0.36915482876E+02  0.51200606647E+01  0.37666333683E+02  0.51100000000E-03 0. -1.
         22    1    1    0    0    0 -0.29148299256E+02 -0.70952621771E+01 -0.29531750482E+02  0.42096203883E+02  0.00000000000E+00 0.  1.
</event>
<event>
 5    1  0.1102386E-009  0.9118800E+02  0.7818608E-02  0.1130116E+00
         25   -1    0    0    0    0  0.00000000000E+00  0.00000000000E+00  0.99999998245E-14  0.12500000000E+03  0.12500000000E+03 0.  0.
        -11    1    3    3    0    0  0.29606082301E+02 -0.72341724294E+01  0.13104566110E+02  0.33175035993E+02  0.51100000000E-03 0.  1.
         23    2    1    0    0    0 -0.24109389338E+02  0.24500475808E+01 -0.16895814227E+02  0.95457929562E+02  0.90771594623E+02 0.  0.
         11    1    3    3    0    0 -0.53715471639E+02  0.96842200102E+01 -0.30000380337E+02  0.62282893568E+02  0.51100000000E-03 0. -1.
         22    1    1    0    0    0  0.24109389338E+02 -0.24500475808E+01  0.16895814227E+02  0.29542070438E+02  0.00000000000E+00 0. -1.
</event>
<event>
 5    1  0.1102386E-009  0.9118800E+02  0.7818608E-02  0.1130116E+00
         25   -1    0    0    0    0  0.00000000000E+00  0.00000000000E+00  0.99999998245E-14  0.12500000000E+03  0.12500000000E+03 0.  0.
        -11    1    3    3    0    0  0.38042944674E+02  0.14052592531E+01 -0.29981297323E+02  0.48457389348E+02  0.51100000000E-03 0.  1.
         23    2    1    0    0    0 -0.11982989653E+02  0.92886230735E+00 -0.23104916725E+02  0.98955960316E+02  0.95467219918E+02 0.  0.
         11    1    3    3    0    0 -0.50025934327E+02 -0.47639694571E+00  0.68763805978E+01  0.50498570967E+02  0.51100000000E-03 0. -1.
         22    1    1    0    0    0  0.11982989653E+02 -0.92886230735E+00  0.23104916725E+02  0.26044039684E+02  0.00000000000E+00 0.  1.
</event>
<event>
 5    1  0.1102386E-009  0.9118800E+02  0.7818608E-02  0.1130116E+00
         25   -1    0    0    0    0  0.00000000000E+00  0.00000000000E+00  0.99999998245E-14  0.12500000000E+03  0.12500000000E+03 0.  0.
        -11    1    3    3    0    0  0.17991397271E+02  0.21614340874E+02  0.48017602077E+02  0.55646744889E+02  0.51100000000E-03 0.  1.
         23    2    1    0    0    0  0.40530143921E+01  0.27214408004E+02  0.11415415200E+02  0.95211367389E+02  0.90431420686E+02 0.  0.
         11    1    3    3    0    0 -0.13938382879E+02  0.56000671296E+01 -0.36602186877E+02  0.39564622500E+02  0.51100000000E-03 0. -1.
         22    1    1    0    0    0 -0.40530143921E+01 -0.27214408004E+02 -0.11415415200E+02  0.29788632611E+02  0.00000000000E+00 0.  1.
</event>
<event>
 5    1  0.1102386E-009  0.9118800E+02  0.7818608E-02  0.1130116E+00
         25   -1    0    0    0    0  0.00000000000E+00  0.00000000000E+00  0.99999998245E-14  0.12500000000E+03  0.12500000000E+03 0.  0.
        -11    1    3    3    0    0  0.23703079519E+02  0.32179023148E+02  0.25359389846E+01  0.40046928674E+02  0.51100000000E-03 0.  1.
         23    2    1    0    0    0  0.11865219249E+02 -0.20529015833E+02  0.16825079937E+02  0.95925832192E+02  0.91413664448E+02 0.  0.
         11    1    3    3    0    0 -0.11837860270E+02 -0.52708038980E+02  0.14289140952E+02  0.55878903518E+02  0.51100000000E-03 0. -1.
         22    1    1    0    0    0 -0.11865219249E+02  0.20529015833E+02 -0.16825079937E+02  0.29074167808E+02  0.00000000000E+00 0.  1.
</event>
<event>
 5    1  0.1102386E-009  0.9118800E+02  0.7818608E-02  0.1130116E+00
         25   -1    0    0    0    0  0.00000000000E+00  0.00000000000E+00  0.99999998245E-14  0.12500000000E+03  0.12500000000E+03 0.  0.
        -11    1    3    3    0    0 -0.21912652340E+02  0.11368317789E+02  0.23079239647E+02  0.33794293673E+02  0.51100000000E-03 0.  1.
         23    2    1    0    0    0 -0.10032275437E+00 -0.26322157989E+02 -0.17559532077E+02  0.93358204339E+02  0.87832517240E+02 0.  0.
         11    1    3    3    0    0  0.21812329585E+02 -0.37690475778E+02 -0.40638771725E+02  0.59563910666E+02  0.51100000000E-03 0. -1.
         22    1    1    0    0    0  0.10032275437E+00  0.26322157989E+02  0.17559532077E+02  0.31641795661E+02  0.00000000000E+00 0. -1.
</event>
<event>
 5    1  0.1102386E-009  0.9118800E+02  0.7818608E-02  0.1130116E+00
         25   -1    0    0    0    0  0.00000000000E+00  0.00000000000E+00  0.99999998245E-14  0.12500000000E+03  0.12500000000E+03 0.  0.
        -11    1    3    3    0    0 -0.26011757633E+02 -0.13712378273E+02 -0.26615183336E+02  0.39661175441E+02  0.51100000000E-03 0.  1.
         23    2    1    0    0    0  0.20405709582E+02 -0.18461691138E+02  0.63098899184E+01  0.96768072436E+02  0.92558187693E+02 0.  0.
         11    1    3    3    0    0  0.46417467215E+02 -0.47493128645E+01  0.32925073254E+02  0.57106896995E+02  0.51100000000E-03 0. -1.
         22    1    1    0    0    0 -0.20405709582E+02  0.18461691138E+02 -0.63098899184E+01  0.28231927564E+02  0.00000000000E+00 0. -1.
</event>
<event>
 5    1  0.1102386E-009  0.9118800E+02  0.7818608E-02  0.1130116E+00
         25   -1    0    0    0    0  0.00000000000E+00  0.00000000000E+00  0.99999998245E-14  0.12500000000E+03  0.12500000000E+03 0.  0.
        -11    1    3    3    0    0 -0.50839188410E+02 -0.33331802654E+01 -0.26129785078E+02  0.57258177035E+02  0.51100000000E-03 0. -1.
         23    2    1    0    0    0 -0.27929094921E+02  0.14239391506E+02 -0.45121972208E+01  0.93327385057E+02  0.87788645418E+02 0.  0.
         11    1    3    3    0    0  0.22910093489E+02  0.17572571772E+02  0.21617587857E+02  0.36069208023E+02  0.51100000000E-03 0.  1.
         22    1    1    0    0    0  0.27929094921E+02 -0.14239391506E+02  0.45121972208E+01  0.31672614943E+02  0.00000000000E+00 0. -1.
</event>
<event>
 5    1  0.1102386E-009  0.9118800E+02  0.7818608E-02  0.1130116E+00
         25   -1    0    0    0    0  0.00000000000E+00  0.00000000000E+00  0.99999998245E-14  0.12500000000E+03  0.12500000000E+03 0.  0.
        -11    1    3    3    0    0  0.26280938674E+02  0.15294791129E+02 -0.19419555416E+02  0.36079599583E+02  0.51100000000E-03 0. -1.
         23    2    1    0    0    0 -0.97843885817E+01  0.13339743447E+01  0.26855163864E+02  0.96386828669E+02  0.92041877247E+02 0.  0.
         11    1    3    3    0    0 -0.36065327255E+02 -0.13960816784E+02  0.46274719280E+02  0.60307229086E+02  0.51100000000E-03 0.  1.
         22    1    1    0    0    0  0.97843885817E+01 -0.13339743447E+01 -0.26855163864E+02  0.28613171331E+02  0.00000000000E+00 0.  1.
</event>
<event>
 5    1  0.1102386E-009  0.9118800E+02  0.7818608E-02  0.1130116E+00
         25   -1    0    0    0    0  0.00000000000E+00  0.00000000000E+00  0.99999998245E-14  0.12500000000E+03  0.12500000000E+03 0.  0.
        -11    1    3    3    0    0  0.14480588841E+02  0.10380023842E+02  0.52193485936E+02  0.55150633021E+02  0.51100000000E-03 0. -1.
         23    2    1    0    0    0  0.26958341815E+02  0.27000108804E+01  0.17671926885E+02  0.92652832396E+02  0.86822854704E+02 0.  0.
         11    1    3    3    0    0  0.12477752974E+02 -0.76800129619E+01 -0.34521559051E+02  0.37502199375E+02  0.51100000000E-03 0.  1.
         22    1    1    0    0    0 -0.26958341815E+02 -0.27000108804E+01 -0.17671926885E+02  0.32347167604E+02  0.00000000000E+00 0. -1.
</event>
<event>
 5    1  0.1102386E-009  0.9118800E+02  0.7818608E-02  0.1130116E+00
         25   -1    0    0    0    0  0.00000000000E+00  0.00000000000E+00  0.99999998245E-14  0.12500000000E+03  0.12500000000E+03 0.  0.
        -11    1    3    3    0    0 -0.28022979418E+01 -0.39282998480E+02 -0.52172552433E+01  0.39726900154E+02  0.51100000000E-03 0. -1.
         23    2    1    0    0    0 -0.27846117118E+02  0.10010445257E+02  0.11764565000E+01  0.95385825984E+02  0.90672247661E+02 0.  0.
         11    1    3    3    0    0 -0.25043819176E+02  0.49293443737E+02  0.63937117433E+01  0.55658925830E+02  0.51100000000E-03 0.  1.
         22    1    1    0    0    0  0.27846117118E+02 -0.10010445257E+02 -0.11764565000E+01  0.29614174016E+02  0.00000000000E+00 0.  1.
</event>
<event>
 5    1  0.1102386E-009  0.9118800E+02  0.7818608E-02  0.1130116E+00
         25   -1    0    0    0    0  0.00000000000E+00  0.00000000000E+00  0.99999998245E-14  0.12500000000E+03  0.12500000000E+03 0.  0.
        -11    1    3    3    0    0  0.46572909471E+02 -0.28085105925E+02 -0.24859994920E+02  0.59798230902E+02  0.51100000000E-03 0. -1.
         23    2    1    0    0    0  0.15897198565E+02 -0.57526658213E+01 -0.21150677678E+02  0.97922975560E+02  0.94104962090E+02 0.  0.
         11    1    3    3    0    0 -0.30675710906E+02  0.22332440103E+02  0.37093172419E+01  0.38124744657E+02  0.51100000000E-03 0.  1.
         22    1    1    0    0    0 -0.15897198565E+02  0.57526658213E+01  0.21150677678E+02  0.27077024440E+02  0.00000000000E+00 0. -1.
</event>
<event>
 5    1  0.1102386E-009  0.9118800E+02  0.7818608E-02  0.1130116E+00
         25   -1    0    0    0    0  0.00000000000E+00  0.00000000000E+00  0.99999998245E-14  0.12500000000E+03  0.12500000000E+03 0.  0.
        -11    1    3    3    0    0  0.28004217164E+01  0.37376951015E+02 -0.28348027357E+02  0.46994568668E+02  0.51100000000E-03 0. -1.
         23    2    1    0    0    0  0.22488317223E+02 -0.62809213754E+01 -0.16731737926E+02  0.96275003240E+02  0.91889884155E+02 0.  0.
         11    1    3    3    0    0  0.19687895506E+02 -0.43657872391E+02  0.11616289431E+02  0.49280434572E+02  0.51100000000E-03 0.  1.
         22    1    1    0    0    0 -0.22488317223E+02  0.62809213754E+01  0.16731737926E+02  0.28724996760E+02  0.00000000000E+00 0.  1.
</event>
<event>
 5    1  0.1102386E-009  0.9118800E+02  0.7818608E-02  0.1130116E+00
         25   -1    0    0    0    0  0.00000000000E+00  0.00000000000E+00  0.99999998245E-14  0.12500000000E+03  0.12500000000E+03 0.  0.
        -11    1    3    3    0    0 -0.28251894973E+02  0.19120304412E+02 -0.14205195077E+02  0.36953256661E+02  0.51100000000E-03 0.  1.
         23    2    1    0    0    0  0.24554347918E+02  0.15482893274E+02  0.87991883506E+01  0.94667481123E+02  0.89676475626E+02 0.  0.
         11    1    3    3    0    0  0.52806242891E+02 -0.36374111386E+01  0.23004383428E+02  0.57714224462E+02  0.51100000000E-03 0. -1.
         22    1    1    0    0    0 -0.24554347918E+02 -0.15482893274E+02 -0.87991883506E+01  0.30332518877E+02  0.00000000000E+00 0. -1.
</event>
<event>
 5    1  0.1102386E-009  0.9118800E+02  0.7818608E-02  0.1130116E+00
         25   -1    0    0    0    0  0.00000000000E+00  0.00000000000E+00  0.99999998245E-14  0.12500000000E+03  0.12500000000E+03 0.  0.
        -11    1    3    3    0    0  0.13563275811E+02  0.16374193622E+02 -0.42649332887E+02  0.47655453660E+02  0.51100000000E-03 0.  1.
         23    2    1    0    0    0 -0.12246751036E+02  0.26791760727E+02 -0.40180399573E+01  0.95269106995E+02  0.90511196814E+02 0.  0.
         11    1    3    3    0    0 -0.25810026847E+02  0.10417567105E+02  0.38631292930E+02  0.47613653335E+02  0.51100000000E-03 0. -1.
         22    1    1    0    0    0  0.12246751036E+02 -0.26791760727E+02  0.40180399573E+01  0.29730893005E+02  0.00000000000E+00 0. -1.
</event>
<event>
 5    1  0.1102386E-009  0.9118800E+02  0.7818608E-02  0.1130116E+00
         25   -1    0    0    0    0  0.00000000000E+00  0.00000000000E+00  0.99999998245E-14  0.12500000000E+03  0.12500000000E+03 0.  0.
        -11    1    3    3    0    0  0.24648032812E+02  0.21854995242E+02  0.12468475104E+02  0.35222566776E+02  0.51100000000E-03 0.  1.
         23    2    1    0    0    0 -0.16226736767E+02 -0.22984467573E+02  0.19920698855E+01  0.96794307699E+02  0.92593611685E+02 0.  0.
         11    1    3    3    0    0 -0.40874769580E+02 -0.44839462816E+02 -0.10476405219E+02  0.61571740924E+02  0.51100000000E-03 0. -1.
         22    1    1    0    0    0  0.16226736767E+02  0.22984467573E+02 -0.19920698855E+01  0.28205692301E+02  0.00000000000E+00 0. -1.
</event>
<event>
 5    1  0.1102386E-009  0.9118800E+02  0.7818608E-02  0.1130116E+00
         25   -1    0    0    0    0  0.00000000000E+00  0.00000000000E+00  0.99999998245E-14  0.12500000000E+03  0.12500000000E+03 0.  0.
        -11    1    3    3    0    0  0.12290916042E+02  0.15956955709E+02  0.51420115674E+02  0.55224264131E+02  0.51100000000E-03 0.  1.
         23    2    1    0    0    0 -0.13367169360E+02 -0.19960935120E+01  0.26527719575E+02  0.95227772810E+02  0.90454094448E+02 0.  0.
         11    1    3    3    0    0 -0.25658085402E+02 -0.17953049221E+02 -0.24892396099E+02  0.40003508679E+02  0.51100000000E-03 0. -1.
         22    1    1    0    0    0  0.13367169360E+02  0.19960935120E+01 -0.26527719575E+02  0.29772227190E+02  0.00000000000E+00 0.  1.
</event>
<event>
 5    1  0.1102386E-009  0.9118800E+02  0.7818608E-02  0.1130116E+00
         25   -1    0    0    0    0  0.00000000000E+00  0.00000000000E+00  0.99999998245E-14  0.12500000000E+03  0.12500000000E+03 0.  0.
        -11    1    3    3    0    0 -0.33055226394E+02 -0.29837328333E+02 -0.21337976510E+02  0.49378369716E+02  0.51100000000E-03 0.  1.
         23    2    1    0    0    0 -0.25802638966E+02  0.15839503641E+01  0.12641091591E+02  0.96223581304E+02  0.91819907024E+02 0.  0.
         11    1    3    3    0    0  0.72525874279E+01  0.31421278698E+02  0.33979068101E+02  0.46845211587E+02  0.51100000000E-03 0. -1.
         22    1    1    0    0    0  0.25802638966E+02 -0.15839503641E+01 -0.12641091591E+02  0.28776418696E+02  0.00000000000E+00 0. -1.
</event>
<event>
 5    1  0.1102386E-009  0.9118800E+02  0.7818608E-02  0.1130116E+00
         25   -1    0    0    0    0  0.00000000000E+00  0.00000000000E+00  0.99999998245E-14  0.12500000000E+03  0.12500000000E+03 0.  0.
        -11    1    3    3    0    0 -0.55608907399E+01 -0.43865007498E+02 -0.87437515257E+01  0.45072337188E+02  0.51100000000E-03 0.  1.
         23    2    1    0    0    0  0.10947011725E+02 -0.18121938973E+02  0.26073667054E+02  0.91413129776E+02  0.85019306301E+02 0.  0.
         11    1    3    3    0    0  0.16507902464E+02  0.25743068525E+02  0.34817418580E+02  0.46340792588E+02  0.51100000000E-03 0. -1.
         22    1    1    0    0    0 -0.10947011725E+02  0.18121938973E+02 -0.26073667054E+02  0.33586870224E+02  0.00000000000E+00 0.  1.
</event>
<event>
 5    1  0.1102386E-009  0.9118800E+02  0.7818608E-02  0.1130116E+00
         25   -1    0    0    0    0  0.00000000000E+00  0.00000000000E+00  0.99999998245E-14  0.12500000000E+03  0.12500000000E+03 0.  0.
        -11    1    3    3    0    0  0.20140090816E+02 -0.49435940648E+02 -0.26542364397E+02  0.59615707611E+02  0.51100000000E-03 0. -1.
         23    2    1    0    0    0  0.18128336870E+02 -0.14351477304E+02 -0.17777244702E+02  0.95834405069E+02  0.91288560441E+02 0.  0.
         11    1    3    3    0    0 -0.20117539466E+01  0.35084463344E+02  0.87651196954E+01  0.36218697459E+02  0.51100000000E-03 0.  1.
         22    1    1    0    0    0 -0.18128336870E+02  0.14351477304E+02  0.17777244702E+02  0.29165594931E+02  0.00000000000E+00 0. -1.
</event>
<event>
 5    1  0.1102386E-009  0.9118800E+02  0.7818608E-02  0.1130116E+00
         25   -1    0    0    0    0  0.00000000000E+00  0.00000000000E+00  0.99999998245E-14  0.12500000000E+03  0.12500000000E+03 0.  0.
        -11    1    3    3    0    0 -0.32419626800E+02 -0.25574335880E+02  0.44913437037E+02  0.61010619439E+02  0.51100000000E-03 0.  1.
         23    2    1    0    0    0 -0.10004337286E+02 -0.19988269192E+02  0.19713805167E+02  0.95196446789E+02  0.90410794141E+02 0.  0.
         11    1    3    3    0    0  0.22415289514E+02  0.55860666884E+01 -0.25199631869E+02  0.34185827350E+02  0.51100000000E-03 0. -1.
         22    1    1    0    0    0  0.10004337286E+02  0.19988269192E+02 -0.19713805167E+02  0.29803553211E+02  0.00000000000E+00 0.  1.
</event>
<event>
 5    1  0.1102386E-009  0.9118800E+02  0.7818608E-02  0.1130116E+00
         25   -1    0    0    0    0  0.00000000000E+00  0.00000000000E+00  0.99999998245E-14  0.12500000000E+03  0.12500000000E+03 0.  0.
        -11    1    3    3    0    0  0.13942353784E+02  0.39806040373E+02  0.11189867007E+02  0.43636260187E+02  0.51100000000E-03 0.  1.
         23    2    1    0    0    0 -0.18386860047E+02  0.14611511091E+02 -0.19203547571E+02  0.94662743729E+02  0.89669871932E+02 0.  0.
         11    1    3    3    0    0 -0.32329213831E+02 -0.25194529283E+02 -0.30393414578E+02  0.51026483542E+02  0.51100000000E-03 0. -1.
         22    1    1    0    0    0  0.18386860047E+02 -0.14611511091E+02  0.19203547571E+02  0.30337256271E+02  0.00000000000E+00 0. -1.
</event>
<event>
 5    1  0.1102386E-009  0.9118800E+02  0.7818608E-02  0.1130116E+00
         25   -1    0    0    0    0  0.00000000000E+00  0.00000000000E+00  0.99999998245E-14  0.12500000000E+03  0.12500000000E+03 0.  0.
        -11    1    3    3    0    0  0.28713500799E+01 -0.34324421344E+02  0.13056127873E+02  0.36835757454E+02  0.51100000000E-03 0.  1.
         23    2    1    0    0    0 -0.16517231612E+02  0.20056301678E+02 -0.72314300135E+01  0.98030243657E+02  0.94247339031E+02 0.  0.
         11    1    3    3    0    0 -0.19388581692E+02  0.54380723022E+02 -0.20287557887E+02  0.61194486204E+02  0.51100000000E-03 0. -1.
         22    1    1    0    0    0  0.16517231612E+02 -0.20056301678E+02  0.72314300135E+01  0.26969756343E+02  0.00000000000E+00 0. -1.
</event>
<event>
 5    1  0.1102386E-009  0.9118800E+02  0.7818608E-02  0.1130116E+00
         25   -1    0    0    0    0  0.00000000000E+00  0.00000000000E+00  0.99999998245E-14  0.12500000000E+03  0.12500000000E+03 0.  0.
        -11    1    3    3    0    0 -0.55637935175E+02 -0.12619704177E+02 -0.90875981663E+01  0.57770418076E+02  0.51100000000E-03 0.  1.
         23    2    1    0    0    0 -0.18971147733E+02 -0.66817374132E+01 -0.20152241858E+02  0.96527857245E+02  0.92233206120E+02 0.  0.
         11    1    3    3    0    0  0.36666787442E+02  0.59379667640E+01 -0.11064643692E+02  0.38757439168E+02  0.51100000000E-03 0. -1.
         22    1    1    0    0    0  0.18971147733E+02  0.66817374132E+01  0.20152241858E+02  0.28472142755E+02  0.00000000000E+00 0.  1.
</event>
<event>
 5    1  0.1102386E-009  0.9118800E+02  0.7818608E-02  0.1130116E+00
         25   -1    0    0    0    0  0.00000000000E+00  0.00000000000E+00  0.99999998245E-14  0.12500000000E+03  0.12500000000E+03 0.  0.
        -11    1    3    3    0    0  0.36975468781E+02 -0.22887795968E+02 -0.28707611888E+02  0.52107230558E+02  0.51100000000E-03 0. -1.
         23    2    1    0    0    0  0.29529615678E+01 -0.28604876191E+02 -0.12217949100E+01  0.96217162984E+02  0.91811168961E+02 0.  0.
         11    1    3    3    0    0 -0.34022507213E+02 -0.57170802229E+01  0.27485816978E+02  0.44109932426E+02  0.51100000000E-03 0.  1.
         22    1    1    0    0    0 -0.29529615678E+01  0.28604876191E+02  0.12217949100E+01  0.28782837016E+02  0.00000000000E+00 0. -1.
</event>
<event>
 5    1  0.1102386E-009  0.9118800E+02  0.7818608E-02  0.1130116E+00
         25   -1    0    0    0    0  0.00000000000E+00  0.00000000000E+00  0.99999998245E-14  0.12500000000E+03  0.12500000000E+03 0.  0.
        -11    1    3    3    0    0  0.82351526279E+01  0.19823729753E+02 -0.47321567998E+02  0.51962763573E+02  0.51100000000E-03 0.  1.
         23    2    1    0    0    0  0.21670535592E+01  0.29200555253E+02 -0.55550734121E+01  0.95196856058E+02  0.90411359986E+02 0.  0.
         11    1    3    3    0    0 -0.60680990688E+01  0.93768254996E+01  0.41766494586E+02  0.43234092485E+02  0.51100000000E-03 0. -1.
         22    1    1    0    0    0 -0.21670535592E+01 -0.29200555253E+02  0.55550734121E+01  0.29803143942E+02  0.00000000000E+00 0. -1.
</event>
<event>
 5    1  0.1102386E-009  0.9118800E+02  0.7818608E-02  0.1130116E+00
         25   -1    0    0    0    0  0.00000000000E+00  0.00000000000E+00  0.99999998245E-14  0.12500000000E+03  0.12500000000E+03 0.  0.
        -11    1    3    3    0    0 -0.12575001079E+01  0.13903927367E+02  0.31525629861E+02  0.34478483742E+02  0.51100000000E-03 0.  1.
         23    2    1    0    0    0 -0.31056605653E+01  0.20885925534E+02 -0.25461791550E+02  0.91921761808E+02  0.85763864488E+02 0.  0.
         11    1    3    3    0    0 -0.18481604575E+01  0.69819981664E+01 -0.56987421412E+02  0.57443278065E+02  0.51100000000E-03 0. -1.
         22    1    1    0    0    0  0.31056605653E+01 -0.20885925534E+02  0.25461791550E+02  0.33078238192E+02  0.00000000000E+00 0. -1.
</event>
<event>
 5    1  0.1102386E-009  0.9118800E+02  0.7818608E-02  0.1130116E+00
         25   -1    0    0    0    0  0.00000000000E+00  0.00000000000E+00  0.99999998245E-14  0.12500000000E+03  0.12500000000E+03 0.  0.
        -11    1    3    3    0    0  0.22587372195E+02 -0.23744234054E+02 -0.21753284051E+02  0.39334252259E+02  0.51100000000E-03 0. -1.
         23    2    1    0    0    0 -0.26421117328E+02 -0.11235798905E+02  0.38623820204E+01  0.96030419182E+02  0.91556566097E+02 0.  0.
         11    1    3    3    0    0 -0.49008489523E+02  0.12508435149E+02  0.25615666071E+02  0.56696166923E+02  0.51100000000E-03 0.  1.
         22    1    1    0    0    0  0.26421117328E+02  0.11235798905E+02 -0.38623820204E+01  0.28969580818E+02  0.00000000000E+00 0.  1.
</event>
<event>
 5    1  0.1102386E-009  0.9118800E+02  0.7818608E-02  0.1130116E+00
         25   -1    0    0    0    0  0.00000000000E+00  0.00000000000E+00  0.99999998245E-14  0.12500000000E+03  0.12500000000E+03 0.  0.
        -11    1    3    3    0    0 -0.16070946616E+02  0.42849110863E+02  0.36277029031E+02  0.58398154615E+02  0.51100000000E-03 0.  1.
         23    2    1    0    0    0 -0.15406925206E+02  0.77495126233E+01  0.23700673453E+02  0.95688735743E+02  0.91088879320E+02 0.  0.
         11    1    3    3    0    0  0.66402141008E+00 -0.35099598239E+02 -0.12576355578E+02  0.37290581128E+02  0.51100000000E-03 0. -1.
         22    1    1    0    0    0  0.15406925206E+02 -0.77495126233E+01 -0.23700673453E+02  0.29311264257E+02  0.00000000000E+00 0.  1.
</event>
<event>
 5    1  0.1102386E-009  0.9118800E+02  0.7818608E-02  0.1130116E+00
         25   -1    0    0    0    0  0.00000000000E+00  0.00000000000E+00  0.99999998245E-14  0.12500000000E+03  0.12500000000E+03 0.  0.
        -11    1    3    3    0    0  0.61652657722E+01 -0.17748690475E+02 -0.28462109008E+02  0.34104518250E+02  0.51100000000E-03 0.  1.
         23    2    1    0    0    0  0.31363650292E+02 -0.37628775367E+02 -0.15512965509E+01  0.75989696836E+02  0.58072577082E+02 0.  0.
         11    1    3    3    0    0  0.25198384520E+02 -0.19880084892E+02  0.26910812458E+02  0.41885178585E+02  0.51100000000E-03 0. -1.
         22    1    1    0    0    0 -0.31363650292E+02  0.37628775367E+02  0.15512965509E+01  0.49010303164E+02  0.00000000000E+00 0. -1.
</event>
<event>
 5    1  0.1102386E-009  0.9118800E+02  0.7818608E-02  0.1130116E+00
         25   -1    0    0    0    0  0.00000000000E+00  0.00000000000E+00  0.99999998245E-14  0.12500000000E+03  0.12500000000E+03 0.  0.
        -11    1    3    3    0    0 -0.18734508514E+02  0.14674916515E+02  0.56851117794E+02  0.61631035840E+02  0.51100000000E-03 0. -1.
         23    2    1    0    0    0 -0.10898076251E+02  0.13649965466E+02  0.24643196933E+02  0.94794424715E+02  0.89853248015E+02 0.  0.
         11    1    3    3    0    0  0.78364322631E+01 -0.10249510488E+01 -0.32207920861E+02  0.33163388876E+02  0.51100000000E-03 0.  1.
         22    1    1    0    0    0  0.10898076251E+02 -0.13649965466E+02 -0.24643196933E+02  0.30205575285E+02  0.00000000000E+00 0. -1.
</event>
<event>
 5    1  0.1102386E-009  0.9118800E+02  0.7818608E-02  0.1130116E+00
         25   -1    0    0    0    0  0.00000000000E+00  0.00000000000E+00  0.99999998245E-14  0.12500000000E+03  0.12500000000E+03 0.  0.
        -11    1    3    3    0    0 -0.26278309365E+02  0.40457903249E+02 -0.35847030397E+02  0.60103253381E+02  0.51100000000E-03 0. -1.
         23    2    1    0    0    0 -0.28945112472E+01  0.16236985519E+02 -0.24172750861E+02  0.95736716208E+02  0.91154698464E+02 0.  0.
         11    1    3    3    0    0  0.23383798118E+02 -0.24220917731E+02  0.11674279536E+02  0.35633462827E+02  0.51100000000E-03 0.  1.
         22    1    1    0    0    0  0.28945112472E+01 -0.16236985519E+02  0.24172750861E+02  0.29263283792E+02  0.00000000000E+00 0. -1.
</event>
<event>
 5    1  0.1102386E-009  0.9118800E+02  0.7818608E-02  0.1130116E+00
         25   -1    0    0    0    0  0.00000000000E+00  0.00000000000E+00  0.99999998245E-14  0.12500000000E+03  0.12500000000E+03 0.  0.
        -11    1    3    3    0    0 -0.42248120253E+02  0.13476233317E+02  0.64940938840E+00  0.44350132606E+02  0.51100000000E-03 0. -1.
         23    2    1    0    0    0 -0.18519677916E+02 -0.18513291155E+02 -0.22549270452E+02  0.90442945476E+02  0.83580717686E+02 0.  0.
         11    1    3    3    0    0  0.23728442337E+02 -0.31989524472E+02 -0.23198679840E+02  0.46092812870E+02  0.51100000000E-03 0.  1.
         22    1    1    0    0    0  0.18519677916E+02  0.18513291155E+02  0.22549270452E+02  0.34557054524E+02  0.00000000000E+00 0. -1.
</event>
<event>
 5    1  0.1102386E-009  0.9118800E+02  0.7818608E-02  0.1130116E+00
         25   -1    0    0    0    0  0.00000000000E+00  0.00000000000E+00  0.99999998245E-14  0.12500000000E+03  0.12500000000E+03 0.  0.
        -11    1    3    3    0    0  0.11730184862E+02 -0.15950466698E+02  0.54061313754E+02  0.57572912640E+02  0.51100000000E-03 0. -1.
         23    2    1    0    0    0  0.12898018423E+02  0.86477487242E+01  0.23700166375E+02  0.96665562941E+02  0.92419644747E+02 0.  0.
         11    1    3    3    0    0  0.11678335613E+01  0.24598215422E+02 -0.30361147379E+02  0.39092650301E+02  0.51100000000E-03 0.  1.
         22    1    1    0    0    0 -0.12898018423E+02 -0.86477487242E+01 -0.23700166375E+02  0.28334437059E+02  0.00000000000E+00 0. -1.
</event>
<event>
 5    1  0.1102386E-009  0.9118800E+02  0.7818608E-02  0.1130116E+00
         25   -1    0    0    0    0  0.00000000000E+00  0.00000000000E+00  0.99999998245E-14  0.12500000000E+03  0.12500000000E+03 0.  0.
        -11    1    3    3    0    0  0.47033771174E+02 -0.37318315088E+02 -0.74454660124E+01  0.60500142448E+02  0.51100000000E-03 0.  1.
         23    2    1    0    0    0  0.15560663195E+02 -0.20406290674E+02 -0.12272981128E+02  0.96553963300E+02  0.92268579837E+02 0.  0.
         11    1    3    3    0    0 -0.31473107978E+02  0.16912024414E+02 -0.48275151154E+01  0.36053820852E+02  0.51100000000E-03 0. -1.
         22    1    1    0    0    0 -0.15560663195E+02  0.20406290674E+02  0.12272981128E+02  0.28446036700E+02  0.00000000000E+00 0.  1.
</event>
<event>
 5    1  0.1102386E-009  0.9118800E+02  0.7818608E-02  0.1130116E+00
         25   -1    0    0    0    0  0.00000000000E+00  0.00000000000E+00  0.99999998245E-14  0.12500000000E+03  0.12500000000E+03 0.  0.
        -11    1    3    3    0    0  0.44723176270E+02  0.26835347340E+02 -0.17087613815E+02  0.54884286537E+02  0.51100000000E-03 0.  1.
         23    2    1    0    0    0  0.29085040321E+02 -0.53624366014E+01  0.18258365123E+01  0.95368446282E+02  0.90648284983E+02 0.  0.
         11    1    3    3    0    0 -0.15638135948E+02 -0.32197783942E+02  0.18913450327E+02  0.40484159745E+02  0.51100000000E-03 0. -1.
         22    1    1    0    0    0 -0.29085040321E+02  0.53624366014E+01 -0.18258365123E+01  0.29631553718E+02  0.00000000000E+00 0.  1.
</event>
<event>
 5    1  0.1102386E-009  0.9118800E+02  0.7818608E-02  0.1130116E+00
         25   -1    0    0    0    0  0.00000000000E+00  0.00000000000E+00  0.99999998245E-14  0.12500000000E+03  0.12500000000E+03 0.  0.
        -11    1    3    3    0    0  0.31980313374E+02 -0.10538970762E+02  0.10026385793E+02  0.35133157566E+02  0.51100000000E-03 0.  1.
         23    2    1    0    0    0 -0.14698176776E+02  0.18894459487E+02 -0.16061908539E+02  0.96172549440E+02  0.91750407956E+02 0.  0.
         11    1    3    3    0    0 -0.46678490150E+02  0.29433430249E+02 -0.26088294332E+02  0.61039391874E+02  0.51100000000E-03 0. -1.
         22    1    1    0    0    0  0.14698176776E+02 -0.18894459487E+02  0.16061908539E+02  0.28827450560E+02  0.00000000000E+00 0. -1.
</event>
<event>
 5    1  0.1102386E-009  0.9118800E+02  0.7818608E-02  0.1130116E+00
         25   -1    0    0    0    0  0.00000000000E+00  0.00000000000E+00  0.99999998245E-14  0.12500000000E+03  0.12500000000E+03 0.  0.
        -11    1    3    3    0    0  0.52832872435E+02  0.11092755899E+02 -0.13737719881E+02  0.55705355137E+02  0.51100000000E-03 0. -1.
         23    2    1    0    0    0  0.21388551295E+02  0.23488736464E+02  0.23642886427E+01  0.93144376824E+02  0.87527676800E+02 0.  0.
         11    1    3    3    0    0 -0.31444321140E+02  0.12395980565E+02  0.16102008524E+02  0.37439021687E+02  0.51100000000E-03 0.  1.
         22    1    1    0    0    0 -0.21388551295E+02 -0.23488736464E+02 -0.23642886427E+01  0.31855623176E+02  0.00000000000E+00 0. -1.
</event>
<event>
 5    1  0.1102386E-009  0.9118800E+02  0.7818608E-02  0.1130116E+00
         25   -1    0    0    0    0  0.00000000000E+00  0.00000000000E+00  0.99999998245E-14  0.12500000000E+03  0.12500000000E+03 0.  0.
        -11    1    3    3    0    0 -0.30307964157E+02  0.50993536393E+02  0.72415785584E+01  0.59760805763E+02  0.51100000000E-03 0.  1.
         23    2    1    0    0    0 -0.21037890489E+01  0.28708323325E+02  0.50646188956E+01  0.95772545081E+02  0.91203817191E+02 0.  0.
         11    1    3    3    0    0  0.28204175108E+02 -0.22285213068E+02 -0.21769596628E+01  0.36011739317E+02  0.51100000000E-03 0. -1.
         22    1    1    0    0    0  0.21037890489E+01 -0.28708323325E+02 -0.50646188956E+01  0.29227454919E+02  0.00000000000E+00 0.  1.
</event>
<event>
 5    1  0.1102386E-009  0.9118800E+02  0.7818608E-02  0.1130116E+00
         25   -1    0    0    0    0  0.00000000000E+00  0.00000000000E+00  0.99999998245E-14  0.12500000000E+03  0.12500000000E+03 0.  0.
        -11    1    3    3    0    0  0.30794813144E+02  0.25020853620E+00 -0.15570646803E+02  0.34508378157E+02  0.51100000000E-03 0. -1.
         23    2    1    0    0    0 -0.15405177614E+02 -0.89222401049E+01  0.23369399253E+02  0.95622207584E+02  0.90997537857E+02 0.  0.
         11    1    3    3    0    0 -0.46199990758E+02 -0.91724486411E+01  0.38940046056E+02  0.61113829427E+02  0.51100000000E-03 0.  1.
         22    1    1    0    0    0  0.15405177614E+02  0.89222401049E+01 -0.23369399253E+02  0.29377792416E+02  0.00000000000E+00 0.  1.
</event>
<event>
 5    1  0.1102386E-009  0.9118800E+02  0.7818608E-02  0.1130116E+00
         25   -1    0    0    0    0  0.00000000000E+00  0.00000000000E+00  0.99999998245E-14  0.12500000000E+03  0.12500000000E+03 0.  0.
        -11    1    3    3    0    0  0.23502727842E+02 -0.42172741764E+02 -0.29570054367E+02  0.56615426162E+02  0.51100000000E-03 0.  1.
         23    2    1    0    0    0  0.26256654839E+02 -0.86483104426E+01 -0.95883422148E+01  0.95740104182E+02  0.91159344258E+02 0.  0.
         11    1    3    3    0    0  0.27539269968E+01  0.33524431322E+02  0.19981712153E+02  0.39124678020E+02  0.51100000000E-03 0. -1.
         22    1    1    0    0    0 -0.26256654839E+02  0.86483104426E+01  0.95883422148E+01  0.29259895818E+02  0.00000000000E+00 0.  1.
</event>
<event>
 5    1  0.1102386E-009  0.9118800E+02  0.7818608E-02  0.1130116E+00
         25   -1    0    0    0    0  0.00000000000E+00  0.00000000000E+00  0.99999998245E-14  0.12500000000E+03  0.12500000000E+03 0.  0.
        -11    1    3    3    0    0  0.12894729737E+02 -0.14291490523E+02  0.48935081072E+02  0.52584816403E+02  0.51100000000E-03 0.  1.
         23    2    1    0    0    0 -0.16525507231E+02  0.46411734869E+01  0.23767025228E+02  0.95682695063E+02  0.91080589401E+02 0.  0.
         11    1    3    3    0    0 -0.29420236968E+02  0.18932664010E+02 -0.25168055843E+02  0.43097878660E+02  0.51100000000E-03 0. -1.
         22    1    1    0    0    0  0.16525507231E+02 -0.46411734869E+01 -0.23767025228E+02  0.29317304937E+02  0.00000000000E+00 0.  1.
</event>
<event>
 5    1  0.1102386E-009  0.9118800E+02  0.7818608E-02  0.1130116E+00
         25   -1    0    0    0    0  0.00000000000E+00  0.00000000000E+00  0.99999998245E-14  0.12500000000E+03  0.12500000000E+03 0.  0.
        -11    1    3    3    0    0  0.38956053409E+02 -0.35510425228E+02  0.26935083592E+02  0.59195127548E+02  0.51100000000E-03 0.  1.
         23    2    1    0    0    0  0.18501897234E+02 -0.68304591179E+01  0.23093930269E+02  0.94630525387E+02  0.89624948238E+02 0.  0.
         11    1    3    3    0    0 -0.20454156175E+02  0.28679966110E+02 -0.38411533223E+01  0.35435397839E+02  0.51100000000E-03 0. -1.
         22    1    1    0    0    0 -0.18501897234E+02  0.68304591179E+01 -0.23093930269E+02  0.30369474613E+02  0.00000000000E+00 0.  1.
</event>
<event>
 5    1  0.1102386E-009  0.9118800E+02  0.7818608E-02  0.1130116E+00
         25   -1    0    0    0    0  0.00000000000E+00  0.00000000000E+00  0.99999998245E-14  0.12500000000E+03  0.12500000000E+03 0.  0.
        -11    1    3    3    0    0  0.39549640710E+01  0.23570273116E+02  0.12225194641E+02  0.26845016294E+02  0.51100000000E-03 0. -1.
         23    2    1    0    0    0  0.32486355282E+02 -0.24185180046E+02 -0.26007894539E+01  0.84416132279E+02  0.74020490878E+02 0.  0.
         11    1    3    3    0    0  0.28531391211E+02 -0.47755453162E+02 -0.14825984095E+02  0.57571115985E+02  0.51100000000E-03 0.  1.
         22    1    1    0    0    0 -0.32486355282E+02  0.24185180046E+02  0.26007894539E+01  0.40583867721E+02  0.00000000000E+00 0.  1.
</event>
<event>
 5    1  0.1102386E-009  0.9118800E+02  0.7818608E-02  0.1130116E+00
         25   -1    0    0    0    0  0.00000000000E+00  0.00000000000E+00  0.99999998245E-14  0.12500000000E+03  0.12500000000E+03 0.  0.
        -11    1    3    3    0    0  0.21927962259E+02 -0.77408401971E+01  0.26768189255E+02  0.35458314851E+02  0.51100000000E-03 0.  1.
         23    2    1    0    0    0  0.60806083518E+01 -0.78274962642E+01 -0.29481031900E+02  0.93897351598E+02  0.88596489205E+02 0.  0.
         11    1    3    3    0    0 -0.15847353907E+02 -0.86656067069E-01 -0.56249221155E+02  0.58439036748E+02  0.51100000000E-03 0. -1.
         22    1    1    0    0    0 -0.60806083518E+01  0.78274962642E+01  0.29481031900E+02  0.31102648402E+02  0.00000000000E+00 0. -1.
</event>
<event>
 5    1  0.1102386E-009  0.9118800E+02  0.7818608E-02  0.1130116E+00
         25   -1    0    0    0    0  0.00000000000E+00  0.00000000000E+00  0.99999998245E-14  0.12500000000E+03  0.12500000000E+03 0.  0.
        -11    1    3    3    0    0 -0.44112514097E+01  0.24226648313E+02  0.51437207361E+02  0.57027852220E+02  0.51100000000E-03 0. -1.
         23    2    1    0    0    0  0.13963040681E+02  0.30246624716E+01  0.27921515673E+02  0.93635591419E+02  0.88226401122E+02 0.  0.
         11    1    3    3    0    0  0.18374292090E+02 -0.21201985841E+02 -0.23515691688E+02  0.36607739199E+02  0.51100000000E-03 0.  1.
         22    1    1    0    0    0 -0.13963040681E+02 -0.30246624716E+01 -0.27921515673E+02  0.31364408581E+02  0.00000000000E+00 0. -1.
</event>
<event>
 5    1  0.1102386E-009  0.9118800E+02  0.7818608E-02  0.1130116E+00
         25   -1    0    0    0    0  0.00000000000E+00  0.00000000000E+00  0.99999998245E-14  0.12500000000E+03  0.12500000000E+03 0.  0.
        -11    1    3    3    0    0 -0.89385440315E+01 -0.26090167367E+02 -0.30135253296E+02  0.40850066024E+02  0.51100000000E-03 0.  1.
         23    2    1    0    0    0  0.29187371091E+02 -0.13313814450E+02  0.27596996644E+01  0.92800990253E+02  0.87035898130E+02 0.  0.
         11    1    3    3    0    0  0.38125915123E+02  0.12776352917E+02  0.32894952961E+02  0.51950924230E+02  0.51100000000E-03 0. -1.
         22    1    1    0    0    0 -0.29187371091E+02  0.13313814450E+02 -0.27596996644E+01  0.32199009747E+02  0.00000000000E+00 0. -1.
</event>
<event>
 5    1  0.1102386E-009  0.9118800E+02  0.7818608E-02  0.1130116E+00
         25   -1    0    0    0    0  0.00000000000E+00  0.00000000000E+00  0.99999998245E-14  0.12500000000E+03  0.12500000000E+03 0.  0.
        -11    1    3    3    0    0  0.12234065130E+02 -0.94177508906E+01  0.41247797469E+02  0.44042560981E+02  0.51100000000E-03 0.  1.
         23    2    1    0    0    0  0.26603376370E+02  0.11680803285E+02 -0.36771829027E+01  0.95713442098E+02  0.91122777199E+02 0.  0.
         11    1    3    3    0    0  0.14369311240E+02  0.21098554175E+02 -0.44924980371E+02  0.51670881117E+02  0.51100000000E-03 0. -1.
         22    1    1    0    0    0 -0.26603376370E+02 -0.11680803285E+02  0.36771829027E+01  0.29286557902E+02  0.00000000000E+00 0. -1.
</event>
<event>
 5    1  0.1102386E-009  0.9118800E+02  0.7818608E-02  0.1130116E+00
         25   -1    0    0    0    0  0.00000000000E+00  0.00000000000E+00  0.99999998245E-14  0.12500000000E+03  0.12500000000E+03 0.  0.
        -11    1    3    3    0    0  0.16263607971E+02 -0.28553434402E+02 -0.55034578803E+01  0.33318037296E+02  0.51100000000E-03 0. -1.
         23    2    1    0    0    0 -0.25086655330E+02  0.16236219582E+02 -0.70537837129E+01  0.94296401406E+02  0.89157727379E+02 0.  0.
         11    1    3    3    0    0 -0.41350263301E+02  0.44789653984E+02 -0.15503258326E+01  0.60978364110E+02  0.51100000000E-03 0.  1.
         22    1    1    0    0    0  0.25086655330E+02 -0.16236219582E+02  0.70537837129E+01  0.30703598594E+02  0.00000000000E+00 0.  1.
</event>
<event>
 5    1  0.1102386E-009  0.9118800E+02  0.7818608E-02  0.1130116E+00
         25   -1    0    0    0    0  0.00000000000E+00  0.00000000000E+00  0.99999998245E-14  0.12500000000E+03  0.12500000000E+03 0.  0.
        -11    1    3    3    0    0 -0.33146773545E+02 -0.14274833554E+02  0.17338847717E+02  0.40038919938E+02  0.51100000000E-03 0.  1.
         23    2    1    0    0    0  0.14941194732E+02  0.15389533507E+02  0.18680482712E+02  0.96556415909E+02  0.92271902426E+02 0.  0.
         11    1    3    3    0    0  0.48087968276E+02  0.29664367061E+02  0.13416349951E+01  0.56517495971E+02  0.51100000000E-03 0. -1.
         22    1    1    0    0    0 -0.14941194732E+02 -0.15389533507E+02 -0.18680482712E+02  0.28443584091E+02  0.00000000000E+00 0. -1.
</event>
<event>
 5    1  0.1102386E-009  0.9118800E+02  0.7818608E-02  0.1130116E+00
         25   -1    0    0    0    0  0.00000000000E+00  0.00000000000E+00  0.99999998245E-14  0.12500000000E+03  0.12500000000E+03 0.  0.
        -11    1    3    3    0    0  0.27359531761E+02  0.27085506652E+02 -0.28985158253E+02  0.48190331479E+02  0.51100000000E-03 0.  1.
         23    2    1    0    0    0 -0.11605625033E+02  0.26371695440E+02 -0.99797543538E+00  0.96170279090E+02  0.91747314797E+02 0.  0.
         11    1    3    3    0    0 -0.38965156794E+02 -0.71381121202E+00  0.27987182818E+02  0.47979947611E+02  0.51100000000E-03 0. -1.
         22    1    1    0    0    0  0.11605625033E+02 -0.26371695440E+02  0.99797543538E+00  0.28829720910E+02  0.00000000000E+00 0. -1.
</event>
<event>
 5    1  0.1102386E-009  0.9118800E+02  0.7818608E-02  0.1130116E+00
         25   -1    0    0    0    0  0.00000000000E+00  0.00000000000E+00  0.99999998245E-14  0.12500000000E+03  0.12500000000E+03 0.  0.
        -11    1    3    3    0    0 -0.53737978967E+02 -0.15455729673E+01  0.29069383114E+02  0.61116186188E+02  0.51100000000E-03 0.  1.
         23    2    1    0    0    0 -0.26863099893E+02 -0.33922434348E+01  0.45470024330E+01  0.97544423472E+02  0.93600779206E+02 0.  0.
         11    1    3    3    0    0  0.26874879075E+02 -0.18466704675E+01 -0.24522380681E+02  0.36428237284E+02  0.51100000000E-03 0. -1.
         22    1    1    0    0    0  0.26863099893E+02  0.33922434348E+01 -0.45470024330E+01  0.27455576528E+02  0.00000000000E+00 0.  1.
</event>
<event>
 5    1  0.1102386E-009  0.9118800E+02  0.7818608E-02  0.1130116E+00
         25   -1    0    0    0    0  0.00000000000E+00  0.00000000000E+00  0.99999998245E-14  0.12500000000E+03  0.12500000000E+03 0.  0.
        -11    1    3    3    0    0 -0.37828495282E+02 -0.22063389625E+02 -0.16168278873E+01  0.43822395527E+02  0.51100000000E-03 0.  1.
         23    2    1    0    0    0 -0.21077441717E+01  0.43220245836E+01 -0.28740869266E+02  0.95859649142E+02  0.91323120213E+02 0.  0.
         11    1    3    3    0    0  0.35720751110E+02  0.26385414209E+02 -0.27124041378E+02  0.52037253615E+02  0.51100000000E-03 0. -1.
         22    1    1    0    0    0  0.21077441717E+01 -0.43220245836E+01  0.28740869266E+02  0.29140350858E+02  0.00000000000E+00 0.  1.
</event>
<event>
 5    1  0.1102386E-009  0.9118800E+02  0.7818608E-02  0.1130116E+00
         25   -1    0    0    0    0  0.00000000000E+00  0.00000000000E+00  0.99999998245E-14  0.12500000000E+03  0.12500000000E+03 0.  0.
        -11    1    3    3    0    0  0.52656649293E+02 -0.70533585683E+01 -0.61338111900E+01  0.53479867444E+02  0.51100000000E-03 0. -1.
         23    2    1    0    0    0  0.16574136699E+02  0.82127992704E+01 -0.22441867877E+02  0.95917539427E+02  0.91402324133E+02 0.  0.
         11    1    3    3    0    0 -0.36082512594E+02  0.15266157839E+02 -0.16308056687E+02  0.42437671984E+02  0.51100000000E-03 0.  1.
         22    1    1    0    0    0 -0.16574136699E+02 -0.82127992704E+01  0.22441867877E+02  0.29082460573E+02  0.00000000000E+00 0. -1.
</event>
<event>
 5    1  0.1102386E-009  0.9118800E+02  0.7818608E-02  0.1130116E+00
         25   -1    0    0    0    0  0.00000000000E+00  0.00000000000E+00  0.99999998245E-14  0.12500000000E+03  0.12500000000E+03 0.  0.
        -11    1    3    3    0    0 -0.46009811439E+02 -0.26163365228E+02  0.38290137048E+01  0.53066804830E+02  0.51100000000E-03 0.  1.
         23    2    1    0    0    0 -0.29097364238E+02 -0.69880172243E+00  0.21897736642E+02  0.88576713499E+02  0.80741429110E+02 0.  0.
         11    1    3    3    0    0  0.16912447201E+02  0.25464563505E+02  0.18068722937E+02  0.35509908669E+02  0.51100000000E-03 0. -1.
         22    1    1    0    0    0  0.29097364238E+02  0.69880172243E+00 -0.21897736642E+02  0.36423286501E+02  0.00000000000E+00 0.  1.
</event>
<event>
 5    1  0.1102386E-009  0.9118800E+02  0.7818608E-02  0.1130116E+00
         25   -1    0    0    0    0  0.00000000000E+00  0.00000000000E+00  0.99999998245E-14  0.12500000000E+03  0.12500000000E+03 0.  0.
        -11    1    3    3    0    0  0.36276199949E+02  0.34738213123E+02 -0.20824426806E+02  0.54372446016E+02  0.51100000000E-03 0.  1.
         23    2    1    0    0    0  0.28254129672E+02  0.34607625591E+02  0.36948863160E+01  0.80171038631E+02  0.66466229453E+02 0.  0.
         11    1    3    3    0    0 -0.80220702777E+01 -0.13058753175E+00  0.24519313122E+02  0.25798592614E+02  0.51100000000E-03 0. -1.
         22    1    1    0    0    0 -0.28254129672E+02 -0.34607625591E+02 -0.36948863160E+01  0.44828961369E+02  0.00000000000E+00 0.  1.
</event>
<event>
 5    1  0.1102386E-009  0.9118800E+02  0.7818608E-02  0.1130116E+00
         25   -1    0    0    0    0  0.00000000000E+00  0.00000000000E+00  0.99999998245E-14  0.12500000000E+03  0.12500000000E+03 0.  0.
        -11    1    3    3    0    0  0.38612755523E+02  0.16802348152E+02 -0.36531649604E+01  0.42268302627E+02  0.51100000000E-03 0.  1.
         23    2    1    0    0    0  0.44850404850E+00 -0.11967285045E+02 -0.27002989949E+02  0.95460559697E+02  0.90775216465E+02 0.  0.
         11    1    3    3    0    0 -0.38164251474E+02 -0.28769633197E+02 -0.23349824989E+02  0.53192257070E+02  0.51100000000E-03 0. -1.
         22    1    1    0    0    0 -0.44850404850E+00  0.11967285045E+02  0.27002989949E+02  0.29539440303E+02  0.00000000000E+00 0. -1.
</event>
<event>
 5    1  0.1102386E-009  0.9118800E+02  0.7818608E-02  0.1130116E+00
         25   -1    0    0    0    0  0.00000000000E+00  0.00000000000E+00  0.99999998245E-14  0.12500000000E+03  0.12500000000E+03 0.  0.
        -11    1    3    3    0    0 -0.40643228794E+02  0.13633987784E+02  0.72432650851E+01  0.43476689836E+02  0.51100000000E-03 0.  1.
         23    2    1    0    0    0 -0.69343441922E+01 -0.27210732747E+02  0.49655696965E+01  0.96483934556E+02  0.92173660224E+02 0.  0.
         11    1    3    3    0    0  0.33708884602E+02 -0.40844720530E+02 -0.22776953885E+01  0.53007244721E+02  0.51100000000E-03 0. -1.
         22    1    1    0    0    0  0.69343441922E+01  0.27210732747E+02 -0.49655696965E+01  0.28516065444E+02  0.00000000000E+00 0. -1.
</event>
<event>
 5    1  0.1102386E-009  0.9118800E+02  0.7818608E-02  0.1130116E+00
         25   -1    0    0    0    0  0.00000000000E+00  0.00000000000E+00  0.99999998245E-14  0.12500000000E+03  0.12500000000E+03 0.  0.
        -11    1    3    3    0    0 -0.77311299021E+01 -0.17543066012E+02 -0.30577993278E+02  0.36090763470E+02  0.51100000000E-03 0.  1.
         23    2    1    0    0    0  0.21343590037E+02  0.13253129840E+02  0.12875028425E+02  0.96769508627E+02  0.92560127251E+02 0.  0.
         11    1    3    3    0    0  0.29074719940E+02  0.30796195851E+02  0.43453021703E+02  0.60678745157E+02  0.51100000000E-03 0. -1.
         22    1    1    0    0    0 -0.21343590037E+02 -0.13253129840E+02 -0.12875028425E+02  0.28230491373E+02  0.00000000000E+00 0. -1.
</event>
<event>
 5    1  0.1102386E-009  0.9118800E+02  0.7818608E-02  0.1130116E+00
         25   -1    0    0    0    0  0.00000000000E+00  0.00000000000E+00  0.99999998245E-14  0.12500000000E+03  0.12500000000E+03 0.  0.
        -11    1    3    3    0    0  0.14217207390E+02  0.11032108768E+02  0.28940117476E+02  0.34078832281E+02  0.51100000000E-03 0.  1.
         23    2    1    0    0    0 -0.20299197395E+02 -0.10264891476E+02 -0.17912071234E+02  0.96047146811E+02  0.91579401083E+02 0.  0.
         11    1    3    3    0    0 -0.34516404785E+02 -0.21297000244E+02 -0.46852188710E+02  0.61968314531E+02  0.51100000000E-03 0. -1.
         22    1    1    0    0    0  0.20299197395E+02  0.10264891476E+02  0.17912071234E+02  0.28952853189E+02  0.00000000000E+00 0. -1.
</event>
<event>
 5    1  0.1102386E-009  0.9118800E+02  0.7818608E-02  0.1130116E+00
         25   -1    0    0    0    0  0.00000000000E+00  0.00000000000E+00  0.99999998245E-14  0.12500000000E+03  0.12500000000E+03 0.  0.
        -11    1    3    3    0    0 -0.45927751341E+01 -0.43202193296E+02 -0.19370496798E+02  0.47568258697E+02  0.51100000000E-03 0. -1.
         23    2    1    0    0    0  0.84567750818E+01  0.25479271145E+01 -0.27752599913E+02  0.95875855732E+02  0.91345300553E+02 0.  0.
         11    1    3    3    0    0  0.13049550216E+02  0.45750120411E+02 -0.83821031156E+01  0.48307597035E+02  0.51100000000E-03 0.  1.
         22    1    1    0    0    0 -0.84567750818E+01 -0.25479271145E+01  0.27752599913E+02  0.29124144268E+02  0.00000000000E+00 0. -1.
</event>
<event>
 5    1  0.1102386E-009  0.9118800E+02  0.7818608E-02  0.1130116E+00
         25   -1    0    0    0    0  0.00000000000E+00  0.00000000000E+00  0.99999998245E-14  0.12500000000E+03  0.12500000000E+03 0.  0.
        -11    1    3    3    0    0 -0.21714861030E+02  0.33350935220E+02 -0.16663546941E+02  0.43145032930E+02  0.51100000000E-03 0.  1.
         23    2    1    0    0    0  0.19851998213E+02  0.26225761582E+01 -0.22165542815E+02  0.95128759199E+02  0.90317162265E+02 0.  0.
         11    1    3    3    0    0  0.41566859242E+02 -0.30728359062E+02 -0.55019958734E+01  0.51983726269E+02  0.51100000000E-03 0. -1.
         22    1    1    0    0    0 -0.19851998213E+02 -0.26225761582E+01  0.22165542815E+02  0.29871240801E+02  0.00000000000E+00 0. -1.
</event>
<event>
 5    1  0.1102386E-009  0.9118800E+02  0.7818608E-02  0.1130116E+00
         25   -1    0    0    0    0  0.00000000000E+00  0.00000000000E+00  0.99999998245E-14  0.12500000000E+03  0.12500000000E+03 0.  0.
        -11    1    3    3    0    0  0.31128428316E+01 -0.46876592126E+02 -0.12615674374E+02  0.48644217745E+02  0.51100000000E-03 0.  1.
         23    2    1    0    0    0  0.10437490382E+02 -0.33282011007E+01 -0.27622355001E+02  0.95284471671E+02  0.90532413631E+02 0.  0.
         11    1    3    3    0    0  0.73246475503E+01  0.43548391025E+02 -0.15006680627E+02  0.46640253926E+02  0.51100000000E-03 0. -1.
         22    1    1    0    0    0 -0.10437490382E+02  0.33282011007E+01  0.27622355001E+02  0.29715528329E+02  0.00000000000E+00 0. -1.
</event>
<event>
 5    1  0.1102386E-009  0.9118800E+02  0.7818608E-02  0.1130116E+00
         25   -1    0    0    0    0  0.00000000000E+00  0.00000000000E+00  0.99999998245E-14  0.12500000000E+03  0.12500000000E+03 0.  0.
        -11    1    3    3    0    0  0.28414341255E+02  0.43843905271E+01 -0.25850327647E+02  0.38663123373E+02  0.51100000000E-03 0. -1.
         23    2    1    0    0    0 -0.17940036561E+02 -0.22473859822E+02 -0.76489866549E+01  0.95243886612E+02  0.90476359636E+02 0.  0.
         11    1    3    3    0    0 -0.46354377816E+02 -0.26858250349E+02  0.18201340992E+02  0.56580763239E+02  0.51100000000E-03 0.  1.
         22    1    1    0    0    0  0.17940036561E+02  0.22473859822E+02  0.76489866549E+01  0.29756113388E+02  0.00000000000E+00 0.  1.
</event>
<event>
 5    1  0.1102386E-009  0.9118800E+02  0.7818608E-02  0.1130116E+00
         25   -1    0    0    0    0  0.00000000000E+00  0.00000000000E+00  0.99999998245E-14  0.12500000000E+03  0.12500000000E+03 0.  0.
        -11    1    3    3    0    0  0.86073950224E+00  0.19649476385E+02 -0.35179301434E+02  0.40304169069E+02  0.51100000000E-03 0.  1.
         23    2    1    0    0    0  0.24938097621E+02  0.15846747784E+02  0.11762619429E+02  0.93197683353E+02  0.87603771826E+02 0.  0.
         11    1    3    3    0    0  0.24077358119E+02 -0.38027286012E+01  0.46941920862E+02  0.52893514284E+02  0.51100000000E-03 0. -1.
         22    1    1    0    0    0 -0.24938097621E+02 -0.15846747784E+02 -0.11762619429E+02  0.31802316647E+02  0.00000000000E+00 0. -1.
</event>
<event>
 5    1  0.1102386E-009  0.9118800E+02  0.7818608E-02  0.1130116E+00
         25   -1    0    0    0    0  0.00000000000E+00  0.00000000000E+00  0.99999998245E-14  0.12500000000E+03  0.12500000000E+03 0.  0.
        -11    1    3    3    0    0  0.16497162360E+02  0.46702207960E+02  0.24310120409E+02  0.55174582452E+02  0.51100000000E-03 0.  1.
         23    2    1    0    0    0  0.56991032839E+01  0.68177790969E+01  0.26993105547E+02  0.96581878367E+02  0.92306389767E+02 0.  0.
         11    1    3    3    0    0 -0.10798059076E+02 -0.39884428863E+02  0.26829851384E+01  0.41407295915E+02  0.51100000000E-03 0. -1.
         22    1    1    0    0    0 -0.56991032839E+01 -0.68177790969E+01 -0.26993105547E+02  0.28418121633E+02  0.00000000000E+00 0. -1.
</event>
<event>
 5    1  0.1102386E-009  0.9118800E+02  0.7818608E-02  0.1130116E+00
         25   -1    0    0    0    0  0.00000000000E+00  0.00000000000E+00  0.99999998245E-14  0.12500000000E+03  0.12500000000E+03 0.  0.
        -11    1    3    3    0    0 -0.19884822447E+02 -0.45726791375E+02 -0.31413205575E+01  0.49962120735E+02  0.51100000000E-03 0.  1.
         23    2    1    0    0    0 -0.15298401178E+02 -0.73463218130E+01 -0.25314052093E+02  0.94523603294E+02  0.89475699626E+02 0.  0.
         11    1    3    3    0    0  0.45864212685E+01  0.38380469562E+02 -0.22172731536E+02  0.44561482559E+02  0.51100000000E-03 0. -1.
         22    1    1    0    0    0  0.15298401178E+02  0.73463218130E+01  0.25314052093E+02  0.30476396706E+02  0.00000000000E+00 0. -1.
</event>
<event>
 5    1  0.1102386E-009  0.9118800E+02  0.7818608E-02  0.1130116E+00
         25   -1    0    0    0    0  0.00000000000E+00  0.00000000000E+00  0.99999998245E-14  0.12500000000E+03  0.12500000000E+03 0.  0.
        -11    1    3    3    0    0  0.48163060262E+02  0.11749570865E+02 -0.26399598513E+02  0.56166463225E+02  0.51100000000E-03 0.  1.
         23    2    1    0    0    0  0.16518133998E+02 -0.99911410210E+01 -0.23382299392E+02  0.94678331600E+02  0.89691598827E+02 0.  0.
         11    1    3    3    0    0 -0.31644926263E+02 -0.21740711886E+02  0.30172991212E+01  0.38511868375E+02  0.51100000000E-03 0. -1.
         22    1    1    0    0    0 -0.16518133998E+02  0.99911410210E+01  0.23382299392E+02  0.30321668400E+02  0.00000000000E+00 0.  1.
</event>
<event>
 5    1  0.1102386E-009  0.9118800E+02  0.7818608E-02  0.1130116E+00
         25   -1    0    0    0    0  0.00000000000E+00  0.00000000000E+00  0.99999998245E-14  0.12500000000E+03  0.12500000000E+03 0.  0.
        -11    1    3    3    0    0 -0.93139803613E+01  0.43200552397E+01 -0.33046683346E+02  0.34604860755E+02  0.51100000000E-03 0.  1.
         23    2    1    0    0    0  0.71253188094E+01 -0.28780127157E+02  0.12123834555E+02  0.92967934009E+02  0.87275331579E+02 0.  0.
         11    1    3    3    0    0  0.16439299171E+02 -0.33100182397E+02  0.45170517901E+02  0.58363073254E+02  0.51100000000E-03 0. -1.
         22    1    1    0    0    0 -0.71253188094E+01  0.28780127157E+02 -0.12123834555E+02  0.32032065991E+02  0.00000000000E+00 0. -1.
</event>
<event>
 5    1  0.1102386E-009  0.9118800E+02  0.7818608E-02  0.1130116E+00
         25   -1    0    0    0    0  0.00000000000E+00  0.00000000000E+00  0.99999998245E-14  0.12500000000E+03  0.12500000000E+03 0.  0.
        -11    1    3    3    0    0 -0.22181932538E+02 -0.13050008817E+02 -0.54924279692E+02  0.60654903851E+02  0.51100000000E-03 0.  1.
         23    2    1    0    0    0 -0.98041069532E+01 -0.16056177305E+02 -0.21460155690E+02  0.96461260977E+02  0.92142906641E+02 0.  0.
         11    1    3    3    0    0  0.12377825585E+02 -0.30061684874E+01  0.33464124002E+02  0.35806357126E+02  0.51100000000E-03 0. -1.
         22    1    1    0    0    0  0.98041069532E+01  0.16056177305E+02  0.21460155690E+02  0.28538739023E+02  0.00000000000E+00 0.  1.
</event>
<event>
 5    1  0.1102386E-009  0.9118800E+02  0.7818608E-02  0.1130116E+00
         25   -1    0    0    0    0  0.00000000000E+00  0.00000000000E+00  0.99999998245E-14  0.12500000000E+03  0.12500000000E+03 0.  0.
        -11    1    3    3    0    0 -0.23133796476E+02 -0.34755540826E+02 -0.44679054782E+02  0.61150127506E+02  0.51100000000E-03 0. -1.
         23    2    1    0    0    0 -0.22947974073E+01 -0.19157668285E+02 -0.22609926582E+02  0.95276421324E+02  0.90521297666E+02 0.  0.
         11    1    3    3    0    0  0.20838999068E+02  0.15597872541E+02  0.22069128201E+02  0.34126293818E+02  0.51100000000E-03 0.  1.
         22    1    1    0    0    0  0.22947974073E+01  0.19157668285E+02  0.22609926582E+02  0.29723578676E+02  0.00000000000E+00 0. -1.
</event>
<event>
 5    1  0.1102386E-009  0.9118800E+02  0.7818608E-02  0.1130116E+00
         25   -1    0    0    0    0  0.00000000000E+00  0.00000000000E+00  0.99999998245E-14  0.12500000000E+03  0.12500000000E+03 0.  0.
        -11    1    3    3    0    0  0.13959302439E+02  0.23142958859E+02 -0.45460421011E+01  0.27406662847E+02  0.51100000000E-03 0.  1.
         23    2    1    0    0    0  0.99360512627E+01 -0.34414605859E+02 -0.15214186776E+02  0.86082629966E+02  0.76783184952E+02 0.  0.
         11    1    3    3    0    0 -0.40232511767E+01 -0.57557564718E+02 -0.10668144675E+02  0.58675967119E+02  0.51100000000E-03 0. -1.
         22    1    1    0    0    0 -0.99360512627E+01  0.34414605859E+02  0.15214186776E+02  0.38917370034E+02  0.00000000000E+00 0. -1.
</event>
<event>
 5    1  0.1102386E-009  0.9118800E+02  0.7818608E-02  0.1130116E+00
         25   -1    0    0    0    0  0.00000000000E+00  0.00000000000E+00  0.99999998245E-14  0.12500000000E+03  0.12500000000E+03 0.  0.
        -11    1    3    3    0    0  0.15154751607E+02  0.33818980597E+02  0.90191287073E+01  0.38140983571E+02  0.51100000000E-03 0. -1.
         23    2    1    0    0    0 -0.22735495342E+02 -0.82325156251E+01 -0.11337297830E+02  0.98293982250E+02  0.94596488109E+02 0.  0.
         11    1    3    3    0    0 -0.37890246950E+02 -0.42051496222E+02 -0.20356426537E+02  0.60152998679E+02  0.51100000000E-03 0.  1.
         22    1    1    0    0    0  0.22735495342E+02  0.82325156251E+01  0.11337297830E+02  0.26706017750E+02  0.00000000000E+00 0.  1.
</event>
<event>
 5    1  0.1102386E-009  0.9118800E+02  0.7818608E-02  0.1130116E+00
         25   -1    0    0    0    0  0.00000000000E+00  0.00000000000E+00  0.99999998245E-14  0.12500000000E+03  0.12500000000E+03 0.  0.
        -11    1    3    3    0    0 -0.14880977220E+02  0.25454297697E+02 -0.44170864308E+02  0.53107720797E+02  0.51100000000E-03 0. -1.
         23    2    1    0    0    0 -0.22005913406E+02 -0.56494997561E+01 -0.90915016117E+01  0.10052894620E+03  0.97505059105E+02 0.  0.
         11    1    3    3    0    0 -0.71249361863E+01 -0.31103797453E+02  0.35079362696E+02  0.47421225407E+02  0.51100000000E-03 0.  1.
         22    1    1    0    0    0  0.22005913406E+02  0.56494997561E+01  0.90915016117E+01  0.24471053796E+02  0.00000000000E+00 0. -1.
</event>
<event>
 5    1  0.1102386E-009  0.9118800E+02  0.7818608E-02  0.1130116E+00
         25   -1    0    0    0    0  0.00000000000E+00  0.00000000000E+00  0.99999998245E-14  0.12500000000E+03  0.12500000000E+03 0.  0.
        -11    1    3    3    0    0  0.27349290285E+02 -0.95668803125E+01  0.21636496744E+02  0.36161400272E+02  0.51100000000E-03 0. -1.
         23    2    1    0    0    0 -0.14370871885E+02  0.21866482207E+02 -0.97205088588E+01  0.97086682474E+02  0.92987475600E+02 0.  0.
         11    1    3    3    0    0 -0.41720162170E+02  0.31433362520E+02 -0.31357005603E+02  0.60925282202E+02  0.51100000000E-03 0.  1.
         22    1    1    0    0    0  0.14370871885E+02 -0.21866482207E+02  0.97205088588E+01  0.27913317526E+02  0.00000000000E+00 0.  1.
</event>
<event>
 5    1  0.1102386E-009  0.9118800E+02  0.7818608E-02  0.1130116E+00
         25   -1    0    0    0    0  0.00000000000E+00  0.00000000000E+00  0.99999998245E-14  0.12500000000E+03  0.12500000000E+03 0.  0.
        -11    1    3    3    0    0 -0.97973254781E+01 -0.32032466922E+02  0.25018930892E+01  0.33590564046E+02  0.51100000000E-03 0.  1.
         23    2    1    0    0    0 -0.14217646500E+01  0.23244874757E+02 -0.20431344092E+02  0.94019595894E+02  0.88768795044E+02 0.  0.
         11    1    3    3    0    0  0.83755608280E+01  0.55277341679E+02 -0.22933237181E+02  0.60429031848E+02  0.51100000000E-03 0. -1.
         22    1    1    0    0    0  0.14217646500E+01 -0.23244874757E+02  0.20431344092E+02  0.30980404106E+02  0.00000000000E+00 0. -1.
</event>
<event>
 5    1  0.1102386E-009  0.9118800E+02  0.7818608E-02  0.1130116E+00
         25   -1    0    0    0    0  0.00000000000E+00  0.00000000000E+00  0.99999998245E-14  0.12500000000E+03  0.12500000000E+03 0.  0.
        -11    1    3    3    0    0 -0.35666137911E+02 -0.79688303261E+01  0.15594777745E+02  0.39733773335E+02  0.51100000000E-03 0.  1.
         23    2    1    0    0    0  0.78127093140E+01 -0.18017929837E+02 -0.20114977862E+02  0.96887786341E+02  0.92719720584E+02 0.  0.
         11    1    3    3    0    0  0.43478847225E+02 -0.10049099511E+02 -0.35709755607E+02  0.57154013006E+02  0.51100000000E-03 0. -1.
         22    1    1    0    0    0 -0.78127093140E+01  0.18017929837E+02  0.20114977862E+02  0.28112213659E+02  0.00000000000E+00 0. -1.
</event>
<event>
 5    1  0.1102386E-009  0.9118800E+02  0.7818608E-02  0.1130116E+00
         25   -1    0    0    0    0  0.00000000000E+00  0.00000000000E+00  0.99999998245E-14  0.12500000000E+03  0.12500000000E+03 0.  0.
        -11    1    3    3    0    0 -0.46748664395E+02  0.24017751171E+02  0.18476528594E+01  0.52589959264E+02  0.51100000000E-03 0.  1.
         23    2    1    0    0    0 -0.25365080926E+02 -0.95386712926E+01  0.14398490512E+02  0.94313030299E+02  0.89181038202E+02 0.  0.
         11    1    3    3    0    0  0.21383583469E+02 -0.33556422463E+02  0.12550837653E+02  0.41723071035E+02  0.51100000000E-03 0. -1.
         22    1    1    0    0    0  0.25365080926E+02  0.95386712926E+01 -0.14398490512E+02  0.30686969701E+02  0.00000000000E+00 0.  1.
</event>
<event>
 5    1  0.1102386E-009  0.9118800E+02  0.7818608E-02  0.1130116E+00
         25   -1    0    0    0    0  0.00000000000E+00  0.00000000000E+00  0.99999998245E-14  0.12500000000E+03  0.12500000000E+03 0.  0.
        -11    1    3    3    0    0 -0.44725412424E+02  0.30971981460E+02  0.28475894031E+02  0.61404419166E+02  0.51100000000E-03 0.  1.
         23    2    1    0    0    0 -0.14274328492E+02  0.13154635265E+02  0.18774817801E+02  0.97994543768E+02  0.94199978460E+02 0.  0.
         11    1    3    3    0    0  0.30451083932E+02 -0.17817346195E+02 -0.97010762303E+01  0.36590124601E+02  0.51100000000E-03 0. -1.
         22    1    1    0    0    0  0.14274328492E+02 -0.13154635265E+02 -0.18774817801E+02  0.27005456232E+02  0.00000000000E+00 0.  1.
</event>
<event>
 5    1  0.1102386E-009  0.9118800E+02  0.7818608E-02  0.1130116E+00
         25   -1    0    0    0    0  0.00000000000E+00  0.00000000000E+00  0.99999998245E-14  0.12500000000E+03  0.12500000000E+03 0.  0.
        -11    1    3    3    0    0 -0.26553949751E+02  0.97090361005E+01 -0.32787785109E+02  0.43294531779E+02  0.51100000000E-03 0. -1.
         23    2    1    0    0    0 -0.13756911779E+02 -0.25974551063E+02  0.30343521472E+01  0.95451104630E+02  0.90762195641E+02 0.  0.
         11    1    3    3    0    0  0.12797037972E+02 -0.35683587164E+02  0.35822137256E+02  0.52156572851E+02  0.51100000000E-03 0.  1.
         22    1    1    0    0    0  0.13756911779E+02  0.25974551063E+02 -0.30343521472E+01  0.29548895370E+02  0.00000000000E+00 0.  1.
</event>
<event>
 5    1  0.1102386E-009  0.9118800E+02  0.7818608E-02  0.1130116E+00
         25   -1    0    0    0    0  0.00000000000E+00  0.00000000000E+00  0.99999998245E-14  0.12500000000E+03  0.12500000000E+03 0.  0.
        -11    1    3    3    0    0  0.26976844934E+02 -0.20140424422E+02  0.24624708114E+02  0.41710467613E+02  0.51100000000E-03 0.  1.
         23    2    1    0    0    0  0.13048339991E+02  0.14186921015E+01 -0.24539200271E+02  0.97171162192E+02  0.93100969641E+02 0.  0.
         11    1    3    3    0    0 -0.13928504943E+02  0.21559116524E+02 -0.49163908385E+02  0.55460694579E+02  0.51100000000E-03 0. -1.
         22    1    1    0    0    0 -0.13048339991E+02 -0.14186921015E+01  0.24539200271E+02  0.27828837808E+02  0.00000000000E+00 0. -1.
</event>
<event>
 5    1  0.1102386E-009  0.9118800E+02  0.7818608E-02  0.1130116E+00
         25   -1    0    0    0    0  0.00000000000E+00  0.00000000000E+00  0.99999998245E-14  0.12500000000E+03  0.12500000000E+03 0.  0.
        -11    1    3    3    0    0  0.35752675443E+02  0.19407780681E+02 -0.68866966865E+00  0.40686484469E+02  0.51100000000E-03 0.  1.
         23    2    1    0    0    0 -0.11573130257E+02 -0.19143339061E+02 -0.56490209714E+01  0.10192802106E+03  0.99282451947E+02 0.  0.
         11    1    3    3    0    0 -0.47325805700E+02 -0.38551119742E+02 -0.49603513028E+01  0.61241536589E+02  0.51100000000E-03 0. -1.
         22    1    1    0    0    0  0.11573130257E+02  0.19143339061E+02  0.56490209714E+01  0.23071978942E+02  0.00000000000E+00 0. -1.
</event>
<event>
 5    1  0.1102386E-009  0.9118800E+02  0.7818608E-02  0.1130116E+00
         25   -1    0    0    0    0  0.00000000000E+00  0.00000000000E+00  0.99999998245E-14  0.12500000000E+03  0.12500000000E+03 0.  0.
        -11    1    3    3    0    0  0.41371736960E+01  0.30660361522E+02  0.37874060156E+02  0.48904175771E+02  0.51100000000E-03 0. -1.
         23    2    1    0    0    0  0.14855363303E+01  0.27674064441E+02 -0.89335223785E+01  0.95881818687E+02  0.91353460098E+02 0.  0.
         11    1    3    3    0    0 -0.26516373658E+01 -0.29862970813E+01 -0.46807582535E+02  0.46977642916E+02  0.51100000000E-03 0.  1.
         22    1    1    0    0    0 -0.14855363303E+01 -0.27674064441E+02  0.89335223785E+01  0.29118181313E+02  0.00000000000E+00 0. -1.
</event>
<event>
 5    1  0.1102386E-009  0.9118800E+02  0.7818608E-02  0.1130116E+00
         25   -1    0    0    0    0  0.00000000000E+00  0.00000000000E+00  0.99999998245E-14  0.12500000000E+03  0.12500000000E+03 0.  0.
        -11    1    3    3    0    0  0.31791420664E+02 -0.23962281591E+02 -0.70150118843E+01  0.40423950313E+02  0.51100000000E-03 0. -1.
         23    2    1    0    0    0 -0.20079968396E+02 -0.19677585054E+02  0.99652968666E+01  0.95171831669E+02  0.90376755403E+02 0.  0.
         11    1    3    3    0    0 -0.51871389060E+02  0.42846965374E+01  0.16980308751E+02  0.54747881356E+02  0.51100000000E-03 0.  1.
         22    1    1    0    0    0  0.20079968396E+02  0.19677585054E+02 -0.99652968666E+01  0.29828168331E+02  0.00000000000E+00 0.  1.
</event>
<event>
 5    1  0.1102386E-009  0.9118800E+02  0.7818608E-02  0.1130116E+00
         25   -1    0    0    0    0  0.00000000000E+00  0.00000000000E+00  0.99999998245E-14  0.12500000000E+03  0.12500000000E+03 0.  0.
        -11    1    3    3    0    0  0.32771448484E+02 -0.21305472965E+02  0.83262922277E+01  0.39965211829E+02  0.51100000000E-03 0.  1.
         23    2    1    0    0    0  0.14266172150E+00  0.46725787794E+01 -0.28812148176E+02  0.95811076975E+02  0.91256612055E+02 0.  0.
         11    1    3    3    0    0 -0.32628786763E+02  0.25978051744E+02 -0.37138440404E+02  0.55845865146E+02  0.51100000000E-03 0. -1.
         22    1    1    0    0    0 -0.14266172150E+00 -0.46725787794E+01  0.28812148176E+02  0.29188923025E+02  0.00000000000E+00 0. -1.
</event>
<event>
 5    1  0.1102386E-009  0.9118800E+02  0.7818608E-02  0.1130116E+00
         25   -1    0    0    0    0  0.00000000000E+00  0.00000000000E+00  0.99999998245E-14  0.12500000000E+03  0.12500000000E+03 0.  0.
        -11    1    3    3    0    0 -0.40145344079E+02  0.42222688463E+00  0.31954657879E+02  0.51312055963E+02  0.51100000000E-03 0. -1.
         23    2    1    0    0    0 -0.24962908729E+02 -0.17712748523E+02 -0.37738763102E+01  0.94159597687E+02  0.88965720486E+02 0.  0.
         11    1    3    3    0    0  0.15182435350E+02 -0.18134975407E+02 -0.35728534189E+02  0.42847541724E+02  0.51100000000E-03 0.  1.
         22    1    1    0    0    0  0.24962908729E+02  0.17712748523E+02  0.37738763102E+01  0.30840402313E+02  0.00000000000E+00 0.  1.
</event>
<event>
 5    1  0.1102386E-009  0.9118800E+02  0.7818608E-02  0.1130116E+00
         25   -1    0    0    0    0  0.00000000000E+00  0.00000000000E+00  0.99999998245E-14  0.12500000000E+03  0.12500000000E+03 0.  0.
        -11    1    3    3    0    0  0.54385184597E+02  0.17445975073E+02  0.21396764528E+02  0.60991244310E+02  0.51100000000E-03 0. -1.
         23    2    1    0    0    0  0.26652624068E+02 -0.12157071110E+01  0.12216457623E+02  0.95655798693E+02  0.91043669045E+02 0.  0.
         11    1    3    3    0    0 -0.27732560529E+02 -0.18661682184E+02 -0.91803069047E+01  0.34664554383E+02  0.51100000000E-03 0.  1.
         22    1    1    0    0    0 -0.26652624068E+02  0.12157071110E+01 -0.12216457623E+02  0.29344201307E+02  0.00000000000E+00 0. -1.
</event>
<event>
 5    1  0.1102386E-009  0.9118800E+02  0.7818608E-02  0.1130116E+00
         25   -1    0    0    0    0  0.00000000000E+00  0.00000000000E+00  0.99999998245E-14  0.12500000000E+03  0.12500000000E+03 0.  0.
        -11    1    3    3    0    0 -0.36919008657E+02  0.38139593747E+02 -0.10433180387E+02  0.54097070759E+02  0.51100000000E-03 0.  1.
         23    2    1    0    0    0 -0.32464403900E+02  0.11025369940E+01 -0.13609264463E+01  0.92488383165E+02  0.86585771299E+02 0.  0.
         11    1    3    3    0    0  0.44546047573E+01 -0.37037056753E+02  0.90722539411E+01  0.38391312407E+02  0.51100000000E-03 0. -1.
         22    1    1    0    0    0  0.32464403900E+02 -0.11025369940E+01  0.13609264463E+01  0.32511616835E+02  0.00000000000E+00 0.  1.
</event>
<event>
 5    1  0.1102386E-009  0.9118800E+02  0.7818608E-02  0.1130116E+00
         25   -1    0    0    0    0  0.00000000000E+00  0.00000000000E+00  0.99999998245E-14  0.12500000000E+03  0.12500000000E+03 0.  0.
        -11    1    3    3    0    0 -0.98851862036E+01  0.41797283126E+02  0.27653426897E+02  0.51082695724E+02  0.51100000000E-03 0. -1.
         23    2    1    0    0    0 -0.15257793043E+02 -0.35149063710E+01  0.23311389423E+02  0.96918410085E+02  0.92760996767E+02 0.  0.
         11    1    3    3    0    0 -0.53726068392E+01 -0.45312189497E+02 -0.43420374736E+01  0.45835714361E+02  0.51100000000E-03 0.  1.
         22    1    1    0    0    0  0.15257793043E+02  0.35149063710E+01 -0.23311389423E+02  0.28081589915E+02  0.00000000000E+00 0.  1.
</event>
<event>
 5    1  0.1102386E-009  0.9118800E+02  0.7818608E-02  0.1130116E+00
         25   -1    0    0    0    0  0.00000000000E+00  0.00000000000E+00  0.99999998245E-14  0.12500000000E+03  0.12500000000E+03 0.  0.
        -11    1    3    3    0    0  0.20566909889E+02  0.28877666581E+02 -0.30068066067E+02  0.46486621805E+02  0.51100000000E-03 0. -1.
         23    2    1    0    0    0 -0.14064954444E+02 -0.22808547333E+01 -0.28544109683E+02  0.93097156248E+02  0.87460214166E+02 0.  0.
         11    1    3    3    0    0 -0.34631864334E+02 -0.31158521314E+02  0.15239563839E+01  0.46610534443E+02  0.51100000000E-03 0.  1.
         22    1    1    0    0    0  0.14064954444E+02  0.22808547333E+01  0.28544109683E+02  0.31902843752E+02  0.00000000000E+00 0.  1.
</event>
<event>
 5    1  0.1102386E-009  0.9118800E+02  0.7818608E-02  0.1130116E+00
         25   -1    0    0    0    0  0.00000000000E+00  0.00000000000E+00  0.99999998245E-14  0.12500000000E+03  0.12500000000E+03 0.  0.
        -11    1    3    3    0    0  0.22975130903E+02  0.33049654806E+01  0.30954991791E+02  0.38690967342E+02  0.51100000000E-03 0.  1.
         23    2    1    0    0    0 -0.24411947338E+02 -0.15183719297E+02  0.49181204842E+01  0.95833642435E+02  0.91287516171E+02 0.  0.
         11    1    3    3    0    0 -0.47387078241E+02 -0.18488684777E+02 -0.26036871306E+02  0.57142675093E+02  0.51100000000E-03 0. -1.
         22    1    1    0    0    0  0.24411947338E+02  0.15183719297E+02 -0.49181204842E+01  0.29166357565E+02  0.00000000000E+00 0. -1.
</event>
<event>
 5    1  0.1102386E-009  0.9118800E+02  0.7818608E-02  0.1130116E+00
         25   -1    0    0    0    0  0.00000000000E+00  0.00000000000E+00  0.99999998245E-14  0.12500000000E+03  0.12500000000E+03 0.  0.
        -11    1    3    3    0    0 -0.25316177327E+02 -0.17304276170E+02 -0.19581925529E+02  0.36384043424E+02  0.51100000000E-03 0.  1.
         23    2    1    0    0    0  0.12817957702E+01 -0.17454594817E+00  0.29876593580E+02  0.95095413218E+02  0.90270999244E+02 0.  0.
         11    1    3    3    0    0  0.26597973097E+02  0.17129730222E+02  0.49458519108E+02  0.58711369793E+02  0.51100000000E-03 0. -1.
         22    1    1    0    0    0 -0.12817957702E+01  0.17454594817E+00 -0.29876593580E+02  0.29904586782E+02  0.00000000000E+00 0. -1.
</event>
<event>
 5    1  0.1102386E-009  0.9118800E+02  0.7818608E-02  0.1130116E+00
         25   -1    0    0    0    0  0.00000000000E+00  0.00000000000E+00  0.99999998245E-14  0.12500000000E+03  0.12500000000E+03 0.  0.
        -11    1    3    3    0    0  0.32442205986E+02 -0.96621032374E+01 -0.45169310045E+02  0.56445722056E+02  0.51100000000E-03 0. -1.
         23    2    1    0    0    0  0.30294491795E-01  0.98185820927E+01 -0.22288082328E+02  0.10064503981E+03  0.97653775923E+02 0.  0.
         11    1    3    3    0    0 -0.32411911494E+02  0.19480685330E+02  0.22881227717E+02  0.44199317752E+02  0.51100000000E-03 0.  1.
         22    1    1    0    0    0 -0.30294491795E-01 -0.98185820927E+01  0.22288082328E+02  0.24354960192E+02  0.00000000000E+00 0. -1.
</event>
<event>
 5    1  0.1102386E-009  0.9118800E+02  0.7818608E-02  0.1130116E+00
         25   -1    0    0    0    0  0.00000000000E+00  0.00000000000E+00  0.99999998245E-14  0.12500000000E+03  0.12500000000E+03 0.  0.
        -11    1    3    3    0    0  0.32362895930E+02  0.89139620905E+01 -0.15378211070E+02  0.36922962085E+02  0.51100000000E-03 0. -1.
         23    2    1    0    0    0 -0.22686323775E+02  0.17105097987E+02 -0.15616751623E+02  0.92578763213E+02  0.86716150763E+02 0.  0.
         11    1    3    3    0    0 -0.55049219705E+02  0.81911358960E+01 -0.23854055324E+00  0.55655801128E+02  0.51100000000E-03 0.  1.
         22    1    1    0    0    0  0.22686323775E+02 -0.17105097987E+02  0.15616751623E+02  0.32421236787E+02  0.00000000000E+00 0.  1.
</event>
<event>
 5    1  0.1102386E-009  0.9118800E+02  0.7818608E-02  0.1130116E+00
         25   -1    0    0    0    0  0.00000000000E+00  0.00000000000E+00  0.99999998245E-14  0.12500000000E+03  0.12500000000E+03 0.  0.
        -11    1    3    3    0    0  0.53942173182E+02  0.23199135247E+02  0.17875019647E+02  0.61379754410E+02  0.51100000000E-03 0. -1.
         23    2    1    0    0    0  0.26873919140E+02  0.13856535370E+02  0.17596815458E+02  0.90016303559E+02  0.82940194657E+02 0.  0.
         11    1    3    3    0    0 -0.27068254041E+02 -0.93425998779E+01 -0.27820418899E+00  0.28636549149E+02  0.51100000000E-03 0.  1.
         22    1    1    0    0    0 -0.26873919140E+02 -0.13856535370E+02 -0.17596815458E+02  0.34983696441E+02  0.00000000000E+00 0. -1.
</event>
<event>
 5    1  0.1102386E-009  0.9118800E+02  0.7818608E-02  0.1130116E+00
         25   -1    0    0    0    0  0.00000000000E+00  0.00000000000E+00  0.99999998245E-14  0.12500000000E+03  0.12500000000E+03 0.  0.
        -11    1    3    3    0    0  0.91933064318E+01 -0.35801903736E+02  0.17996392883E+02  0.41111596312E+02  0.51100000000E-03 0.  1.
         23    2    1    0    0    0  0.18824039531E+02 -0.50770500172E+01 -0.24030433364E+02  0.94055167979E+02  0.88818871839E+02 0.  0.
         11    1    3    3    0    0  0.96307330995E+01  0.30724853719E+02 -0.42026826247E+02  0.52943571666E+02  0.51100000000E-03 0. -1.
         22    1    1    0    0    0 -0.18824039531E+02  0.50770500172E+01  0.24030433364E+02  0.30944832021E+02  0.00000000000E+00 0.  1.
</event>
<event>
 5    1  0.1102386E-009  0.9118800E+02  0.7818608E-02  0.1130116E+00
         25   -1    0    0    0    0  0.00000000000E+00  0.00000000000E+00  0.99999998245E-14  0.12500000000E+03  0.12500000000E+03 0.  0.
        -11    1    3    3    0    0 -0.32182576257E+02  0.84838065442E+01 -0.55947148033E+01  0.33748985496E+02  0.51100000000E-03 0.  1.
         23    2    1    0    0    0  0.23674575596E+02 -0.16655043198E+02 -0.77297214438E+01  0.95039616371E+02  0.90193703177E+02 0.  0.
         11    1    3    3    0    0  0.55857151853E+02 -0.25138849742E+02 -0.21350066405E+01  0.61290630875E+02  0.51100000000E-03 0. -1.
         22    1    1    0    0    0 -0.23674575596E+02  0.16655043198E+02  0.77297214438E+01  0.29960383629E+02  0.00000000000E+00 0. -1.
</event>
<event>
 5    1  0.1102386E-009  0.9118800E+02  0.7818608E-02  0.1130116E+00
         25   -1    0    0    0    0  0.00000000000E+00  0.00000000000E+00  0.99999998245E-14  0.12500000000E+03  0.12500000000E+03 0.  0.
        -11    1    3    3    0    0 -0.10877350187E+02 -0.39398117794E+02  0.41849796543E+02  0.58497298260E+02  0.51100000000E-03 0. -1.
         23    2    1    0    0    0  0.58663927023E+01 -0.83663645027E+01  0.25821764614E+02  0.97229977564E+02  0.93179903364E+02 0.  0.
         11    1    3    3    0    0  0.16743742889E+02  0.31031753291E+02 -0.16028031929E+02  0.38732679304E+02  0.51100000000E-03 0.  1.
         22    1    1    0    0    0 -0.58663927023E+01  0.83663645027E+01 -0.25821764614E+02  0.27770022436E+02  0.00000000000E+00 0. -1.
</event>
<event>
 5    1  0.1102386E-009  0.9118800E+02  0.7818608E-02  0.1130116E+00
         25   -1    0    0    0    0  0.00000000000E+00  0.00000000000E+00  0.99999998245E-14  0.12500000000E+03  0.12500000000E+03 0.  0.
        -11    1    3    3    0    0  0.64695458021E+01 -0.30845593982E+02 -0.84982583655E+01  0.32642397070E+02  0.51100000000E-03 0.  1.
         23    2    1    0    0    0 -0.21085497481E+02  0.23090131213E+02 -0.57156380300E+00  0.93725744635E+02  0.88354038723E+02 0.  0.
         11    1    3    3    0    0 -0.27555043283E+02  0.53935725195E+02  0.79266945625E+01  0.61083347564E+02  0.51100000000E-03 0. -1.
         22    1    1    0    0    0  0.21085497481E+02 -0.23090131213E+02  0.57156380300E+00  0.31274255365E+02  0.00000000000E+00 0. -1.
</event>
<event>
 5    1  0.1102386E-009  0.9118800E+02  0.7818608E-02  0.1130116E+00
         25   -1    0    0    0    0  0.00000000000E+00  0.00000000000E+00  0.99999998245E-14  0.12500000000E+03  0.12500000000E+03 0.  0.
        -11    1    3    3    0    0 -0.51219403158E+02  0.19837655721E+02 -0.77303922749E+01  0.55468178349E+02  0.51100000000E-03 0. -1.
         23    2    1    0    0    0 -0.17969499023E+02  0.10550121107E+02 -0.23645792684E+02  0.93482838609E+02  0.88009713397E+02 0.  0.
         11    1    3    3    0    0  0.33249904136E+02 -0.92875346135E+01 -0.15915400409E+02  0.38014660260E+02  0.51100000000E-03 0.  1.
         22    1    1    0    0    0  0.17969499023E+02 -0.10550121107E+02  0.23645792684E+02  0.31517161391E+02  0.00000000000E+00 0. -1.
</event>
<event>
 5    1  0.1102386E-009  0.9118800E+02  0.7818608E-02  0.1130116E+00
         25   -1    0    0    0    0  0.00000000000E+00  0.00000000000E+00  0.99999998245E-14  0.12500000000E+03  0.12500000000E+03 0.  0.
        -11    1    3    3    0    0  0.52571467188E+02  0.29292164898E+01 -0.13616029329E+02  0.54385068966E+02  0.51100000000E-03 0.  1.
         23    2    1    0    0    0  0.14728408558E+02  0.20820521986E+02 -0.13281291075E+02  0.96245646468E+02  0.91849940757E+02 0.  0.
         11    1    3    3    0    0 -0.37843058630E+02  0.17891305496E+02  0.33473825410E+00  0.41860577502E+02  0.51100000000E-03 0. -1.
         22    1    1    0    0    0 -0.14728408558E+02 -0.20820521986E+02  0.13281291075E+02  0.28754353532E+02  0.00000000000E+00 0.  1.
</event>
<event>
 5    1  0.1102386E-009  0.9118800E+02  0.7818608E-02  0.1130116E+00
         25   -1    0    0    0    0  0.00000000000E+00  0.00000000000E+00  0.99999998245E-14  0.12500000000E+03  0.12500000000E+03 0.  0.
        -11    1    3    3    0    0 -0.72380723144E+00  0.93861292082E+01 -0.33692970499E+02  0.34983418640E+02  0.51100000000E-03 0. -1.
         23    2    1    0    0    0  0.60693122946E+01  0.10338901355E+02  0.26682805471E+02  0.95747623332E+02  0.91169654123E+02 0.  0.
         11    1    3    3    0    0  0.67931195260E+01  0.95277214700E+00  0.60375775970E+02  0.60764204692E+02  0.51100000000E-03 0.  1.
         22    1    1    0    0    0 -0.60693122946E+01 -0.10338901355E+02 -0.26682805471E+02  0.29252376668E+02  0.00000000000E+00 0.  1.
</event>
<event>
 5    1  0.1102386E-009  0.9118800E+02  0.7818608E-02  0.1130116E+00
         25   -1    0    0    0    0  0.00000000000E+00  0.00000000000E+00  0.99999998245E-14  0.12500000000E+03  0.12500000000E+03 0.  0.
        -11    1    3    3    0    0  0.24737001310E+02 -0.20727247864E+02  0.43259842646E+01  0.32561513754E+02  0.51100000000E-03 0. -1.
         23    2    1    0    0    0 -0.18033462345E+02  0.22798943833E+02 -0.80714047490E+01  0.94831387525E+02  0.89904654392E+02 0.  0.
         11    1    3    3    0    0 -0.42770463655E+02  0.43526191697E+02 -0.12397389014E+02  0.62269873771E+02  0.51100000000E-03 0.  1.
         22    1    1    0    0    0  0.18033462345E+02 -0.22798943833E+02  0.80714047490E+01  0.30168612475E+02  0.00000000000E+00 0.  1.
</event>
<event>
 5    1  0.1102386E-009  0.9118800E+02  0.7818608E-02  0.1130116E+00
         25   -1    0    0    0    0  0.00000000000E+00  0.00000000000E+00  0.99999998245E-14  0.12500000000E+03  0.12500000000E+03 0.  0.
        -11    1    3    3    0    0 -0.34698513739E+02 -0.67639904976E+00 -0.42573687835E+02  0.54926890204E+02  0.51100000000E-03 0. -1.
         23    2    1    0    0    0 -0.27693177399E+02  0.15257311895E+02 -0.10036202553E+02  0.91827375708E+02  0.85626187157E+02 0.  0.
         11    1    3    3    0    0  0.70053363399E+01  0.15933710945E+02  0.32537485282E+02  0.36900485504E+02  0.51100000000E-03 0.  1.
         22    1    1    0    0    0  0.27693177399E+02 -0.15257311895E+02  0.10036202553E+02  0.33172624292E+02  0.00000000000E+00 0. -1.
</event>
<event>
 5    1  0.1102386E-009  0.9118800E+02  0.7818608E-02  0.1130116E+00
         25   -1    0    0    0    0  0.00000000000E+00  0.00000000000E+00  0.99999998245E-14  0.12500000000E+03  0.12500000000E+03 0.  0.
        -11    1    3    3    0    0  0.30388053289E+02  0.21006207458E+02  0.21902217047E+02  0.42946497486E+02  0.51100000000E-03 0. -1.
         23    2    1    0    0    0  0.17381796560E+02 -0.22589155573E+02 -0.53801651829E+01  0.95994087179E+02  0.91506949434E+02 0.  0.
         11    1    3    3    0    0 -0.13006256729E+02 -0.43595363031E+02 -0.27282382230E+02  0.53047589694E+02  0.51100000000E-03 0.  1.
         22    1    1    0    0    0 -0.17381796560E+02  0.22589155573E+02  0.53801651829E+01  0.29005912821E+02  0.00000000000E+00 0.  1.
</event>
<event>
 5    1  0.1102386E-009  0.9118800E+02  0.7818608E-02  0.1130116E+00
         25   -1    0    0    0    0  0.00000000000E+00  0.00000000000E+00  0.99999998245E-14  0.12500000000E+03  0.12500000000E+03 0.  0.
        -11    1    3    3    0    0  0.83389349660E+01  0.39405396346E+00 -0.61751146979E+02  0.62312898090E+02  0.51100000000E-03 0.  1.
         23    2    1    0    0    0  0.54009624140E+00 -0.21291698808E+00 -0.29325633534E+02  0.95668620561E+02  0.91061271352E+02 0.  0.
         11    1    3    3    0    0 -0.77988387246E+01 -0.60697095153E+00  0.32425513444E+02  0.33355722471E+02  0.51100000000E-03 0. -1.
         22    1    1    0    0    0 -0.54009624140E+00  0.21291698808E+00  0.29325633534E+02  0.29331379439E+02  0.00000000000E+00 0.  1.
</event>
<event>
 5    1  0.1102386E-009  0.9118800E+02  0.7818608E-02  0.1130116E+00
         25   -1    0    0    0    0  0.00000000000E+00  0.00000000000E+00  0.99999998245E-14  0.12500000000E+03  0.12500000000E+03 0.  0.
        -11    1    3    3    0    0 -0.25626301408E+02  0.24050092054E+02  0.90215874829E+01  0.36283650486E+02  0.51100000000E-03 0.  1.
         23    2    1    0    0    0  0.59389870024E+01 -0.16243087120E+02 -0.22670498053E+02  0.96485776746E+02  0.92176158450E+02 0.  0.
         11    1    3    3    0    0  0.31565288410E+02 -0.40293179174E+02 -0.31692085536E+02  0.60202126260E+02  0.51100000000E-03 0. -1.
         22    1    1    0    0    0 -0.59389870024E+01  0.16243087120E+02  0.22670498053E+02  0.28514223254E+02  0.00000000000E+00 0. -1.
</event>
<event>
 5    1  0.1102386E-009  0.9118800E+02  0.7818608E-02  0.1130116E+00
         25   -1    0    0    0    0  0.00000000000E+00  0.00000000000E+00  0.99999998245E-14  0.12500000000E+03  0.12500000000E+03 0.  0.
        -11    1    3    3    0    0 -0.33675217750E+02  0.40720737728E+01  0.46261636095E+01  0.34234536148E+02  0.51100000000E-03 0. -1.
         23    2    1    0    0    0  0.27974882576E+02  0.68986376098E+01  0.36470492616E+01  0.95957165697E+02  0.91456500175E+02 0.  0.
         11    1    3    3    0    0  0.61650100326E+02  0.28265638370E+01 -0.97911434796E+00  0.61722629549E+02  0.51100000000E-03 0.  1.
         22    1    1    0    0    0 -0.27974882576E+02 -0.68986376098E+01 -0.36470492616E+01  0.29042834303E+02  0.00000000000E+00 0.  1.
</event>
<event>
 5    1  0.1102386E-009  0.9118800E+02  0.7818608E-02  0.1130116E+00
         25   -1    0    0    0    0  0.00000000000E+00  0.00000000000E+00  0.99999998245E-14  0.12500000000E+03  0.12500000000E+03 0.  0.
        -11    1    3    3    0    0  0.27014660197E+02 -0.41032560991E+02 -0.32937309188E+01  0.49237298774E+02  0.51100000000E-03 0.  1.
         23    2    1    0    0    0 -0.65916834754E+01 -0.12038042323E+02  0.21058124236E+02  0.99864181924E+02  0.96649084222E+02 0.  0.
         11    1    3    3    0    0 -0.33606343672E+02  0.28994518667E+02  0.24351855154E+02  0.50626883150E+02  0.51100000000E-03 0. -1.
         22    1    1    0    0    0  0.65916834754E+01  0.12038042323E+02 -0.21058124236E+02  0.25135818076E+02  0.00000000000E+00 0.  1.
</event>
<event>
 5    1  0.1102386E-009  0.9118800E+02  0.7818608E-02  0.1130116E+00
         25   -1    0    0    0    0  0.00000000000E+00  0.00000000000E+00  0.99999998245E-14  0.12500000000E+03  0.12500000000E+03 0.  0.
        -11    1    3    3    0    0  0.38899918086E+02 -0.75926065712E+01  0.33002104745E+02  0.51575093015E+02  0.51100000000E-03 0. -1.
         23    2    1    0    0    0  0.11387252761E+02 -0.21853239932E+02 -0.42100039226E+01  0.10000084493E+03  0.96825674454E+02 0.  0.
         11    1    3    3    0    0 -0.27512665324E+02 -0.14260633361E+02 -0.37212108668E+02  0.48425751919E+02  0.51100000000E-03 0.  1.
         22    1    1    0    0    0 -0.11387252761E+02  0.21853239932E+02  0.42100039226E+01  0.24999155066E+02  0.00000000000E+00 0. -1.
</event>
<event>
 5    1  0.1102386E-009  0.9118800E+02  0.7818608E-02  0.1130116E+00
         25   -1    0    0    0    0  0.00000000000E+00  0.00000000000E+00  0.99999998245E-14  0.12500000000E+03  0.12500000000E+03 0.  0.
        -11    1    3    3    0    0 -0.45038208332E+02 -0.71715512355E+01  0.40210759199E+02  0.60801122625E+02  0.51100000000E-03 0.  1.
         23    2    1    0    0    0 -0.15117468618E+02 -0.18878760070E+01  0.27138671278E+02  0.93877509548E+02  0.88568489808E+02 0.  0.
         11    1    3    3    0    0  0.29920739714E+02  0.52836752285E+01 -0.13072087921E+02  0.33076386922E+02  0.51100000000E-03 0. -1.
         22    1    1    0    0    0  0.15117468618E+02  0.18878760070E+01 -0.27138671278E+02  0.31122490452E+02  0.00000000000E+00 0.  1.
</event>
<event>
 5    1  0.1102386E-009  0.9118800E+02  0.7818608E-02  0.1130116E+00
         25   -1    0    0    0    0  0.00000000000E+00  0.00000000000E+00  0.99999998245E-14  0.12500000000E+03  0.12500000000E+03 0.  0.
        -11    1    3    3    0    0  0.52240770281E+01 -0.36164476586E+02  0.69752713857E+01  0.37199660734E+02  0.51100000000E-03 0. -1.
         23    2    1    0    0    0 -0.68890962845E+01  0.24334891160E+02 -0.23472469732E+01  0.99600075911E+02  0.96306899949E+02 0.  0.
         11    1    3    3    0    0 -0.12113173313E+02  0.60499367746E+02 -0.93225183589E+01  0.62400415177E+02  0.51100000000E-03 0.  1.
         22    1    1    0    0    0  0.68890962845E+01 -0.24334891160E+02  0.23472469732E+01  0.25399924089E+02  0.00000000000E+00 0.  1.
</event>
<event>
 5    1  0.1102386E-009  0.9118800E+02  0.7818608E-02  0.1130116E+00
         25   -1    0    0    0    0  0.00000000000E+00  0.00000000000E+00  0.99999998245E-14  0.12500000000E+03  0.12500000000E+03 0.  0.
        -11    1    3    3    0    0 -0.31405589428E+02 -0.14048184355E+02  0.24431772309E+02  0.42196848572E+02  0.51100000000E-03 0. -1.
         23    2    1    0    0    0  0.10606351015E+02  0.89277028628E+01  0.31485196773E+02  0.90597730074E+02  0.83811887691E+02 0.  0.
         11    1    3    3    0    0  0.42011940443E+02  0.22975887217E+02  0.70534244640E+01  0.48400881502E+02  0.51100000000E-03 0.  1.
         22    1    1    0    0    0 -0.10606351015E+02 -0.89277028628E+01 -0.31485196773E+02  0.34402269926E+02  0.00000000000E+00 0.  1.
</event>
<event>
 5    1  0.1102386E-009  0.9118800E+02  0.7818608E-02  0.1130116E+00
         25   -1    0    0    0    0  0.00000000000E+00  0.00000000000E+00  0.99999998245E-14  0.12500000000E+03  0.12500000000E+03 0.  0.
        -11    1    3    3    0    0 -0.22549655325E+02 -0.24717033813E+02  0.21406476802E+02  0.39719717586E+02  0.51100000000E-03 0.  1.
         23    2    1    0    0    0  0.26115586830E+02  0.41861547908E+00  0.15036372946E+02  0.94862123072E+02  0.89947377771E+02 0.  0.
         11    1    3    3    0    0  0.48665242154E+02  0.25135649293E+02 -0.63701038567E+01  0.55142405485E+02  0.51100000000E-03 0. -1.
         22    1    1    0    0    0 -0.26115586830E+02 -0.41861547908E+00 -0.15036372946E+02  0.30137876928E+02  0.00000000000E+00 0. -1.
</event>
<event>
 5    1  0.1102386E-009  0.9118800E+02  0.7818608E-02  0.1130116E+00
         25   -1    0    0    0    0  0.00000000000E+00  0.00000000000E+00  0.99999998245E-14  0.12500000000E+03  0.12500000000E+03 0.  0.
        -11    1    3    3    0    0 -0.14441077431E+02 -0.46143738474E+02 -0.11860466818E+02  0.49784133929E+02  0.51100000000E-03 0.  1.
         23    2    1    0    0    0  0.21861338739E+02 -0.18109528922E+02 -0.53822613593E+01  0.96106369100E+02  0.91660200060E+02 0.  0.
         11    1    3    3    0    0  0.36302416170E+02  0.28034209551E+02  0.64782054584E+01  0.46322235171E+02  0.51100000000E-03 0. -1.
         22    1    1    0    0    0 -0.21861338739E+02  0.18109528922E+02  0.53822613593E+01  0.28893630900E+02  0.00000000000E+00 0. -1.
</event>
<event>
 5    1  0.1102386E-009  0.9118800E+02  0.7818608E-02  0.1130116E+00
         25   -1    0    0    0    0  0.00000000000E+00  0.00000000000E+00  0.99999998245E-14  0.12500000000E+03  0.12500000000E+03 0.  0.
        -11    1    3    3    0    0 -0.33167694932E+01  0.27710852239E+02 -0.53148581409E+02  0.60030525549E+02  0.51100000000E-03 0.  1.
         23    2    1    0    0    0 -0.23920838265E+01  0.31698096628E+02 -0.39400307477E+02  0.74375148157E+02  0.54486576688E+02 0.  0.
         11    1    3    3    0    0  0.92468566671E+00  0.39872443889E+01  0.13748273932E+02  0.14344622608E+02  0.51100000000E-03 0. -1.
         22    1    1    0    0    0  0.23920838265E+01 -0.31698096628E+02  0.39400307477E+02  0.50624851843E+02  0.00000000000E+00 0.  1.
</event>
<event>
 5    1  0.1102386E-009  0.9118800E+02  0.7818608E-02  0.1130116E+00
         25   -1    0    0    0    0  0.00000000000E+00  0.00000000000E+00  0.99999998245E-14  0.12500000000E+03  0.12500000000E+03 0.  0.
        -11    1    3    3    0    0  0.35973729601E+02  0.25469069043E+02  0.16754170996E+00  0.44077327163E+02  0.51100000000E-03 0.  1.
         23    2    1    0    0    0  0.10005709449E+02 -0.14710050287E+02 -0.21918881614E+02  0.96769924332E+02  0.92560688648E+02 0.  0.
         11    1    3    3    0    0 -0.25968020153E+02 -0.40179119331E+02 -0.22086423324E+02  0.52692597168E+02  0.51100000000E-03 0. -1.
         22    1    1    0    0    0 -0.10005709449E+02  0.14710050287E+02  0.21918881614E+02  0.28230075668E+02  0.00000000000E+00 0. -1.
</event>
<event>
 5    1  0.1102386E-009  0.9118800E+02  0.7818608E-02  0.1130116E+00
         25   -1    0    0    0    0  0.00000000000E+00  0.00000000000E+00  0.99999998245E-14  0.12500000000E+03  0.12500000000E+03 0.  0.
        -11    1    3    3    0    0 -0.39874193601E+02  0.26671652344E+02  0.35613252425E+02  0.59746398240E+02  0.51100000000E-03 0. -1.
         23    2    1    0    0    0 -0.25492508906E+02  0.17359652925E+01  0.13127721370E+02  0.96273380738E+02  0.91887677001E+02 0.  0.
         11    1    3    3    0    0  0.14381684695E+02 -0.24935687052E+02 -0.22485531055E+02  0.36526982499E+02  0.51100000000E-03 0.  1.
         22    1    1    0    0    0  0.25492508906E+02 -0.17359652925E+01 -0.13127721370E+02  0.28726619262E+02  0.00000000000E+00 0. -1.
</event>
<event>
 5    1  0.1102386E-009  0.9118800E+02  0.7818608E-02  0.1130116E+00
         25   -1    0    0    0    0  0.00000000000E+00  0.00000000000E+00  0.99999998245E-14  0.12500000000E+03  0.12500000000E+03 0.  0.
        -11    1    3    3    0    0 -0.40937411398E+02  0.26534314132E+02 -0.32983235302E+02  0.58888328977E+02  0.51100000000E-03 0. -1.
         23    2    1    0    0    0 -0.16178281436E+02  0.12199448215E+01 -0.25016640339E+02  0.95182935265E+02  0.90392111471E+02 0.  0.
         11    1    3    3    0    0  0.24759129961E+02 -0.25314369311E+02  0.79665949633E+01  0.36294606288E+02  0.51100000000E-03 0.  1.
         22    1    1    0    0    0  0.16178281436E+02 -0.12199448215E+01  0.25016640339E+02  0.29817064735E+02  0.00000000000E+00 0. -1.
</event>
<event>
 5    1  0.1102386E-009  0.9118800E+02  0.7818608E-02  0.1130116E+00
         25   -1    0    0    0    0  0.00000000000E+00  0.00000000000E+00  0.99999998245E-14  0.12500000000E+03  0.12500000000E+03 0.  0.
        -11    1    3    3    0    0  0.49580507582E+02 -0.16018038141E+02  0.30826917210E+02  0.60540095002E+02  0.51100000000E-03 0.  1.
         23    2    1    0    0    0  0.13168662540E+02 -0.14390015080E+02  0.15523969751E+02  0.10007050253E+03  0.96915559295E+02 0.  0.
         11    1    3    3    0    0 -0.36411845042E+02  0.16280230608E+01 -0.15302947458E+02  0.39530407532E+02  0.51100000000E-03 0. -1.
         22    1    1    0    0    0 -0.13168662540E+02  0.14390015080E+02 -0.15523969751E+02  0.24929497466E+02  0.00000000000E+00 0.  1.
</event>
<event>
 5    1  0.1102386E-009  0.9118800E+02  0.7818608E-02  0.1130116E+00
         25   -1    0    0    0    0  0.00000000000E+00  0.00000000000E+00  0.99999998245E-14  0.12500000000E+03  0.12500000000E+03 0.  0.
        -11    1    3    3    0    0  0.46735032668E+02 -0.33909702938E+02  0.17268009949E+02  0.60267863739E+02  0.51100000000E-03 0. -1.
         23    2    1    0    0    0  0.26130569292E+02 -0.53851361349E+01  0.11592463920E+02  0.95910628016E+02  0.91392871735E+02 0.  0.
         11    1    3    3    0    0 -0.20604463377E+02  0.28524566803E+02 -0.56755460286E+01  0.35642764277E+02  0.51100000000E-03 0.  1.
         22    1    1    0    0    0 -0.26130569292E+02  0.53851361349E+01 -0.11592463920E+02  0.29089371984E+02  0.00000000000E+00 0. -1.
</event>
<event>
 5    1  0.1102386E-009  0.9118800E+02  0.7818608E-02  0.1130116E+00
         25   -1    0    0    0    0  0.00000000000E+00  0.00000000000E+00  0.99999998245E-14  0.12500000000E+03  0.12500000000E+03 0.  0.
        -11    1    3    3    0    0 -0.94581491596E+01  0.23830185158E+02  0.32794034776E+02  0.41626710504E+02  0.51100000000E-03 0.  1.
         23    2    1    0    0    0  0.20754011093E+02 -0.15838139189E+02  0.60832647903E+01  0.98193625013E+02  0.94463782760E+02 0.  0.
         11    1    3    3    0    0  0.30212160252E+02 -0.39668324347E+02 -0.26710769986E+02  0.56566914510E+02  0.51100000000E-03 0. -1.
         22    1    1    0    0    0 -0.20754011093E+02  0.15838139189E+02 -0.60832647903E+01  0.26806374987E+02  0.00000000000E+00 0.  1.
</event>
<event>
 5    1  0.1102386E-009  0.9118800E+02  0.7818608E-02  0.1130116E+00
         25   -1    0    0    0    0  0.00000000000E+00  0.00000000000E+00  0.99999998245E-14  0.12500000000E+03  0.12500000000E+03 0.  0.
        -11    1    3    3    0    0 -0.28799306675E+02 -0.26158352361E+02 -0.27453180108E+02  0.47616557640E+02  0.51100000000E-03 0. -1.
         23    2    1    0    0    0 -0.27270759754E+02  0.11149210620E+02  0.24256764624E+01  0.95438485470E+02  0.90744814549E+02 0.  0.
         11    1    3    3    0    0  0.15285469210E+01  0.37307562980E+02  0.29878856570E+02  0.47821927830E+02  0.51100000000E-03 0.  1.
         22    1    1    0    0    0  0.27270759754E+02 -0.11149210620E+02 -0.24256764624E+01  0.29561514530E+02  0.00000000000E+00 0.  1.
</event>
<event>
 5    1  0.1102386E-009  0.9118800E+02  0.7818608E-02  0.1130116E+00
         25   -1    0    0    0    0  0.00000000000E+00  0.00000000000E+00  0.99999998245E-14  0.12500000000E+03  0.12500000000E+03 0.  0.
        -11    1    3    3    0    0 -0.16373575503E+02  0.36207888996E+02  0.11257339545E+01  0.39753898897E+02  0.51100000000E-03 0.  1.
         23    2    1    0    0    0  0.18299428555E+02 -0.36178251809E+01  0.21663919407E+02  0.96411835516E+02  0.92075832220E+02 0.  0.
         11    1    3    3    0    0  0.34673004058E+02 -0.39825714177E+02  0.20538185452E+02  0.56657936620E+02  0.51100000000E-03 0. -1.
         22    1    1    0    0    0 -0.18299428555E+02  0.36178251809E+01 -0.21663919407E+02  0.28588164484E+02  0.00000000000E+00 0. -1.
</event>
<event>
 5    1  0.1102386E-009  0.9118800E+02  0.7818608E-02  0.1130116E+00
         25   -1    0    0    0    0  0.00000000000E+00  0.00000000000E+00  0.99999998245E-14  0.12500000000E+03  0.12500000000E+03 0.  0.
        -11    1    3    3    0    0 -0.39317346184E+02 -0.14880299926E+02  0.49749656924E+01  0.42332343671E+02  0.51100000000E-03 0. -1.
         23    2    1    0    0    0  0.10310051592E+02 -0.28209164985E+02 -0.46375582404E+01  0.94609851935E+02  0.89596110317E+02 0.  0.
         11    1    3    3    0    0  0.49627397775E+02 -0.13328865058E+02 -0.96125239328E+01  0.52277508264E+02  0.51100000000E-03 0.  1.
         22    1    1    0    0    0 -0.10310051592E+02  0.28209164985E+02  0.46375582404E+01  0.30390148065E+02  0.00000000000E+00 0.  1.
</event>
<event>
 5    1  0.1102386E-009  0.9118800E+02  0.7818608E-02  0.1130116E+00
         25   -1    0    0    0    0  0.00000000000E+00  0.00000000000E+00  0.99999998245E-14  0.12500000000E+03  0.12500000000E+03 0.  0.
        -11    1    3    3    0    0  0.57543719918E+00  0.10622757786E+02  0.30084777308E+02  0.31910310824E+02  0.51100000000E-03 0. -1.
         23    2    1    0    0    0 -0.10558074002E+02 -0.31987089712E+01 -0.29195164472E+02  0.93790028929E+02  0.88444938986E+02 0.  0.
         11    1    3    3    0    0 -0.11133511201E+02 -0.13821466757E+02 -0.59279941780E+02  0.61879718105E+02  0.51100000000E-03 0.  1.
         22    1    1    0    0    0  0.10558074002E+02  0.31987089712E+01  0.29195164472E+02  0.31209971071E+02  0.00000000000E+00 0.  1.
</event>
<event>
 5    1  0.1102386E-009  0.9118800E+02  0.7818608E-02  0.1130116E+00
         25   -1    0    0    0    0  0.00000000000E+00  0.00000000000E+00  0.99999998245E-14  0.12500000000E+03  0.12500000000E+03 0.  0.
        -11    1    3    3    0    0 -0.28941614334E+02 -0.35465206187E+01 -0.18524930366E+02  0.34545157318E+02  0.51100000000E-03 0.  1.
         23    2    1    0    0    0  0.28722485699E+02  0.74837316235E+01 -0.37730462216E+01  0.95079717556E+02  0.90249262540E+02 0.  0.
         11    1    3    3    0    0  0.57664100033E+02  0.11030252242E+02  0.14751884144E+02  0.60534560238E+02  0.51100000000E-03 0. -1.
         22    1    1    0    0    0 -0.28722485699E+02 -0.74837316235E+01  0.37730462216E+01  0.29920282444E+02  0.00000000000E+00 0. -1.
</event>
<event>
 5    1  0.1102386E-009  0.9118800E+02  0.7818608E-02  0.1130116E+00
         25   -1    0    0    0    0  0.00000000000E+00  0.00000000000E+00  0.99999998245E-14  0.12500000000E+03  0.12500000000E+03 0.  0.
        -11    1    3    3    0    0 -0.42310008743E+01 -0.12854243718E+01 -0.53209832934E+02  0.53393258051E+02  0.51100000000E-03 0.  1.
         23    2    1    0    0    0 -0.16324769258E+02  0.17286375919E+02 -0.17283432034E+02  0.95605546329E+02  0.90974648020E+02 0.  0.
         11    1    3    3    0    0 -0.12093768384E+02  0.18571800290E+02  0.35926400900E+02  0.42212288278E+02  0.51100000000E-03 0. -1.
         22    1    1    0    0    0  0.16324769258E+02 -0.17286375919E+02  0.17283432034E+02  0.29394453671E+02  0.00000000000E+00 0.  1.
</event>
<event>
 5    1  0.1102386E-009  0.9118800E+02  0.7818608E-02  0.1130116E+00
         25   -1    0    0    0    0  0.00000000000E+00  0.00000000000E+00  0.99999998245E-14  0.12500000000E+03  0.12500000000E+03 0.  0.
        -11    1    3    3    0    0 -0.15439859249E+02 -0.64509484406E+01 -0.51827970663E+02  0.54462303777E+02  0.51100000000E-03 0.  1.
         23    2    1    0    0    0 -0.12325563991E+02  0.18398777307E+02 -0.18547198697E+02  0.96113444068E+02  0.91669847917E+02 0.  0.
         11    1    3    3    0    0  0.31142952582E+01  0.24849725747E+02  0.33280771966E+02  0.41651140291E+02  0.51100000000E-03 0. -1.
         22    1    1    0    0    0  0.12325563991E+02 -0.18398777307E+02  0.18547198697E+02  0.28886555932E+02  0.00000000000E+00 0.  1.
</event>
<event>
 5    1  0.1102386E-009  0.9118800E+02  0.7818608E-02  0.1130116E+00
         25   -1    0    0    0    0  0.00000000000E+00  0.00000000000E+00  0.99999998245E-14  0.12500000000E+03  0.12500000000E+03 0.  0.
        -11    1    3    3    0    0 -0.24934356292E+02 -0.26323331363E+02  0.23597550010E+02  0.43260654925E+02  0.51100000000E-03 0. -1.
         23    2    1    0    0    0  0.20923489827E+02 -0.22033273793E+02  0.91514817740E+00  0.94601067835E+02  0.89583854342E+02 0.  0.
         11    1    3    3    0    0  0.45857846119E+02  0.42900575705E+01 -0.22682401832E+02  0.51340412910E+02  0.51100000000E-03 0.  1.
         22    1    1    0    0    0 -0.20923489827E+02  0.22033273793E+02 -0.91514817740E+00  0.30398932165E+02  0.00000000000E+00 0. -1.
</event>
<event>
 5    1  0.1102386E-009  0.9118800E+02  0.7818608E-02  0.1130116E+00
         25   -1    0    0    0    0  0.00000000000E+00  0.00000000000E+00  0.99999998245E-14  0.12500000000E+03  0.12500000000E+03 0.  0.
        -11    1    3    3    0    0 -0.22665493016E+02  0.36273262098E+02  0.11326160842E+02  0.44246537001E+02  0.51100000000E-03 0.  1.
         23    2    1    0    0    0  0.21670550882E+02  0.19459482572E+02 -0.69382081954E+01  0.95059676514E+02  0.90221500367E+02 0.  0.
         11    1    3    3    0    0  0.44336043898E+02 -0.16813779526E+02 -0.18264369038E+02  0.50813139513E+02  0.51100000000E-03 0. -1.
         22    1    1    0    0    0 -0.21670550882E+02 -0.19459482572E+02  0.69382081954E+01  0.29940323486E+02  0.00000000000E+00 0. -1.
</event>
<event>
 5    1  0.1102386E-009  0.9118800E+02  0.7818608E-02  0.1130116E+00
         25   -1    0    0    0    0  0.00000000000E+00  0.00000000000E+00  0.99999998245E-14  0.12500000000E+03  0.12500000000E+03 0.  0.
        -11    1    3    3    0    0 -0.18375175699E+02 -0.20098612567E+02  0.90583910806E+01  0.28699403449E+02  0.51100000000E-03 0. -1.
         23    2    1    0    0    0 -0.46895849094E+01  0.37019941777E+01  0.48156572088E+02  0.76474208891E+02  0.59106279047E+02 0.  0.
         11    1    3    3    0    0  0.13685590790E+02  0.23800606745E+02  0.39098181007E+02  0.47774805442E+02  0.51100000000E-03 0.  1.
         22    1    1    0    0    0  0.46895849094E+01 -0.37019941777E+01 -0.48156572088E+02  0.48525791109E+02  0.00000000000E+00 0.  1.
</event>
<event>
 5    1  0.1102386E-009  0.9118800E+02  0.7818608E-02  0.1130116E+00
         25   -1    0    0    0    0  0.00000000000E+00  0.00000000000E+00  0.99999998245E-14  0.12500000000E+03  0.12500000000E+03 0.  0.
        -11    1    3    3    0    0 -0.77938872579E+01  0.66164957970E+01  0.60673847106E+02  0.61529167214E+02  0.51100000000E-03 0.  1.
         23    2    1    0    0    0 -0.24065154683E+01  0.11262232007E+02  0.38127733898E+02  0.85170949312E+02  0.75284376388E+02 0.  0.
         11    1    3    3    0    0  0.53873717896E+01  0.46457362101E+01 -0.22546113208E+02  0.23641782098E+02  0.51100000000E-03 0. -1.
         22    1    1    0    0    0  0.24065154683E+01 -0.11262232007E+02 -0.38127733898E+02  0.39829050688E+02  0.00000000000E+00 0.  1.
</event>
<event>
 5    1  0.1102386E-009  0.9118800E+02  0.7818608E-02  0.1130116E+00
         25   -1    0    0    0    0  0.00000000000E+00  0.00000000000E+00  0.99999998245E-14  0.12500000000E+03  0.12500000000E+03 0.  0.
        -11    1    3    3    0    0 -0.32747213527E+02  0.14070671023E+02  0.10042716878E+02  0.37029987029E+02  0.51100000000E-03 0.  1.
         23    2    1    0    0    0  0.26512714334E+02  0.84085518386E+01  0.18013364452E+01  0.97127565977E+02  0.93042417715E+02 0.  0.
         11    1    3    3    0    0  0.59259927861E+02 -0.56621191848E+01 -0.82413804333E+01  0.60097578948E+02  0.51100000000E-03 0. -1.
         22    1    1    0    0    0 -0.26512714334E+02 -0.84085518386E+01 -0.18013364452E+01  0.27872434023E+02  0.00000000000E+00 0. -1.
</event>
<event>
 5    1  0.1102386E-009  0.9118800E+02  0.7818608E-02  0.1130116E+00
         25   -1    0    0    0    0  0.00000000000E+00  0.00000000000E+00  0.99999998245E-14  0.12500000000E+03  0.12500000000E+03 0.  0.
        -11    1    3    3    0    0  0.11181656667E+02  0.33975654454E+02 -0.20760910020E+02  0.41356860695E+02  0.51100000000E-03 0. -1.
         23    2    1    0    0    0  0.21490831841E+02 -0.54201766299E+01  0.17135521282E+02  0.96984642470E+02  0.92850205264E+02 0.  0.
         11    1    3    3    0    0  0.10309175173E+02 -0.39395831084E+02  0.37896431302E+02  0.55627781775E+02  0.51100000000E-03 0.  1.
         22    1    1    0    0    0 -0.21490831841E+02  0.54201766299E+01 -0.17135521282E+02  0.28015357530E+02  0.00000000000E+00 0.  1.
</event>
<event>
 5    1  0.1102386E-009  0.9118800E+02  0.7818608E-02  0.1130116E+00
         25   -1    0    0    0    0  0.00000000000E+00  0.00000000000E+00  0.99999998245E-14  0.12500000000E+03  0.12500000000E+03 0.  0.
        -11    1    3    3    0    0  0.35209954842E+02  0.25524324320E+02  0.40888033575E+02  0.59691400904E+02  0.51100000000E-03 0.  1.
         23    2    1    0    0    0  0.10566605383E+02  0.23040642967E+02  0.14876109379E+02  0.95609133938E+02  0.90979577293E+02 0.  0.
         11    1    3    3    0    0 -0.24643349460E+02 -0.24836813530E+01 -0.26011924196E+02  0.35917733034E+02  0.51100000000E-03 0. -1.
         22    1    1    0    0    0 -0.10566605383E+02 -0.23040642967E+02 -0.14876109379E+02  0.29390866062E+02  0.00000000000E+00 0.  1.
</event>
<event>
 5    1  0.1102386E-009  0.9118800E+02  0.7818608E-02  0.1130116E+00
         25   -1    0    0    0    0  0.00000000000E+00  0.00000000000E+00  0.99999998245E-14  0.12500000000E+03  0.12500000000E+03 0.  0.
        -11    1    3    3    0    0 -0.27008431550E+02 -0.54692318274E+02 -0.11735859457E+02  0.62116305834E+02  0.51100000000E-03 0.  1.
         23    2    1    0    0    0 -0.92387921923E+01 -0.29302961955E+02 -0.44121141986E+01  0.93959935370E+02  0.88684744136E+02 0.  0.
         11    1    3    3    0    0  0.17769639358E+02  0.25389356319E+02  0.73237452585E+01  0.31843629536E+02  0.51100000000E-03 0. -1.
         22    1    1    0    0    0  0.92387921923E+01  0.29302961955E+02  0.44121141986E+01  0.31040064630E+02  0.00000000000E+00 0.  1.
</event>
<event>
 5    1  0.1102386E-009  0.9118800E+02  0.7818608E-02  0.1130116E+00
         25   -1    0    0    0    0  0.00000000000E+00  0.00000000000E+00  0.99999998245E-14  0.12500000000E+03  0.12500000000E+03 0.  0.
        -11    1    3    3    0    0  0.17608033786E+02 -0.80213360374E+01  0.92695942597E+01  0.21454837768E+02  0.51100000000E-03 0.  1.
         23    2    1    0    0    0  0.15365323614E+02  0.45162302196E+02  0.14998613865E+02  0.74993149196E+02  0.55886378475E+02 0.  0.
         11    1    3    3    0    0 -0.22427101728E+01  0.53183638234E+02  0.57290196055E+01  0.53538311428E+02  0.51100000000E-03 0. -1.
         22    1    1    0    0    0 -0.15365323614E+02 -0.45162302196E+02 -0.14998613865E+02  0.50006850804E+02  0.00000000000E+00 0. -1.
</event>
<event>
 5    1  0.1102386E-009  0.9118800E+02  0.7818608E-02  0.1130116E+00
         25   -1    0    0    0    0  0.00000000000E+00  0.00000000000E+00  0.99999998245E-14  0.12500000000E+03  0.12500000000E+03 0.  0.
        -11    1    3    3    0    0  0.12368923412E+02 -0.30153189795E+02 -0.15860168928E+02  0.36245690501E+02  0.51100000000E-03 0.  1.
         23    2    1    0    0    0  0.14777617411E+02  0.25729559945E+02  0.27658945410E+01  0.95200026779E+02  0.90415743623E+02 0.  0.
         11    1    3    3    0    0  0.24086939990E+01  0.55882749741E+02  0.18626063469E+02  0.58954336278E+02  0.51100000000E-03 0. -1.
         22    1    1    0    0    0 -0.14777617411E+02 -0.25729559945E+02 -0.27658945410E+01  0.29799973221E+02  0.00000000000E+00 0. -1.
</event>
<event>
 5    1  0.1102386E-009  0.9118800E+02  0.7818608E-02  0.1130116E+00
         25   -1    0    0    0    0  0.00000000000E+00  0.00000000000E+00  0.99999998245E-14  0.12500000000E+03  0.12500000000E+03 0.  0.
        -11    1    3    3    0    0 -0.31230313903E+02  0.22279179051E+02 -0.25221732281E+02  0.45911110912E+02  0.51100000000E-03 0.  1.
         23    2    1    0    0    0  0.62446635372E+01 -0.10705844692E+02 -0.26385611082E+02  0.95848475076E+02  0.91307824248E+02 0.  0.
         11    1    3    3    0    0  0.37474977440E+02 -0.32985023743E+02 -0.11638788005E+01  0.49937364163E+02  0.51100000000E-03 0. -1.
         22    1    1    0    0    0 -0.62446635372E+01  0.10705844692E+02  0.26385611082E+02  0.29151524924E+02  0.00000000000E+00 0. -1.
</event>
<event>
 5    1  0.1102386E-009  0.9118800E+02  0.7818608E-02  0.1130116E+00
         25   -1    0    0    0    0  0.00000000000E+00  0.00000000000E+00  0.99999998245E-14  0.12500000000E+03  0.12500000000E+03 0.  0.
        -11    1    3    3    0    0 -0.21743629006E+02  0.30656676824E+02  0.11827281474E+02  0.39401799750E+02  0.51100000000E-03 0. -1.
         23    2    1    0    0    0  0.95963929957E+01 -0.15942302139E+02  0.21693431053E+02  0.96419364827E+02  0.92086053270E+02 0.  0.
         11    1    3    3    0    0  0.31340022002E+02 -0.46598978963E+02  0.98661495793E+01  0.57017565077E+02  0.51100000000E-03 0.  1.
         22    1    1    0    0    0 -0.95963929957E+01  0.15942302139E+02 -0.21693431053E+02  0.28580635173E+02  0.00000000000E+00 0.  1.
</event>
<event>
 5    1  0.1102386E-009  0.9118800E+02  0.7818608E-02  0.1130116E+00
         25   -1    0    0    0    0  0.00000000000E+00  0.00000000000E+00  0.99999998245E-14  0.12500000000E+03  0.12500000000E+03 0.  0.
        -11    1    3    3    0    0 -0.66667964792E+01  0.45973065516E+02  0.12122462116E+02  0.48009613790E+02  0.51100000000E-03 0. -1.
         23    2    1    0    0    0  0.25052331858E+02  0.11191987492E+02  0.11923543460E+02  0.95082600310E+02  0.90253255219E+02 0.  0.
         11    1    3    3    0    0  0.31719128337E+02 -0.34781078025E+02 -0.19891865560E+00  0.47072986520E+02  0.51100000000E-03 0.  1.
         22    1    1    0    0    0 -0.25052331858E+02 -0.11191987492E+02 -0.11923543460E+02  0.29917399690E+02  0.00000000000E+00 0.  1.
</event>
<event>
 5    1  0.1102386E-009  0.9118800E+02  0.7818608E-02  0.1130116E+00
         25   -1    0    0    0    0  0.00000000000E+00  0.00000000000E+00  0.99999998245E-14  0.12500000000E+03  0.12500000000E+03 0.  0.
        -11    1    3    3    0    0  0.21417008765E+01  0.32231427294E+02 -0.99743386913E+00  0.32317900034E+02  0.51100000000E-03 0. -1.
         23    2    1    0    0    0 -0.18382127353E+02 -0.21631373035E+02 -0.16707892804E+02  0.92061077927E+02  0.85966676577E+02 0.  0.
         11    1    3    3    0    0 -0.20523828229E+02 -0.53862800329E+02 -0.15710458935E+02  0.59743177892E+02  0.51100000000E-03 0.  1.
         22    1    1    0    0    0  0.18382127353E+02  0.21631373035E+02  0.16707892804E+02  0.32938922073E+02  0.00000000000E+00 0.  1.
</event>
<event>
 5    1  0.1102386E-009  0.9118800E+02  0.7818608E-02  0.1130116E+00
         25   -1    0    0    0    0  0.00000000000E+00  0.00000000000E+00  0.99999998245E-14  0.12500000000E+03  0.12500000000E+03 0.  0.
        -11    1    3    3    0    0 -0.22175449857E+02 -0.88360379517E+01  0.38012995269E+02  0.44886679011E+02  0.51100000000E-03 0.  1.
         23    2    1    0    0    0 -0.10239840288E+02  0.27463802528E+02  0.52462040423E+01  0.95223542264E+02  0.90448247999E+02 0.  0.
         11    1    3    3    0    0  0.11935609569E+02  0.36299840480E+02 -0.32766791227E+02  0.50336863253E+02  0.51100000000E-03 0. -1.
         22    1    1    0    0    0  0.10239840288E+02 -0.27463802528E+02 -0.52462040423E+01  0.29776457736E+02  0.00000000000E+00 0.  1.
</event>
<event>
 5    1  0.1102386E-009  0.9118800E+02  0.7818608E-02  0.1130116E+00
         25   -1    0    0    0    0  0.00000000000E+00  0.00000000000E+00  0.99999998245E-14  0.12500000000E+03  0.12500000000E+03 0.  0.
        -11    1    3    3    0    0 -0.53316894876E+02  0.29856245534E+02 -0.11638843877E+02  0.62205702019E+02  0.51100000000E-03 0.  1.
         23    2    1    0    0    0 -0.23900864593E+02  0.18233803152E+02 -0.49701167451E+01  0.94529933277E+02  0.89484542348E+02 0.  0.
         11    1    3    3    0    0  0.29416030283E+02 -0.11622442382E+02  0.66687271322E+01  0.32324231257E+02  0.51100000000E-03 0. -1.
         22    1    1    0    0    0  0.23900864593E+02 -0.18233803152E+02  0.49701167451E+01  0.30470066723E+02  0.00000000000E+00 0.  1.
</event>
<event>
 5    1  0.1102386E-009  0.9118800E+02  0.7818608E-02  0.1130116E+00
         25   -1    0    0    0    0  0.00000000000E+00  0.00000000000E+00  0.99999998245E-14  0.12500000000E+03  0.12500000000E+03 0.  0.
        -11    1    3    3    0    0  0.18787294780E+02 -0.28700342097E+02 -0.37128807849E+02  0.50549188462E+02  0.51100000000E-03 0.  1.
         23    2    1    0    0    0 -0.17147188761E+02 -0.47748427843E+01 -0.22882260980E+02  0.96009948714E+02  0.91528613988E+02 0.  0.
         11    1    3    3    0    0 -0.35934483541E+02  0.23925499312E+02  0.14246546869E+02  0.45460760252E+02  0.51100000000E-03 0. -1.
         22    1    1    0    0    0  0.17147188761E+02  0.47748427843E+01  0.22882260980E+02  0.28990051286E+02  0.00000000000E+00 0. -1.
</event>
<event>
 5    1  0.1102386E-009  0.9118800E+02  0.7818608E-02  0.1130116E+00
         25   -1    0    0    0    0  0.00000000000E+00  0.00000000000E+00  0.99999998245E-14  0.12500000000E+03  0.12500000000E+03 0.  0.
        -11    1    3    3    0    0 -0.27962609360E+02  0.10178846331E+02 -0.38331663305E+02  0.48526619981E+02  0.51100000000E-03 0.  1.
         23    2    1    0    0    0  0.13713489572E+02 -0.49762864057E+01 -0.27020979388E+02  0.94292402411E+02  0.89152120573E+02 0.  0.
         11    1    3    3    0    0  0.41676098932E+02 -0.15155132737E+02  0.11310683917E+02  0.45765782429E+02  0.51100000000E-03 0. -1.
         22    1    1    0    0    0 -0.13713489572E+02  0.49762864057E+01  0.27020979388E+02  0.30707597589E+02  0.00000000000E+00 0.  1.
</event>
<event>
 5    1  0.1102386E-009  0.9118800E+02  0.7818608E-02  0.1130116E+00
         25   -1    0    0    0    0  0.00000000000E+00  0.00000000000E+00  0.99999998245E-14  0.12500000000E+03  0.12500000000E+03 0.  0.
        -11    1    3    3    0    0  0.14283623879E+02  0.37302599486E+02  0.30736003496E+02  0.50400473715E+02  0.51100000000E-03 0.  1.
         23    2    1    0    0    0  0.49714895047E+01 -0.74835190481E+01  0.27284348057E+02  0.96274498888E+02  0.91889198070E+02 0.  0.
         11    1    3    3    0    0 -0.93121343741E+01 -0.44786118534E+02 -0.34516554388E+01  0.45874025172E+02  0.51100000000E-03 0. -1.
         22    1    1    0    0    0 -0.49714895047E+01  0.74835190481E+01 -0.27284348057E+02  0.28725501112E+02  0.00000000000E+00 0. -1.
</event>
<event>
 5    1  0.1102386E-009  0.9118800E+02  0.7818608E-02  0.1130116E+00
         25   -1    0    0    0    0  0.00000000000E+00  0.00000000000E+00  0.99999998245E-14  0.12500000000E+03  0.12500000000E+03 0.  0.
        -11    1    3    3    0    0  0.47509288846E+02 -0.12594879710E+02 -0.83522597895E+01  0.49855027484E+02  0.51100000000E-03 0.  1.
         23    2    1    0    0    0 -0.52189934876E+01  0.11291892125E+02 -0.11813212667E+02  0.10784492162E+03  0.10647173524E+03 0.  0.
         11    1    3    3    0    0 -0.52728282334E+02  0.23886771836E+02 -0.34609528772E+01  0.57989894134E+02  0.51100000000E-03 0. -1.
         22    1    1    0    0    0  0.52189934876E+01 -0.11291892125E+02  0.11813212667E+02  0.17155078382E+02  0.00000000000E+00 0. -1.
</event>
<event>
 5    1  0.1102386E-009  0.9118800E+02  0.7818608E-02  0.1130116E+00
         25   -1    0    0    0    0  0.00000000000E+00  0.00000000000E+00  0.99999998245E-14  0.12500000000E+03  0.12500000000E+03 0.  0.
        -11    1    3    3    0    0 -0.16376860254E+02  0.73114999105E+01 -0.30492589452E+02  0.35375946553E+02  0.51100000000E-03 0. -1.
         23    2    1    0    0    0 -0.73211896745E+01 -0.88028408752E+01  0.26949664562E+02  0.95719046366E+02  0.91130464673E+02 0.  0.
         11    1    3    3    0    0  0.90556705792E+01 -0.16114340786E+02  0.57442254014E+02  0.60343099813E+02  0.51100000000E-03 0.  1.
         22    1    1    0    0    0  0.73211896745E+01  0.88028408752E+01 -0.26949664562E+02  0.29280953634E+02  0.00000000000E+00 0.  1.
</event>
<event>
 5    1  0.1102386E-009  0.9118800E+02  0.7818608E-02  0.1130116E+00
         25   -1    0    0    0    0  0.00000000000E+00  0.00000000000E+00  0.99999998245E-14  0.12500000000E+03  0.12500000000E+03 0.  0.
        -11    1    3    3    0    0 -0.14684588543E+01  0.23471789271E+02 -0.30017309025E+02  0.38132926774E+02  0.51100000000E-03 0.  1.
         23    2    1    0    0    0 -0.12533787806E+02  0.20635201658E+01  0.24313344902E+02  0.97568399745E+02  0.93632793060E+02 0.  0.
         11    1    3    3    0    0 -0.11065328951E+02 -0.21408269105E+02  0.54330653927E+02  0.59435472971E+02  0.51100000000E-03 0. -1.
         22    1    1    0    0    0  0.12533787806E+02 -0.20635201658E+01 -0.24313344902E+02  0.27431600255E+02  0.00000000000E+00 0. -1.
</event>
<event>
 5    1  0.1102386E-009  0.9118800E+02  0.7818608E-02  0.1130116E+00
         25   -1    0    0    0    0  0.00000000000E+00  0.00000000000E+00  0.99999998245E-14  0.12500000000E+03  0.12500000000E+03 0.  0.
        -11    1    3    3    0    0  0.38749290278E+01  0.23485964067E+02  0.27038290580E+02  0.36023252780E+02  0.51100000000E-03 0.  1.
         23    2    1    0    0    0 -0.37372733311E+01 -0.15887598678E+01 -0.27854989024E+02  0.96850545593E+02  0.92669500907E+02 0.  0.
         11    1    3    3    0    0 -0.76122023588E+01 -0.25074723934E+02 -0.54893279604E+02  0.60827292814E+02  0.51100000000E-03 0. -1.
         22    1    1    0    0    0  0.37372733311E+01  0.15887598678E+01  0.27854989024E+02  0.28149454407E+02  0.00000000000E+00 0. -1.
</event>
<event>
 5    1  0.1102386E-009  0.9118800E+02  0.7818608E-02  0.1130116E+00
         25   -1    0    0    0    0  0.00000000000E+00  0.00000000000E+00  0.99999998245E-14  0.12500000000E+03  0.12500000000E+03 0.  0.
        -11    1    3    3    0    0  0.37826093676E+02 -0.34312299889E+02 -0.22559736940E+02  0.55830896621E+02  0.51100000000E-03 0.  1.
         23    2    1    0    0    0  0.23962202758E+02  0.13891478414E+01 -0.19174448026E+02  0.94279056820E+02  0.89133406784E+02 0.  0.
         11    1    3    3    0    0 -0.13863890917E+02  0.35701447730E+02  0.33852889139E+01  0.38448160199E+02  0.51100000000E-03 0. -1.
         22    1    1    0    0    0 -0.23962202758E+02 -0.13891478414E+01  0.19174448026E+02  0.30720943180E+02  0.00000000000E+00 0.  1.
</event>
<event>
 5    1  0.1102386E-009  0.9118800E+02  0.7818608E-02  0.1130116E+00
         25   -1    0    0    0    0  0.00000000000E+00  0.00000000000E+00  0.99999998245E-14  0.12500000000E+03  0.12500000000E+03 0.  0.
        -11    1    3    3    0    0 -0.27207954826E+02  0.22998241386E+02 -0.21897555435E+02  0.41817398854E+02  0.51100000000E-03 0.  1.
         23    2    1    0    0    0 -0.12756170320E+02  0.21305013546E+02  0.24302544668E+02  0.90254681455E+02  0.83298681645E+02 0.  0.
         11    1    3    3    0    0  0.14451784506E+02 -0.16932278400E+01  0.46200100104E+02  0.48437282601E+02  0.51100000000E-03 0. -1.
         22    1    1    0    0    0  0.12756170320E+02 -0.21305013546E+02 -0.24302544668E+02  0.34745318545E+02  0.00000000000E+00 0. -1.
</event>
<event>
 5    1  0.1102386E-009  0.9118800E+02  0.7818608E-02  0.1130116E+00
         25   -1    0    0    0    0  0.00000000000E+00  0.00000000000E+00  0.99999998245E-14  0.12500000000E+03  0.12500000000E+03 0.  0.
        -11    1    3    3    0    0 -0.36521031673E+02 -0.34104780017E+02  0.22255673752E+02  0.54701341747E+02  0.51100000000E-03 0. -1.
         23    2    1    0    0    0 -0.66890759618E+01 -0.29145361512E+02 -0.41017803865E+01  0.94816884899E+02  0.89884488232E+02 0.  0.
         11    1    3    3    0    0  0.29831955711E+02  0.49594185058E+01 -0.26357454138E+02  0.40115543152E+02  0.51100000000E-03 0.  1.
         22    1    1    0    0    0  0.66890759618E+01  0.29145361512E+02  0.41017803865E+01  0.30183115101E+02  0.00000000000E+00 0. -1.
</event>
<event>
 5    1  0.1102386E-009  0.9118800E+02  0.7818608E-02  0.1130116E+00
         25   -1    0    0    0    0  0.00000000000E+00  0.00000000000E+00  0.99999998245E-14  0.12500000000E+03  0.12500000000E+03 0.  0.
        -11    1    3    3    0    0 -0.10458620499E+02  0.52340119239E+01 -0.31315146155E+02  0.33427772922E+02  0.51100000000E-03 0.  1.
         23    2    1    0    0    0  0.12641462454E+02 -0.89559944456E+01  0.24805775276E+02  0.95753754147E+02  0.91178059514E+02 0.  0.
         11    1    3    3    0    0  0.23100082953E+02 -0.14190006370E+02  0.56120921430E+02  0.62325981225E+02  0.51100000000E-03 0. -1.
         22    1    1    0    0    0 -0.12641462454E+02  0.89559944456E+01 -0.24805775276E+02  0.29246245853E+02  0.00000000000E+00 0. -1.
</event>
<event>
 5    1  0.1102386E-009  0.9118800E+02  0.7818608E-02  0.1130116E+00
         25   -1    0    0    0    0  0.00000000000E+00  0.00000000000E+00  0.99999998245E-14  0.12500000000E+03  0.12500000000E+03 0.  0.
        -11    1    3    3    0    0 -0.86720139358E+01  0.43611387224E+02 -0.39538424776E+02  0.59501629854E+02  0.51100000000E-03 0. -1.
         23    2    1    0    0    0 -0.15207927474E+02  0.22349358209E+02 -0.10689354453E+02  0.95930476973E+02  0.91420015550E+02 0.  0.
         11    1    3    3    0    0 -0.65359135384E+01 -0.21262029015E+02  0.28849070323E+02  0.36428847118E+02  0.51100000000E-03 0.  1.
         22    1    1    0    0    0  0.15207927474E+02 -0.22349358209E+02  0.10689354453E+02  0.29069523027E+02  0.00000000000E+00 0. -1.
</event>
<event>
 5    1  0.1102386E-009  0.9118800E+02  0.7818608E-02  0.1130116E+00
         25   -1    0    0    0    0  0.00000000000E+00  0.00000000000E+00  0.99999998245E-14  0.12500000000E+03  0.12500000000E+03 0.  0.
        -11    1    3    3    0    0 -0.36537903893E+02  0.33445074254E+02 -0.19905657202E+02  0.53383767212E+02  0.51100000000E-03 0.  1.
         23    2    1    0    0    0 -0.29053184029E+02 -0.42090137013E+00  0.42286927837E+01  0.95637668641E+02  0.91018773669E+02 0.  0.
         11    1    3    3    0    0  0.74847198641E+01 -0.33865975625E+02  0.24134349986E+02  0.42253901429E+02  0.51100000000E-03 0. -1.
         22    1    1    0    0    0  0.29053184029E+02  0.42090137013E+00 -0.42286927837E+01  0.29362331359E+02  0.00000000000E+00 0.  1.
</event>
<event>
 5    1  0.1102386E-009  0.9118800E+02  0.7818608E-02  0.1130116E+00
         25   -1    0    0    0    0  0.00000000000E+00  0.00000000000E+00  0.99999998245E-14  0.12500000000E+03  0.12500000000E+03 0.  0.
        -11    1    3    3    0    0  0.94967991811E+01  0.21921718233E+02 -0.45374031850E+02  0.51279174053E+02  0.51100000000E-03 0. -1.
         23    2    1    0    0    0  0.28332781090E+02  0.36321865128E+01 -0.11331417333E+02  0.94269879891E+02  0.89120536201E+02 0.  0.
         11    1    3    3    0    0  0.18835981908E+02 -0.18289531720E+02  0.34042614518E+02  0.42990705838E+02  0.51100000000E-03 0.  1.
         22    1    1    0    0    0 -0.28332781090E+02 -0.36321865128E+01  0.11331417333E+02  0.30730120109E+02  0.00000000000E+00 0. -1.
</event>
<event>
 5    1  0.1102386E-009  0.9118800E+02  0.7818608E-02  0.1130116E+00
         25   -1    0    0    0    0  0.00000000000E+00  0.00000000000E+00  0.99999998245E-14  0.12500000000E+03  0.12500000000E+03 0.  0.
        -11    1    3    3    0    0  0.11121257129E+01  0.53428876464E+02 -0.12159270882E+02  0.54806290993E+02  0.51100000000E-03 0.  1.
         23    2    1    0    0    0  0.20742420454E+02  0.17496567772E+02  0.10911846664E+01  0.97841786250E+02  0.93997056138E+02 0.  0.
         11    1    3    3    0    0  0.19630294741E+02 -0.35932308692E+02  0.13250455549E+02  0.43035495257E+02  0.51100000000E-03 0. -1.
         22    1    1    0    0    0 -0.20742420454E+02 -0.17496567772E+02 -0.10911846664E+01  0.27158213750E+02  0.00000000000E+00 0.  1.
</event>
<event>
 5    1  0.1102386E-009  0.9118800E+02  0.7818608E-02  0.1130116E+00
         25   -1    0    0    0    0  0.00000000000E+00  0.00000000000E+00  0.99999998245E-14  0.12500000000E+03  0.12500000000E+03 0.  0.
        -11    1    3    3    0    0 -0.52457220871E+02 -0.10123489866E+02 -0.28283341184E+02  0.60449916934E+02  0.51100000000E-03 0. -1.
         23    2    1    0    0    0 -0.25387516032E+02  0.65391002472E+01 -0.11925498995E+02  0.96198900567E+02  0.91786301493E+02 0.  0.
         11    1    3    3    0    0  0.27069704839E+02  0.16662590113E+02  0.16357842190E+02  0.35748983632E+02  0.51100000000E-03 0.  1.
         22    1    1    0    0    0  0.25387516032E+02 -0.65391002472E+01  0.11925498995E+02  0.28801099433E+02  0.00000000000E+00 0. -1.
</event>
<event>
 5    1  0.1102386E-009  0.9118800E+02  0.7818608E-02  0.1130116E+00
         25   -1    0    0    0    0  0.00000000000E+00  0.00000000000E+00  0.99999998245E-14  0.12500000000E+03  0.12500000000E+03 0.  0.
        -11    1    3    3    0    0 -0.67823138374E+01 -0.25226765581E+02 -0.40556066835E+02  0.48240895929E+02  0.51100000000E-03 0.  1.
         23    2    1    0    0    0 -0.25057339786E+02  0.83986719162E+01 -0.12084832569E+02  0.95940558414E+02  0.91433799021E+02 0.  0.
         11    1    3    3    0    0 -0.18275025948E+02  0.33625437497E+02  0.28471234266E+02  0.47699662485E+02  0.51100000000E-03 0. -1.
         22    1    1    0    0    0  0.25057339786E+02 -0.83986719162E+01  0.12084832569E+02  0.29059441586E+02  0.00000000000E+00 0. -1.
</event>
<event>
 5    1  0.1102386E-009  0.9118800E+02  0.7818608E-02  0.1130116E+00
         25   -1    0    0    0    0  0.00000000000E+00  0.00000000000E+00  0.99999998245E-14  0.12500000000E+03  0.12500000000E+03 0.  0.
        -11    1    3    3    0    0 -0.14534791550E+02  0.30863878014E+02  0.27632254576E+02  0.43901943291E+02  0.51100000000E-03 0.  1.
         23    2    1    0    0    0 -0.18102107801E+02  0.19060474155E+02 -0.19275605068E+02  0.92403421459E+02  0.86463028889E+02 0.  0.
         11    1    3    3    0    0 -0.35673162505E+01 -0.11803403859E+02 -0.46907859644E+02  0.48501478168E+02  0.51100000000E-03 0. -1.
         22    1    1    0    0    0  0.18102107801E+02 -0.19060474155E+02  0.19275605068E+02  0.32596578541E+02  0.00000000000E+00 0. -1.
</event>
<event>
 5    1  0.1102386E-009  0.9118800E+02  0.7818608E-02  0.1130116E+00
         25   -1    0    0    0    0  0.00000000000E+00  0.00000000000E+00  0.99999998245E-14  0.12500000000E+03  0.12500000000E+03 0.  0.
        -11    1    3    3    0    0 -0.28516963168E+02 -0.14158134007E+02  0.17335734140E+02  0.36251863750E+02  0.51100000000E-03 0. -1.
         23    2    1    0    0    0  0.19945567510E+01  0.17108180582E+02 -0.23373326995E+02  0.95965873282E+02  0.91468400667E+02 0.  0.
         11    1    3    3    0    0  0.30511519919E+02  0.31266314589E+02 -0.40709061135E+02  0.59714009533E+02  0.51100000000E-03 0.  1.
         22    1    1    0    0    0 -0.19945567510E+01 -0.17108180582E+02  0.23373326995E+02  0.29034126718E+02  0.00000000000E+00 0.  1.
</event>
<event>
 5    1  0.1102386E-009  0.9118800E+02  0.7818608E-02  0.1130116E+00
         25   -1    0    0    0    0  0.00000000000E+00  0.00000000000E+00  0.99999998245E-14  0.12500000000E+03  0.12500000000E+03 0.  0.
        -11    1    3    3    0    0  0.40702477615E+02 -0.22398932092E+02 -0.81229491128E+01  0.47163398366E+02  0.51100000000E-03 0.  1.
         23    2    1    0    0    0  0.18965593124E+02  0.19239443304E+02 -0.14122423732E+02  0.94515696609E+02  0.89464653088E+02 0.  0.
         11    1    3    3    0    0 -0.21736884491E+02  0.41638375396E+02 -0.59994746193E+01  0.47352298243E+02  0.51100000000E-03 0. -1.
         22    1    1    0    0    0 -0.18965593124E+02 -0.19239443304E+02  0.14122423732E+02  0.30484303391E+02  0.00000000000E+00 0. -1.
</event>
<event>
 5    1  0.1102386E-009  0.9118800E+02  0.7818608E-02  0.1130116E+00
         25   -1    0    0    0    0  0.00000000000E+00  0.00000000000E+00  0.99999998245E-14  0.12500000000E+03  0.12500000000E+03 0.  0.
        -11    1    3    3    0    0 -0.15978430972E+02  0.15383548233E+02  0.30561057392E+02  0.37761647763E+02  0.51100000000E-03 0.  1.
         23    2    1    0    0    0 -0.65257527801E+01 -0.22787093343E+02 -0.14220701816E+02  0.97358266471E+02  0.93351843140E+02 0.  0.
         11    1    3    3    0    0  0.94526781917E+01 -0.38170641576E+02 -0.44781759208E+02  0.59596618708E+02  0.51100000000E-03 0. -1.
         22    1    1    0    0    0  0.65257527801E+01  0.22787093343E+02  0.14220701816E+02  0.27641733529E+02  0.00000000000E+00 0. -1.
</event>
<event>
 5    1  0.1102386E-009  0.9118800E+02  0.7818608E-02  0.1130116E+00
         25   -1    0    0    0    0  0.00000000000E+00  0.00000000000E+00  0.99999998245E-14  0.12500000000E+03  0.12500000000E+03 0.  0.
        -11    1    3    3    0    0  0.22074715366E+02 -0.39414504747E+02 -0.58095569494E+01  0.45547197446E+02  0.51100000000E-03 0.  1.
         23    2    1    0    0    0  0.21862501051E+02  0.89130795124E+01 -0.17908598670E+02  0.95366744274E+02  0.90645937959E+02 0.  0.
         11    1    3    3    0    0 -0.21221431458E+00  0.48327584260E+02 -0.12099041721E+02  0.49819546828E+02  0.51100000000E-03 0. -1.
         22    1    1    0    0    0 -0.21862501051E+02 -0.89130795124E+01  0.17908598670E+02  0.29633255726E+02  0.00000000000E+00 0. -1.
</event>
<event>
 5    1  0.1102386E-009  0.9118800E+02  0.7818608E-02  0.1130116E+00
         25   -1    0    0    0    0  0.00000000000E+00  0.00000000000E+00  0.99999998245E-14  0.12500000000E+03  0.12500000000E+03 0.  0.
        -11    1    3    3    0    0 -0.22994410844E+02  0.25097188110E+02  0.43785936480E+02  0.55460075863E+02  0.51100000000E-03 0.  1.
         23    2    1    0    0    0 -0.15479388338E+02 -0.97715224857E+01  0.16265860398E+02  0.10051179203E+03  0.97483065237E+02 0.  0.
         11    1    3    3    0    0  0.75150225060E+01 -0.34868710596E+02 -0.27520076082E+02  0.45051716168E+02  0.51100000000E-03 0. -1.
         22    1    1    0    0    0  0.15479388338E+02  0.97715224857E+01 -0.16265860398E+02  0.24488207968E+02  0.00000000000E+00 0. -1.
</event>
<event>
 5    1  0.1102386E-009  0.9118800E+02  0.7818608E-02  0.1130116E+00
         25   -1    0    0    0    0  0.00000000000E+00  0.00000000000E+00  0.99999998245E-14  0.12500000000E+03  0.12500000000E+03 0.  0.
        -11    1    3    3    0    0  0.37953879555E+02 -0.10423157775E+02  0.11377375095E+02  0.40970524229E+02  0.51100000000E-03 0. -1.
         23    2    1    0    0    0 -0.28210979938E+01 -0.13326683633E+02 -0.25541788753E+02  0.96052771061E+02  0.91587077501E+02 0.  0.
         11    1    3    3    0    0 -0.40774977549E+02 -0.29035258578E+01 -0.36919163848E+02  0.55082246832E+02  0.51100000000E-03 0.  1.
         22    1    1    0    0    0  0.28210979938E+01  0.13326683633E+02  0.25541788753E+02  0.28947228939E+02  0.00000000000E+00 0.  1.
</event>
<event>
 5    1  0.1102386E-009  0.9118800E+02  0.7818608E-02  0.1130116E+00
         25   -1    0    0    0    0  0.00000000000E+00  0.00000000000E+00  0.99999998245E-14  0.12500000000E+03  0.12500000000E+03 0.  0.
        -11    1    3    3    0    0  0.31030814756E+00  0.30806434032E+02 -0.54055913748E+02  0.62218763089E+02  0.51100000000E-03 0.  1.
         23    2    1    0    0    0  0.75581870437E+00  0.11608952479E+02 -0.28749050961E+02  0.93986342191E+02  0.88721956401E+02 0.  0.
         11    1    3    3    0    0  0.44551055681E+00 -0.19197481553E+02  0.25306862787E+02  0.31767579102E+02  0.51100000000E-03 0. -1.
         22    1    1    0    0    0 -0.75581870437E+00 -0.11608952479E+02  0.28749050961E+02  0.31013657809E+02  0.00000000000E+00 0.  1.
</event>
<event>
 5    1  0.1102386E-009  0.9118800E+02  0.7818608E-02  0.1130116E+00
         25   -1    0    0    0    0  0.00000000000E+00  0.00000000000E+00  0.99999998245E-14  0.12500000000E+03  0.12500000000E+03 0.  0.
        -11    1    3    3    0    0 -0.53272468234E+01 -0.20299105746E+02  0.52107648471E+02  0.56175085957E+02  0.51100000000E-03 0. -1.
         23    2    1    0    0    0  0.10430400734E+02 -0.14578416928E+02  0.46867232304E+01  0.10647194359E+03  0.10484744107E+03 0.  0.
         11    1    3    3    0    0  0.15757647557E+02  0.57206888176E+01 -0.47420925241E+02  0.50296857636E+02  0.51100000000E-03 0.  1.
         22    1    1    0    0    0 -0.10430400734E+02  0.14578416928E+02 -0.46867232304E+01  0.18528056407E+02  0.00000000000E+00 0. -1.
</event>
<event>
 5    1  0.1102386E-009  0.9118800E+02  0.7818608E-02  0.1130116E+00
         25   -1    0    0    0    0  0.00000000000E+00  0.00000000000E+00  0.99999998245E-14  0.12500000000E+03  0.12500000000E+03 0.  0.
        -11    1    3    3    0    0 -0.32870374602E+01 -0.47470202216E+02 -0.26692592664E+02  0.54559318334E+02  0.51100000000E-03 0. -1.
         23    2    1    0    0    0  0.20000697004E+02 -0.14914373332E+02 -0.13021364181E+02  0.96857108576E+02  0.92678353158E+02 0.  0.
         11    1    3    3    0    0  0.23287734465E+02  0.32555828885E+02  0.13671228483E+02  0.42297790242E+02  0.51100000000E-03 0.  1.
         22    1    1    0    0    0 -0.20000697004E+02  0.14914373332E+02  0.13021364181E+02  0.28142891424E+02  0.00000000000E+00 0. -1.
</event>
<event>
 5    1  0.1102386E-009  0.9118800E+02  0.7818608E-02  0.1130116E+00
         25   -1    0    0    0    0  0.00000000000E+00  0.00000000000E+00  0.99999998245E-14  0.12500000000E+03  0.12500000000E+03 0.  0.
        -11    1    3    3    0    0  0.88644490559E+01 -0.10912480366E+02 -0.33941462206E+02  0.36738039438E+02  0.51100000000E-03 0.  1.
         23    2    1    0    0    0  0.14354185969E+02  0.27859356036E+02  0.64588578745E+01  0.93001512245E+02  0.87323410728E+02 0.  0.
         11    1    3    3    0    0  0.54897369129E+01  0.38771836403E+02  0.40400320080E+02  0.56263472807E+02  0.51100000000E-03 0. -1.
         22    1    1    0    0    0 -0.14354185969E+02 -0.27859356036E+02 -0.64588578745E+01  0.31998487755E+02  0.00000000000E+00 0. -1.
</event>
<event>
 5    1  0.1102386E-009  0.9118800E+02  0.7818608E-02  0.1130116E+00
         25   -1    0    0    0    0  0.00000000000E+00  0.00000000000E+00  0.99999998245E-14  0.12500000000E+03  0.12500000000E+03 0.  0.
        -11    1    3    3    0    0 -0.41988986904E+02 -0.37446998463E+02  0.96256581683E+00  0.56269700980E+02  0.51100000000E-03 0.  1.
         23    2    1    0    0    0 -0.20929197102E+02 -0.10256310442E+02 -0.18007218882E+02  0.95546933486E+02  0.90894077758E+02 0.  0.
         11    1    3    3    0    0  0.21059789802E+02  0.27190688021E+02 -0.18969784699E+02  0.39277232506E+02  0.51100000000E-03 0. -1.
         22    1    1    0    0    0  0.20929197102E+02  0.10256310442E+02  0.18007218882E+02  0.29453066514E+02  0.00000000000E+00 0.  1.
</event>
<event>
 5    1  0.1102386E-009  0.9118800E+02  0.7818608E-02  0.1130116E+00
         25   -1    0    0    0    0  0.00000000000E+00  0.00000000000E+00  0.99999998245E-14  0.12500000000E+03  0.12500000000E+03 0.  0.
        -11    1    3    3    0    0 -0.36650806065E+02 -0.97183747617E+01  0.95377384456E+01  0.39098553019E+02  0.51100000000E-03 0.  1.
         23    2    1    0    0    0  0.60931218524E+01 -0.18203879982E+02 -0.24128753481E+02  0.94166509687E+02  0.88975431563E+02 0.  0.
         11    1    3    3    0    0  0.42743927918E+02 -0.84855052204E+01 -0.33666491927E+02  0.55067956668E+02  0.51100000000E-03 0. -1.
         22    1    1    0    0    0 -0.60931218524E+01  0.18203879982E+02  0.24128753481E+02  0.30833490313E+02  0.00000000000E+00 0. -1.
</event>
<event>
 5    1  0.1102386E-009  0.9118800E+02  0.7818608E-02  0.1130116E+00
         25   -1    0    0    0    0  0.00000000000E+00  0.00000000000E+00  0.99999998245E-14  0.12500000000E+03  0.12500000000E+03 0.  0.
        -11    1    3    3    0    0 -0.22154873297E+02  0.31395318417E+02  0.29822942252E+01  0.38540868029E+02  0.51100000000E-03 0.  1.
         23    2    1    0    0    0 -0.67190947396E+01 -0.21862502413E+02  0.17893612180E+02  0.95960430397E+02  0.91460962160E+02 0.  0.
         11    1    3    3    0    0  0.15435778558E+02 -0.53257820829E+02  0.14911317955E+02  0.57419562368E+02  0.51100000000E-03 0. -1.
         22    1    1    0    0    0  0.67190947396E+01  0.21862502413E+02 -0.17893612180E+02  0.29039569603E+02  0.00000000000E+00 0. -1.
</event>
<event>
 5    1  0.1102386E-009  0.9118800E+02  0.7818608E-02  0.1130116E+00
         25   -1    0    0    0    0  0.00000000000E+00  0.00000000000E+00  0.99999998245E-14  0.12500000000E+03  0.12500000000E+03 0.  0.
        -11    1    3    3    0    0 -0.30611535865E+02  0.47376987750E+02  0.25391249573E+02  0.61857583621E+02  0.51100000000E-03 0.  1.
         23    2    1    0    0    0 -0.19867243155E+02  0.20161680146E+02  0.15403660905E+02  0.92774645601E+02  0.86998054002E+02 0.  0.
         11    1    3    3    0    0  0.10744292710E+02 -0.27215307604E+02 -0.99875886676E+01  0.30917061980E+02  0.51100000000E-03 0. -1.
         22    1    1    0    0    0  0.19867243155E+02 -0.20161680146E+02 -0.15403660905E+02  0.32225354399E+02  0.00000000000E+00 0.  1.
</event>
<event>
 5    1  0.1102386E-009  0.9118800E+02  0.7818608E-02  0.1130116E+00
         25   -1    0    0    0    0  0.00000000000E+00  0.00000000000E+00  0.99999998245E-14  0.12500000000E+03  0.12500000000E+03 0.  0.
        -11    1    3    3    0    0 -0.48206291194E+02  0.34282233008E+02  0.76697957394E+01  0.59648501889E+02  0.51100000000E-03 0. -1.
         23    2    1    0    0    0 -0.27429134797E+02  0.15496570852E+02 -0.89892679955E+01  0.92238619032E+02  0.86224444086E+02 0.  0.
         11    1    3    3    0    0  0.20777156397E+02 -0.18785662156E+02 -0.16659063735E+02  0.32590117143E+02  0.51100000000E-03 0.  1.
         22    1    1    0    0    0  0.27429134797E+02 -0.15496570852E+02  0.89892679955E+01  0.32761380968E+02  0.00000000000E+00 0. -1.
</event>
<event>
 5    1  0.1102386E-009  0.9118800E+02  0.7818608E-02  0.1130116E+00
         25   -1    0    0    0    0  0.00000000000E+00  0.00000000000E+00  0.99999998245E-14  0.12500000000E+03  0.12500000000E+03 0.  0.
        -11    1    3    3    0    0 -0.39342360072E+02  0.73256748398E+01 -0.10510921792E+02  0.41375914311E+02  0.51100000000E-03 0. -1.
         23    2    1    0    0    0  0.10592411456E+02  0.26893269049E+02 -0.77315604436E+01  0.95079703754E+02  0.90249243423E+02 0.  0.
         11    1    3    3    0    0  0.49934771528E+02  0.19567594209E+02  0.27793613485E+01  0.53703789442E+02  0.51100000000E-03 0.  1.
         22    1    1    0    0    0 -0.10592411456E+02 -0.26893269049E+02  0.77315604436E+01  0.29920296246E+02  0.00000000000E+00 0.  1.
</event>
<event>
 5    1  0.1102386E-009  0.9118800E+02  0.7818608E-02  0.1130116E+00
         25   -1    0    0    0    0  0.00000000000E+00  0.00000000000E+00  0.99999998245E-14  0.12500000000E+03  0.12500000000E+03 0.  0.
        -11    1    3    3    0    0  0.17341460241E+02 -0.56658227912E+02 -0.57401660422E+01  0.59530080967E+02  0.51100000000E-03 0. -1.
         23    2    1    0    0    0 -0.53469805943E+01 -0.28698879112E+02 -0.18002493042E+01  0.95751807554E+02  0.91175390806E+02 0.  0.
         11    1    3    3    0    0 -0.22688440835E+02  0.27959348800E+02  0.39399167381E+01  0.36221726588E+02  0.51100000000E-03 0.  1.
         22    1    1    0    0    0  0.53469805943E+01  0.28698879112E+02  0.18002493042E+01  0.29248192446E+02  0.00000000000E+00 0. -1.
</event>
<event>
 5    1  0.1102386E-009  0.9118800E+02  0.7818608E-02  0.1130116E+00
         25   -1    0    0    0    0  0.00000000000E+00  0.00000000000E+00  0.99999998245E-14  0.12500000000E+03  0.12500000000E+03 0.  0.
        -11    1    3    3    0    0 -0.32138557824E+02 -0.33841109365E+02 -0.36664680083E+02  0.59349863925E+02  0.51100000000E-03 0. -1.
         23    2    1    0    0    0 -0.28918824313E+01 -0.22600561942E+02 -0.11853402000E+02  0.99316317961E+02  0.95937893923E+02 0.  0.
         11    1    3    3    0    0  0.29246675392E+02  0.11240547423E+02  0.24811278083E+02  0.39966454036E+02  0.51100000000E-03 0.  1.
         22    1    1    0    0    0  0.28918824313E+01  0.22600561942E+02  0.11853402000E+02  0.25683682039E+02  0.00000000000E+00 0. -1.
</event>
<event>
 5    1  0.1102386E-009  0.9118800E+02  0.7818608E-02  0.1130116E+00
         25   -1    0    0    0    0  0.00000000000E+00  0.00000000000E+00  0.99999998245E-14  0.12500000000E+03  0.12500000000E+03 0.  0.
        -11    1    3    3    0    0  0.35204311757E+02 -0.27666133074E+02 -0.41656218171E+02  0.61155531214E+02  0.51100000000E-03 0. -1.
         23    2    1    0    0    0  0.94101913640E+01 -0.13224019248E+02 -0.25302118205E+02  0.94939667796E+02  0.90055077308E+02 0.  0.
         11    1    3    3    0    0 -0.25794120393E+02  0.14442113826E+02  0.16354099966E+02  0.33784136581E+02  0.51100000000E-03 0.  1.
         22    1    1    0    0    0 -0.94101913640E+01  0.13224019248E+02  0.25302118205E+02  0.30060332204E+02  0.00000000000E+00 0. -1.
</event>
<event>
 5    1  0.1102386E-009  0.9118800E+02  0.7818608E-02  0.1130116E+00
         25   -1    0    0    0    0  0.00000000000E+00  0.00000000000E+00  0.99999998245E-14  0.12500000000E+03  0.12500000000E+03 0.  0.
        -11    1    3    3    0    0  0.19667563723E+02 -0.50956833009E+02 -0.20000936661E+02  0.58167425254E+02  0.51100000000E-03 0. -1.
         23    2    1    0    0    0 -0.42515555881E+01 -0.28538674565E+02 -0.85017963637E+00  0.96133852418E+02  0.91697672296E+02 0.  0.
         11    1    3    3    0    0 -0.23919119311E+02  0.22418158445E+02  0.19150757025E+02  0.37966427163E+02  0.51100000000E-03 0.  1.
         22    1    1    0    0    0  0.42515555881E+01  0.28538674565E+02  0.85017963637E+00  0.28866147582E+02  0.00000000000E+00 0. -1.
</event>
<event>
 5    1  0.1102386E-009  0.9118800E+02  0.7818608E-02  0.1130116E+00
         25   -1    0    0    0    0  0.00000000000E+00  0.00000000000E+00  0.99999998245E-14  0.12500000000E+03  0.12500000000E+03 0.  0.
        -11    1    3    3    0    0  0.56933760455E+02 -0.59244749796E+01  0.15224435214E+02  0.59231207241E+02  0.51100000000E-03 0. -1.
         23    2    1    0    0    0  0.27691665029E+02 -0.62698326173E+01 -0.67558661479E+01  0.95814715342E+02  0.91261595623E+02 0.  0.
         11    1    3    3    0    0 -0.29242095426E+02 -0.34535763768E+00 -0.21980301362E+02  0.36583508102E+02  0.51100000000E-03 0.  1.
         22    1    1    0    0    0 -0.27691665029E+02  0.62698326173E+01  0.67558661479E+01  0.29185284658E+02  0.00000000000E+00 0. -1.
</event>
<event>
 5    1  0.1102386E-009  0.9118800E+02  0.7818608E-02  0.1130116E+00
         25   -1    0    0    0    0  0.00000000000E+00  0.00000000000E+00  0.99999998245E-14  0.12500000000E+03  0.12500000000E+03 0.  0.
        -11    1    3    3    0    0  0.11031586991E+02  0.19276200363E+02  0.27069112596E+02  0.35014349472E+02  0.51100000000E-03 0.  1.
         23    2    1    0    0    0  0.44680338349E+01 -0.24853112369E+02 -0.14404798351E+02  0.95928730054E+02  0.91417626930E+02 0.  0.
         11    1    3    3    0    0 -0.65635531557E+01 -0.44129312731E+02 -0.41473910947E+02  0.60914380582E+02  0.51100000000E-03 0. -1.
         22    1    1    0    0    0 -0.44680338349E+01  0.24853112369E+02  0.14404798351E+02  0.29071269946E+02  0.00000000000E+00 0. -1.
</event>
<event>
 5    1  0.1102386E-009  0.9118800E+02  0.7818608E-02  0.1130116E+00
         25   -1    0    0    0    0  0.00000000000E+00  0.00000000000E+00  0.99999998245E-14  0.12500000000E+03  0.12500000000E+03 0.  0.
        -11    1    3    3    0    0 -0.44545108958E+02  0.29019366888E+02 -0.24111952398E+02  0.58376164959E+02  0.51100000000E-03 0.  1.
         23    2    1    0    0    0 -0.11084724683E+02  0.12594076655E+02 -0.24081144508E+02  0.95650665955E+02  0.91036621690E+02 0.  0.
         11    1    3    3    0    0  0.33460384275E+02 -0.16425290232E+02  0.30807890196E-01  0.37274500996E+02  0.51100000000E-03 0. -1.
         22    1    1    0    0    0  0.11084724683E+02 -0.12594076655E+02  0.24081144508E+02  0.29349334045E+02  0.00000000000E+00 0.  1.
</event>
<event>
 5    1  0.1102386E-009  0.9118800E+02  0.7818608E-02  0.1130116E+00
         25   -1    0    0    0    0  0.00000000000E+00  0.00000000000E+00  0.99999998245E-14  0.12500000000E+03  0.12500000000E+03 0.  0.
        -11    1    3    3    0    0  0.11729027996E+02 -0.44762795599E+02 -0.30386965455E+02  0.55359241662E+02  0.51100000000E-03 0. -1.
         23    2    1    0    0    0 -0.13217726414E+02 -0.13806732046E+02 -0.21752482132E+02  0.96043055751E+02  0.91573816879E+02 0.  0.
         11    1    3    3    0    0 -0.24946754410E+02  0.30956063553E+02  0.86344833238E+01  0.40683814089E+02  0.51100000000E-03 0.  1.
         22    1    1    0    0    0  0.13217726414E+02  0.13806732046E+02  0.21752482132E+02  0.28956944249E+02  0.00000000000E+00 0. -1.
</event>
<event>
 5    1  0.1102386E-009  0.9118800E+02  0.7818608E-02  0.1130116E+00
         25   -1    0    0    0    0  0.00000000000E+00  0.00000000000E+00  0.99999998245E-14  0.12500000000E+03  0.12500000000E+03 0.  0.
        -11    1    3    3    0    0 -0.23121832390E+02  0.41643223170E+02 -0.27951846580E+02  0.55227555591E+02  0.51100000000E-03 0.  1.
         23    2    1    0    0    0  0.26541578270E+01  0.27856578927E+02  0.18293184780E+01  0.96957533108E+02  0.92813701990E+02 0.  0.
         11    1    3    3    0    0  0.25775990217E+02 -0.13786644244E+02  0.29781165058E+02  0.41729977517E+02  0.51100000000E-03 0. -1.
         22    1    1    0    0    0 -0.26541578270E+01 -0.27856578927E+02 -0.18293184780E+01  0.28042466892E+02  0.00000000000E+00 0.  1.
</event>
<event>
 5    1  0.1102386E-009  0.9118800E+02  0.7818608E-02  0.1130116E+00
         25   -1    0    0    0    0  0.00000000000E+00  0.00000000000E+00  0.99999998245E-14  0.12500000000E+03  0.12500000000E+03 0.  0.
        -11    1    3    3    0    0 -0.11768425754E+02 -0.58872545077E+02  0.15514020849E+02  0.62009331973E+02  0.51100000000E-03 0.  1.
         23    2    1    0    0    0 -0.12613506996E+02 -0.36966384469E+02  0.11365992125E+02  0.84320767996E+02  0.73859271584E+02 0.  0.
         11    1    3    3    0    0 -0.84508124198E+00  0.21906160607E+02 -0.41480287239E+01  0.22311436023E+02  0.51100000000E-03 0. -1.
         22    1    1    0    0    0  0.12613506996E+02  0.36966384469E+02 -0.11365992125E+02  0.40679232004E+02  0.00000000000E+00 0.  1.
</event>
<event>
 5    1  0.1102386E-009  0.9118800E+02  0.7818608E-02  0.1130116E+00
         25   -1    0    0    0    0  0.00000000000E+00  0.00000000000E+00  0.99999998245E-14  0.12500000000E+03  0.12500000000E+03 0.  0.
        -11    1    3    3    0    0 -0.58790418852E+02  0.14670292247E+02  0.12250943438E+02  0.61819223861E+02  0.51100000000E-03 0.  1.
         23    2    1    0    0    0 -0.27154847276E+02  0.10327869790E+02  0.20857076166E+00  0.95946701964E+02  0.91442197541E+02 0.  0.
         11    1    3    3    0    0  0.31635571576E+02 -0.43424224573E+01 -0.12042372676E+02  0.34127478103E+02  0.51100000000E-03 0. -1.
         22    1    1    0    0    0  0.27154847276E+02 -0.10327869790E+02 -0.20857076166E+00  0.29053298036E+02  0.00000000000E+00 0.  1.
</event>
<event>
 5    1  0.1102386E-009  0.9118800E+02  0.7818608E-02  0.1130116E+00
         25   -1    0    0    0    0  0.00000000000E+00  0.00000000000E+00  0.99999998245E-14  0.12500000000E+03  0.12500000000E+03 0.  0.
        -11    1    3    3    0    0 -0.18216472710E+02  0.16452885652E+02  0.29068431803E+02  0.38046170004E+02  0.51100000000E-03 0. -1.
         23    2    1    0    0    0 -0.16669201361E+02 -0.22406648445E+02 -0.11997699829E+02  0.94604852859E+02  0.89589135585E+02 0.  0.
         11    1    3    3    0    0  0.15472713490E+01 -0.38859534097E+02 -0.41066131632E+02  0.56558682855E+02  0.51100000000E-03 0.  1.
         22    1    1    0    0    0  0.16669201361E+02  0.22406648445E+02  0.11997699829E+02  0.30395147141E+02  0.00000000000E+00 0.  1.
</event>
<event>
 5    1  0.1102386E-009  0.9118800E+02  0.7818608E-02  0.1130116E+00
         25   -1    0    0    0    0  0.00000000000E+00  0.00000000000E+00  0.99999998245E-14  0.12500000000E+03  0.12500000000E+03 0.  0.
        -11    1    3    3    0    0  0.26599306377E+02  0.28827737325E+02  0.78486321630E+01  0.40002032024E+02  0.51100000000E-03 0. -1.
         23    2    1    0    0    0  0.10581806697E+00 -0.67488622283E+01 -0.27476189650E+02  0.96706903023E+02  0.92475541392E+02 0.  0.
         11    1    3    3    0    0 -0.26493488310E+02 -0.35576599553E+02 -0.35324821813E+02  0.56704870999E+02  0.51100000000E-03 0.  1.
         22    1    1    0    0    0 -0.10581806697E+00  0.67488622283E+01  0.27476189650E+02  0.28293096977E+02  0.00000000000E+00 0.  1.
</event>
<event>
 5    1  0.1102386E-009  0.9118800E+02  0.7818608E-02  0.1130116E+00
         25   -1    0    0    0    0  0.00000000000E+00  0.00000000000E+00  0.99999998245E-14  0.12500000000E+03  0.12500000000E+03 0.  0.
        -11    1    3    3    0    0  0.27970504489E+02 -0.65088687894E+01  0.28564256253E+02  0.40504706268E+02  0.51100000000E-03 0.  1.
         23    2    1    0    0    0 -0.89444681229E+01  0.27397023473E+02  0.55875168187E+01  0.95643216297E+02  0.91026392186E+02 0.  0.
         11    1    3    3    0    0 -0.36914972612E+02  0.33905892262E+02 -0.22976739434E+02  0.55138510030E+02  0.51100000000E-03 0. -1.
         22    1    1    0    0    0  0.89444681229E+01 -0.27397023473E+02 -0.55875168187E+01  0.29356783703E+02  0.00000000000E+00 0. -1.
</event>
<event>
 5    1  0.1102386E-009  0.9118800E+02  0.7818608E-02  0.1130116E+00
         25   -1    0    0    0    0  0.00000000000E+00  0.00000000000E+00  0.99999998245E-14  0.12500000000E+03  0.12500000000E+03 0.  0.
        -11    1    3    3    0    0 -0.20742518608E+02  0.65734418251E+01  0.33029716262E+02  0.39552804859E+02  0.51100000000E-03 0.  1.
         23    2    1    0    0    0  0.12691454409E+02  0.24012870962E+02 -0.93452890283E+01  0.96276744372E+02  0.91892252628E+02 0.  0.
         11    1    3    3    0    0  0.33433973017E+02  0.17439429137E+02 -0.42375005290E+02  0.56723939513E+02  0.51100000000E-03 0. -1.
         22    1    1    0    0    0 -0.12691454409E+02 -0.24012870962E+02  0.93452890283E+01  0.28723255628E+02  0.00000000000E+00 0. -1.
</event>
<event>
 5    1  0.1102386E-009  0.9118800E+02  0.7818608E-02  0.1130116E+00
         25   -1    0    0    0    0  0.00000000000E+00  0.00000000000E+00  0.99999998245E-14  0.12500000000E+03  0.12500000000E+03 0.  0.
        -11    1    3    3    0    0 -0.43380144591E+01  0.51988879556E+02 -0.24298926619E+02  0.57550845364E+02  0.51100000000E-03 0.  1.
         23    2    1    0    0    0 -0.68609994315E+01  0.26955460188E+02  0.55994463395E+01  0.96627056085E+02  0.92367548528E+02 0.  0.
         11    1    3    3    0    0 -0.25229849724E+01 -0.25033419369E+02  0.29898372959E+02  0.39076210721E+02  0.51100000000E-03 0. -1.
         22    1    1    0    0    0  0.68609994315E+01 -0.26955460188E+02 -0.55994463395E+01  0.28372943915E+02  0.00000000000E+00 0.  1.
</event>
<event>
 5    1  0.1102386E-009  0.9118800E+02  0.7818608E-02  0.1130116E+00
         25   -1    0    0    0    0  0.00000000000E+00  0.00000000000E+00  0.99999998245E-14  0.12500000000E+03  0.12500000000E+03 0.  0.
        -11    1    3    3    0    0  0.21509343723E+02 -0.12209021579E+02  0.35904538498E+02  0.43598715122E+02  0.51100000000E-03 0. -1.
         23    2    1    0    0    0 -0.17496573270E+02  0.16602608399E+02  0.16213192652E+02  0.95937235200E+02  0.91429255712E+02 0.  0.
         11    1    3    3    0    0 -0.39005916993E+02  0.28811629978E+02 -0.19691345845E+02  0.52338520078E+02  0.51100000000E-03 0.  1.
         22    1    1    0    0    0  0.17496573270E+02 -0.16602608399E+02 -0.16213192652E+02  0.29062764800E+02  0.00000000000E+00 0.  1.
</event>
<event>
 5    1  0.1102386E-009  0.9118800E+02  0.7818608E-02  0.1130116E+00
         25   -1    0    0    0    0  0.00000000000E+00  0.00000000000E+00  0.99999998245E-14  0.12500000000E+03  0.12500000000E+03 0.  0.
        -11    1    3    3    0    0  0.28469654822E+01 -0.30146359010E+02  0.42761511133E+02  0.52397089697E+02  0.51100000000E-03 0. -1.
         23    2    1    0    0    0 -0.22784839950E+01 -0.29029923001E+02 -0.40184276731E+00  0.95878025541E+02  0.91348269744E+02 0.  0.
         11    1    3    3    0    0 -0.51254494772E+01  0.11164360091E+01 -0.43163353901E+02  0.43480935844E+02  0.51100000000E-03 0.  1.
         22    1    1    0    0    0  0.22784839950E+01  0.29029923001E+02  0.40184276731E+00  0.29121974459E+02  0.00000000000E+00 0. -1.
</event>
<event>
 5    1  0.1102386E-009  0.9118800E+02  0.7818608E-02  0.1130116E+00
         25   -1    0    0    0    0  0.00000000000E+00  0.00000000000E+00  0.99999998245E-14  0.12500000000E+03  0.12500000000E+03 0.  0.
        -11    1    3    3    0    0 -0.34432994157E+02  0.94439219978E+01 -0.24998357044E+02  0.43585967977E+02  0.51100000000E-03 0.  1.
         23    2    1    0    0    0  0.15268994253E+02  0.59223686279E+00 -0.26852666081E+02  0.94104068138E+02  0.88887665255E+02 0.  0.
         11    1    3    3    0    0  0.49701988410E+02 -0.88516851350E+01 -0.18543090365E+01  0.50518100161E+02  0.51100000000E-03 0. -1.
         22    1    1    0    0    0 -0.15268994253E+02 -0.59223686279E+00  0.26852666081E+02  0.30895931862E+02  0.00000000000E+00 0.  1.
</event>
<event>
 5    1  0.1102386E-009  0.9118800E+02  0.7818608E-02  0.1130116E+00
         25   -1    0    0    0    0  0.00000000000E+00  0.00000000000E+00  0.99999998245E-14  0.12500000000E+03  0.12500000000E+03 0.  0.
        -11    1    3    3    0    0 -0.22993912884E+02 -0.28469194651E+02 -0.21480384385E+02  0.42433736430E+02  0.51100000000E-03 0.  1.
         23    2    1    0    0    0  0.22583900191E+02 -0.88988103486E+01 -0.22293413966E+02  0.92042183329E+02  0.85939198462E+02 0.  0.
         11    1    3    3    0    0  0.45577813075E+02  0.19570384303E+02 -0.81302958153E+00  0.49608446899E+02  0.51100000000E-03 0. -1.
         22    1    1    0    0    0 -0.22583900191E+02  0.88988103486E+01  0.22293413966E+02  0.32957816671E+02  0.00000000000E+00 0. -1.
</event>
<event>
 5    1  0.1102386E-009  0.9118800E+02  0.7818608E-02  0.1130116E+00
         25   -1    0    0    0    0  0.00000000000E+00  0.00000000000E+00  0.99999998245E-14  0.12500000000E+03  0.12500000000E+03 0.  0.
        -11    1    3    3    0    0 -0.15349586215E+02 -0.41361018375E+02  0.20630129859E+01  0.44165593631E+02  0.51100000000E-03 0.  1.
         23    2    1    0    0    0  0.25979881007E+02 -0.10045740449E+02 -0.56176205973E+01  0.96584708703E+02  0.92310222488E+02 0.  0.
         11    1    3    3    0    0  0.41329467222E+02  0.31315277926E+02 -0.76806335832E+01  0.52419115072E+02  0.51100000000E-03 0. -1.
         22    1    1    0    0    0 -0.25979881007E+02  0.10045740449E+02  0.56176205973E+01  0.28415291297E+02  0.00000000000E+00 0. -1.
</event>
<event>
 5    1  0.1102386E-009  0.9118800E+02  0.7818608E-02  0.1130116E+00
         25   -1    0    0    0    0  0.00000000000E+00  0.00000000000E+00  0.99999998245E-14  0.12500000000E+03  0.12500000000E+03 0.  0.
        -11    1    3    3    0    0  0.11095051727E+02 -0.41269685608E+02 -0.28114124589E+01  0.42827458053E+02  0.51100000000E-03 0.  1.
         23    2    1    0    0    0  0.17475287620E+02  0.79497583701E+01 -0.21785724697E+02  0.95962056958E+02  0.91463185159E+02 0.  0.
         11    1    3    3    0    0  0.63802358931E+01  0.49219443978E+02 -0.18974312238E+02  0.53134598905E+02  0.51100000000E-03 0. -1.
         22    1    1    0    0    0 -0.17475287620E+02 -0.79497583701E+01  0.21785724697E+02  0.29037943042E+02  0.00000000000E+00 0. -1.
</event>
<event>
 5    1  0.1102386E-009  0.9118800E+02  0.7818608E-02  0.1130116E+00
         25   -1    0    0    0    0  0.00000000000E+00  0.00000000000E+00  0.99999998245E-14  0.12500000000E+03  0.12500000000E+03 0.  0.
        -11    1    3    3    0    0  0.23069219071E+01 -0.57842759107E+02  0.15133751805E+02  0.59834246998E+02  0.51100000000E-03 0. -1.
         23    2    1    0    0    0 -0.92779336819E+01 -0.26856798890E+02 -0.84772761522E+00  0.96573140481E+02  0.92294556287E+02 0.  0.
         11    1    3    3    0    0 -0.11584855589E+02  0.30985960217E+02 -0.15981479421E+02  0.36738893483E+02  0.51100000000E-03 0.  1.
         22    1    1    0    0    0  0.92779336819E+01  0.26856798890E+02  0.84772761522E+00  0.28426859519E+02  0.00000000000E+00 0. -1.
</event>
<event>
 5    1  0.1102386E-009  0.9118800E+02  0.7818608E-02  0.1130116E+00
         25   -1    0    0    0    0  0.00000000000E+00  0.00000000000E+00  0.99999998245E-14  0.12500000000E+03  0.12500000000E+03 0.  0.
        -11    1    3    3    0    0  0.32630584370E+02 -0.29039942740E+02  0.33506383821E+02  0.55052257607E+02  0.51100000000E-03 0. -1.
         23    2    1    0    0    0  0.11590844624E+02 -0.24979515981E+02 -0.29139249720E+01  0.97308577926E+02  0.93285285450E+02 0.  0.
         11    1    3    3    0    0 -0.21039739745E+02  0.40604267596E+01 -0.36420308793E+02  0.42256320318E+02  0.51100000000E-03 0.  1.
         22    1    1    0    0    0 -0.11590844624E+02  0.24979515981E+02  0.29139249720E+01  0.27691422074E+02  0.00000000000E+00 0. -1.
</event>
<event>
 5    1  0.1102386E-009  0.9118800E+02  0.7818608E-02  0.1130116E+00
         25   -1    0    0    0    0  0.00000000000E+00  0.00000000000E+00  0.99999998245E-14  0.12500000000E+03  0.12500000000E+03 0.  0.
        -11    1    3    3    0    0  0.48013090263E+02  0.46896215232E+01 -0.65228740667E+01  0.48680563606E+02  0.51100000000E-03 0.  1.
         23    2    1    0    0    0  0.13529461056E+02  0.21812590400E+02  0.17383382732E+02  0.93999719168E+02  0.88740801168E+02 0.  0.
         11    1    3    3    0    0 -0.34483629207E+02  0.17122968877E+02  0.23906256799E+02  0.45319155562E+02  0.51100000000E-03 0. -1.
         22    1    1    0    0    0 -0.13529461056E+02 -0.21812590400E+02 -0.17383382732E+02  0.31000280832E+02  0.00000000000E+00 0.  1.
</event>
<event>
 5    1  0.1102386E-009  0.9118800E+02  0.7818608E-02  0.1130116E+00
         25   -1    0    0    0    0  0.00000000000E+00  0.00000000000E+00  0.99999998245E-14  0.12500000000E+03  0.12500000000E+03 0.  0.
        -11    1    3    3    0    0 -0.23857216975E+02 -0.97731854688E+01 -0.25233916397E+02  0.36075372389E+02  0.51100000000E-03 0. -1.
         23    2    1    0    0    0  0.28002668162E+01 -0.22358541956E+02  0.23125653159E+02  0.92711585256E+02  0.86907400801E+02 0.  0.
         11    1    3    3    0    0  0.26657483791E+02 -0.12585356487E+02  0.48359569556E+02  0.56636212867E+02  0.51100000000E-03 0.  1.
         22    1    1    0    0    0 -0.28002668162E+01  0.22358541956E+02 -0.23125653159E+02  0.32288414744E+02  0.00000000000E+00 0.  1.
</event>
<event>
 5    1  0.1102386E-009  0.9118800E+02  0.7818608E-02  0.1130116E+00
         25   -1    0    0    0    0  0.00000000000E+00  0.00000000000E+00  0.99999998245E-14  0.12500000000E+03  0.12500000000E+03 0.  0.
        -11    1    3    3    0    0 -0.34836676168E+02 -0.13890453585E+02  0.15777288787E+02  0.40687363505E+02  0.51100000000E-03 0.  1.
         23    2    1    0    0    0  0.91051634573E+01  0.20210645690E+02  0.18136434648E+02  0.96359042220E+02  0.92004133358E+02 0.  0.
         11    1    3    3    0    0  0.43941839626E+02  0.34101099275E+02  0.23591458616E+01  0.55671678715E+02  0.51100000000E-03 0. -1.
         22    1    1    0    0    0 -0.91051634573E+01 -0.20210645690E+02 -0.18136434648E+02  0.28640957780E+02  0.00000000000E+00 0. -1.
</event>
<event>
 5    1  0.1102386E-009  0.9118800E+02  0.7818608E-02  0.1130116E+00
         25   -1    0    0    0    0  0.00000000000E+00  0.00000000000E+00  0.99999998245E-14  0.12500000000E+03  0.12500000000E+03 0.  0.
        -11    1    3    3    0    0  0.30957268388E+02  0.57370545858E+01 -0.39727203164E+02  0.50690402769E+02  0.51100000000E-03 0. -1.
         23    2    1    0    0    0  0.27992115329E+02 -0.89257373055E+01  0.25233174780E+01  0.95511113311E+02  0.90844803527E+02 0.  0.
         11    1    3    3    0    0 -0.29651530586E+01 -0.14662791891E+02  0.42250520642E+02  0.44820710542E+02  0.51100000000E-03 0.  1.
         22    1    1    0    0    0 -0.27992115329E+02  0.89257373055E+01 -0.25233174780E+01  0.29488886689E+02  0.00000000000E+00 0.  1.
</event>
<event>
 5    1  0.1102386E-009  0.9118800E+02  0.7818608E-02  0.1130116E+00
         25   -1    0    0    0    0  0.00000000000E+00  0.00000000000E+00  0.99999998245E-14  0.12500000000E+03  0.12500000000E+03 0.  0.
        -11    1    3    3    0    0  0.46241555034E+02 -0.69286704265E+01 -0.16056245969E+02  0.49437747934E+02  0.51100000000E-03 0. -1.
         23    2    1    0    0    0  0.46957857486E+01 -0.12604905750E+01 -0.30749669088E+02  0.93868321772E+02  0.88555521809E+02 0.  0.
         11    1    3    3    0    0 -0.41545769286E+02  0.56681798515E+01 -0.14693423119E+02  0.44430573838E+02  0.51100000000E-03 0.  1.
         22    1    1    0    0    0 -0.46957857486E+01  0.12604905750E+01  0.30749669088E+02  0.31131678228E+02  0.00000000000E+00 0. -1.
</event>
<event>
 5    1  0.1102386E-009  0.9118800E+02  0.7818608E-02  0.1130116E+00
         25   -1    0    0    0    0  0.00000000000E+00  0.00000000000E+00  0.99999998245E-14  0.12500000000E+03  0.12500000000E+03 0.  0.
        -11    1    3    3    0    0 -0.12950739973E+02 -0.24026748564E+02 -0.30836737492E+02  0.41181436252E+02  0.51100000000E-03 0.  1.
         23    2    1    0    0    0 -0.13848308629E+02  0.22660337973E+02 -0.25502655038E+02  0.88180820447E+02  0.80126182436E+02 0.  0.
         11    1    3    3    0    0 -0.89756865610E+00  0.46687086537E+02  0.53340824535E+01  0.46999384195E+02  0.51100000000E-03 0. -1.
         22    1    1    0    0    0  0.13848308629E+02 -0.22660337973E+02  0.25502655038E+02  0.36819179553E+02  0.00000000000E+00 0.  1.
</event>
<event>
 5    1  0.1102386E-009  0.9118800E+02  0.7818608E-02  0.1130116E+00
         25   -1    0    0    0    0  0.00000000000E+00  0.00000000000E+00  0.99999998245E-14  0.12500000000E+03  0.12500000000E+03 0.  0.
        -11    1    3    3    0    0  0.20084476674E+02 -0.26104290900E+02  0.14729960256E+02  0.36080353880E+02  0.51100000000E-03 0. -1.
         23    2    1    0    0    0  0.50155916369E+01  0.27204868091E+02 -0.83649095196E+01  0.96099606948E+02  0.91650977829E+02 0.  0.
         11    1    3    3    0    0 -0.15068885038E+02  0.53309158991E+02 -0.23094869776E+02  0.60019253068E+02  0.51100000000E-03 0.  1.
         22    1    1    0    0    0 -0.50155916369E+01 -0.27204868091E+02  0.83649095196E+01  0.28900393052E+02  0.00000000000E+00 0.  1.
</event>
<event>
 5    1  0.1102386E-009  0.9118800E+02  0.7818608E-02  0.1130116E+00
         25   -1    0    0    0    0  0.00000000000E+00  0.00000000000E+00  0.99999998245E-14  0.12500000000E+03  0.12500000000E+03 0.  0.
        -11    1    3    3    0    0  0.22962440733E+02  0.36397035336E+02 -0.41297165657E+02  0.59644561841E+02  0.51100000000E-03 0. -1.
         23    2    1    0    0    0  0.18738650813E+02  0.61543615342E+01 -0.20253673541E+02  0.96729441249E+02  0.92506001493E+02 0.  0.
         11    1    3    3    0    0 -0.42237899196E+01 -0.30242673802E+02  0.21043492115E+02  0.37084879407E+02  0.51100000000E-03 0.  1.
         22    1    1    0    0    0 -0.18738650813E+02 -0.61543615342E+01  0.20253673541E+02  0.28270558751E+02  0.00000000000E+00 0. -1.
</event>
<event>
 5    1  0.1102386E-009  0.9118800E+02  0.7818608E-02  0.1130116E+00
         25   -1    0    0    0    0  0.00000000000E+00  0.00000000000E+00  0.99999998245E-14  0.12500000000E+03  0.12500000000E+03 0.  0.
        -11    1    3    3    0    0  0.37737304793E+02 -0.19414660103E+02  0.15596093443E+02  0.45213618865E+02  0.51100000000E-03 0.  1.
         23    2    1    0    0    0 -0.11964445400E+02 -0.87735186981E+01  0.24051801596E+02  0.96740280538E+02  0.92520647072E+02 0.  0.
         11    1    3    3    0    0 -0.49701750192E+02  0.10641141405E+02  0.84557081520E+01  0.51526661673E+02  0.51100000000E-03 0. -1.
         22    1    1    0    0    0  0.11964445400E+02  0.87735186981E+01 -0.24051801596E+02  0.28259719462E+02  0.00000000000E+00 0. -1.
</event>
<event>
 5    1  0.1102386E-009  0.9118800E+02  0.7818608E-02  0.1130116E+00
         25   -1    0    0    0    0  0.00000000000E+00  0.00000000000E+00  0.99999998245E-14  0.12500000000E+03  0.12500000000E+03 0.  0.
        -11    1    3    3    0    0  0.15080355207E+02  0.81722492661E+01  0.51940413332E+02  0.54699262413E+02  0.51100000000E-03 0.  1.
         23    2    1    0    0    0  0.21684865466E+02  0.22660888818E+02  0.36435333747E+02  0.76924197172E+02  0.60050389616E+02 0.  0.
         11    1    3    3    0    0  0.66045102589E+01  0.14488639552E+02 -0.15505079585E+02  0.22224934759E+02  0.51100000000E-03 0. -1.
         22    1    1    0    0    0 -0.21684865466E+02 -0.22660888818E+02 -0.36435333747E+02  0.48075802828E+02  0.00000000000E+00 0.  1.
</event>
<event>
 5    1  0.1102386E-009  0.9118800E+02  0.7818608E-02  0.1130116E+00
         25   -1    0    0    0    0  0.00000000000E+00  0.00000000000E+00  0.99999998245E-14  0.12500000000E+03  0.12500000000E+03 0.  0.
        -11    1    3    3    0    0  0.69508555428E+01 -0.52924079524E+02  0.29943979510E+02  0.61203876474E+02  0.51100000000E-03 0.  1.
         23    2    1    0    0    0  0.11077503844E+02 -0.23036258370E+02  0.91343782156E+01  0.97855623851E+02  0.94015455978E+02 0.  0.
         11    1    3    3    0    0  0.41266483016E+01  0.29887821154E+02 -0.20809601295E+02  0.36651747377E+02  0.51100000000E-03 0. -1.
         22    1    1    0    0    0 -0.11077503844E+02  0.23036258370E+02 -0.91343782156E+01  0.27144376149E+02  0.00000000000E+00 0.  1.
</event>
<event>
 5    1  0.1102386E-009  0.9118800E+02  0.7818608E-02  0.1130116E+00
         25   -1    0    0    0    0  0.00000000000E+00  0.00000000000E+00  0.99999998245E-14  0.12500000000E+03  0.12500000000E+03 0.  0.
        -11    1    3    3    0    0  0.26937132716E+02 -0.10240798362E+02  0.44420677975E+02  0.52949784722E+02  0.51100000000E-03 0. -1.
         23    2    1    0    0    0  0.29889796192E+02 -0.21220652826E+01  0.34318834118E+01  0.94839083217E+02  0.89915353551E+02 0.  0.
         11    1    3    3    0    0  0.29526634754E+01  0.81187330792E+01 -0.40988794563E+02  0.41889298495E+02  0.51100000000E-03 0.  1.
         22    1    1    0    0    0 -0.29889796192E+02  0.21220652826E+01 -0.34318834118E+01  0.30160916783E+02  0.00000000000E+00 0. -1.
</event>
<event>
 5    1  0.1102386E-009  0.9118800E+02  0.7818608E-02  0.1130116E+00
         25   -1    0    0    0    0  0.00000000000E+00  0.00000000000E+00  0.99999998245E-14  0.12500000000E+03  0.12500000000E+03 0.  0.
        -11    1    3    3    0    0  0.45944245012E+01 -0.28842698571E+02 -0.52221036458E+02  0.59833491009E+02  0.51100000000E-03 0. -1.
         23    2    1    0    0    0  0.14258553552E+02 -0.17451583189E+02 -0.22198472044E+02  0.93367164745E+02  0.87845268435E+02 0.  0.
         11    1    3    3    0    0  0.96641290507E+01  0.11391115383E+02  0.30022564414E+02  0.33533673736E+02  0.51100000000E-03 0.  1.
         22    1    1    0    0    0 -0.14258553552E+02  0.17451583189E+02  0.22198472044E+02  0.31632835255E+02  0.00000000000E+00 0. -1.
</event>
<event>
 5    1  0.1102386E-009  0.9118800E+02  0.7818608E-02  0.1130116E+00
         25   -1    0    0    0    0  0.00000000000E+00  0.00000000000E+00  0.99999998245E-14  0.12500000000E+03  0.12500000000E+03 0.  0.
        -11    1    3    3    0    0 -0.21033232953E+02 -0.27299256343E+01 -0.27560069984E+02  0.34776527144E+02  0.51100000000E-03 0.  1.
         23    2    1    0    0    0  0.20272825409E+02  0.82432498597E+01  0.17572100380E+02  0.96933697606E+02  0.92781595166E+02 0.  0.
         11    1    3    3    0    0  0.41306058362E+02  0.10973175494E+02  0.45132170364E+02  0.62157170462E+02  0.51100000000E-03 0. -1.
         22    1    1    0    0    0 -0.20272825409E+02 -0.82432498597E+01 -0.17572100380E+02  0.28066302394E+02  0.00000000000E+00 0. -1.
</event>
<event>
 5    1  0.1102386E-009  0.9118800E+02  0.7818608E-02  0.1130116E+00
         25   -1    0    0    0    0  0.00000000000E+00  0.00000000000E+00  0.99999998245E-14  0.12500000000E+03  0.12500000000E+03 0.  0.
        -11    1    3    3    0    0  0.58773681879E+02  0.94273043403E+00 -0.11831372916E+02  0.59960118476E+02  0.51100000000E-03 0. -1.
         23    2    1    0    0    0  0.31756374185E+02 -0.95706138260E+01  0.13466580301E+01  0.91805460717E+02  0.85594188934E+02 0.  0.
         11    1    3    3    0    0 -0.27017307694E+02 -0.10513344260E+02  0.13178030946E+02  0.31845342241E+02  0.51100000000E-03 0.  1.
         22    1    1    0    0    0 -0.31756374185E+02  0.95706138260E+01 -0.13466580301E+01  0.33194539283E+02  0.00000000000E+00 0. -1.
</event>
<event>
 5    1  0.1102386E-009  0.9118800E+02  0.7818608E-02  0.1130116E+00
         25   -1    0    0    0    0  0.00000000000E+00  0.00000000000E+00  0.99999998245E-14  0.12500000000E+03  0.12500000000E+03 0.  0.
        -11    1    3    3    0    0 -0.63438302293E+01  0.24849840879E+02 -0.27473564840E+02  0.37583979818E+02  0.51100000000E-03 0.  1.
         23    2    1    0    0    0  0.16583989352E+02 -0.23376142583E+02 -0.34711656901E+01  0.96129223492E+02  0.91691362042E+02 0.  0.
         11    1    3    3    0    0  0.22927819582E+02 -0.48225983462E+02  0.24002399150E+02  0.58545243674E+02  0.51100000000E-03 0. -1.
         22    1    1    0    0    0 -0.16583989352E+02  0.23376142583E+02  0.34711656901E+01  0.28870776508E+02  0.00000000000E+00 0. -1.
</event>
<event>
 5    1  0.1102386E-009  0.9118800E+02  0.7818608E-02  0.1130116E+00
         25   -1    0    0    0    0  0.00000000000E+00  0.00000000000E+00  0.99999998245E-14  0.12500000000E+03  0.12500000000E+03 0.  0.
        -11    1    3    3    0    0  0.47504311033E+01 -0.24196333963E+02  0.23004287068E+02  0.33722787499E+02  0.51100000000E-03 0.  1.
         23    2    1    0    0    0 -0.10898117293E+02  0.17192208075E+02 -0.20737275781E+02  0.95941858528E+02  0.91435576402E+02 0.  0.
         11    1    3    3    0    0 -0.15648548396E+02  0.41388542038E+02 -0.43741562849E+02  0.62219071029E+02  0.51100000000E-03 0. -1.
         22    1    1    0    0    0  0.10898117293E+02 -0.17192208075E+02  0.20737275781E+02  0.29058141472E+02  0.00000000000E+00 0. -1.
</event>
<event>
 5    1  0.1102386E-009  0.9118800E+02  0.7818608E-02  0.1130116E+00
         25   -1    0    0    0    0  0.00000000000E+00  0.00000000000E+00  0.99999998245E-14  0.12500000000E+03  0.12500000000E+03 0.  0.
        -11    1    3    3    0    0  0.16802090123E+02  0.42247458879E+02  0.76995377734E+01  0.46113348354E+02  0.51100000000E-03 0.  1.
         23    2    1    0    0    0  0.11915761296E+01  0.27399213739E+00  0.29189393866E+02  0.95785010019E+02  0.91220899495E+02 0.  0.
         11    1    3    3    0    0 -0.15610513993E+02 -0.41973466741E+02  0.21489856092E+02  0.49671661665E+02  0.51100000000E-03 0. -1.
         22    1    1    0    0    0 -0.11915761296E+01 -0.27399213739E+00 -0.29189393866E+02  0.29214989981E+02  0.00000000000E+00 0. -1.
</event>
<event>
 5    1  0.1102386E-009  0.9118800E+02  0.7818608E-02  0.1130116E+00
         25   -1    0    0    0    0  0.00000000000E+00  0.00000000000E+00  0.99999998245E-14  0.12500000000E+03  0.12500000000E+03 0.  0.
        -11    1    3    3    0    0 -0.20885850285E+02  0.12328008808E+01  0.57836725344E+02  0.61504677374E+02  0.51100000000E-03 0. -1.
         23    2    1    0    0    0 -0.94622091910E+01  0.76950848669E+01  0.36088078082E+02  0.86906731388E+02  0.78113269340E+02 0.  0.
         11    1    3    3    0    0  0.11423641094E+02  0.64622839861E+01 -0.21748647262E+02  0.25402054014E+02  0.51100000000E-03 0.  1.
         22    1    1    0    0    0  0.94622091910E+01 -0.76950848669E+01 -0.36088078082E+02  0.38093268612E+02  0.00000000000E+00 0. -1.
</event>
<event>
 5    1  0.1102386E-009  0.9118800E+02  0.7818608E-02  0.1130116E+00
         25   -1    0    0    0    0  0.00000000000E+00  0.00000000000E+00  0.99999998245E-14  0.12500000000E+03  0.12500000000E+03 0.  0.
        -11    1    3    3    0    0  0.20689174747E+01  0.23226096562E+02  0.25632939945E+02  0.34652266758E+02  0.51100000000E-03 0. -1.
         23    2    1    0    0    0  0.11019153100E+02 -0.33549419545E+01 -0.27749757396E+02  0.94954594259E+02  0.90075793446E+02 0.  0.
         11    1    3    3    0    0  0.89502356251E+01 -0.26581038517E+02 -0.53382697341E+02  0.60302327501E+02  0.51100000000E-03 0.  1.
         22    1    1    0    0    0 -0.11019153100E+02  0.33549419545E+01  0.27749757396E+02  0.30045405741E+02  0.00000000000E+00 0.  1.
</event>
<event>
 5    1  0.1102386E-009  0.9118800E+02  0.7818608E-02  0.1130116E+00
         25   -1    0    0    0    0  0.00000000000E+00  0.00000000000E+00  0.99999998245E-14  0.12500000000E+03  0.12500000000E+03 0.  0.
        -11    1    3    3    0    0 -0.17491655595E+02 -0.23766491622E+02 -0.22048074798E+02  0.36836418692E+02  0.51100000000E-03 0.  1.
         23    2    1    0    0    0 -0.24573412785E+01 -0.65857625242E+01  0.30273083294E+02  0.93921544982E+02  0.88630616863E+02 0.  0.
         11    1    3    3    0    0  0.15034314317E+02  0.17180729098E+02  0.52321158091E+02  0.57085126290E+02  0.51100000000E-03 0. -1.
         22    1    1    0    0    0  0.24573412785E+01  0.65857625242E+01 -0.30273083294E+02  0.31078455018E+02  0.00000000000E+00 0. -1.
</event>
<event>
 5    1  0.1102386E-009  0.9118800E+02  0.7818608E-02  0.1130116E+00
         25   -1    0    0    0    0  0.00000000000E+00  0.00000000000E+00  0.99999998245E-14  0.12500000000E+03  0.12500000000E+03 0.  0.
        -11    1    3    3    0    0 -0.23276522971E+02 -0.32994775377E+02 -0.74405049566E+01  0.41058651196E+02  0.51100000000E-03 0. -1.
         23    2    1    0    0    0  0.77067242575E+01  0.92145603078E+01  0.21120789951E+02  0.10070206822E+03  0.97726746881E+02 0.  0.
         11    1    3    3    0    0  0.30983247228E+02  0.42209335685E+02  0.28561294907E+02  0.59643417028E+02  0.51100000000E-03 0.  1.
         22    1    1    0    0    0 -0.77067242575E+01 -0.92145603078E+01 -0.21120789951E+02  0.24297931776E+02  0.00000000000E+00 0.  1.
</event>
<event>
 5    1  0.1102386E-009  0.9118800E+02  0.7818608E-02  0.1130116E+00
         25   -1    0    0    0    0  0.00000000000E+00  0.00000000000E+00  0.99999998245E-14  0.12500000000E+03  0.12500000000E+03 0.  0.
        -11    1    3    3    0    0  0.77074411755E+01  0.31214211924E+02  0.24316584894E+02  0.40311635748E+02  0.51100000000E-03 0.  1.
         23    2    1    0    0    0  0.18701638670E+02 -0.48871573507E+01 -0.19092128116E+02  0.97831176840E+02  0.93982946379E+02 0.  0.
         11    1    3    3    0    0  0.10994197495E+02 -0.36101369275E+02 -0.43408713009E+02  0.57519541092E+02  0.51100000000E-03 0. -1.
         22    1    1    0    0    0 -0.18701638670E+02  0.48871573507E+01  0.19092128116E+02  0.27168823160E+02  0.00000000000E+00 0. -1.
</event>
<event>
 5    1  0.1102386E-009  0.9118800E+02  0.7818608E-02  0.1130116E+00
         25   -1    0    0    0    0  0.00000000000E+00  0.00000000000E+00  0.99999998245E-14  0.12500000000E+03  0.12500000000E+03 0.  0.
        -11    1    3    3    0    0 -0.36635391916E+02  0.44201802979E+02 -0.17448388930E+02  0.60003313275E+02  0.51100000000E-03 0.  1.
         23    2    1    0    0    0 -0.10005331772E+02  0.28301015224E+02 -0.13409194439E+01  0.94952501077E+02  0.90072888647E+02 0.  0.
         11    1    3    3    0    0  0.26630060144E+02 -0.15900787755E+02  0.16107469486E+02  0.34949187802E+02  0.51100000000E-03 0. -1.
         22    1    1    0    0    0  0.10005331772E+02 -0.28301015224E+02  0.13409194439E+01  0.30047498923E+02  0.00000000000E+00 0.  1.
</event>
<event>
 5    1  0.1102386E-009  0.9118800E+02  0.7818608E-02  0.1130116E+00
         25   -1    0    0    0    0  0.00000000000E+00  0.00000000000E+00  0.99999998245E-14  0.12500000000E+03  0.12500000000E+03 0.  0.
        -11    1    3    3    0    0 -0.23162623426E+01 -0.37436393522E+02  0.83157907840E+01  0.38418758540E+02  0.51100000000E-03 0. -1.
         23    2    1    0    0    0 -0.24763160652E+02  0.14987216774E+02  0.56515013059E+01  0.95508132323E+02  0.90840701674E+02 0.  0.
         11    1    3    3    0    0 -0.22446898309E+02  0.52423610296E+02 -0.26642894781E+01  0.57089373782E+02  0.51100000000E-03 0.  1.
         22    1    1    0    0    0  0.24763160652E+02 -0.14987216774E+02 -0.56515013059E+01  0.29491867677E+02  0.00000000000E+00 0.  1.
</event>
<event>
 5    1  0.1102386E-009  0.9118800E+02  0.7818608E-02  0.1130116E+00
         25   -1    0    0    0    0  0.00000000000E+00  0.00000000000E+00  0.99999998245E-14  0.12500000000E+03  0.12500000000E+03 0.  0.
        -11    1    3    3    0    0 -0.94252592817E+01 -0.17754796256E+02  0.31766363993E+02  0.37592155887E+02  0.51100000000E-03 0. -1.
         23    2    1    0    0    0  0.22916059767E+02  0.86347541556E+01 -0.11703493422E+02  0.97858214266E+02  0.94018900049E+02 0.  0.
         11    1    3    3    0    0  0.32341319048E+02  0.26389550412E+02 -0.43469857414E+02  0.60266058379E+02  0.51100000000E-03 0.  1.
         22    1    1    0    0    0 -0.22916059767E+02 -0.86347541556E+01  0.11703493422E+02  0.27141785734E+02  0.00000000000E+00 0.  1.
</event>
<event>
 5    1  0.1102386E-009  0.9118800E+02  0.7818608E-02  0.1130116E+00
         25   -1    0    0    0    0  0.00000000000E+00  0.00000000000E+00  0.99999998245E-14  0.12500000000E+03  0.12500000000E+03 0.  0.
        -11    1    3    3    0    0  0.12437183281E+02 -0.32177688954E+02 -0.17446333883E+02  0.38658268981E+02  0.51100000000E-03 0. -1.
         23    2    1    0    0    0  0.55909099535E+01  0.20952901599E+02  0.12438308704E+02  0.10000012234E+03  0.96824741598E+02 0.  0.
         11    1    3    3    0    0 -0.68462733273E+01  0.53130590553E+02  0.29884642586E+02  0.61341853361E+02  0.51100000000E-03 0.  1.
         22    1    1    0    0    0 -0.55909099535E+01 -0.20952901599E+02 -0.12438308704E+02  0.24999877658E+02  0.00000000000E+00 0.  1.
</event>
<event>
 5    1  0.1102386E-009  0.9118800E+02  0.7818608E-02  0.1130116E+00
         25   -1    0    0    0    0  0.00000000000E+00  0.00000000000E+00  0.99999998245E-14  0.12500000000E+03  0.12500000000E+03 0.  0.
        -11    1    3    3    0    0  0.35842694226E+01  0.37594966069E+02 -0.11009947679E+02  0.39337608076E+02  0.51100000000E-03 0. -1.
         23    2    1    0    0    0  0.15416795935E+02 -0.29897084917E+01  0.25404804806E+02  0.95133295110E+02  0.90323439802E+02 0.  0.
         11    1    3    3    0    0  0.11832526512E+02 -0.40584674560E+02  0.36414752485E+02  0.55795687034E+02  0.51100000000E-03 0.  1.
         22    1    1    0    0    0 -0.15416795935E+02  0.29897084917E+01 -0.25404804806E+02  0.29866704890E+02  0.00000000000E+00 0.  1.
</event>
<event>
 5    1  0.1102386E-009  0.9118800E+02  0.7818608E-02  0.1130116E+00
         25   -1    0    0    0    0  0.00000000000E+00  0.00000000000E+00  0.99999998245E-14  0.12500000000E+03  0.12500000000E+03 0.  0.
        -11    1    3    3    0    0 -0.18328676839E+02  0.10454856412E+02 -0.55985054194E+02  0.59829513709E+02  0.51100000000E-03 0. -1.
         23    2    1    0    0    0  0.36568865247E+01  0.88312529598E+01 -0.27739626949E+02  0.95659741801E+02  0.91049082644E+02 0.  0.
         11    1    3    3    0    0  0.21985563364E+02 -0.16236034519E+01  0.28245427246E+02  0.35830228092E+02  0.51100000000E-03 0.  1.
         22    1    1    0    0    0 -0.36568865247E+01 -0.88312529598E+01  0.27739626949E+02  0.29340258199E+02  0.00000000000E+00 0. -1.
</event>
<event>
 5    1  0.1102386E-009  0.9118800E+02  0.7818608E-02  0.1130116E+00
         25   -1    0    0    0    0  0.00000000000E+00  0.00000000000E+00  0.99999998245E-14  0.12500000000E+03  0.12500000000E+03 0.  0.
        -11    1    3    3    0    0 -0.33148300003E+02 -0.41694412413E+00 -0.50833094813E+02  0.60687619528E+02  0.51100000000E-03 0. -1.
         23    2    1    0    0    0 -0.69930615093E+01  0.15561420317E+01 -0.29921274017E+02  0.94233018899E+02  0.89068820160E+02 0.  0.
         11    1    3    3    0    0  0.26155238494E+02  0.19730861558E+01  0.20911820796E+02  0.33545399370E+02  0.51100000000E-03 0.  1.
         22    1    1    0    0    0  0.69930615093E+01 -0.15561420317E+01  0.29921274017E+02  0.30766981101E+02  0.00000000000E+00 0. -1.
</event>
<event>
 4    1  0.1102386E-009  0.9118800E+02  0.7818608E-02  0.1130116E+00
         25   -1    0    0    0    0  0.00000000000E+00  0.00000000000E+00  0.99999998245E-14  0.12500000000E+03  0.12500000000E+03 0.  0.
        -11    1    1    0    0    0 -0.25155477226E+02 -0.68610507413E+01  0.49490710695E+02  0.55939275085E+02  0.51100000000E-03 0.  1.
         11    1    1    0    0    0 -0.45048517381E+01  0.14618722185E+02 -0.74126956695E+01  0.16998493605E+02  0.51100000000E-03 0. -1.
         22    1    1    0    0    0  0.29660328964E+02 -0.77576714433E+01 -0.42078015025E+02  0.52062231310E+02  0.00000000000E+00 0.  1.
</event>
<event>
 5    1  0.1102386E-009  0.9118800E+02  0.7818608E-02  0.1130116E+00
         25   -1    0    0    0    0  0.00000000000E+00  0.00000000000E+00  0.99999998245E-14  0.12500000000E+03  0.12500000000E+03 0.  0.
        -11    1    3    3    0    0 -0.19058872649E+02 -0.92284855777E+01 -0.29746182938E+02  0.36513572440E+02  0.51100000000E-03 0.  1.
         23    2    1    0    0    0 -0.68475121102E+01 -0.83511264044E+01  0.27710135450E+02  0.95259768983E+02  0.90498299684E+02 0.  0.
         11    1    3    3    0    0  0.12211360538E+02  0.87735917334E+00  0.57456318388E+02  0.58746196543E+02  0.51100000000E-03 0. -1.
         22    1    1    0    0    0  0.68475121102E+01  0.83511264044E+01 -0.27710135450E+02  0.29740231017E+02  0.00000000000E+00 0. -1.
</event>
<event>
 5    1  0.1102386E-009  0.9118800E+02  0.7818608E-02  0.1130116E+00
         25   -1    0    0    0    0  0.00000000000E+00  0.00000000000E+00  0.99999998245E-14  0.12500000000E+03  0.12500000000E+03 0.  0.
        -11    1    3    3    0    0  0.23297222962E+01 -0.16551169460E+01 -0.25078596043E+02  0.25240899308E+02  0.51100000000E-03 0.  1.
         23    2    1    0    0    0 -0.81148438620E+01  0.27687769016E+02  0.26715392361E+02  0.85678562680E+02  0.76122537201E+02 0.  0.
         11    1    3    3    0    0 -0.10444566158E+02  0.29342885962E+02  0.51793988404E+02  0.60437663372E+02  0.51100000000E-03 0. -1.
         22    1    1    0    0    0  0.81148438620E+01 -0.27687769016E+02 -0.26715392361E+02  0.39321437320E+02  0.00000000000E+00 0. -1.
</event>
<event>
 5    1  0.1102386E-009  0.9118800E+02  0.7818608E-02  0.1130116E+00
         25   -1    0    0    0    0  0.00000000000E+00  0.00000000000E+00  0.99999998245E-14  0.12500000000E+03  0.12500000000E+03 0.  0.
        -11    1    3    3    0    0 -0.32904914973E+01 -0.79681071227E+01  0.47927158206E+02  0.48696309505E+02  0.51100000000E-03 0.  1.
         23    2    1    0    0    0 -0.12560300862E+01  0.25085957638E+02  0.13425376158E+02  0.96519768133E+02  0.92222242617E+02 0.  0.
         11    1    3    3    0    0  0.20344614112E+01  0.33054064761E+02 -0.34501782048E+02  0.47823458628E+02  0.51100000000E-03 0. -1.
         22    1    1    0    0    0  0.12560300862E+01 -0.25085957638E+02 -0.13425376158E+02  0.28480231867E+02  0.00000000000E+00 0. -1.
</event>
<event>
 5    1  0.1102386E-009  0.9118800E+02  0.7818608E-02  0.1130116E+00
         25   -1    0    0    0    0  0.00000000000E+00  0.00000000000E+00  0.99999998245E-14  0.12500000000E+03  0.12500000000E+03 0.  0.
        -11    1    3    3    0    0  0.46809293608E+02 -0.23255943573E+02  0.18930966900E+02  0.55590740125E+02  0.51100000000E-03 0.  1.
         23    2    1    0    0    0  0.70506542170E+01 -0.14403220068E+02  0.23469360746E+02  0.96575092488E+02  0.92297199969E+02 0.  0.
         11    1    3    3    0    0 -0.39758639391E+02  0.88527235047E+01  0.45383938457E+01  0.40984352364E+02  0.51100000000E-03 0. -1.
         22    1    1    0    0    0 -0.70506542170E+01  0.14403220068E+02 -0.23469360746E+02  0.28424907512E+02  0.00000000000E+00 0.  1.
</event>
<event>
 5    1  0.1102386E-009  0.9118800E+02  0.7818608E-02  0.1130116E+00
         25   -1    0    0    0    0  0.00000000000E+00  0.00000000000E+00  0.99999998245E-14  0.12500000000E+03  0.12500000000E+03 0.  0.
        -11    1    3    3    0    0 -0.43740842482E+02  0.24656208780E+02  0.91546301699E+01  0.51039173056E+02  0.51100000000E-03 0. -1.
         23    2    1    0    0    0 -0.32366257107E+02  0.20074762555E+02 -0.19503275799E+02  0.82210416482E+02  0.70196895376E+02 0.  0.
         11    1    3    3    0    0  0.11374585375E+02 -0.45814462247E+01 -0.28657905969E+02  0.31171243426E+02  0.51100000000E-03 0.  1.
         22    1    1    0    0    0  0.32366257107E+02 -0.20074762555E+02  0.19503275799E+02  0.42789583518E+02  0.00000000000E+00 0. -1.
</event>
<event>
 5    1  0.1102386E-009  0.9118800E+02  0.7818608E-02  0.1130116E+00
         25   -1    0    0    0    0  0.00000000000E+00  0.00000000000E+00  0.99999998245E-14  0.12500000000E+03  0.12500000000E+03 0.  0.
        -11    1    3    3    0    0  0.24019356679E+02  0.24544674989E+02  0.15216361209E+02  0.37562058175E+02  0.51100000000E-03 0.  1.
         23    2    1    0    0    0 -0.27447675758E+02  0.11094250054E+02 -0.59305564573E+01  0.94806808902E+02  0.89870474716E+02 0.  0.
         11    1    3    3    0    0 -0.51467032437E+02 -0.13450424935E+02 -0.21146917666E+02  0.57244750728E+02  0.51100000000E-03 0. -1.
         22    1    1    0    0    0  0.27447675758E+02 -0.11094250054E+02  0.59305564573E+01  0.30193191098E+02  0.00000000000E+00 0. -1.
</event>
<event>
 5    1  0.1102386E-009  0.9118800E+02  0.7818608E-02  0.1130116E+00
         25   -1    0    0    0    0  0.00000000000E+00  0.00000000000E+00  0.99999998245E-14  0.12500000000E+03  0.12500000000E+03 0.  0.
        -11    1    3    3    0    0  0.43699542199E+02 -0.22718694657E+02  0.14569868864E+02  0.51362147096E+02  0.51100000000E-03 0.  1.
         23    2    1    0    0    0  0.31001730005E+02 -0.20512107587E+02 -0.15993808560E+02  0.84532040659E+02  0.74215969742E+02 0.  0.
         11    1    3    3    0    0 -0.12697812194E+02  0.22065870700E+01 -0.30563677424E+02  0.33169893563E+02  0.51100000000E-03 0. -1.
         22    1    1    0    0    0 -0.31001730005E+02  0.20512107587E+02  0.15993808560E+02  0.40467959341E+02  0.00000000000E+00 0.  1.
</event>
<event>
 5    1  0.1102386E-009  0.9118800E+02  0.7818608E-02  0.1130116E+00
         25   -1    0    0    0    0  0.00000000000E+00  0.00000000000E+00  0.99999998245E-14  0.12500000000E+03  0.12500000000E+03 0.  0.
        -11    1    3    3    0    0  0.30601134951E+02  0.26801933156E+02 -0.46963141019E+01  0.40949095810E+02  0.51100000000E-03 0.  1.
         23    2    1    0    0    0 -0.18515179560E+02  0.13045437506E+02  0.17303075887E+02  0.96497513284E+02  0.92192072983E+02 0.  0.
         11    1    3    3    0    0 -0.49116314511E+02 -0.13756495650E+02  0.21999389989E+02  0.55548417474E+02  0.51100000000E-03 0. -1.
         22    1    1    0    0    0  0.18515179560E+02 -0.13045437506E+02 -0.17303075887E+02  0.28502486716E+02  0.00000000000E+00 0.  1.
</event>
<event>
 5    1  0.1102386E-009  0.9118800E+02  0.7818608E-02  0.1130116E+00
         25   -1    0    0    0    0  0.00000000000E+00  0.00000000000E+00  0.99999998245E-14  0.12500000000E+03  0.12500000000E+03 0.  0.
        -11    1    3    3    0    0 -0.36690753924E+02  0.45843291422E+02 -0.44424014760E+01  0.58885938245E+02  0.51100000000E-03 0.  1.
         23    2    1    0    0    0 -0.44230274905E+01  0.27767530558E+02 -0.72029178527E+01  0.95974477592E+02  0.91480158494E+02 0.  0.
         11    1    3    3    0    0  0.32267726433E+02 -0.18075760864E+02 -0.27605163767E+01  0.37088539347E+02  0.51100000000E-03 0. -1.
         22    1    1    0    0    0  0.44230274905E+01 -0.27767530558E+02  0.72029178527E+01  0.29025522408E+02  0.00000000000E+00 0.  1.
</event>
<event>
 5    1  0.1102386E-009  0.9118800E+02  0.7818608E-02  0.1130116E+00
         25   -1    0    0    0    0  0.00000000000E+00  0.00000000000E+00  0.99999998245E-14  0.12500000000E+03  0.12500000000E+03 0.  0.
        -11    1    3    3    0    0 -0.30240297696E+02 -0.48785830183E+02  0.12137921926E+02  0.58667384298E+02  0.51100000000E-03 0. -1.
         23    2    1    0    0    0  0.15423186488E+01 -0.26011541216E+02  0.61964900044E+01  0.98216133371E+02  0.94493562441E+02 0.  0.
         11    1    3    3    0    0  0.31782616345E+02  0.22774288968E+02 -0.59414319217E+01  0.39548749073E+02  0.51100000000E-03 0.  1.
         22    1    1    0    0    0 -0.15423186488E+01  0.26011541216E+02 -0.61964900044E+01  0.26783866629E+02  0.00000000000E+00 0. -1.
</event>
<event>
 5    1  0.1102386E-009  0.9118800E+02  0.7818608E-02  0.1130116E+00
         25   -1    0    0    0    0  0.00000000000E+00  0.00000000000E+00  0.99999998245E-14  0.12500000000E+03  0.12500000000E+03 0.  0.
        -11    1    3    3    0    0  0.46865184074E+01 -0.60531464195E+02  0.35072804805E+01  0.60813835835E+02  0.51100000000E-03 0. -1.
         23    2    1    0    0    0  0.57523272926E+01 -0.28940853979E+02 -0.79599118453E+01  0.94438218394E+02  0.89356334966E+02 0.  0.
         11    1    3    3    0    0  0.10658088853E+01  0.31590610216E+02 -0.11467192326E+02  0.33624382559E+02  0.51100000000E-03 0.  1.
         22    1    1    0    0    0 -0.57523272926E+01  0.28940853979E+02  0.79599118453E+01  0.30561781606E+02  0.00000000000E+00 0. -1.
</event>
<event>
 5    1  0.1102386E-009  0.9118800E+02  0.7818608E-02  0.1130116E+00
         25   -1    0    0    0    0  0.00000000000E+00  0.00000000000E+00  0.99999998245E-14  0.12500000000E+03  0.12500000000E+03 0.  0.
        -11    1    3    3    0    0  0.12014358403E+02 -0.19640887254E+02  0.30010330962E+02  0.37824981489E+02  0.51100000000E-03 0. -1.
         23    2    1    0    0    0 -0.14336352976E+02 -0.16371625073E+02 -0.20636093953E+02  0.95009843318E+02  0.90152431079E+02 0.  0.
         11    1    3    3    0    0 -0.26350711379E+02  0.32692621803E+01 -0.50646424915E+02  0.57184861828E+02  0.51100000000E-03 0.  1.
         22    1    1    0    0    0  0.14336352976E+02  0.16371625073E+02  0.20636093953E+02  0.29990156682E+02  0.00000000000E+00 0.  1.
</event>
<event>
 5    1  0.1102386E-009  0.9118800E+02  0.7818608E-02  0.1130116E+00
         25   -1    0    0    0    0  0.00000000000E+00  0.00000000000E+00  0.99999998245E-14  0.12500000000E+03  0.12500000000E+03 0.  0.
        -11    1    3    3    0    0 -0.38062826202E+02  0.35745731252E+02 -0.33887713783E+02  0.62248800687E+02  0.51100000000E-03 0. -1.
         23    2    1    0    0    0 -0.16863902458E+02  0.20599136696E+02 -0.14855711983E+02  0.94513809401E+02  0.89462016243E+02 0.  0.
         11    1    3    3    0    0  0.21198923744E+02 -0.15146594556E+02  0.19032001800E+02  0.32265008714E+02  0.51100000000E-03 0.  1.
         22    1    1    0    0    0  0.16863902458E+02 -0.20599136696E+02  0.14855711983E+02  0.30486190599E+02  0.00000000000E+00 0. -1.
</event>
<event>
 5    1  0.1102386E-009  0.9118800E+02  0.7818608E-02  0.1130116E+00
         25   -1    0    0    0    0  0.00000000000E+00  0.00000000000E+00  0.99999998245E-14  0.12500000000E+03  0.12500000000E+03 0.  0.
        -11    1    3    3    0    0 -0.13525953832E+02  0.11452919031E+02 -0.38472068288E+02  0.42358243826E+02  0.51100000000E-03 0.  1.
         23    2    1    0    0    0  0.27807968525E+02  0.86059071418E+01 -0.53478054885E+01  0.95403652678E+02  0.90696820063E+02 0.  0.
         11    1    3    3    0    0  0.41333922357E+02 -0.28470118890E+01  0.33124262799E+02  0.53045408853E+02  0.51100000000E-03 0. -1.
         22    1    1    0    0    0 -0.27807968525E+02 -0.86059071418E+01  0.53478054885E+01  0.29596347322E+02  0.00000000000E+00 0.  1.
</event>
<event>
 5    1  0.1102386E-009  0.9118800E+02  0.7818608E-02  0.1130116E+00
         25   -1    0    0    0    0  0.00000000000E+00  0.00000000000E+00  0.99999998245E-14  0.12500000000E+03  0.12500000000E+03 0.  0.
        -11    1    3    3    0    0  0.39642163069E+02 -0.90578439968E+01 -0.25302977301E+02  0.47893489027E+02  0.51100000000E-03 0.  1.
         23    2    1    0    0    0 -0.49007941316E+01  0.12252687811E+02 -0.24376781237E+02  0.97280447240E+02  0.93247583400E+02 0.  0.
         11    1    3    3    0    0 -0.44542957200E+02  0.21310531808E+02  0.92619606370E+00  0.49386958213E+02  0.51100000000E-03 0. -1.
         22    1    1    0    0    0  0.49007941316E+01 -0.12252687811E+02  0.24376781237E+02  0.27719552760E+02  0.00000000000E+00 0.  1.
</event>
<event>
 5    1  0.1102386E-009  0.9118800E+02  0.7818608E-02  0.1130116E+00
         25   -1    0    0    0    0  0.00000000000E+00  0.00000000000E+00  0.99999998245E-14  0.12500000000E+03  0.12500000000E+03 0.  0.
        -11    1    3    3    0    0  0.23077709799E+02 -0.33206795159E+02 -0.24870154020E+02  0.47474166612E+02  0.51100000000E-03 0.  1.
         23    2    1    0    0    0  0.28906991039E+02  0.35180126030E+01  0.53526026760E+01  0.95391877821E+02  0.90680590289E+02 0.  0.
         11    1    3    3    0    0  0.58292812399E+01  0.36724807762E+02  0.30222756696E+02  0.47917711209E+02  0.51100000000E-03 0. -1.
         22    1    1    0    0    0 -0.28906991039E+02 -0.35180126030E+01 -0.53526026760E+01  0.29608122179E+02  0.00000000000E+00 0.  1.
</event>
<event>
 5    1  0.1102386E-009  0.9118800E+02  0.7818608E-02  0.1130116E+00
         25   -1    0    0    0    0  0.00000000000E+00  0.00000000000E+00  0.99999998245E-14  0.12500000000E+03  0.12500000000E+03 0.  0.
        -11    1    3    3    0    0 -0.52047928534E+02  0.10883869809E+02 -0.16493192079E+02  0.55672891715E+02  0.51100000000E-03 0. -1.
         23    2    1    0    0    0 -0.15522417247E+02 -0.38334285541E+01 -0.24390480950E+02  0.95836046691E+02  0.91290808259E+02 0.  0.
         11    1    3    3    0    0  0.36525511287E+02 -0.14717298363E+02 -0.78972888708E+01  0.40163154976E+02  0.51100000000E-03 0.  1.
         22    1    1    0    0    0  0.15522417247E+02  0.38334285541E+01  0.24390480950E+02  0.29163953309E+02  0.00000000000E+00 0. -1.
</event>
<event>
 5    1  0.1102386E-009  0.9118800E+02  0.7818608E-02  0.1130116E+00
         25   -1    0    0    0    0  0.00000000000E+00  0.00000000000E+00  0.99999998245E-14  0.12500000000E+03  0.12500000000E+03 0.  0.
        -11    1    3    3    0    0 -0.52626060122E+02  0.61097857145E+00  0.68255255303E+01  0.53070361765E+02  0.51100000000E-03 0.  1.
         23    2    1    0    0    0 -0.16440726668E+02  0.23313215694E+02  0.62726945451E+01  0.95791264727E+02  0.91229469920E+02 0.  0.
         11    1    3    3    0    0  0.36185333455E+02  0.22702237123E+02 -0.55283098519E+00  0.42720902963E+02  0.51100000000E-03 0. -1.
         22    1    1    0    0    0  0.16440726668E+02 -0.23313215694E+02 -0.62726945451E+01  0.29208735273E+02  0.00000000000E+00 0.  1.
</event>
<event>
 5    1  0.1102386E-009  0.9118800E+02  0.7818608E-02  0.1130116E+00
         25   -1    0    0    0    0  0.00000000000E+00  0.00000000000E+00  0.99999998245E-14  0.12500000000E+03  0.12500000000E+03 0.  0.
        -11    1    3    3    0    0 -0.36839589271E+02 -0.14772258494E+02 -0.30132815020E+02  0.49833337235E+02  0.51100000000E-03 0.  1.
         23    2    1    0    0    0 -0.54957130419E+00 -0.29599186070E+02 -0.11466182056E+02  0.93252761135E+02  0.87682325948E+02 0.  0.
         11    1    3    3    0    0  0.36290017966E+02 -0.14826927576E+02  0.18666632964E+02  0.43419423900E+02  0.51100000000E-03 0. -1.
         22    1    1    0    0    0  0.54957130419E+00  0.29599186070E+02  0.11466182056E+02  0.31747238865E+02  0.00000000000E+00 0.  1.
</event>
<event>
 5    1  0.1102386E-009  0.9118800E+02  0.7818608E-02  0.1130116E+00
         25   -1    0    0    0    0  0.00000000000E+00  0.00000000000E+00  0.99999998245E-14  0.12500000000E+03  0.12500000000E+03 0.  0.
        -11    1    3    3    0    0 -0.47958690396E+01  0.35157448072E+02  0.96153914987E+01  0.36762783745E+02  0.51100000000E-03 0.  1.
         23    2    1    0    0    0  0.38612531137E+01 -0.23744717624E+02  0.15175452583E+02  0.96556806583E+02  0.92272431667E+02 0.  0.
         11    1    3    3    0    0  0.86571221534E+01 -0.58902165696E+02  0.55600610841E+01  0.59794022838E+02  0.51100000000E-03 0. -1.
         22    1    1    0    0    0 -0.38612531137E+01  0.23744717624E+02 -0.15175452583E+02  0.28443193417E+02  0.00000000000E+00 0. -1.
</event>
<event>
 5    1  0.1102386E-009  0.9118800E+02  0.7818608E-02  0.1130116E+00
         25   -1    0    0    0    0  0.00000000000E+00  0.00000000000E+00  0.99999998245E-14  0.12500000000E+03  0.12500000000E+03 0.  0.
        -11    1    3    3    0    0  0.15181492658E+02 -0.12695030834E+02  0.30337827021E+02  0.36221889457E+02  0.51100000000E-03 0.  1.
         23    2    1    0    0    0 -0.25253911460E+02  0.70480888346E+00 -0.12654685389E+02  0.96744065015E+02  0.92525759946E+02 0.  0.
         11    1    3    3    0    0 -0.40435404118E+02  0.13399839718E+02 -0.42992512410E+02  0.60522175558E+02  0.51100000000E-03 0. -1.
         22    1    1    0    0    0  0.25253911460E+02 -0.70480888346E+00  0.12654685389E+02  0.28255934985E+02  0.00000000000E+00 0. -1.
</event>
<event>
 5    1  0.1102386E-009  0.9118800E+02  0.7818608E-02  0.1130116E+00
         25   -1    0    0    0    0  0.00000000000E+00  0.00000000000E+00  0.99999998245E-14  0.12500000000E+03  0.12500000000E+03 0.  0.
        -11    1    3    3    0    0 -0.27624041252E+02  0.80676341326E+01  0.33508445997E+02  0.44170016176E+02  0.51100000000E-03 0. -1.
         23    2    1    0    0    0  0.17188307678E+02  0.20712918365E+02  0.14089697821E+02  0.94619373069E+02  0.89609392740E+02 0.  0.
         11    1    3    3    0    0  0.44812348930E+02  0.12645284232E+02 -0.19418748175E+02  0.50449356893E+02  0.51100000000E-03 0.  1.
         22    1    1    0    0    0 -0.17188307678E+02 -0.20712918365E+02 -0.14089697821E+02  0.30380626931E+02  0.00000000000E+00 0.  1.
</event>
<event>
 5    1  0.1102386E-009  0.9118800E+02  0.7818608E-02  0.1130116E+00
         25   -1    0    0    0    0  0.00000000000E+00  0.00000000000E+00  0.99999998245E-14  0.12500000000E+03  0.12500000000E+03 0.  0.
        -11    1    3    3    0    0  0.32510164280E+02  0.69029011453E+01 -0.33930912473E+02  0.47495975064E+02  0.51100000000E-03 0.  1.
         23    2    1    0    0    0 -0.10120355424E+02 -0.15141892281E+02 -0.21004071083E+02  0.97199469468E+02  0.93138968037E+02 0.  0.
         11    1    3    3    0    0 -0.42630519704E+02 -0.22044793427E+02  0.12926841389E+02  0.49703494405E+02  0.51100000000E-03 0. -1.
         22    1    1    0    0    0  0.10120355424E+02  0.15141892281E+02  0.21004071083E+02  0.27800530532E+02  0.00000000000E+00 0.  1.
</event>
<event>
 5    1  0.1102386E-009  0.9118800E+02  0.7818608E-02  0.1130116E+00
         25   -1    0    0    0    0  0.00000000000E+00  0.00000000000E+00  0.99999998245E-14  0.12500000000E+03  0.12500000000E+03 0.  0.
        -11    1    3    3    0    0 -0.27221213908E+02 -0.10003404545E+02  0.48969399323E+02  0.56912781160E+02  0.51100000000E-03 0. -1.
         23    2    1    0    0    0 -0.26694660046E+02 -0.61178201000E+01  0.10362382864E+02  0.95718408916E+02  0.91129590305E+02 0.  0.
         11    1    3    3    0    0  0.52655386122E+00  0.38855844455E+01 -0.38607016459E+02  0.38805627756E+02  0.51100000000E-03 0.  1.
         22    1    1    0    0    0  0.26694660046E+02  0.61178201000E+01 -0.10362382864E+02  0.29281591084E+02  0.00000000000E+00 0. -1.
</event>
<event>
 5    1  0.1102386E-009  0.9118800E+02  0.7818608E-02  0.1130116E+00
         25   -1    0    0    0    0  0.00000000000E+00  0.00000000000E+00  0.99999998245E-14  0.12500000000E+03  0.12500000000E+03 0.  0.
        -11    1    3    3    0    0 -0.10856018844E+02 -0.24763929058E+01 -0.37293818657E+02  0.38920618922E+02  0.51100000000E-03 0. -1.
         23    2    1    0    0    0  0.15039112764E+02 -0.32694886960E+02 -0.85534236750E+01  0.88009574176E+02  0.79858584661E+02 0.  0.
         11    1    3    3    0    0  0.25895131608E+02 -0.30218494054E+02  0.28740394982E+02  0.49088955254E+02  0.51100000000E-03 0.  1.
         22    1    1    0    0    0 -0.15039112764E+02  0.32694886960E+02  0.85534236750E+01  0.36990425824E+02  0.00000000000E+00 0.  1.
</event>
<event>
 5    1  0.1102386E-009  0.9118800E+02  0.7818608E-02  0.1130116E+00
         25   -1    0    0    0    0  0.00000000000E+00  0.00000000000E+00  0.99999998245E-14  0.12500000000E+03  0.12500000000E+03 0.  0.
        -11    1    3    3    0    0 -0.10941396195E+02 -0.36815992263E+02  0.15639417587E+02  0.41469540867E+02  0.51100000000E-03 0. -1.
         23    2    1    0    0    0 -0.15123330794E+02  0.19416723364E+02  0.10981867607E+02  0.98049569639E+02  0.94272967545E+02 0.  0.
         11    1    3    3    0    0 -0.41819345995E+01  0.56232715627E+02 -0.46575499798E+01  0.56580028772E+02  0.51100000000E-03 0.  1.
         22    1    1    0    0    0  0.15123330794E+02 -0.19416723364E+02 -0.10981867607E+02  0.26950430361E+02  0.00000000000E+00 0.  1.
</event>
<event>
 5    1  0.1102386E-009  0.9118800E+02  0.7818608E-02  0.1130116E+00
         25   -1    0    0    0    0  0.00000000000E+00  0.00000000000E+00  0.99999998245E-14  0.12500000000E+03  0.12500000000E+03 0.  0.
        -11    1    3    3    0    0 -0.31189298560E+02 -0.16300417989E+02 -0.29957155413E+02  0.46215875324E+02  0.51100000000E-03 0. -1.
         23    2    1    0    0    0  0.82724561015E+01 -0.28587779356E+02 -0.41255409241E+01  0.94954788296E+02  0.90076062713E+02 0.  0.
         11    1    3    3    0    0  0.39461754661E+02 -0.12287361367E+02  0.25831614489E+02  0.48738912972E+02  0.51100000000E-03 0.  1.
         22    1    1    0    0    0 -0.82724561015E+01  0.28587779356E+02  0.41255409241E+01  0.30045211704E+02  0.00000000000E+00 0.  1.
</event>
<event>
 5    1  0.1102386E-009  0.9118800E+02  0.7818608E-02  0.1130116E+00
         25   -1    0    0    0    0  0.00000000000E+00  0.00000000000E+00  0.99999998245E-14  0.12500000000E+03  0.12500000000E+03 0.  0.
        -11    1    3    3    0    0 -0.32325407829E+01 -0.50004645617E+02  0.31737860767E+02  0.59314464589E+02  0.51100000000E-03 0. -1.
         23    2    1    0    0    0 -0.13994291424E+02 -0.14968511254E+02  0.14988679236E+02  0.99611872325E+02  0.96322209698E+02 0.  0.
         11    1    3    3    0    0 -0.10761750641E+02  0.35036134363E+02 -0.16749181531E+02  0.40297407735E+02  0.51100000000E-03 0.  1.
         22    1    1    0    0    0  0.13994291424E+02  0.14968511254E+02 -0.14988679236E+02  0.25388127675E+02  0.00000000000E+00 0. -1.
</event>
<event>
 5    1  0.1102386E-009  0.9118800E+02  0.7818608E-02  0.1130116E+00
         25   -1    0    0    0    0  0.00000000000E+00  0.00000000000E+00  0.99999998245E-14  0.12500000000E+03  0.12500000000E+03 0.  0.
        -11    1    3    3    0    0 -0.12177626212E+02  0.23243934501E+02  0.52823032887E+02  0.58981758832E+02  0.51100000000E-03 0. -1.
         23    2    1    0    0    0  0.64340159102E+01  0.18684621322E+02  0.20730376718E+02  0.96359815755E+02  0.92005184304E+02 0.  0.
         11    1    3    3    0    0  0.18611642122E+02 -0.45593131790E+01 -0.32092656169E+02  0.37378056924E+02  0.51100000000E-03 0.  1.
         22    1    1    0    0    0 -0.64340159102E+01 -0.18684621322E+02 -0.20730376718E+02  0.28640184245E+02  0.00000000000E+00 0. -1.
</event>
<event>
 5    1  0.1102386E-009  0.9118800E+02  0.7818608E-02  0.1130116E+00
         25   -1    0    0    0    0  0.00000000000E+00  0.00000000000E+00  0.99999998245E-14  0.12500000000E+03  0.12500000000E+03 0.  0.
        -11    1    3    3    0    0  0.22727591562E+02 -0.13600744823E+02  0.27384203343E+02  0.38097483788E+02  0.51100000000E-03 0. -1.
         23    2    1    0    0    0 -0.22008575728E+02  0.16667079468E+02  0.15262763916E+02  0.93454462979E+02  0.87969402321E+02 0.  0.
         11    1    3    3    0    0 -0.44736167290E+02  0.30267824291E+02 -0.12121439427E+02  0.55356979191E+02  0.51100000000E-03 0.  1.
         22    1    1    0    0    0  0.22008575728E+02 -0.16667079468E+02 -0.15262763916E+02  0.31545537021E+02  0.00000000000E+00 0.  1.
</event>
<event>
 5    1  0.1102386E-009  0.9118800E+02  0.7818608E-02  0.1130116E+00
         25   -1    0    0    0    0  0.00000000000E+00  0.00000000000E+00  0.99999998245E-14  0.12500000000E+03  0.12500000000E+03 0.  0.
        -11    1    3    3    0    0 -0.38837167212E+02  0.12329318062E+02 -0.19267668973E+01  0.40792769848E+02  0.51100000000E-03 0. -1.
         23    2    1    0    0    0  0.84842651208E+01  0.23743885614E+01  0.26628639853E+02  0.96951739161E+02  0.92805898467E+02 0.  0.
         11    1    3    3    0    0  0.47321432333E+02 -0.99549295008E+01  0.28555406750E+02  0.56158969313E+02  0.51100000000E-03 0.  1.
         22    1    1    0    0    0 -0.84842651208E+01 -0.23743885614E+01 -0.26628639853E+02  0.28048260839E+02  0.00000000000E+00 0.  1.
</event>
<event>
 5    1  0.1102386E-009  0.9118800E+02  0.7818608E-02  0.1130116E+00
         25   -1    0    0    0    0  0.00000000000E+00  0.00000000000E+00  0.99999998245E-14  0.12500000000E+03  0.12500000000E+03 0.  0.
        -11    1    3    3    0    0 -0.38617181487E+02 -0.36859282152E-01 -0.69479418014E+00  0.38623448886E+02  0.51100000000E-03 0. -1.
         23    2    1    0    0    0  0.22195851143E+02 -0.80072745541E+01 -0.72734798838E+01  0.10030838678E+03  0.97221894115E+02 0.  0.
         11    1    3    3    0    0  0.60813032630E+02 -0.79704152719E+01 -0.65786857037E+01  0.61684937895E+02  0.51100000000E-03 0.  1.
         22    1    1    0    0    0 -0.22195851143E+02  0.80072745541E+01  0.72734798838E+01  0.24691613219E+02  0.00000000000E+00 0.  1.
</event>
<event>
 5    1  0.1102386E-009  0.9118800E+02  0.7818608E-02  0.1130116E+00
         25   -1    0    0    0    0  0.00000000000E+00  0.00000000000E+00  0.99999998245E-14  0.12500000000E+03  0.12500000000E+03 0.  0.
        -11    1    3    3    0    0  0.54332008679E+02  0.16331110364E+02  0.21312098864E+02  0.60604272878E+02  0.51100000000E-03 0.  1.
         23    2    1    0    0    0  0.26698157776E+02 -0.31963790755E+01  0.82659368990E+01  0.96869337358E+02  0.92694845270E+02 0.  0.
         11    1    3    3    0    0 -0.27633850903E+02 -0.19527489439E+02 -0.13046161965E+02  0.36265064481E+02  0.51100000000E-03 0. -1.
         22    1    1    0    0    0 -0.26698157776E+02  0.31963790755E+01 -0.82659368990E+01  0.28130662642E+02  0.00000000000E+00 0.  1.
</event>
<event>
 5    1  0.1102386E-009  0.9118800E+02  0.7818608E-02  0.1130116E+00
         25   -1    0    0    0    0  0.00000000000E+00  0.00000000000E+00  0.99999998245E-14  0.12500000000E+03  0.12500000000E+03 0.  0.
        -11    1    3    3    0    0  0.44291426976E+01  0.29054601591E+02 -0.54530111132E+02  0.61946107214E+02  0.51100000000E-03 0.  1.
         23    2    1    0    0    0 -0.93835800294E+00  0.91832891140E+01 -0.27954904785E+02  0.95560400543E+02  0.90912596133E+02 0.  0.
         11    1    3    3    0    0 -0.53675007005E+01 -0.19871312477E+02  0.26575206347E+02  0.33614293329E+02  0.51100000000E-03 0. -1.
         22    1    1    0    0    0  0.93835800294E+00 -0.91832891140E+01  0.27954904785E+02  0.29439599457E+02  0.00000000000E+00 0.  1.
</event>
<event>
 5    1  0.1102386E-009  0.9118800E+02  0.7818608E-02  0.1130116E+00
         25   -1    0    0    0    0  0.00000000000E+00  0.00000000000E+00  0.99999998245E-14  0.12500000000E+03  0.12500000000E+03 0.  0.
        -11    1    3    3    0    0  0.18328322299E+02  0.53465247791E+01  0.30002055736E+02  0.35561722036E+02  0.51100000000E-03 0.  1.
         23    2    1    0    0    0  0.78178731158E+01  0.75208205774E+01 -0.28221007804E+02  0.94765794807E+02  0.89813410478E+02 0.  0.
         11    1    3    3    0    0 -0.10510449184E+02  0.21742957983E+01 -0.58223063540E+02  0.59204072770E+02  0.51100000000E-03 0. -1.
         22    1    1    0    0    0 -0.78178731158E+01 -0.75208205774E+01  0.28221007804E+02  0.30234205193E+02  0.00000000000E+00 0. -1.
</event>
<event>
 5    1  0.1102386E-009  0.9118800E+02  0.7818608E-02  0.1130116E+00
         25   -1    0    0    0    0  0.00000000000E+00  0.00000000000E+00  0.99999998245E-14  0.12500000000E+03  0.12500000000E+03 0.  0.
        -11    1    3    3    0    0  0.43835492690E+02  0.24602524175E+01 -0.12944070891E+02  0.45772832913E+02  0.51100000000E-03 0.  1.
         23    2    1    0    0    0  0.53712963056E+01  0.28869537822E+02  0.38983844548E+01  0.95377399854E+02  0.90660630725E+02 0.  0.
         11    1    3    3    0    0 -0.38464196385E+02  0.26409285404E+02  0.16842455345E+02  0.49604566941E+02  0.51100000000E-03 0. -1.
         22    1    1    0    0    0 -0.53712963056E+01 -0.28869537822E+02 -0.38983844548E+01  0.29622600146E+02  0.00000000000E+00 0. -1.
</event>
<event>
 5    1  0.1102386E-009  0.9118800E+02  0.7818608E-02  0.1130116E+00
         25   -1    0    0    0    0  0.00000000000E+00  0.00000000000E+00  0.99999998245E-14  0.12500000000E+03  0.12500000000E+03 0.  0.
        -11    1    3    3    0    0 -0.11519890110E+02 -0.44702678243E+02  0.39759241668E+02  0.60924827522E+02  0.51100000000E-03 0. -1.
         23    2    1    0    0    0  0.10366033800E+01 -0.16243434339E+02  0.24535591046E+02  0.95556512882E+02  0.90907250649E+02 0.  0.
         11    1    3    3    0    0  0.12556493490E+02  0.28459243904E+02 -0.15223650622E+02  0.34631685360E+02  0.51100000000E-03 0.  1.
         22    1    1    0    0    0 -0.10366033800E+01  0.16243434339E+02 -0.24535591046E+02  0.29443487118E+02  0.00000000000E+00 0. -1.
</event>
<event>
 5    1  0.1102386E-009  0.9118800E+02  0.7818608E-02  0.1130116E+00
         25   -1    0    0    0    0  0.00000000000E+00  0.00000000000E+00  0.99999998245E-14  0.12500000000E+03  0.12500000000E+03 0.  0.
        -11    1    3    3    0    0 -0.17577878080E+02  0.34032474167E+02  0.42724070434E+01  0.38541465435E+02  0.51100000000E-03 0.  1.
         23    2    1    0    0    0 -0.21950871720E+02 -0.15527329584E+02 -0.17573628579E+02  0.92878805210E+02  0.87147583458E+02 0.  0.
         11    1    3    3    0    0 -0.43729936408E+01 -0.49559803750E+02 -0.21846035622E+02  0.54337339775E+02  0.51100000000E-03 0. -1.
         22    1    1    0    0    0  0.21950871720E+02  0.15527329584E+02  0.17573628579E+02  0.32121194790E+02  0.00000000000E+00 0. -1.
</event>
<event>
 5    1  0.1102386E-009  0.9118800E+02  0.7818608E-02  0.1130116E+00
         25   -1    0    0    0    0  0.00000000000E+00  0.00000000000E+00  0.99999998245E-14  0.12500000000E+03  0.12500000000E+03 0.  0.
        -11    1    3    3    0    0 -0.11797497805E+02  0.21052743619E+02 -0.20816452324E+02  0.31870419765E+02  0.51100000000E-03 0. -1.
         23    2    1    0    0    0  0.29614631748E+02 -0.14633018418E+02 -0.19680997902E+02  0.86548819004E+02  0.77538408231E+02 0.  0.
         11    1    3    3    0    0  0.41412129553E+02 -0.35685762038E+02  0.11354544217E+01  0.54678399239E+02  0.51100000000E-03 0.  1.
         22    1    1    0    0    0 -0.29614631748E+02  0.14633018418E+02  0.19680997902E+02  0.38451180996E+02  0.00000000000E+00 0.  1.
</event>
<event>
 5    1  0.1102386E-009  0.9118800E+02  0.7818608E-02  0.1130116E+00
         25   -1    0    0    0    0  0.00000000000E+00  0.00000000000E+00  0.99999998245E-14  0.12500000000E+03  0.12500000000E+03 0.  0.
        -11    1    3    3    0    0 -0.32749550784E+02  0.42774295565E+01  0.82146147114E+01  0.34033944457E+02  0.51100000000E-03 0.  1.
         23    2    1    0    0    0  0.23398776001E+02  0.11627374157E+02 -0.14582191487E+02  0.95077786567E+02  0.90246587979E+02 0.  0.
         11    1    3    3    0    0  0.56148326786E+02  0.73499446007E+01 -0.22796806199E+02  0.61043842110E+02  0.51100000000E-03 0. -1.
         22    1    1    0    0    0 -0.23398776001E+02 -0.11627374157E+02  0.14582191487E+02  0.29922213433E+02  0.00000000000E+00 0. -1.
</event>
<event>
 5    1  0.1102386E-009  0.9118800E+02  0.7818608E-02  0.1130116E+00
         25   -1    0    0    0    0  0.00000000000E+00  0.00000000000E+00  0.99999998245E-14  0.12500000000E+03  0.12500000000E+03 0.  0.
        -11    1    3    3    0    0  0.61797039194E+01  0.28277058712E+02  0.19919190472E+02  0.35136233993E+02  0.51100000000E-03 0. -1.
         23    2    1    0    0    0 -0.52508450720E+01 -0.27954571744E+02 -0.18213229930E+01  0.96498304036E+02  0.92193145131E+02 0.  0.
         11    1    3    3    0    0 -0.11430548991E+02 -0.56231630456E+02 -0.21740513465E+02  0.61362070043E+02  0.51100000000E-03 0.  1.
         22    1    1    0    0    0  0.52508450720E+01  0.27954571744E+02  0.18213229930E+01  0.28501695964E+02  0.00000000000E+00 0.  1.
</event>
<event>
 5    1  0.1102386E-009  0.9118800E+02  0.7818608E-02  0.1130116E+00
         25   -1    0    0    0    0  0.00000000000E+00  0.00000000000E+00  0.99999998245E-14  0.12500000000E+03  0.12500000000E+03 0.  0.
        -11    1    3    3    0    0 -0.74531430800E+00 -0.16963694331E+02  0.43272648049E+02  0.46484884514E+02  0.51100000000E-03 0.  1.
         23    2    1    0    0    0 -0.14772334075E+02 -0.24522794283E+02 -0.37435473430E+01  0.96127808532E+02  0.91689433050E+02 0.  0.
         11    1    3    3    0    0 -0.14027019767E+02 -0.75590999522E+01 -0.47016195392E+02  0.49642924018E+02  0.51100000000E-03 0. -1.
         22    1    1    0    0    0  0.14772334075E+02  0.24522794283E+02  0.37435473430E+01  0.28872191468E+02  0.00000000000E+00 0.  1.
</event>
<event>
 5    1  0.1102386E-009  0.9118800E+02  0.7818608E-02  0.1130116E+00
         25   -1    0    0    0    0  0.00000000000E+00  0.00000000000E+00  0.99999998245E-14  0.12500000000E+03  0.12500000000E+03 0.  0.
        -11    1    3    3    0    0 -0.22468051120E+02 -0.39680850527E+02  0.37366540393E+02  0.58954572010E+02  0.51100000000E-03 0. -1.
         23    2    1    0    0    0 -0.17007368882E+02 -0.23158568484E+02  0.48132744993E+01  0.95866900234E+02  0.91333044724E+02 0.  0.
         11    1    3    3    0    0  0.54606822371E+01  0.16522282043E+02 -0.32553265893E+02  0.36912328225E+02  0.51100000000E-03 0.  1.
         22    1    1    0    0    0  0.17007368882E+02  0.23158568484E+02 -0.48132744993E+01  0.29133099766E+02  0.00000000000E+00 0. -1.
</event>
<event>
 5    1  0.1102386E-009  0.9118800E+02  0.7818608E-02  0.1130116E+00
         25   -1    0    0    0    0  0.00000000000E+00  0.00000000000E+00  0.99999998245E-14  0.12500000000E+03  0.12500000000E+03 0.  0.
        -11    1    3    3    0    0 -0.44639307258E+02 -0.40759015653E+02  0.14006620304E+02  0.62049581160E+02  0.51100000000E-03 0.  1.
         23    2    1    0    0    0 -0.78746858031E+01 -0.12297125141E+02  0.59266681862E+01  0.10924070563E+03  0.10809799447E+03 0.  0.
         11    1    3    3    0    0  0.36764621455E+02  0.28461890512E+02 -0.80799521178E+01  0.47191124470E+02  0.51100000000E-03 0. -1.
         22    1    1    0    0    0  0.78746858031E+01  0.12297125141E+02 -0.59266681862E+01  0.15759294370E+02  0.00000000000E+00 0.  1.
</event>
<event>
 5    1  0.1102386E-009  0.9118800E+02  0.7818608E-02  0.1130116E+00
         25   -1    0    0    0    0  0.00000000000E+00  0.00000000000E+00  0.99999998245E-14  0.12500000000E+03  0.12500000000E+03 0.  0.
        -11    1    3    3    0    0 -0.37736227629E+02  0.20627955991E+00  0.28341790355E+01  0.37843070673E+02  0.51100000000E-03 0.  1.
         23    2    1    0    0    0 -0.12335232787E+02  0.26626042175E+02 -0.27017647676E+02  0.85111939433E+02  0.75186334253E+02 0.  0.
         11    1    3    3    0    0  0.25400994842E+02  0.26419762615E+02 -0.29851826711E+02  0.47268868760E+02  0.51100000000E-03 0. -1.
         22    1    1    0    0    0  0.12335232787E+02 -0.26626042175E+02  0.27017647676E+02  0.39888060567E+02  0.00000000000E+00 0. -1.
</event>
<event>
 5    1  0.1102386E-009  0.9118800E+02  0.7818608E-02  0.1130116E+00
         25   -1    0    0    0    0  0.00000000000E+00  0.00000000000E+00  0.99999998245E-14  0.12500000000E+03  0.12500000000E+03 0.  0.
        -11    1    3    3    0    0 -0.43948880852E+02 -0.21747559780E+02  0.28731768448E+02  0.56832869036E+02  0.51100000000E-03 0.  1.
         23    2    1    0    0    0 -0.24927136146E+02  0.82310169338E+01  0.13716265389E+02  0.95381632516E+02  0.90666466397E+02 0.  0.
         11    1    3    3    0    0  0.19021744706E+02  0.29978576713E+02 -0.15015503059E+02  0.38548763479E+02  0.51100000000E-03 0. -1.
         22    1    1    0    0    0  0.24927136146E+02 -0.82310169338E+01 -0.13716265389E+02  0.29618367484E+02  0.00000000000E+00 0.  1.
</event>
<event>
 5    1  0.1102386E-009  0.9118800E+02  0.7818608E-02  0.1130116E+00
         25   -1    0    0    0    0  0.00000000000E+00  0.00000000000E+00  0.99999998245E-14  0.12500000000E+03  0.12500000000E+03 0.  0.
        -11    1    3    3    0    0 -0.54377635884E+02  0.16240540518E+02 -0.25392567339E+02  0.62172863188E+02  0.51100000000E-03 0. -1.
         23    2    1    0    0    0 -0.23142442778E+02  0.11359812205E+02 -0.12980316987E+02  0.96136413595E+02  0.91701163563E+02 0.  0.
         11    1    3    3    0    0  0.31235193106E+02 -0.48807283133E+01  0.12412250353E+02  0.33963550408E+02  0.51100000000E-03 0.  1.
         22    1    1    0    0    0  0.23142442778E+02 -0.11359812205E+02  0.12980316987E+02  0.28863586405E+02  0.00000000000E+00 0. -1.
</event>
<event>
 5    1  0.1102386E-009  0.9118800E+02  0.7818608E-02  0.1130116E+00
         25   -1    0    0    0    0  0.00000000000E+00  0.00000000000E+00  0.99999998245E-14  0.12500000000E+03  0.12500000000E+03 0.  0.
        -11    1    3    3    0    0 -0.56884746615E+01 -0.28722712811E+02 -0.48454613534E+02  0.56614508284E+02  0.51100000000E-03 0. -1.
         23    2    1    0    0    0  0.96222014310E+01 -0.24664326485E+02 -0.12875060955E+02  0.95560520454E+02  0.90912761005E+02 0.  0.
         11    1    3    3    0    0  0.15310676093E+02  0.40583863264E+01  0.35579552579E+02  0.38946012170E+02  0.51100000000E-03 0.  1.
         22    1    1    0    0    0 -0.96222014310E+01  0.24664326485E+02  0.12875060955E+02  0.29439479546E+02  0.00000000000E+00 0. -1.
</event>
<event>
 5    1  0.1102386E-009  0.9118800E+02  0.7818608E-02  0.1130116E+00
         25   -1    0    0    0    0  0.00000000000E+00  0.00000000000E+00  0.99999998245E-14  0.12500000000E+03  0.12500000000E+03 0.  0.
        -11    1    3    3    0    0  0.36235601004E+02  0.18587548282E+02  0.12108091233E+01  0.40742874104E+02  0.51100000000E-03 0. -1.
         23    2    1    0    0    0 -0.11489952773E+02  0.78245866877E+01 -0.25110754552E+02  0.96298202744E+02  0.91921437576E+02 0.  0.
         11    1    3    3    0    0 -0.47725553777E+02 -0.10762961594E+02 -0.26321563675E+02  0.55555328639E+02  0.51100000000E-03 0.  1.
         22    1    1    0    0    0  0.11489952773E+02 -0.78245866877E+01  0.25110754552E+02  0.28701797256E+02  0.00000000000E+00 0.  1.
</event>
<event>
 5    1  0.1102386E-009  0.9118800E+02  0.7818608E-02  0.1130116E+00
         25   -1    0    0    0    0  0.00000000000E+00  0.00000000000E+00  0.99999998245E-14  0.12500000000E+03  0.12500000000E+03 0.  0.
        -11    1    3    3    0    0  0.27220523266E+02  0.26510798226E+02 -0.38066503557E+02  0.53785109489E+02  0.51100000000E-03 0.  1.
         23    2    1    0    0    0  0.17543209411E+02  0.23842591715E+02  0.22316584329E+01  0.95314756604E+02  0.90574219020E+02 0.  0.
         11    1    3    3    0    0 -0.96773138553E+01 -0.26682065114E+01  0.40298161990E+02  0.41529647115E+02  0.51100000000E-03 0. -1.
         22    1    1    0    0    0 -0.17543209411E+02 -0.23842591715E+02 -0.22316584329E+01  0.29685243396E+02  0.00000000000E+00 0.  1.
</event>
<event>
 5    1  0.1102386E-009  0.9118800E+02  0.7818608E-02  0.1130116E+00
         25   -1    0    0    0    0  0.00000000000E+00  0.00000000000E+00  0.99999998245E-14  0.12500000000E+03  0.12500000000E+03 0.  0.
        -11    1    3    3    0    0 -0.28434357296E+02  0.31239552880E+02  0.82749572233E+01  0.43045293079E+02  0.51100000000E-03 0. -1.
         23    2    1    0    0    0 -0.64451540804E+01  0.64986412518E+00 -0.28548579193E+02  0.95725715919E+02  0.91139612572E+02 0.  0.
         11    1    3    3    0    0  0.21989203215E+02 -0.30589688755E+02 -0.36823536416E+02  0.52680422840E+02  0.51100000000E-03 0.  1.
         22    1    1    0    0    0  0.64451540804E+01 -0.64986412518E+00  0.28548579193E+02  0.29274284081E+02  0.00000000000E+00 0. -1.
</event>
<event>
 5    1  0.1102386E-009  0.9118800E+02  0.7818608E-02  0.1130116E+00
         25   -1    0    0    0    0  0.00000000000E+00  0.00000000000E+00  0.99999998245E-14  0.12500000000E+03  0.12500000000E+03 0.  0.
        -11    1    3    3    0    0 -0.25451590548E+02 -0.28011512722E+02  0.17823052184E+02  0.41834070993E+02  0.51100000000E-03 0. -1.
         23    2    1    0    0    0 -0.19149533628E+02  0.14226852125E+02 -0.15969227893E+02  0.96292436553E+02  0.91913596047E+02 0.  0.
         11    1    3    3    0    0  0.63020569200E+01  0.42238364848E+02 -0.33792280077E+02  0.54458365560E+02  0.51100000000E-03 0.  1.
         22    1    1    0    0    0  0.19149533628E+02 -0.14226852125E+02  0.15969227893E+02  0.28707563447E+02  0.00000000000E+00 0.  1.
</event>
<event>
 5    1  0.1102386E-009  0.9118800E+02  0.7818608E-02  0.1130116E+00
         25   -1    0    0    0    0  0.00000000000E+00  0.00000000000E+00  0.99999998245E-14  0.12500000000E+03  0.12500000000E+03 0.  0.
        -11    1    3    3    0    0  0.21829562374E+02 -0.83782417355E+01  0.28857203018E+02  0.37141121339E+02  0.51100000000E-03 0.  1.
         23    2    1    0    0    0 -0.17300311461E+02 -0.13554015489E+02 -0.16684315344E+02  0.97406912260E+02  0.93416958123E+02 0.  0.
         11    1    3    3    0    0 -0.39129873836E+02 -0.51757737537E+01 -0.45541518362E+02  0.60265790921E+02  0.51100000000E-03 0. -1.
         22    1    1    0    0    0  0.17300311461E+02  0.13554015489E+02  0.16684315344E+02  0.27593087740E+02  0.00000000000E+00 0. -1.
</event>
<event>
 5    1  0.1102386E-009  0.9118800E+02  0.7818608E-02  0.1130116E+00
         25   -1    0    0    0    0  0.00000000000E+00  0.00000000000E+00  0.99999998245E-14  0.12500000000E+03  0.12500000000E+03 0.  0.
        -11    1    3    3    0    0  0.41703730868E+02 -0.29675787233E+02 -0.13881091868E+02  0.53033369004E+02  0.51100000000E-03 0.  1.
         23    2    1    0    0    0  0.19523769148E+02 -0.12833227253E+02  0.18103110658E+02  0.95443411919E+02  0.90751600426E+02 0.  0.
         11    1    3    3    0    0 -0.22179961720E+02  0.16842559980E+02  0.31984202527E+02  0.42410042916E+02  0.51100000000E-03 0. -1.
         22    1    1    0    0    0 -0.19523769148E+02  0.12833227253E+02 -0.18103110658E+02  0.29556588081E+02  0.00000000000E+00 0. -1.
</event>
<event>
 5    1  0.1102386E-009  0.9118800E+02  0.7818608E-02  0.1130116E+00
         25   -1    0    0    0    0  0.00000000000E+00  0.00000000000E+00  0.99999998245E-14  0.12500000000E+03  0.12500000000E+03 0.  0.
        -11    1    3    3    0    0  0.54777661216E+01  0.22611243490E+02  0.41848047795E+02  0.47880406832E+02  0.51100000000E-03 0. -1.
         23    2    1    0    0    0 -0.90508613051E+01 -0.17697863702E+02  0.22743539122E+02  0.94794023079E+02  0.89852689274E+02 0.  0.
         11    1    3    3    0    0 -0.14528627427E+02 -0.40309107192E+02 -0.19104508673E+02  0.46913616247E+02  0.51100000000E-03 0.  1.
         22    1    1    0    0    0  0.90508613051E+01  0.17697863702E+02 -0.22743539122E+02  0.30205976921E+02  0.00000000000E+00 0. -1.
</event>
<event>
 5    1  0.1102386E-009  0.9118800E+02  0.7818608E-02  0.1130116E+00
         25   -1    0    0    0    0  0.00000000000E+00  0.00000000000E+00  0.99999998245E-14  0.12500000000E+03  0.12500000000E+03 0.  0.
        -11    1    3    3    0    0 -0.13792836788E+02  0.23256894560E+02 -0.17055042673E+02  0.31968734289E+02  0.51100000000E-03 0.  1.
         23    2    1    0    0    0 -0.25236280129E+01 -0.25915823804E+02 -0.31200312988E+02  0.84361863326E+02  0.73928788922E+02 0.  0.
         11    1    3    3    0    0  0.11269208775E+02 -0.49172718364E+02 -0.14145270316E+02  0.52393129037E+02  0.51100000000E-03 0. -1.
         22    1    1    0    0    0  0.25236280129E+01  0.25915823804E+02  0.31200312988E+02  0.40638136674E+02  0.00000000000E+00 0. -1.
</event>
<event>
 5    1  0.1102386E-009  0.9118800E+02  0.7818608E-02  0.1130116E+00
         25   -1    0    0    0    0  0.00000000000E+00  0.00000000000E+00  0.99999998245E-14  0.12500000000E+03  0.12500000000E+03 0.  0.
        -11    1    3    3    0    0  0.20320273449E+02 -0.18598922896E+02  0.13685697137E+02  0.30759254743E+02  0.51100000000E-03 0. -1.
         23    2    1    0    0    0 -0.24267680374E+02  0.21007636150E+02 -0.32033876486E+01  0.92743174680E+02  0.86952824393E+02 0.  0.
         11    1    3    3    0    0 -0.44587953823E+02  0.39606559046E+02 -0.16889084786E+02  0.61983919937E+02  0.51100000000E-03 0.  1.
         22    1    1    0    0    0  0.24267680374E+02 -0.21007636150E+02  0.32033876486E+01  0.32256825320E+02  0.00000000000E+00 0.  1.
</event>
<event>
 5    1  0.1102386E-009  0.9118800E+02  0.7818608E-02  0.1130116E+00
         25   -1    0    0    0    0  0.00000000000E+00  0.00000000000E+00  0.99999998245E-14  0.12500000000E+03  0.12500000000E+03 0.  0.
        -11    1    3    3    0    0 -0.23993585387E+02 -0.18482585553E+02 -0.21419970547E+01  0.30362579931E+02  0.51100000000E-03 0.  1.
         23    2    1    0    0    0  0.29461404057E+02  0.13180906747E+02 -0.37140574249E+01  0.92511465804E+02  0.86619088259E+02 0.  0.
         11    1    3    3    0    0  0.53454989444E+02  0.31663492301E+02 -0.15720603702E+01  0.62148885872E+02  0.51100000000E-03 0. -1.
         22    1    1    0    0    0 -0.29461404057E+02 -0.13180906747E+02  0.37140574249E+01  0.32488534196E+02  0.00000000000E+00 0. -1.
</event>
<event>
 5    1  0.1102386E-009  0.9118800E+02  0.7818608E-02  0.1130116E+00
         25   -1    0    0    0    0  0.00000000000E+00  0.00000000000E+00  0.99999998245E-14  0.12500000000E+03  0.12500000000E+03 0.  0.
        -11    1    3    3    0    0  0.54000420631E+02  0.40083230716E+01  0.37882022375E+01  0.54281327901E+02  0.51100000000E-03 0.  1.
         23    2    1    0    0    0  0.16661493362E+02  0.23169244639E+02 -0.40965352669E+00  0.96459028149E+02  0.92139877563E+02 0.  0.
         11    1    3    3    0    0 -0.37338927270E+02  0.19160921568E+02 -0.41978557642E+01  0.42177700248E+02  0.51100000000E-03 0. -1.
         22    1    1    0    0    0 -0.16661493362E+02 -0.23169244639E+02  0.40965352669E+00  0.28540971851E+02  0.00000000000E+00 0.  1.
</event>
<event>
 5    1  0.1102386E-009  0.9118800E+02  0.7818608E-02  0.1130116E+00
         25   -1    0    0    0    0  0.00000000000E+00  0.00000000000E+00  0.99999998245E-14  0.12500000000E+03  0.12500000000E+03 0.  0.
        -11    1    3    3    0    0  0.11130165713E+02  0.31535756166E+02 -0.19351131426E+02  0.38637427367E+02  0.51100000000E-03 0.  1.
         23    2    1    0    0    0  0.11738564415E+02 -0.14919753292E+01  0.26980171687E+02  0.95539016493E+02  0.90883189443E+02 0.  0.
         11    1    3    3    0    0  0.60839870122E+00 -0.33027731495E+02  0.46331303114E+02  0.56901589127E+02  0.51100000000E-03 0. -1.
         22    1    1    0    0    0 -0.11738564415E+02  0.14919753292E+01 -0.26980171687E+02  0.29460983507E+02  0.00000000000E+00 0. -1.
</event>
<event>
 5    1  0.1102386E-009  0.9118800E+02  0.7818608E-02  0.1130116E+00
         25   -1    0    0    0    0  0.00000000000E+00  0.00000000000E+00  0.99999998245E-14  0.12500000000E+03  0.12500000000E+03 0.  0.
        -11    1    3    3    0    0 -0.52117812351E+02 -0.20347135553E+02  0.17182214129E+01  0.55975213931E+02  0.51100000000E-03 0. -1.
         23    2    1    0    0    0 -0.20385884422E+02 -0.10158865768E+02 -0.19103588974E+02  0.95272336972E+02  0.90515657447E+02 0.  0.
         11    1    3    3    0    0  0.31731927929E+02  0.10188269785E+02 -0.20821810387E+02  0.39297123042E+02  0.51100000000E-03 0.  1.
         22    1    1    0    0    0  0.20385884422E+02  0.10158865768E+02  0.19103588974E+02  0.29727663028E+02  0.00000000000E+00 0. -1.
</event>
<event>
 5    1  0.1102386E-009  0.9118800E+02  0.7818608E-02  0.1130116E+00
         25   -1    0    0    0    0  0.00000000000E+00  0.00000000000E+00  0.99999998245E-14  0.12500000000E+03  0.12500000000E+03 0.  0.
        -11    1    3    3    0    0 -0.12219621631E+02 -0.15321433633E+02  0.55754003318E+02  0.59098006461E+02  0.51100000000E-03 0. -1.
         23    2    1    0    0    0 -0.17910114333E+02 -0.11039330532E+02  0.18632548943E+02  0.96896425599E+02  0.92731366860E+02 0.  0.
         11    1    3    3    0    0 -0.56904927015E+01  0.42821031010E+01 -0.37121454375E+02  0.37798419138E+02  0.51100000000E-03 0.  1.
         22    1    1    0    0    0  0.17910114333E+02  0.11039330532E+02 -0.18632548943E+02  0.28103574401E+02  0.00000000000E+00 0. -1.
</event>
<event>
 5    1  0.1102386E-009  0.9118800E+02  0.7818608E-02  0.1130116E+00
         25   -1    0    0    0    0  0.00000000000E+00  0.00000000000E+00  0.99999998245E-14  0.12500000000E+03  0.12500000000E+03 0.  0.
        -11    1    3    3    0    0  0.25245906841E+01  0.40397715489E+02  0.69083253356E+01  0.41061830622E+02  0.51100000000E-03 0.  1.
         23    2    1    0    0    0 -0.13864072468E+02 -0.82489499568E+01 -0.20228400160E+02  0.99126348271E+02  0.95690057309E+02 0.  0.
         11    1    3    3    0    0 -0.16388663152E+02 -0.48646665446E+02 -0.27136725495E+02  0.58064517649E+02  0.51100000000E-03 0. -1.
         22    1    1    0    0    0  0.13864072468E+02  0.82489499568E+01  0.20228400160E+02  0.25873651729E+02  0.00000000000E+00 0. -1.
</event>
<event>
 5    1  0.1102386E-009  0.9118800E+02  0.7818608E-02  0.1130116E+00
         25   -1    0    0    0    0  0.00000000000E+00  0.00000000000E+00  0.99999998245E-14  0.12500000000E+03  0.12500000000E+03 0.  0.
        -11    1    3    3    0    0 -0.59488189258E+01 -0.13683371901E+02  0.42433787049E+02  0.44980544648E+02  0.51100000000E-03 0.  1.
         23    2    1    0    0    0  0.19045453606E+02 -0.22484655980E+02 -0.60993653895E+00  0.95526943149E+02  0.90866582345E+02 0.  0.
         11    1    3    3    0    0  0.24994272532E+02 -0.88012840785E+01 -0.43043723588E+02  0.50546398501E+02  0.51100000000E-03 0. -1.
         22    1    1    0    0    0 -0.19045453606E+02  0.22484655980E+02  0.60993653895E+00  0.29473056851E+02  0.00000000000E+00 0. -1.
</event>
<event>
 5    1  0.1102386E-009  0.9118800E+02  0.7818608E-02  0.1130116E+00
         25   -1    0    0    0    0  0.00000000000E+00  0.00000000000E+00  0.99999998245E-14  0.12500000000E+03  0.12500000000E+03 0.  0.
        -11    1    3    3    0    0  0.56187616547E+02  0.15092921731E+02  0.12920648348E+02  0.59596876542E+02  0.51100000000E-03 0.  1.
         23    2    1    0    0    0  0.23347954638E+02  0.48622427331E+00  0.17484217311E+02  0.95827045833E+02  0.91278482997E+02 0.  0.
         11    1    3    3    0    0 -0.32839661909E+02 -0.14606697457E+02  0.45635689630E+01  0.36230169291E+02  0.51100000000E-03 0. -1.
         22    1    1    0    0    0 -0.23347954638E+02 -0.48622427331E+00 -0.17484217311E+02  0.29172954167E+02  0.00000000000E+00 0.  1.
</event>
<event>
 5    1  0.1102386E-009  0.9118800E+02  0.7818608E-02  0.1130116E+00
         25   -1    0    0    0    0  0.00000000000E+00  0.00000000000E+00  0.99999998245E-14  0.12500000000E+03  0.12500000000E+03 0.  0.
        -11    1    3    3    0    0 -0.11143675007E+02  0.47706644029E+02  0.45350138227E+01  0.49200322436E+02  0.51100000000E-03 0. -1.
         23    2    1    0    0    0  0.14033518599E+02  0.14159771138E+02  0.22595347185E+02  0.94867152850E+02  0.89954367390E+02 0.  0.
         11    1    3    3    0    0  0.25177193606E+02 -0.33546872891E+02  0.18060333363E+02  0.45666830414E+02  0.51100000000E-03 0.  1.
         22    1    1    0    0    0 -0.14033518599E+02 -0.14159771138E+02 -0.22595347185E+02  0.30132847150E+02  0.00000000000E+00 0. -1.
</event>
<event>
 5    1  0.1102386E-009  0.9118800E+02  0.7818608E-02  0.1130116E+00
         25   -1    0    0    0    0  0.00000000000E+00  0.00000000000E+00  0.99999998245E-14  0.12500000000E+03  0.12500000000E+03 0.  0.
        -11    1    3    3    0    0 -0.49332509705E+02  0.35329369122E+02 -0.78566936408E+01  0.61184871264E+02  0.51100000000E-03 0.  1.
         23    2    1    0    0    0 -0.17081548647E+02  0.23262520427E+02 -0.25302551481E+01  0.96028870373E+02  0.91554451520E+02 0.  0.
         11    1    3    3    0    0  0.32250961058E+02 -0.12066848696E+02  0.53264384927E+01  0.34843999109E+02  0.51100000000E-03 0. -1.
         22    1    1    0    0    0  0.17081548647E+02 -0.23262520427E+02  0.25302551481E+01  0.28971129627E+02  0.00000000000E+00 0.  1.
</event>
<event>
 5    1  0.1102386E-009  0.9118800E+02  0.7818608E-02  0.1130116E+00
         25   -1    0    0    0    0  0.00000000000E+00  0.00000000000E+00  0.99999998245E-14  0.12500000000E+03  0.12500000000E+03 0.  0.
        -11    1    3    3    0    0  0.58663894960E+01 -0.30691511986E+02  0.42814794807E+02  0.53004623273E+02  0.51100000000E-03 0.  1.
         23    2    1    0    0    0 -0.20846064166E+02 -0.16082121785E+02  0.12927461362E+02  0.95668919393E+02  0.91061681558E+02 0.  0.
         11    1    3    3    0    0 -0.26712453662E+02  0.14609390201E+02 -0.29887333445E+02  0.42664296120E+02  0.51100000000E-03 0. -1.
         22    1    1    0    0    0  0.20846064166E+02  0.16082121785E+02 -0.12927461362E+02  0.29331080607E+02  0.00000000000E+00 0.  1.
</event>
<event>
 5    1  0.1102386E-009  0.9118800E+02  0.7818608E-02  0.1130116E+00
         25   -1    0    0    0    0  0.00000000000E+00  0.00000000000E+00  0.99999998245E-14  0.12500000000E+03  0.12500000000E+03 0.  0.
        -11    1    3    3    0    0  0.25866011552E+02 -0.53653311357E+00 -0.32300716026E+02  0.41384473869E+02  0.51100000000E-03 0. -1.
         23    2    1    0    0    0 -0.25286769560E+02  0.15009017959E+01 -0.15680648555E+02  0.95208119226E+02  0.90426930759E+02 0.  0.
         11    1    3    3    0    0 -0.51152781111E+02  0.20374349095E+01  0.16620067472E+02  0.53823645356E+02  0.51100000000E-03 0.  1.
         22    1    1    0    0    0  0.25286769560E+02 -0.15009017959E+01  0.15680648555E+02  0.29791880774E+02  0.00000000000E+00 0.  1.
</event>
<event>
 5    1  0.1102386E-009  0.9118800E+02  0.7818608E-02  0.1130116E+00
         25   -1    0    0    0    0  0.00000000000E+00  0.00000000000E+00  0.99999998245E-14  0.12500000000E+03  0.12500000000E+03 0.  0.
        -11    1    3    3    0    0  0.41471584277E+01  0.23841926984E+02  0.33567567787E+02  0.41381372775E+02  0.51100000000E-03 0. -1.
         23    2    1    0    0    0 -0.11873842035E+02 -0.23561524593E+02  0.90159481979E+01  0.97117731661E+02  0.93029204636E+02 0.  0.
         11    1    3    3    0    0 -0.16021000462E+02 -0.47403451577E+02 -0.24551619589E+02  0.55736358887E+02  0.51100000000E-03 0.  1.
         22    1    1    0    0    0  0.11873842035E+02  0.23561524593E+02 -0.90159481979E+01  0.27882268339E+02  0.00000000000E+00 0.  1.
</event>
<event>
 5    1  0.1102386E-009  0.9118800E+02  0.7818608E-02  0.1130116E+00
         25   -1    0    0    0    0  0.00000000000E+00  0.00000000000E+00  0.99999998245E-14  0.12500000000E+03  0.12500000000E+03 0.  0.
        -11    1    3    3    0    0  0.31321686468E+01 -0.26491409035E+02  0.29730196899E+02  0.39943583227E+02  0.51100000000E-03 0.  1.
         23    2    1    0    0    0  0.27099423793E+02  0.12513998426E+01 -0.11865834154E+02  0.95390157183E+02  0.90678218419E+02 0.  0.
         11    1    3    3    0    0  0.23967255147E+02  0.27742808878E+02 -0.41596031053E+02  0.55446573955E+02  0.51100000000E-03 0. -1.
         22    1    1    0    0    0 -0.27099423793E+02 -0.12513998426E+01  0.11865834154E+02  0.29609842817E+02  0.00000000000E+00 0. -1.
</event>
<event>
 5    1  0.1102386E-009  0.9118800E+02  0.7818608E-02  0.1130116E+00
         25   -1    0    0    0    0  0.00000000000E+00  0.00000000000E+00  0.99999998245E-14  0.12500000000E+03  0.12500000000E+03 0.  0.
        -11    1    3    3    0    0  0.80811080489E+01 -0.35166099810E+01  0.56626634496E+02  0.57308346580E+02  0.51100000000E-03 0.  1.
         23    2    1    0    0    0 -0.45137752969E+01  0.14379131747E+02  0.25961192376E+02  0.94981387327E+02  0.90112967057E+02 0.  0.
         11    1    3    3    0    0 -0.12594883346E+02  0.17895741728E+02 -0.30665442120E+02  0.37673040747E+02  0.51100000000E-03 0. -1.
         22    1    1    0    0    0  0.45137752969E+01 -0.14379131747E+02 -0.25961192376E+02  0.30018612673E+02  0.00000000000E+00 0.  1.
</event>
<event>
 5    1  0.1102386E-009  0.9118800E+02  0.7818608E-02  0.1130116E+00
         25   -1    0    0    0    0  0.00000000000E+00  0.00000000000E+00  0.99999998245E-14  0.12500000000E+03  0.12500000000E+03 0.  0.
        -11    1    3    3    0    0 -0.15571180794E+02  0.23229260597E+02 -0.43568831591E+02  0.51771645769E+02  0.51100000000E-03 0.  1.
         23    2    1    0    0    0  0.18175378661E+02  0.15611072566E+02 -0.14224983576E+02  0.97136042387E+02  0.93053804848E+02 0.  0.
         11    1    3    3    0    0  0.33746559455E+02 -0.76181880308E+01  0.29343848015E+02  0.45364396617E+02  0.51100000000E-03 0. -1.
         22    1    1    0    0    0 -0.18175378661E+02 -0.15611072566E+02  0.14224983576E+02  0.27863957613E+02  0.00000000000E+00 0. -1.
</event>
<event>
 5    1  0.1102386E-009  0.9118800E+02  0.7818608E-02  0.1130116E+00
         25   -1    0    0    0    0  0.00000000000E+00  0.00000000000E+00  0.99999998245E-14  0.12500000000E+03  0.12500000000E+03 0.  0.
        -11    1    3    3    0    0  0.25436059075E+02  0.41048311561E+02 -0.14472025944E+02  0.50412265556E+02  0.51100000000E-03 0.  1.
         23    2    1    0    0    0 -0.45273496139E+01  0.26333903438E+01 -0.24325173507E+02  0.10011736137E+03  0.96975978168E+02 0.  0.
         11    1    3    3    0    0 -0.29963408689E+02 -0.38414921217E+02 -0.98531475620E+01  0.49705095811E+02  0.51100000000E-03 0. -1.
         22    1    1    0    0    0  0.45273496139E+01 -0.26333903438E+01  0.24325173507E+02  0.24882638633E+02  0.00000000000E+00 0.  1.
</event>
<event>
 5    1  0.1102386E-009  0.9118800E+02  0.7818608E-02  0.1130116E+00
         25   -1    0    0    0    0  0.00000000000E+00  0.00000000000E+00  0.99999998245E-14  0.12500000000E+03  0.12500000000E+03 0.  0.
        -11    1    3    3    0    0  0.20792703021E+02 -0.22612443129E+02  0.20024806407E+02  0.36669496248E+02  0.51100000000E-03 0.  1.
         23    2    1    0    0    0 -0.68374731401E+01  0.27749433873E+02  0.72177053568E+01  0.95523273760E+02  0.90861534436E+02 0.  0.
         11    1    3    3    0    0 -0.27630176161E+02  0.50361877002E+02 -0.12807101051E+02  0.58853777512E+02  0.51100000000E-03 0. -1.
         22    1    1    0    0    0  0.68374731401E+01 -0.27749433873E+02 -0.72177053568E+01  0.29476726240E+02  0.00000000000E+00 0. -1.
</event>
<event>
 5    1  0.1102386E-009  0.9118800E+02  0.7818608E-02  0.1130116E+00
         25   -1    0    0    0    0  0.00000000000E+00  0.00000000000E+00  0.99999998245E-14  0.12500000000E+03  0.12500000000E+03 0.  0.
        -11    1    3    3    0    0 -0.32117237672E+02  0.10224249051E+02 -0.19612155110E+01  0.33762384259E+02  0.51100000000E-03 0.  1.
         23    2    1    0    0    0  0.13593363573E+02 -0.25771399035E+02  0.11824667257E+02  0.93555329590E+02  0.88112612023E+02 0.  0.
         11    1    3    3    0    0  0.45710601245E+02 -0.35995648086E+02  0.13785882768E+02  0.59792945330E+02  0.51100000000E-03 0. -1.
         22    1    1    0    0    0 -0.13593363573E+02  0.25771399035E+02 -0.11824667257E+02  0.31444670410E+02  0.00000000000E+00 0. -1.
</event>
<event>
 5    1  0.1102386E-009  0.9118800E+02  0.7818608E-02  0.1130116E+00
         25   -1    0    0    0    0  0.00000000000E+00  0.00000000000E+00  0.99999998245E-14  0.12500000000E+03  0.12500000000E+03 0.  0.
        -11    1    3    3    0    0  0.51531495257E+02  0.15451654603E+02  0.28245041500E+02  0.60762085242E+02  0.51100000000E-03 0.  1.
         23    2    1    0    0    0  0.37871018264E+02  0.18510199293E+02  0.14387515437E+02  0.80459657583E+02  0.67006823501E+02 0.  0.
         11    1    3    3    0    0 -0.13660476992E+02  0.30585446897E+01 -0.13857526063E+02  0.19697572341E+02  0.51100000000E-03 0. -1.
         22    1    1    0    0    0 -0.37871018264E+02 -0.18510199293E+02 -0.14387515437E+02  0.44540342417E+02  0.00000000000E+00 0.  1.
</event>
<event>
 5    1  0.1102386E-009  0.9118800E+02  0.7818608E-02  0.1130116E+00
         25   -1    0    0    0    0  0.00000000000E+00  0.00000000000E+00  0.99999998245E-14  0.12500000000E+03  0.12500000000E+03 0.  0.
        -11    1    3    3    0    0  0.18589165070E+02  0.31614843342E+02 -0.10365732069E+02  0.38111727580E+02  0.51100000000E-03 0.  1.
         23    2    1    0    0    0  0.79252942975E+01 -0.24428490133E+02 -0.14845208510E+02  0.95336189800E+02  0.90603793795E+02 0.  0.
         11    1    3    3    0    0 -0.10663870772E+02 -0.56043333475E+02 -0.44794764411E+01  0.57224462220E+02  0.51100000000E-03 0. -1.
         22    1    1    0    0    0 -0.79252942975E+01  0.24428490133E+02  0.14845208510E+02  0.29663810200E+02  0.00000000000E+00 0. -1.
</event>
<event>
 5    1  0.1102386E-009  0.9118800E+02  0.7818608E-02  0.1130116E+00
         25   -1    0    0    0    0  0.00000000000E+00  0.00000000000E+00  0.99999998245E-14  0.12500000000E+03  0.12500000000E+03 0.  0.
        -11    1    3    3    0    0 -0.19279708186E+02 -0.27853112934E+02 -0.25798054477E+02  0.42579838691E+02  0.51100000000E-03 0. -1.
         23    2    1    0    0    0  0.23041453890E+02  0.33628113486E+01 -0.17618217432E+02  0.95800365019E+02  0.91241938026E+02 0.  0.
         11    1    3    3    0    0  0.42321162076E+02  0.31215924283E+02  0.81798370448E+01  0.53220526328E+02  0.51100000000E-03 0.  1.
         22    1    1    0    0    0 -0.23041453890E+02 -0.33628113486E+01  0.17618217432E+02  0.29199634981E+02  0.00000000000E+00 0.  1.
</event>
<event>
 5    1  0.1102386E-009  0.9118800E+02  0.7818608E-02  0.1130116E+00
         25   -1    0    0    0    0  0.00000000000E+00  0.00000000000E+00  0.99999998245E-14  0.12500000000E+03  0.12500000000E+03 0.  0.
        -11    1    3    3    0    0 -0.34181441954E+01 -0.57161295472E+02  0.14635914891E+02  0.59104208096E+02  0.51100000000E-03 0. -1.
         23    2    1    0    0    0  0.11564286137E+02 -0.26810367867E+02  0.13131011606E+02  0.92985128380E+02  0.87299954726E+02 0.  0.
         11    1    3    3    0    0  0.14982430332E+02  0.30350927605E+02 -0.15049032841E+01  0.33880920284E+02  0.51100000000E-03 0.  1.
         22    1    1    0    0    0 -0.11564286137E+02  0.26810367867E+02 -0.13131011606E+02  0.32014871620E+02  0.00000000000E+00 0. -1.
</event>
<event>
 5    1  0.1102386E-009  0.9118800E+02  0.7818608E-02  0.1130116E+00
         25   -1    0    0    0    0  0.00000000000E+00  0.00000000000E+00  0.99999998245E-14  0.12500000000E+03  0.12500000000E+03 0.  0.
        -11    1    3    3    0    0 -0.51265650443E+01 -0.20632523444E+02 -0.39513564353E+02  0.44869861387E+02  0.51100000000E-03 0.  1.
         23    2    1    0    0    0 -0.16460541433E+02 -0.22763529639E+02  0.95955613702E+01  0.95314944772E+02  0.90574478707E+02 0.  0.
         11    1    3    3    0    0 -0.11333976388E+02 -0.21310061947E+01  0.49109125723E+02  0.50445083385E+02  0.51100000000E-03 0. -1.
         22    1    1    0    0    0  0.16460541433E+02  0.22763529639E+02 -0.95955613702E+01  0.29685055228E+02  0.00000000000E+00 0.  1.
</event>
<event>
 5    1  0.1102386E-009  0.9118800E+02  0.7818608E-02  0.1130116E+00
         25   -1    0    0    0    0  0.00000000000E+00  0.00000000000E+00  0.99999998245E-14  0.12500000000E+03  0.12500000000E+03 0.  0.
        -11    1    3    3    0    0 -0.21725948522E+02 -0.14820528282E+02  0.12038454913E+01  0.26327061021E+02  0.51100000000E-03 0. -1.
         23    2    1    0    0    0  0.24544703321E+02  0.15963769058E+02  0.24727328577E+02  0.86676049757E+02  0.77743246904E+02 0.  0.
         11    1    3    3    0    0  0.46270651843E+02  0.30784297340E+02  0.23523483086E+02  0.60348988736E+02  0.51100000000E-03 0.  1.
         22    1    1    0    0    0 -0.24544703321E+02 -0.15963769058E+02 -0.24727328577E+02  0.38323950243E+02  0.00000000000E+00 0.  1.
</event>
<event>
 5    1  0.1102386E-009  0.9118800E+02  0.7818608E-02  0.1130116E+00
         25   -1    0    0    0    0  0.00000000000E+00  0.00000000000E+00  0.99999998245E-14  0.12500000000E+03  0.12500000000E+03 0.  0.
        -11    1    3    3    0    0 -0.65328159818E+01 -0.52229803714E+02 -0.25853125745E+02  0.58643108646E+02  0.51100000000E-03 0.  1.
         23    2    1    0    0    0  0.99269158383E+01 -0.24568744595E+02 -0.20988324916E+02  0.91196499414E+02  0.84700205747E+02 0.  0.
         11    1    3    3    0    0  0.16459731820E+02  0.27661059118E+02  0.48648008290E+01  0.32553390768E+02  0.51100000000E-03 0. -1.
         22    1    1    0    0    0 -0.99269158383E+01  0.24568744595E+02  0.20988324916E+02  0.33803500586E+02  0.00000000000E+00 0.  1.
</event>
<event>
 5    1  0.1102386E-009  0.9118800E+02  0.7818608E-02  0.1130116E+00
         25   -1    0    0    0    0  0.00000000000E+00  0.00000000000E+00  0.99999998245E-14  0.12500000000E+03  0.12500000000E+03 0.  0.
        -11    1    3    3    0    0 -0.67545673855E+01 -0.12990863787E+02  0.30741576176E+02  0.34050421856E+02  0.51100000000E-03 0.  1.
         23    2    1    0    0    0  0.17071280677E+02  0.15163378843E+02 -0.18527623211E+02  0.95595416961E+02  0.90960729110E+02 0.  0.
         11    1    3    3    0    0  0.23825848062E+02  0.28154242631E+02 -0.49269199387E+02  0.61544995105E+02  0.51100000000E-03 0. -1.
         22    1    1    0    0    0 -0.17071280677E+02 -0.15163378843E+02  0.18527623211E+02  0.29404583039E+02  0.00000000000E+00 0. -1.
</event>
<event>
 5    1  0.1102386E-009  0.9118800E+02  0.7818608E-02  0.1130116E+00
         25   -1    0    0    0    0  0.00000000000E+00  0.00000000000E+00  0.99999998245E-14  0.12500000000E+03  0.12500000000E+03 0.  0.
        -11    1    3    3    0    0  0.14014373774E+02  0.36943760880E+02 -0.59755568882E+01  0.39961874588E+02  0.51100000000E-03 0.  1.
         23    2    1    0    0    0 -0.27426926113E+02 -0.22186165554E+01  0.13594724223E+01  0.97449923762E+02  0.93474493530E+02 0.  0.
         11    1    3    3    0    0 -0.41441299887E+02 -0.39162377435E+02  0.73350293105E+01  0.57488049175E+02  0.51100000000E-03 0. -1.
         22    1    1    0    0    0  0.27426926113E+02  0.22186165554E+01 -0.13594724223E+01  0.27550076238E+02  0.00000000000E+00 0. -1.
</event>
<event>
 5    1  0.1102386E-009  0.9118800E+02  0.7818608E-02  0.1130116E+00
         25   -1    0    0    0    0  0.00000000000E+00  0.00000000000E+00  0.99999998245E-14  0.12500000000E+03  0.12500000000E+03 0.  0.
        -11    1    3    3    0    0  0.30323194857E+02 -0.48553164435E+01  0.31919438887E+02  0.44293575417E+02  0.51100000000E-03 0. -1.
         23    2    1    0    0    0 -0.19443135640E+02 -0.12065756632E+02  0.16142637985E+02  0.96996379382E+02  0.92866004789E+02 0.  0.
         11    1    3    3    0    0 -0.49766330496E+02 -0.72104401890E+01 -0.15776800901E+02  0.52702803965E+02  0.51100000000E-03 0.  1.
         22    1    1    0    0    0  0.19443135640E+02  0.12065756632E+02 -0.16142637985E+02  0.28003620618E+02  0.00000000000E+00 0.  1.
</event>
<event>
 5    1  0.1102386E-009  0.9118800E+02  0.7818608E-02  0.1130116E+00
         25   -1    0    0    0    0  0.00000000000E+00  0.00000000000E+00  0.99999998245E-14  0.12500000000E+03  0.12500000000E+03 0.  0.
        -11    1    3    3    0    0  0.14472101911E+02 -0.26638188641E+02 -0.14700295439E+02  0.33691742520E+02  0.51100000000E-03 0.  1.
         23    2    1    0    0    0  0.11744064374E+02  0.26940041800E+02  0.11557332677E+02  0.93420563039E+02  0.87921219052E+02 0.  0.
         11    1    3    3    0    0 -0.27280375370E+01  0.53578230441E+02  0.26257628116E+02  0.59728820518E+02  0.51100000000E-03 0. -1.
         22    1    1    0    0    0 -0.11744064374E+02 -0.26940041800E+02 -0.11557332677E+02  0.31579436961E+02  0.00000000000E+00 0. -1.
</event>
<event>
 5    1  0.1102386E-009  0.9118800E+02  0.7818608E-02  0.1130116E+00
         25   -1    0    0    0    0  0.00000000000E+00  0.00000000000E+00  0.99999998245E-14  0.12500000000E+03  0.12500000000E+03 0.  0.
        -11    1    3    3    0    0  0.96955135363E+01 -0.34103677699E+01 -0.31219190387E+02  0.32867483015E+02  0.51100000000E-03 0.  1.
         23    2    1    0    0    0 -0.15187568858E+02 -0.18320875915E+02  0.21427622892E+02  0.92977199296E+02  0.87288600768E+02 0.  0.
         11    1    3    3    0    0 -0.24883082395E+02 -0.14910508145E+02  0.52646813279E+02  0.60109716281E+02  0.51100000000E-03 0. -1.
         22    1    1    0    0    0  0.15187568858E+02  0.18320875915E+02 -0.21427622892E+02  0.32022800704E+02  0.00000000000E+00 0. -1.
</event>
<event>
 5    1  0.1102386E-009  0.9118800E+02  0.7818608E-02  0.1130116E+00
         25   -1    0    0    0    0  0.00000000000E+00  0.00000000000E+00  0.99999998245E-14  0.12500000000E+03  0.12500000000E+03 0.  0.
        -11    1    3    3    0    0 -0.87868525185E+01 -0.33570216377E+02 -0.15001088761E+02  0.37804773099E+02  0.51100000000E-03 0.  1.
         23    2    1    0    0    0  0.64826142945E+01  0.22641347731E+02 -0.16783221020E+02  0.96080604727E+02  0.91625057608E+02 0.  0.
         11    1    3    3    0    0  0.15269466813E+02  0.56211564108E+02 -0.17821322590E+01  0.58275831627E+02  0.51100000000E-03 0. -1.
         22    1    1    0    0    0 -0.64826142945E+01 -0.22641347731E+02  0.16783221020E+02  0.28919395273E+02  0.00000000000E+00 0.  1.
</event>
<event>
 5    1  0.1102386E-009  0.9118800E+02  0.7818608E-02  0.1130116E+00
         25   -1    0    0    0    0  0.00000000000E+00  0.00000000000E+00  0.99999998245E-14  0.12500000000E+03  0.12500000000E+03 0.  0.
        -11    1    3    3    0    0 -0.38113575491E+02 -0.39960162905E+02 -0.14415392558E+02  0.57072434669E+02  0.51100000000E-03 0. -1.
         23    2    1    0    0    0 -0.26796774509E+01 -0.27285172991E+02  0.56660514638E+00  0.97577702908E+02  0.93645211981E+02 0.  0.
         11    1    3    3    0    0  0.35433898041E+02  0.12674989914E+02  0.14981997704E+02  0.40505268239E+02  0.51100000000E-03 0.  1.
         22    1    1    0    0    0  0.26796774509E+01  0.27285172991E+02 -0.56660514638E+00  0.27422297092E+02  0.00000000000E+00 0. -1.
</event>
<event>
 5    1  0.1102386E-009  0.9118800E+02  0.7818608E-02  0.1130116E+00
         25   -1    0    0    0    0  0.00000000000E+00  0.00000000000E+00  0.99999998245E-14  0.12500000000E+03  0.12500000000E+03 0.  0.
        -11    1    3    3    0    0  0.11053922616E+02  0.26007962898E+02  0.44705249287E+02  0.52888209020E+02  0.51100000000E-03 0. -1.
         23    2    1    0    0    0  0.14748168294E+01 -0.11496158659E+02  0.27323542376E+02  0.95319826204E+02  0.90581215221E+02 0.  0.
         11    1    3    3    0    0 -0.95791057865E+01 -0.37504121556E+02 -0.17381706911E+02  0.42431617183E+02  0.51100000000E-03 0.  1.
         22    1    1    0    0    0 -0.14748168294E+01  0.11496158659E+02 -0.27323542376E+02  0.29680173796E+02  0.00000000000E+00 0. -1.
</event>
<event>
 5    1  0.1102386E-009  0.9118800E+02  0.7818608E-02  0.1130116E+00
         25   -1    0    0    0    0  0.00000000000E+00  0.00000000000E+00  0.99999998245E-14  0.12500000000E+03  0.12500000000E+03 0.  0.
        -11    1    3    3    0    0  0.26111838830E+02 -0.20138446565E+02 -0.12408678861E+02  0.35232945783E+02  0.51100000000E-03 0.  1.
         23    2    1    0    0    0 -0.26956139175E+02  0.76629717896E+01  0.21742277173E+01  0.96891605488E+02  0.92724869221E+02 0.  0.
         11    1    3    3    0    0 -0.53067978005E+02  0.27801418355E+02  0.14582906579E+02  0.61658659705E+02  0.51100000000E-03 0. -1.
         22    1    1    0    0    0  0.26956139175E+02 -0.76629717896E+01 -0.21742277173E+01  0.28108394512E+02  0.00000000000E+00 0. -1.
</event>
<event>
 5    1  0.1102386E-009  0.9118800E+02  0.7818608E-02  0.1130116E+00
         25   -1    0    0    0    0  0.00000000000E+00  0.00000000000E+00  0.99999998245E-14  0.12500000000E+03  0.12500000000E+03 0.  0.
        -11    1    3    3    0    0  0.40960408012E+02  0.14801754462E+02  0.27745413057E+02  0.51639664074E+02  0.51100000000E-03 0.  1.
         23    2    1    0    0    0  0.70083642981E+01  0.29347473922E+02  0.69153591089E+01  0.94044974764E+02  0.88804525172E+02 0.  0.
         11    1    3    3    0    0 -0.33952043714E+02  0.14545719460E+02 -0.20830053948E+02  0.42405310690E+02  0.51100000000E-03 0. -1.
         22    1    1    0    0    0 -0.70083642981E+01 -0.29347473922E+02 -0.69153591089E+01  0.30955025236E+02  0.00000000000E+00 0. -1.
</event>
<event>
 5    1  0.1102386E-009  0.9118800E+02  0.7818608E-02  0.1130116E+00
         25   -1    0    0    0    0  0.00000000000E+00  0.00000000000E+00  0.99999998245E-14  0.12500000000E+03  0.12500000000E+03 0.  0.
        -11    1    3    3    0    0 -0.46224988578E+02 -0.16876556321E+02  0.14748251689E+02  0.51371963662E+02  0.51100000000E-03 0. -1.
         23    2    1    0    0    0 -0.91630814508E+01 -0.30347155466E+02  0.51673248250E+00  0.93295443245E+02  0.87743152504E+02 0.  0.
         11    1    3    3    0    0  0.37061907127E+02 -0.13470599145E+02 -0.14231519207E+02  0.41923479584E+02  0.51100000000E-03 0.  1.
         22    1    1    0    0    0  0.91630814508E+01  0.30347155466E+02 -0.51673248250E+00  0.31704556755E+02  0.00000000000E+00 0. -1.
</event>
<event>
 5    1  0.1102386E-009  0.9118800E+02  0.7818608E-02  0.1130116E+00
         25   -1    0    0    0    0  0.00000000000E+00  0.00000000000E+00  0.99999998245E-14  0.12500000000E+03  0.12500000000E+03 0.  0.
        -11    1    3    3    0    0  0.12630794054E+01  0.33632560579E+02  0.25720804303E+02  0.42359228923E+02  0.51100000000E-03 0.  1.
         23    2    1    0    0    0 -0.17059955583E+02 -0.17101275109E+02  0.39718306763E+01  0.10051998501E+03  0.97493570317E+02 0.  0.
         11    1    3    3    0    0 -0.18323034989E+02 -0.50733835688E+02 -0.21748973627E+02  0.58160756090E+02  0.51100000000E-03 0. -1.
         22    1    1    0    0    0  0.17059955583E+02  0.17101275109E+02 -0.39718306763E+01  0.24480014988E+02  0.00000000000E+00 0. -1.
</event>
<event>
 5    1  0.1102386E-009  0.9118800E+02  0.7818608E-02  0.1130116E+00
         25   -1    0    0    0    0  0.00000000000E+00  0.00000000000E+00  0.99999998245E-14  0.12500000000E+03  0.12500000000E+03 0.  0.
        -11    1    3    3    0    0 -0.29436531312E+02 -0.30016979581E+02  0.62433407860E+01  0.42503032166E+02  0.51100000000E-03 0.  1.
         23    2    1    0    0    0  0.10833819170E+02 -0.12210045562E+02 -0.24038886730E+02  0.95942730244E+02  0.91436768103E+02 0.  0.
         11    1    3    3    0    0  0.40270350482E+02  0.17806934019E+02 -0.30282227516E+02  0.53439698078E+02  0.51100000000E-03 0. -1.
         22    1    1    0    0    0 -0.10833819170E+02  0.12210045562E+02  0.24038886730E+02  0.29057269756E+02  0.00000000000E+00 0. -1.
</event>
<event>
 5    1  0.1102386E-009  0.9118800E+02  0.7818608E-02  0.1130116E+00
         25   -1    0    0    0    0  0.00000000000E+00  0.00000000000E+00  0.99999998245E-14  0.12500000000E+03  0.12500000000E+03 0.  0.
        -11    1    3    3    0    0 -0.21910022769E+02  0.40443972937E+01  0.34953373449E+02  0.41450507391E+02  0.51100000000E-03 0. -1.
         23    2    1    0    0    0 -0.11385894276E+02 -0.31005105207E+02  0.12508465339E+00  0.91970153142E+02  0.85834365410E+02 0.  0.
         11    1    3    3    0    0  0.10524128493E+02 -0.35049502500E+02 -0.34828288796E+02  0.50519645751E+02  0.51100000000E-03 0.  1.
         22    1    1    0    0    0  0.11385894276E+02  0.31005105207E+02 -0.12508465339E+00  0.33029846858E+02  0.00000000000E+00 0.  1.
</event>
<event>
 5    1  0.1102386E-009  0.9118800E+02  0.7818608E-02  0.1130116E+00
         25   -1    0    0    0    0  0.00000000000E+00  0.00000000000E+00  0.99999998245E-14  0.12500000000E+03  0.12500000000E+03 0.  0.
        -11    1    3    3    0    0 -0.39492938170E+02  0.12813010295E+02  0.20764197190E+02  0.46422163708E+02  0.51100000000E-03 0. -1.
         23    2    1    0    0    0 -0.10561255978E+02 -0.25566224524E+02  0.91004387563E+01  0.95879733006E+02  0.91350606191E+02 0.  0.
         11    1    3    3    0    0  0.28931682192E+02 -0.38379234819E+02 -0.11663758433E+02  0.49457569298E+02  0.51100000000E-03 0.  1.
         22    1    1    0    0    0  0.10561255978E+02  0.25566224524E+02 -0.91004387563E+01  0.29120266994E+02  0.00000000000E+00 0.  1.
</event>
<event>
 5    1  0.1102386E-009  0.9118800E+02  0.7818608E-02  0.1130116E+00
         25   -1    0    0    0    0  0.00000000000E+00  0.00000000000E+00  0.99999998245E-14  0.12500000000E+03  0.12500000000E+03 0.  0.
        -11    1    3    3    0    0 -0.34060100677E+02  0.22106192702E+02 -0.43192994484E+02  0.59282450916E+02  0.51100000000E-03 0. -1.
         23    2    1    0    0    0 -0.17629800094E+02 -0.29438066280E+01 -0.24780280105E+02  0.94446143764E+02  0.89367421027E+02 0.  0.
         11    1    3    3    0    0  0.16430300583E+02 -0.25049999330E+02  0.18412714379E+02  0.35163692848E+02  0.51100000000E-03 0.  1.
         22    1    1    0    0    0  0.17629800094E+02  0.29438066280E+01  0.24780280105E+02  0.30553856236E+02  0.00000000000E+00 0. -1.
</event>
<event>
 5    1  0.1102386E-009  0.9118800E+02  0.7818608E-02  0.1130116E+00
         25   -1    0    0    0    0  0.00000000000E+00  0.00000000000E+00  0.99999998245E-14  0.12500000000E+03  0.12500000000E+03 0.  0.
        -11    1    3    3    0    0 -0.24813901564E+02 -0.12319302553E+02 -0.28956325362E+02  0.40074476977E+02  0.51100000000E-03 0. -1.
         23    2    1    0    0    0  0.25032283867E+01  0.28800183840E+02 -0.27628267384E+01  0.95959511830E+02  0.91459706742E+02 0.  0.
         11    1    3    3    0    0  0.27317129951E+02  0.41119486394E+02  0.26193498624E+02  0.55885034852E+02  0.51100000000E-03 0.  1.
         22    1    1    0    0    0 -0.25032283867E+01 -0.28800183840E+02  0.27628267384E+01  0.29040488170E+02  0.00000000000E+00 0.  1.
</event>
<event>
 5    1  0.1102386E-009  0.9118800E+02  0.7818608E-02  0.1130116E+00
         25   -1    0    0    0    0  0.00000000000E+00  0.00000000000E+00  0.99999998245E-14  0.12500000000E+03  0.12500000000E+03 0.  0.
        -11    1    3    3    0    0 -0.33712344219E+02 -0.77642404300E+01  0.37501722390E+00  0.34596910561E+02  0.51100000000E-03 0. -1.
         23    2    1    0    0    0  0.22093902472E+02  0.92952733728E+01  0.17394836215E+02  0.95383738243E+02  0.90669369474E+02 0.  0.
         11    1    3    3    0    0  0.55806246691E+02  0.17059513803E+02  0.17019818991E+02  0.60786827682E+02  0.51100000000E-03 0.  1.
         22    1    1    0    0    0 -0.22093902472E+02 -0.92952733728E+01 -0.17394836215E+02  0.29616261757E+02  0.00000000000E+00 0.  1.
</event>
<event>
 5    1  0.1102386E-009  0.9118800E+02  0.7818608E-02  0.1130116E+00
         25   -1    0    0    0    0  0.00000000000E+00  0.00000000000E+00  0.99999998245E-14  0.12500000000E+03  0.12500000000E+03 0.  0.
        -11    1    3    3    0    0  0.43911035730E+01 -0.42023765745E+02  0.30522337760E+02  0.52123812030E+02  0.51100000000E-03 0.  1.
         23    2    1    0    0    0  0.25500798626E+02 -0.93113558824E+01  0.10610645856E+02  0.95852480647E+02  0.91313307693E+02 0.  0.
         11    1    3    3    0    0  0.21109695053E+02  0.32712409862E+02 -0.19911691904E+02  0.43728668617E+02  0.51100000000E-03 0. -1.
         22    1    1    0    0    0 -0.25500798626E+02  0.93113558824E+01 -0.10610645856E+02  0.29147519353E+02  0.00000000000E+00 0. -1.
</event>
<event>
 5    1  0.1102386E-009  0.9118800E+02  0.7818608E-02  0.1130116E+00
         25   -1    0    0    0    0  0.00000000000E+00  0.00000000000E+00  0.99999998245E-14  0.12500000000E+03  0.12500000000E+03 0.  0.
        -11    1    3    3    0    0 -0.14981340183E+02  0.49606939505E+02  0.34478584775E+02  0.62241961803E+02  0.51100000000E-03 0. -1.
         23    2    1    0    0    0 -0.90496792643E+01  0.21745565157E+02  0.19477732268E+02  0.94436159386E+02  0.89353454586E+02 0.  0.
         11    1    3    3    0    0  0.59316609186E+01 -0.27861374348E+02 -0.15000852507E+02  0.32194197583E+02  0.51100000000E-03 0.  1.
         22    1    1    0    0    0  0.90496792643E+01 -0.21745565157E+02 -0.19477732268E+02  0.30563840614E+02  0.00000000000E+00 0. -1.
</event>
<event>
 5    1  0.1102386E-009  0.9118800E+02  0.7818608E-02  0.1130116E+00
         25   -1    0    0    0    0  0.00000000000E+00  0.00000000000E+00  0.99999998245E-14  0.12500000000E+03  0.12500000000E+03 0.  0.
        -11    1    3    3    0    0 -0.32498051406E+02  0.45370855879E+02  0.94735505613E+01  0.56607296958E+02  0.51100000000E-03 0.  1.
         23    2    1    0    0    0 -0.28365494683E+02  0.76109036537E+01  0.55364029456E+00  0.95625969623E+02  0.91002705486E+02 0.  0.
         11    1    3    3    0    0  0.41325567236E+01 -0.37759952225E+02 -0.89199102668E+01  0.39018672665E+02  0.51100000000E-03 0. -1.
         22    1    1    0    0    0  0.28365494683E+02 -0.76109036537E+01 -0.55364029456E+00  0.29374030377E+02  0.00000000000E+00 0.  1.
</event>
<event>
 5    1  0.1102386E-009  0.9118800E+02  0.7818608E-02  0.1130116E+00
         25   -1    0    0    0    0  0.00000000000E+00  0.00000000000E+00  0.99999998245E-14  0.12500000000E+03  0.12500000000E+03 0.  0.
        -11    1    3    3    0    0 -0.26488056865E+02 -0.40693896017E+02 -0.61527020937E+01  0.48943498780E+02  0.51100000000E-03 0.  1.
         23    2    1    0    0    0 -0.24990791780E+02  0.55982852871E+00  0.15529173700E+02  0.95571980740E+02  0.90928516896E+02 0.  0.
         11    1    3    3    0    0  0.14972650848E+01  0.41253724546E+02  0.21681875794E+02  0.46628481959E+02  0.51100000000E-03 0. -1.
         22    1    1    0    0    0  0.24990791780E+02 -0.55982852871E+00 -0.15529173700E+02  0.29428019260E+02  0.00000000000E+00 0. -1.
</event>
<event>
 5    1  0.1102386E-009  0.9118800E+02  0.7818608E-02  0.1130116E+00
         25   -1    0    0    0    0  0.00000000000E+00  0.00000000000E+00  0.99999998245E-14  0.12500000000E+03  0.12500000000E+03 0.  0.
        -11    1    3    3    0    0 -0.21653501378E+02 -0.91788133582E+01  0.22909666429E+02  0.32832568476E+02  0.51100000000E-03 0.  1.
         23    2    1    0    0    0  0.16180583368E+02  0.88792861103E+01 -0.23332989261E+02  0.95249682560E+02  0.90484366826E+02 0.  0.
         11    1    3    3    0    0  0.37834084746E+02  0.18058099469E+02 -0.46242655690E+02  0.62417114083E+02  0.51100000000E-03 0. -1.
         22    1    1    0    0    0 -0.16180583368E+02 -0.88792861103E+01  0.23332989261E+02  0.29750317440E+02  0.00000000000E+00 0. -1.
</event>
<event>
 5    1  0.1102386E-009  0.9118800E+02  0.7818608E-02  0.1130116E+00
         25   -1    0    0    0    0  0.00000000000E+00  0.00000000000E+00  0.99999998245E-14  0.12500000000E+03  0.12500000000E+03 0.  0.
        -11    1    3    3    0    0 -0.52437956220E+01 -0.32873314896E+02  0.75700588529E+01  0.34138805135E+02  0.51100000000E-03 0.  1.
         23    2    1    0    0    0  0.52450368951E+01  0.26689747191E+02 -0.81073102264E+01  0.96617232406E+02  0.92354253295E+02 0.  0.
         11    1    3    3    0    0  0.10488832517E+02  0.59563062087E+02 -0.15677369079E+02  0.62478427271E+02  0.51100000000E-03 0. -1.
         22    1    1    0    0    0 -0.52450368951E+01 -0.26689747191E+02  0.81073102264E+01  0.28382767594E+02  0.00000000000E+00 0. -1.
</event>
<event>
 5    1  0.1102386E-009  0.9118800E+02  0.7818608E-02  0.1130116E+00
         25   -1    0    0    0    0  0.00000000000E+00  0.00000000000E+00  0.99999998245E-14  0.12500000000E+03  0.12500000000E+03 0.  0.
        -11    1    3    3    0    0  0.23251141229E+02 -0.12100435381E+02 -0.21516042192E+02  0.33911298659E+02  0.51100000000E-03 0.  1.
         23    2    1    0    0    0 -0.27562675597E+02 -0.10472592548E+02  0.10161956801E+02  0.93812796747E+02  0.88477111089E+02 0.  0.
         11    1    3    3    0    0 -0.50813816826E+02  0.16278428333E+01  0.31677998993E+02  0.59901498088E+02  0.51100000000E-03 0. -1.
         22    1    1    0    0    0  0.27562675597E+02  0.10472592548E+02 -0.10161956801E+02  0.31187203253E+02  0.00000000000E+00 0. -1.
</event>
<event>
 5    1  0.1102386E-009  0.9118800E+02  0.7818608E-02  0.1130116E+00
         25   -1    0    0    0    0  0.00000000000E+00  0.00000000000E+00  0.99999998245E-14  0.12500000000E+03  0.12500000000E+03 0.  0.
        -11    1    3    3    0    0 -0.30168339147E+02  0.23490161508E+02 -0.47879515637E+01  0.38533632777E+02  0.51100000000E-03 0. -1.
         23    2    1    0    0    0  0.25338771674E+02  0.13837560116E+02  0.49459729127E+01  0.95708464227E+02  0.91115948421E+02 0.  0.
         11    1    3    3    0    0  0.55507110821E+02 -0.96526013922E+01  0.97339244764E+01  0.57174831450E+02  0.51100000000E-03 0.  1.
         22    1    1    0    0    0 -0.25338771674E+02 -0.13837560116E+02 -0.49459729127E+01  0.29291535773E+02  0.00000000000E+00 0.  1.
</event>
<event>
 5    1  0.1102386E-009  0.9118800E+02  0.7818608E-02  0.1130116E+00
         25   -1    0    0    0    0  0.00000000000E+00  0.00000000000E+00  0.99999998245E-14  0.12500000000E+03  0.12500000000E+03 0.  0.
        -11    1    3    3    0    0 -0.64356624565E+01  0.47799997079E+02 -0.12415184638E+02  0.49803556920E+02  0.51100000000E-03 0. -1.
         23    2    1    0    0    0  0.20594938156E+02  0.16731544401E+02  0.99437769814E+01  0.96663190788E+02  0.92416436292E+02 0.  0.
         11    1    3    3    0    0  0.27030600612E+02 -0.31068452678E+02  0.22358961620E+02  0.46859633868E+02  0.51100000000E-03 0.  1.
         22    1    1    0    0    0 -0.20594938156E+02 -0.16731544401E+02 -0.99437769814E+01  0.28336809212E+02  0.00000000000E+00 0. -1.
</event>
<event>
 5    1  0.1102386E-009  0.9118800E+02  0.7818608E-02  0.1130116E+00
         25   -1    0    0    0    0  0.00000000000E+00  0.00000000000E+00  0.99999998245E-14  0.12500000000E+03  0.12500000000E+03 0.  0.
        -11    1    3    3    0    0 -0.25131685697E+01  0.41983533173E+01 -0.33234679666E+02  0.33592947468E+02  0.51100000000E-03 0.  1.
         23    2    1    0    0    0 -0.18437429635E+02  0.18130174508E+02  0.20923120800E+02  0.91737122445E+02  0.85494330872E+02 0.  0.
         11    1    3    3    0    0 -0.15924261065E+02  0.13931821190E+02  0.54157800466E+02  0.58144174977E+02  0.51100000000E-03 0. -1.
         22    1    1    0    0    0  0.18437429635E+02 -0.18130174508E+02 -0.20923120800E+02  0.33262877555E+02  0.00000000000E+00 0. -1.
</event>
<event>
 5    1  0.1102386E-009  0.9118800E+02  0.7818608E-02  0.1130116E+00
         25   -1    0    0    0    0  0.00000000000E+00  0.00000000000E+00  0.99999998245E-14  0.12500000000E+03  0.12500000000E+03 0.  0.
        -11    1    3    3    0    0  0.30504642401E+02 -0.31611075294E+02  0.60727739110E+01  0.44347174346E+02  0.51100000000E-03 0. -1.
         23    2    1    0    0    0  0.54639677257E+01  0.60920972468E+01 -0.24634517123E+02  0.99041802334E+02  0.95579551074E+02 0.  0.
         11    1    3    3    0    0 -0.25040674675E+02  0.37703172540E+02 -0.30707291034E+02  0.54694627988E+02  0.51100000000E-03 0.  1.
         22    1    1    0    0    0 -0.54639677257E+01 -0.60920972468E+01  0.24634517123E+02  0.25958197666E+02  0.00000000000E+00 0.  1.
</event>
<event>
 5    1  0.1102386E-009  0.9118800E+02  0.7818608E-02  0.1130116E+00
         25   -1    0    0    0    0  0.00000000000E+00  0.00000000000E+00  0.99999998245E-14  0.12500000000E+03  0.12500000000E+03 0.  0.
        -11    1    3    3    0    0 -0.98439695414E+01 -0.27187699266E+02 -0.19368579017E+02  0.34802536992E+02  0.51100000000E-03 0.  1.
         23    2    1    0    0    0  0.22324610165E+02  0.18224881216E+02  0.53358552360E+01  0.95691198157E+02  0.91092258394E+02 0.  0.
         11    1    3    3    0    0  0.32168579707E+02  0.45412580482E+02  0.24704434253E+02  0.60888661165E+02  0.51100000000E-03 0. -1.
         22    1    1    0    0    0 -0.22324610165E+02 -0.18224881216E+02 -0.53358552360E+01  0.29308801843E+02  0.00000000000E+00 0. -1.
</event>
<event>
 5    1  0.1102386E-009  0.9118800E+02  0.7818608E-02  0.1130116E+00
         25   -1    0    0    0    0  0.00000000000E+00  0.00000000000E+00  0.99999998245E-14  0.12500000000E+03  0.12500000000E+03 0.  0.
        -11    1    3    3    0    0 -0.21762152209E+02 -0.14309112377E+02 -0.22676409113E+02  0.34533483698E+02  0.51100000000E-03 0.  1.
         23    2    1    0    0    0 -0.17805988920E+00  0.15631512225E+02  0.25418689059E+02  0.95158994098E+02  0.90358998027E+02 0.  0.
         11    1    3    3    0    0  0.21584092320E+02  0.29940624601E+02  0.48095098173E+02  0.60625510400E+02  0.51100000000E-03 0. -1.
         22    1    1    0    0    0  0.17805988920E+00 -0.15631512225E+02 -0.25418689059E+02  0.29841005902E+02  0.00000000000E+00 0. -1.
</event>
<event>
 5    1  0.1102386E-009  0.9118800E+02  0.7818608E-02  0.1130116E+00
         25   -1    0    0    0    0  0.00000000000E+00  0.00000000000E+00  0.99999998245E-14  0.12500000000E+03  0.12500000000E+03 0.  0.
        -11    1    3    3    0    0  0.19992289204E+02  0.50272021169E+02 -0.53120556815E+01  0.54361619511E+02  0.51100000000E-03 0.  1.
         23    2    1    0    0    0 -0.40629318293E+01  0.21927685333E+02  0.16312780369E+02  0.97369625365E+02  0.93367051690E+02 0.  0.
         11    1    3    3    0    0 -0.24055221034E+02 -0.28344335836E+02  0.21624836051E+02  0.43008005853E+02  0.51100000000E-03 0. -1.
         22    1    1    0    0    0  0.40629318293E+01 -0.21927685333E+02 -0.16312780369E+02  0.27630374635E+02  0.00000000000E+00 0.  1.
</event>
<event>
 5    1  0.1102386E-009  0.9118800E+02  0.7818608E-02  0.1130116E+00
         25   -1    0    0    0    0  0.00000000000E+00  0.00000000000E+00  0.99999998245E-14  0.12500000000E+03  0.12500000000E+03 0.  0.
        -11    1    3    3    0    0 -0.50185895429E+02  0.14744607762E+02 -0.29412593124E+02  0.60009400868E+02  0.51100000000E-03 0.  1.
         23    2    1    0    0    0 -0.22765259931E+02 -0.49030376569E+01 -0.17812802084E+02  0.95681187676E+02  0.91078520624E+02 0.  0.
         11    1    3    3    0    0  0.27420635498E+02 -0.19647645419E+02  0.11599791040E+02  0.35671786808E+02  0.51100000000E-03 0. -1.
         22    1    1    0    0    0  0.22765259931E+02  0.49030376569E+01  0.17812802084E+02  0.29318812324E+02  0.00000000000E+00 0.  1.
</event>
<event>
 5    1  0.1102386E-009  0.9118800E+02  0.7818608E-02  0.1130116E+00
         25   -1    0    0    0    0  0.00000000000E+00  0.00000000000E+00  0.99999998245E-14  0.12500000000E+03  0.12500000000E+03 0.  0.
        -11    1    3    3    0    0  0.11886242300E+02  0.33968538924E+02  0.24989318380E+02  0.43813358990E+02  0.51100000000E-03 0.  1.
         23    2    1    0    0    0 -0.15190986847E+02 -0.86623302953E+01  0.25211999906E+02  0.94316991888E+02  0.89186590764E+02 0.  0.
         11    1    3    3    0    0 -0.27077229147E+02 -0.42630869219E+02  0.22268152583E+00  0.50503632899E+02  0.51100000000E-03 0. -1.
         22    1    1    0    0    0  0.15190986847E+02  0.86623302953E+01 -0.25211999906E+02  0.30683008112E+02  0.00000000000E+00 0.  1.
</event>
<event>
 4    1  0.1102386E-009  0.9118800E+02  0.7818608E-02  0.1130116E+00
         25   -1    0    0    0    0  0.00000000000E+00  0.00000000000E+00  0.99999998245E-14  0.12500000000E+03  0.12500000000E+03 0.  0.
        -11    1    1    0    0    0 -0.77420691446E+01 -0.43924475623E+01  0.18622170845E+02  0.20640215053E+02  0.51100000000E-03 0. -1.
         11    1    1    0    0    0  0.27888069297E+02 -0.42899520895E+02 -0.11738596073E+02  0.52496742186E+02  0.51100000000E-03 0.  1.
         22    1    1    0    0    0 -0.20146000152E+02  0.47291968458E+02 -0.68835747713E+01  0.51863042760E+02  0.00000000000E+00 0.  1.
</event>
<event>
 5    1  0.1102386E-009  0.9118800E+02  0.7818608E-02  0.1130116E+00
         25   -1    0    0    0    0  0.00000000000E+00  0.00000000000E+00  0.99999998245E-14  0.12500000000E+03  0.12500000000E+03 0.  0.
        -11    1    3    3    0    0 -0.18019787603E+02 -0.26509564624E+02  0.78034355623E+01  0.32990352660E+02  0.51100000000E-03 0.  1.
         23    2    1    0    0    0  0.27387981457E+02  0.13582234227E+02 -0.20493785172E+01  0.94360506414E+02  0.89247557969E+02 0.  0.
         11    1    3    3    0    0  0.45407769060E+02  0.40091798851E+02 -0.98528140795E+01  0.61370153754E+02  0.51100000000E-03 0. -1.
         22    1    1    0    0    0 -0.27387981457E+02 -0.13582234227E+02  0.20493785172E+01  0.30639493586E+02  0.00000000000E+00 0. -1.
</event>
<event>
 4    1  0.1102386E-009  0.9118800E+02  0.7818608E-02  0.1130116E+00
         25   -1    0    0    0    0  0.00000000000E+00  0.00000000000E+00  0.99999998245E-14  0.12500000000E+03  0.12500000000E+03 0.  0.
        -11    1    1    0    0    0  0.90553149419E+01  0.24151011210E+01  0.42021302359E+01  0.10270800402E+02  0.51100000000E-03 0.  1.
         11    1    1    0    0    0 -0.39850635277E+02  0.42415524786E+02 -0.13000022512E+02  0.59633467620E+02  0.51100000000E-03 0. -1.
         22    1    1    0    0    0  0.30795320335E+02 -0.44830625906E+02  0.87978922763E+01  0.55095731978E+02  0.00000000000E+00 0. -1.
</event>
<event>
 5    1  0.1102386E-009  0.9118800E+02  0.7818608E-02  0.1130116E+00
         25   -1    0    0    0    0  0.00000000000E+00  0.00000000000E+00  0.99999998245E-14  0.12500000000E+03  0.12500000000E+03 0.  0.
        -11    1    3    3    0    0  0.75666418948E+01 -0.53830296492E+01  0.55203763551E+02  0.55979340727E+02  0.51100000000E-03 0. -1.
         23    2    1    0    0    0 -0.76309651212E+01 -0.19180652369E+02  0.23819338542E+02  0.93480324517E+02  0.88006142565E+02 0.  0.
         11    1    3    3    0    0 -0.15197607016E+02 -0.13797622720E+02 -0.31384425009E+02  0.37500983789E+02  0.51100000000E-03 0.  1.
         22    1    1    0    0    0  0.76309651212E+01  0.19180652369E+02 -0.23819338542E+02  0.31519675483E+02  0.00000000000E+00 0. -1.
</event>
<event>
 5    1  0.1102386E-009  0.9118800E+02  0.7818608E-02  0.1130116E+00
         25   -1    0    0    0    0  0.00000000000E+00  0.00000000000E+00  0.99999998245E-14  0.12500000000E+03  0.12500000000E+03 0.  0.
        -11    1    3    3    0    0 -0.45212062678E+02  0.68437259927E+01  0.36321339888E+02  0.58396977050E+02  0.51100000000E-03 0.  1.
         23    2    1    0    0    0 -0.26869498537E+02  0.12988195017E+02  0.57002541512E+01  0.94616516677E+02  0.89605408147E+02 0.  0.
         11    1    3    3    0    0  0.18342564140E+02  0.61444690244E+01 -0.30621085737E+02  0.36219539627E+02  0.51100000000E-03 0. -1.
         22    1    1    0    0    0  0.26869498537E+02 -0.12988195017E+02 -0.57002541512E+01  0.30383483323E+02  0.00000000000E+00 0.  1.
</event>
<event>
 5    1  0.1102386E-009  0.9118800E+02  0.7818608E-02  0.1130116E+00
         25   -1    0    0    0    0  0.00000000000E+00  0.00000000000E+00  0.99999998245E-14  0.12500000000E+03  0.12500000000E+03 0.  0.
        -11    1    3    3    0    0  0.10003595373E+02  0.49736486987E+02  0.29897146337E+02  0.58886580963E+02  0.51100000000E-03 0.  1.
         23    2    1    0    0    0 -0.10248152919E+02  0.24532729419E+02  0.14821218183E+02  0.94560749691E+02  0.89527579118E+02 0.  0.
         11    1    3    3    0    0 -0.20251748292E+02 -0.25203757568E+02 -0.15075928155E+02  0.35674168728E+02  0.51100000000E-03 0. -1.
         22    1    1    0    0    0  0.10248152919E+02 -0.24532729419E+02 -0.14821218183E+02  0.30439250309E+02  0.00000000000E+00 0.  1.
</event>
<event>
 5    1  0.1102386E-009  0.9118800E+02  0.7818608E-02  0.1130116E+00
         25   -1    0    0    0    0  0.00000000000E+00  0.00000000000E+00  0.99999998245E-14  0.12500000000E+03  0.12500000000E+03 0.  0.
        -11    1    3    3    0    0 -0.38763472640E+02  0.20363634112E+01 -0.15915260597E+02  0.41952939196E+02  0.51100000000E-03 0.  1.
         23    2    1    0    0    0 -0.88142705085E+01 -0.14869727546E+02  0.24497057366E+02  0.95018239187E+02  0.90164071540E+02 0.  0.
         11    1    3    3    0    0  0.29949202131E+02 -0.16906090958E+02  0.40412317962E+02  0.53065299991E+02  0.51100000000E-03 0. -1.
         22    1    1    0    0    0  0.88142705085E+01  0.14869727546E+02 -0.24497057366E+02  0.29981760813E+02  0.00000000000E+00 0. -1.
</event>
<event>
 5    1  0.1102386E-009  0.9118800E+02  0.7818608E-02  0.1130116E+00
         25   -1    0    0    0    0  0.00000000000E+00  0.00000000000E+00  0.99999998245E-14  0.12500000000E+03  0.12500000000E+03 0.  0.
        -11    1    3    3    0    0 -0.50286255586E+02 -0.12098684945E+02 -0.15062911453E+00  0.51721449783E+02  0.51100000000E-03 0.  1.
         23    2    1    0    0    0 -0.83979787676E+01 -0.21221782578E+02  0.15557470602E+02  0.97378903087E+02  0.93379471896E+02 0.  0.
         11    1    3    3    0    0  0.41888276818E+02 -0.91230976334E+01  0.15708099717E+02  0.45657453304E+02  0.51100000000E-03 0. -1.
         22    1    1    0    0    0  0.83979787676E+01  0.21221782578E+02 -0.15557470602E+02  0.27621096913E+02  0.00000000000E+00 0.  1.
</event>
<event>
 5    1  0.1102386E-009  0.9118800E+02  0.7818608E-02  0.1130116E+00
         25   -1    0    0    0    0  0.00000000000E+00  0.00000000000E+00  0.99999998245E-14  0.12500000000E+03  0.12500000000E+03 0.  0.
        -11    1    3    3    0    0  0.54127223462E+02  0.16043405122E+02  0.17275066018E+02  0.59038759081E+02  0.51100000000E-03 0. -1.
         23    2    1    0    0    0  0.17390934337E+02  0.18228791465E+02  0.14469079605E+02  0.95946812567E+02  0.91442348733E+02 0.  0.
         11    1    3    3    0    0 -0.36736289125E+02  0.21853863434E+01 -0.28059864125E+01  0.36908053487E+02  0.51100000000E-03 0.  1.
         22    1    1    0    0    0 -0.17390934337E+02 -0.18228791465E+02 -0.14469079605E+02  0.29053187433E+02  0.00000000000E+00 0. -1.
</event>
<event>
 5    1  0.1102386E-009  0.9118800E+02  0.7818608E-02  0.1130116E+00
         25   -1    0    0    0    0  0.00000000000E+00  0.00000000000E+00  0.99999998245E-14  0.12500000000E+03  0.12500000000E+03 0.  0.
        -11    1    3    3    0    0  0.19417563755E+02 -0.29178098224E+02 -0.10039097221E+02  0.36458012445E+02  0.51100000000E-03 0.  1.
         23    2    1    0    0    0  0.53224691865E+01  0.21512336189E+02  0.18337298984E+02  0.96236032600E+02  0.91836856164E+02 0.  0.
         11    1    3    3    0    0 -0.14095094568E+02  0.50690434413E+02  0.28376396205E+02  0.59778020155E+02  0.51100000000E-03 0. -1.
         22    1    1    0    0    0 -0.53224691865E+01 -0.21512336189E+02 -0.18337298984E+02  0.28763967400E+02  0.00000000000E+00 0. -1.
</event>
<event>
 5    1  0.1102386E-009  0.9118800E+02  0.7818608E-02  0.1130116E+00
         25   -1    0    0    0    0  0.00000000000E+00  0.00000000000E+00  0.99999998245E-14  0.12500000000E+03  0.12500000000E+03 0.  0.
        -11    1    3    3    0    0 -0.50816018658E+01 -0.16127869744E+02  0.33505197450E+02  0.37530375916E+02  0.51100000000E-03 0. -1.
         23    2    1    0    0    0 -0.20614584987E+02  0.13607133916E+02 -0.14697054029E+02  0.96257720954E+02  0.91866371641E+02 0.  0.
         11    1    3    3    0    0 -0.15532983121E+02  0.29735003660E+02 -0.48202251479E+02  0.58727345038E+02  0.51100000000E-03 0.  1.
         22    1    1    0    0    0  0.20614584987E+02 -0.13607133916E+02  0.14697054029E+02  0.28742279046E+02  0.00000000000E+00 0.  1.
</event>
<event>
 5    1  0.1102386E-009  0.9118800E+02  0.7818608E-02  0.1130116E+00
         25   -1    0    0    0    0  0.00000000000E+00  0.00000000000E+00  0.99999998245E-14  0.12500000000E+03  0.12500000000E+03 0.  0.
        -11    1    3    3    0    0  0.24184082662E+02 -0.36226905783E+02  0.82490928441E+01  0.44331772916E+02  0.51100000000E-03 0. -1.
         23    2    1    0    0    0 -0.65414408555E+01 -0.13156141258E+02 -0.25564204636E+02  0.95514358410E+02  0.90849268586E+02 0.  0.
         11    1    3    3    0    0 -0.30725523517E+02  0.23070764525E+02 -0.33813297480E+02  0.51182585495E+02  0.51100000000E-03 0.  1.
         22    1    1    0    0    0  0.65414408555E+01  0.13156141258E+02  0.25564204636E+02  0.29485641590E+02  0.00000000000E+00 0.  1.
</event>
<event>
 5    1  0.1102386E-009  0.9118800E+02  0.7818608E-02  0.1130116E+00
         25   -1    0    0    0    0  0.00000000000E+00  0.00000000000E+00  0.99999998245E-14  0.12500000000E+03  0.12500000000E+03 0.  0.
        -11    1    3    3    0    0 -0.28820572051E+02  0.17600072294E+02 -0.17171973357E+02  0.37884886001E+02  0.51100000000E-03 0. -1.
         23    2    1    0    0    0  0.27187482433E+02  0.37240962989E+01 -0.87485524065E+01  0.96197825368E+02  0.91784837212E+02 0.  0.
         11    1    3    3    0    0  0.56008054484E+02 -0.13875975995E+02  0.84234209501E+01  0.58312939367E+02  0.51100000000E-03 0.  1.
         22    1    1    0    0    0 -0.27187482433E+02 -0.37240962989E+01  0.87485524065E+01  0.28802174632E+02  0.00000000000E+00 0.  1.
</event>
<event>
 5    1  0.1102386E-009  0.9118800E+02  0.7818608E-02  0.1130116E+00
         25   -1    0    0    0    0  0.00000000000E+00  0.00000000000E+00  0.99999998245E-14  0.12500000000E+03  0.12500000000E+03 0.  0.
        -11    1    3    3    0    0  0.21756635947E+02  0.56811241543E+02 -0.10191236026E+02  0.61682490753E+02  0.51100000000E-03 0.  1.
         23    2    1    0    0    0  0.15047395124E+02  0.23344746048E+02 -0.28104870757E+00  0.97224466586E+02  0.93172510144E+02 0.  0.
         11    1    3    3    0    0 -0.67092408226E+01 -0.33466495496E+02  0.99101873187E+01  0.35541975833E+02  0.51100000000E-03 0. -1.
         22    1    1    0    0    0 -0.15047395124E+02 -0.23344746048E+02  0.28104870757E+00  0.27775533414E+02  0.00000000000E+00 0.  1.
</event>
<event>
 5    1  0.1102386E-009  0.9118800E+02  0.7818608E-02  0.1130116E+00
         25   -1    0    0    0    0  0.00000000000E+00  0.00000000000E+00  0.99999998245E-14  0.12500000000E+03  0.12500000000E+03 0.  0.
        -11    1    3    3    0    0 -0.13136958479E+02  0.88455399568E+01 -0.34456313144E+02  0.37921771727E+02  0.51100000000E-03 0.  1.
         23    2    1    0    0    0 -0.32408112143E+02 -0.24885972781E+02 -0.21181212666E+02  0.78975646187E+02  0.64178746846E+02 0.  0.
         11    1    3    3    0    0 -0.19271153664E+02 -0.33731512738E+02  0.13275100479E+02  0.41053874459E+02  0.51100000000E-03 0. -1.
         22    1    1    0    0    0  0.32408112143E+02  0.24885972781E+02  0.21181212666E+02  0.46024353813E+02  0.00000000000E+00 0.  1.
</event>
<event>
 5    1  0.1102386E-009  0.9118800E+02  0.7818608E-02  0.1130116E+00
         25   -1    0    0    0    0  0.00000000000E+00  0.00000000000E+00  0.99999998245E-14  0.12500000000E+03  0.12500000000E+03 0.  0.
        -11    1    3    3    0    0  0.20314155859E+02 -0.29004612168E+02  0.47355382691E+01  0.35726149782E+02  0.51100000000E-03 0.  1.
         23    2    1    0    0    0 -0.20034250188E+02  0.16253024261E+02  0.11539647833E+02  0.96738799560E+02  0.92518646174E+02 0.  0.
         11    1    3    3    0    0 -0.40348406047E+02  0.45257636429E+02  0.68041095643E+01  0.61012649778E+02  0.51100000000E-03 0. -1.
         22    1    1    0    0    0  0.20034250188E+02 -0.16253024261E+02 -0.11539647833E+02  0.28261200440E+02  0.00000000000E+00 0. -1.
</event>
<event>
 5    1  0.1102386E-009  0.9118800E+02  0.7818608E-02  0.1130116E+00
         25   -1    0    0    0    0  0.00000000000E+00  0.00000000000E+00  0.99999998245E-14  0.12500000000E+03  0.12500000000E+03 0.  0.
        -11    1    3    3    0    0  0.48127076822E+02 -0.29588104783E+01 -0.20281092567E+02  0.52309586109E+02  0.51100000000E-03 0.  1.
         23    2    1    0    0    0  0.18566565359E+02  0.14016335709E+02  0.11619787247E+02  0.98996260430E+02  0.95519972297E+02 0.  0.
         11    1    3    3    0    0 -0.29560511463E+02  0.16975146188E+02  0.31900879814E+02  0.46686674322E+02  0.51100000000E-03 0. -1.
         22    1    1    0    0    0 -0.18566565359E+02 -0.14016335709E+02 -0.11619787247E+02  0.26003739570E+02  0.00000000000E+00 0.  1.
</event>
<event>
 5    1  0.1102386E-009  0.9118800E+02  0.7818608E-02  0.1130116E+00
         25   -1    0    0    0    0  0.00000000000E+00  0.00000000000E+00  0.99999998245E-14  0.12500000000E+03  0.12500000000E+03 0.  0.
        -11    1    3    3    0    0 -0.12332185072E+01  0.10532833293E+02 -0.50470215010E+02  0.51572318239E+02  0.51100000000E-03 0.  1.
         23    2    1    0    0    0 -0.24390414859E+01  0.27008754848E+02 -0.86531743679E+01  0.96534245338E+02  0.92241863243E+02 0.  0.
         11    1    3    3    0    0 -0.12058229787E+01  0.16475921555E+02  0.41817040642E+02  0.44961927099E+02  0.51100000000E-03 0. -1.
         22    1    1    0    0    0  0.24390414859E+01 -0.27008754848E+02  0.86531743679E+01  0.28465754662E+02  0.00000000000E+00 0.  1.
</event>
<event>
 5    1  0.1102386E-009  0.9118800E+02  0.7818608E-02  0.1130116E+00
         25   -1    0    0    0    0  0.00000000000E+00  0.00000000000E+00  0.99999998245E-14  0.12500000000E+03  0.12500000000E+03 0.  0.
        -11    1    3    3    0    0  0.62289382131E+00  0.30516842009E+02  0.24773239891E+02  0.39311309541E+02  0.51100000000E-03 0.  1.
         23    2    1    0    0    0  0.90456210719E+00 -0.25085775336E+02  0.14972431449E+02  0.95771793413E+02  0.91202786981E+02 0.  0.
         11    1    3    3    0    0  0.28166828588E+00 -0.55602617345E+02 -0.98008084418E+01  0.56460483872E+02  0.51100000000E-03 0. -1.
         22    1    1    0    0    0 -0.90456210719E+00  0.25085775336E+02 -0.14972431449E+02  0.29228206587E+02  0.00000000000E+00 0.  1.
</event>
<event>
 5    1  0.1102386E-009  0.9118800E+02  0.7818608E-02  0.1130116E+00
         25   -1    0    0    0    0  0.00000000000E+00  0.00000000000E+00  0.99999998245E-14  0.12500000000E+03  0.12500000000E+03 0.  0.
        -11    1    3    3    0    0 -0.30207336633E+02 -0.89637505415E+01  0.53228047134E+02  0.61855129231E+02  0.51100000000E-03 0.  1.
         23    2    1    0    0    0 -0.11166873303E+02 -0.89621424401E+01  0.28891103709E+02  0.92755389132E+02  0.86970381642E+02 0.  0.
         11    1    3    3    0    0  0.19040463330E+02  0.16081014527E-02 -0.24336943425E+02  0.30900259901E+02  0.51100000000E-03 0. -1.
         22    1    1    0    0    0  0.11166873303E+02  0.89621424401E+01 -0.28891103709E+02  0.32244610868E+02  0.00000000000E+00 0.  1.
</event>
<event>
 5    1  0.1102386E-009  0.9118800E+02  0.7818608E-02  0.1130116E+00
         25   -1    0    0    0    0  0.00000000000E+00  0.00000000000E+00  0.99999998245E-14  0.12500000000E+03  0.12500000000E+03 0.  0.
        -11    1    3    3    0    0 -0.19328289627E+02 -0.46341091917E+02 -0.38790927226E+01  0.50359973596E+02  0.51100000000E-03 0. -1.
         23    2    1    0    0    0 -0.23095976079E+02 -0.23233696868E+01 -0.16749706778E+02  0.96375275811E+02  0.92026186234E+02 0.  0.
         11    1    3    3    0    0 -0.37676864519E+01  0.44017722230E+02 -0.12870614056E+02  0.46015302215E+02  0.51100000000E-03 0.  1.
         22    1    1    0    0    0  0.23095976079E+02  0.23233696868E+01  0.16749706778E+02  0.28624724189E+02  0.00000000000E+00 0. -1.
</event>
<event>
 5    1  0.1102386E-009  0.9118800E+02  0.7818608E-02  0.1130116E+00
         25   -1    0    0    0    0  0.00000000000E+00  0.00000000000E+00  0.99999998245E-14  0.12500000000E+03  0.12500000000E+03 0.  0.
        -11    1    3    3    0    0 -0.11895359691E+02  0.17630298810E+02 -0.25994321102E+02  0.33586183887E+02  0.51100000000E-03 0.  1.
         23    2    1    0    0    0  0.14663751874E+02  0.64171663320E+01  0.26825852796E+02  0.93761689851E+02  0.88404878048E+02 0.  0.
         11    1    3    3    0    0  0.26559111564E+02 -0.11213132478E+02  0.52820173898E+02  0.60175505963E+02  0.51100000000E-03 0. -1.
         22    1    1    0    0    0 -0.14663751874E+02 -0.64171663320E+01 -0.26825852796E+02  0.31238310149E+02  0.00000000000E+00 0. -1.
</event>
<event>
 5    1  0.1102386E-009  0.9118800E+02  0.7818608E-02  0.1130116E+00
         25   -1    0    0    0    0  0.00000000000E+00  0.00000000000E+00  0.99999998245E-14  0.12500000000E+03  0.12500000000E+03 0.  0.
        -11    1    3    3    0    0  0.21689886483E+02 -0.88337676321E+01 -0.44799252222E+02  0.50551554142E+02  0.51100000000E-03 0. -1.
         23    2    1    0    0    0 -0.16917994262E+02 -0.10496428960E+02 -0.21599032750E+02  0.95624640147E+02  0.91000879319E+02 0.  0.
         11    1    3    3    0    0 -0.38607880745E+02 -0.16626613279E+01  0.23200219472E+02  0.45073086006E+02  0.51100000000E-03 0.  1.
         22    1    1    0    0    0  0.16917994262E+02  0.10496428960E+02  0.21599032750E+02  0.29375359853E+02  0.00000000000E+00 0.  1.
</event>
<event>
 5    1  0.1102386E-009  0.9118800E+02  0.7818608E-02  0.1130116E+00
         25   -1    0    0    0    0  0.00000000000E+00  0.00000000000E+00  0.99999998245E-14  0.12500000000E+03  0.12500000000E+03 0.  0.
        -11    1    3    3    0    0  0.20412028306E+02 -0.18836090253E+02 -0.26155827479E+02  0.38152018387E+02  0.51100000000E-03 0.  1.
         23    2    1    0    0    0 -0.22163169757E+02  0.13725493467E+02  0.22872831868E+01  0.98830801904E+02  0.95303202863E+02 0.  0.
         11    1    3    3    0    0 -0.42575198064E+02  0.32561583720E+02  0.28443110666E+02  0.60678783517E+02  0.51100000000E-03 0. -1.
         22    1    1    0    0    0  0.22163169757E+02 -0.13725493467E+02 -0.22872831868E+01  0.26169198096E+02  0.00000000000E+00 0. -1.
</event>
<event>
 5    1  0.1102386E-009  0.9118800E+02  0.7818608E-02  0.1130116E+00
         25   -1    0    0    0    0  0.00000000000E+00  0.00000000000E+00  0.99999998245E-14  0.12500000000E+03  0.12500000000E+03 0.  0.
        -11    1    3    3    0    0 -0.39664688031E+02  0.27419464412E+02  0.20695993523E+02  0.52473218439E+02  0.51100000000E-03 0. -1.
         23    2    1    0    0    0 -0.27403496464E+02 -0.10137997931E+02  0.34611342001E+01  0.95577048576E+02  0.90935483416E+02 0.  0.
         11    1    3    3    0    0  0.12261191566E+02 -0.37557462344E+02 -0.17234859323E+02  0.43103830137E+02  0.51100000000E-03 0.  1.
         22    1    1    0    0    0  0.27403496464E+02  0.10137997931E+02 -0.34611342001E+01  0.29422951424E+02  0.00000000000E+00 0. -1.
</event>
<event>
 5    1  0.1102386E-009  0.9118800E+02  0.7818608E-02  0.1130116E+00
         25   -1    0    0    0    0  0.00000000000E+00  0.00000000000E+00  0.99999998245E-14  0.12500000000E+03  0.12500000000E+03 0.  0.
        -11    1    3    3    0    0  0.51248063531E+02 -0.28253702711E+01 -0.11190647981E+02  0.52531679350E+02  0.51100000000E-03 0.  1.
         23    2    1    0    0    0  0.11651572946E+02 -0.21630925273E+02 -0.14464418991E+02  0.96489028479E+02  0.92180568016E+02 0.  0.
         11    1    3    3    0    0 -0.39596490585E+02 -0.18805555002E+02 -0.32737710101E+01  0.43957349129E+02  0.51100000000E-03 0. -1.
         22    1    1    0    0    0 -0.11651572946E+02  0.21630925273E+02  0.14464418991E+02  0.28510971521E+02  0.00000000000E+00 0.  1.
</event>
<event>
 5    1  0.1102386E-009  0.9118800E+02  0.7818608E-02  0.1130116E+00
         25   -1    0    0    0    0  0.00000000000E+00  0.00000000000E+00  0.99999998245E-14  0.12500000000E+03  0.12500000000E+03 0.  0.
        -11    1    3    3    0    0 -0.15424196166E+02  0.44687361669E+02 -0.22305210788E+02  0.52272254101E+02  0.51100000000E-03 0.  1.
         23    2    1    0    0    0 -0.15563821593E+00  0.81345804617E+01 -0.31102541096E+02  0.92850914708E+02  0.87107569573E+02 0.  0.
         11    1    3    3    0    0  0.15268557950E+02 -0.36552781207E+02 -0.87973303080E+01  0.40578660607E+02  0.51100000000E-03 0. -1.
         22    1    1    0    0    0  0.15563821593E+00 -0.81345804617E+01  0.31102541096E+02  0.32149085292E+02  0.00000000000E+00 0.  1.
</event>
<event>
 5    1  0.1102386E-009  0.9118800E+02  0.7818608E-02  0.1130116E+00
         25   -1    0    0    0    0  0.00000000000E+00  0.00000000000E+00  0.99999998245E-14  0.12500000000E+03  0.12500000000E+03 0.  0.
        -11    1    3    3    0    0 -0.24761029238E+02 -0.24064699808E+02  0.23941424289E+02  0.42016784064E+02  0.51100000000E-03 0. -1.
         23    2    1    0    0    0 -0.91530604631E+01 -0.88601747319E+01 -0.25747549710E+02  0.96273400337E+02  0.91887703662E+02 0.  0.
         11    1    3    3    0    0  0.15607968775E+02  0.15204525076E+02 -0.49688973999E+02  0.54256616274E+02  0.51100000000E-03 0.  1.
         22    1    1    0    0    0  0.91530604631E+01  0.88601747319E+01  0.25747549710E+02  0.28726599663E+02  0.00000000000E+00 0.  1.
</event>
<event>
 5    1  0.1102386E-009  0.9118800E+02  0.7818608E-02  0.1130116E+00
         25   -1    0    0    0    0  0.00000000000E+00  0.00000000000E+00  0.99999998245E-14  0.12500000000E+03  0.12500000000E+03 0.  0.
        -11    1    3    3    0    0 -0.22809880632E+02 -0.48911119378E+02  0.11563519258E+02  0.55193325966E+02  0.51100000000E-03 0.  1.
         23    2    1    0    0    0  0.62750118347E+01 -0.27282919350E+02 -0.73213879423E+01  0.96063238205E+02  0.91601362169E+02 0.  0.
         11    1    3    3    0    0  0.29084892466E+02  0.21628200028E+02 -0.18884907200E+02  0.40869912239E+02  0.51100000000E-03 0. -1.
         22    1    1    0    0    0 -0.62750118347E+01  0.27282919350E+02  0.73213879423E+01  0.28936761795E+02  0.00000000000E+00 0. -1.
</event>
<event>
 5    1  0.1102386E-009  0.9118800E+02  0.7818608E-02  0.1130116E+00
         25   -1    0    0    0    0  0.00000000000E+00  0.00000000000E+00  0.99999998245E-14  0.12500000000E+03  0.12500000000E+03 0.  0.
        -11    1    3    3    0    0  0.14006935889E+02 -0.41471429977E+02  0.19190453258E+02  0.47794845473E+02  0.51100000000E-03 0.  1.
         23    2    1    0    0    0  0.25319432687E+02 -0.12011481173E+02 -0.14068673170E+02  0.93642753368E+02  0.88236547655E+02 0.  0.
         11    1    3    3    0    0  0.11312496798E+02  0.29459948804E+02 -0.33259126428E+02  0.45847907895E+02  0.51100000000E-03 0. -1.
         22    1    1    0    0    0 -0.25319432687E+02  0.12011481173E+02  0.14068673170E+02  0.31357246632E+02  0.00000000000E+00 0. -1.
</event>
<event>
 5    1  0.1102386E-009  0.9118800E+02  0.7818608E-02  0.1130116E+00
         25   -1    0    0    0    0  0.00000000000E+00  0.00000000000E+00  0.99999998245E-14  0.12500000000E+03  0.12500000000E+03 0.  0.
        -11    1    3    3    0    0  0.46011701610E+02 -0.27192953941E+02  0.25590492895E+02  0.59257124094E+02  0.51100000000E-03 0. -1.
         23    2    1    0    0    0  0.25340998978E+02  0.34551822384E+00  0.16102988780E+02  0.94973480726E+02  0.90101998766E+02 0.  0.
         11    1    3    3    0    0 -0.20670702632E+02  0.27538472165E+02 -0.94875041154E+01  0.35716356632E+02  0.51100000000E-03 0.  1.
         22    1    1    0    0    0 -0.25340998978E+02 -0.34551822384E+00 -0.16102988780E+02  0.30026519274E+02  0.00000000000E+00 0. -1.
</event>
<event>
 5    1  0.1102386E-009  0.9118800E+02  0.7818608E-02  0.1130116E+00
         25   -1    0    0    0    0  0.00000000000E+00  0.00000000000E+00  0.99999998245E-14  0.12500000000E+03  0.12500000000E+03 0.  0.
        -11    1    3    3    0    0 -0.62695546843E+01  0.37068629659E+02  0.51223105855E+01  0.37942439124E+02  0.51100000000E-03 0. -1.
         23    2    1    0    0    0 -0.17428954715E+02 -0.29740300157E+01 -0.28536856632E+02  0.91429693129E+02  0.85043655155E+02 0.  0.
         11    1    3    3    0    0 -0.11159400030E+02 -0.40042659674E+02 -0.33659167218E+02  0.53487254004E+02  0.51100000000E-03 0.  1.
         22    1    1    0    0    0  0.17428954715E+02  0.29740300157E+01  0.28536856632E+02  0.33570306871E+02  0.00000000000E+00 0. -1.
</event>
<event>
 5    1  0.1102386E-009  0.9118800E+02  0.7818608E-02  0.1130116E+00
         25   -1    0    0    0    0  0.00000000000E+00  0.00000000000E+00  0.99999998245E-14  0.12500000000E+03  0.12500000000E+03 0.  0.
        -11    1    3    3    0    0  0.33134982436E+02  0.90641032551E+00  0.52389149802E+01  0.33558827023E+02  0.51100000000E-03 0.  1.
         23    2    1    0    0    0 -0.24009028991E+02 -0.17984296602E+02 -0.49373315631E+01  0.94598591474E+02  0.89580398908E+02 0.  0.
         11    1    3    3    0    0 -0.57144011428E+02 -0.18890706928E+02 -0.10176246543E+02  0.61039764451E+02  0.51100000000E-03 0. -1.
         22    1    1    0    0    0  0.24009028991E+02  0.17984296602E+02  0.49373315631E+01  0.30401408526E+02  0.00000000000E+00 0. -1.
</event>
<event>
 5    1  0.1102386E-009  0.9118800E+02  0.7818608E-02  0.1130116E+00
         25   -1    0    0    0    0  0.00000000000E+00  0.00000000000E+00  0.99999998245E-14  0.12500000000E+03  0.12500000000E+03 0.  0.
        -11    1    3    3    0    0  0.30589043550E+02 -0.38370246503E+02 -0.19139179437E+02  0.52671373551E+02  0.51100000000E-03 0.  1.
         23    2    1    0    0    0  0.25060190560E+02  0.36338399479E+01 -0.15763547842E+02  0.95172036874E+02  0.90377039222E+02 0.  0.
         11    1    3    3    0    0 -0.55288529902E+01  0.42004086451E+02  0.33756315943E+01  0.42500663323E+02  0.51100000000E-03 0. -1.
         22    1    1    0    0    0 -0.25060190560E+02 -0.36338399479E+01  0.15763547842E+02  0.29827963126E+02  0.00000000000E+00 0.  1.
</event>
<event>
 5    1  0.1102386E-009  0.9118800E+02  0.7818608E-02  0.1130116E+00
         25   -1    0    0    0    0  0.00000000000E+00  0.00000000000E+00  0.99999998245E-14  0.12500000000E+03  0.12500000000E+03 0.  0.
        -11    1    3    3    0    0 -0.16266430126E+01  0.52027462398E+02  0.29429804227E+02  0.59796456318E+02  0.51100000000E-03 0. -1.
         23    2    1    0    0    0 -0.10576859378E+02  0.26259995048E+02  0.53354698023E+01  0.96191589210E+02  0.91776343916E+02 0.  0.
         11    1    3    3    0    0 -0.89502163656E+01 -0.25767467350E+02 -0.24094334425E+02  0.36395132892E+02  0.51100000000E-03 0.  1.
         22    1    1    0    0    0  0.10576859378E+02 -0.26259995048E+02 -0.53354698023E+01  0.28808410790E+02  0.00000000000E+00 0. -1.
</event>
<event>
 5    1  0.1102386E-009  0.9118800E+02  0.7818608E-02  0.1130116E+00
         25   -1    0    0    0    0  0.00000000000E+00  0.00000000000E+00  0.99999998245E-14  0.12500000000E+03  0.12500000000E+03 0.  0.
        -11    1    3    3    0    0  0.91472830958E+01 -0.41098012405E+02 -0.45933688906E+01  0.42353493949E+02  0.51100000000E-03 0. -1.
         23    2    1    0    0    0 -0.19014723634E+02 -0.10969539206E+02  0.23952235980E+02  0.92509999789E+02  0.86616972628E+02 0.  0.
         11    1    3    3    0    0 -0.28162006730E+02  0.30128473199E+02  0.28545604871E+02  0.50156505840E+02  0.51100000000E-03 0.  1.
         22    1    1    0    0    0  0.19014723634E+02  0.10969539206E+02 -0.23952235980E+02  0.32490000211E+02  0.00000000000E+00 0.  1.
</event>
<event>
 5    1  0.1102386E-009  0.9118800E+02  0.7818608E-02  0.1130116E+00
         25   -1    0    0    0    0  0.00000000000E+00  0.00000000000E+00  0.99999998245E-14  0.12500000000E+03  0.12500000000E+03 0.  0.
        -11    1    3    3    0    0  0.69126426959E+01  0.33496872858E+02  0.20839683550E+02  0.40051436067E+02  0.51100000000E-03 0.  1.
         23    2    1    0    0    0  0.44217497154E+01 -0.22350434604E+02  0.17889919650E+02  0.96032034545E+02  0.91558771487E+02 0.  0.
         11    1    3    3    0    0 -0.24908929805E+01 -0.55847307462E+02 -0.29497639001E+01  0.55980598478E+02  0.51100000000E-03 0. -1.
         22    1    1    0    0    0 -0.44217497154E+01  0.22350434604E+02 -0.17889919650E+02  0.28967965455E+02  0.00000000000E+00 0.  1.
</event>
<event>
 5    1  0.1102386E-009  0.9118800E+02  0.7818608E-02  0.1130116E+00
         25   -1    0    0    0    0  0.00000000000E+00  0.00000000000E+00  0.99999998245E-14  0.12500000000E+03  0.12500000000E+03 0.  0.
        -11    1    3    3    0    0 -0.56493619474E+02  0.15027400798E+02  0.10996592509E+02  0.59483416706E+02  0.51100000000E-03 0. -1.
         23    2    1    0    0    0 -0.18872811148E+02  0.13189515011E+02  0.15241459686E+02  0.97387531798E+02  0.93391021782E+02 0.  0.
         11    1    3    3    0    0  0.37620808326E+02 -0.18378857865E+01  0.42448671764E+01  0.37904115092E+02  0.51100000000E-03 0.  1.
         22    1    1    0    0    0  0.18872811148E+02 -0.13189515011E+02 -0.15241459686E+02  0.27612468202E+02  0.00000000000E+00 0. -1.
</event>
<event>
 5    1  0.1102386E-009  0.9118800E+02  0.7818608E-02  0.1130116E+00
         25   -1    0    0    0    0  0.00000000000E+00  0.00000000000E+00  0.99999998245E-14  0.12500000000E+03  0.12500000000E+03 0.  0.
        -11    1    3    3    0    0 -0.25831140847E+01  0.48949807079E+02  0.59069294327E+01  0.49372542035E+02  0.51100000000E-03 0.  1.
         23    2    1    0    0    0  0.11599572550E+02  0.14437807013E+02 -0.22201642755E+02  0.96087834814E+02  0.91634920765E+02 0.  0.
         11    1    3    3    0    0  0.14182686635E+02 -0.34512000066E+02 -0.28108572188E+02  0.46715292779E+02  0.51100000000E-03 0. -1.
         22    1    1    0    0    0 -0.11599572550E+02 -0.14437807013E+02  0.22201642755E+02  0.28912165186E+02  0.00000000000E+00 0. -1.
</event>
<event>
 5    1  0.1102386E-009  0.9118800E+02  0.7818608E-02  0.1130116E+00
         25   -1    0    0    0    0  0.00000000000E+00  0.00000000000E+00  0.99999998245E-14  0.12500000000E+03  0.12500000000E+03 0.  0.
        -11    1    3    3    0    0  0.52975766927E+02 -0.10093076700E+02  0.14644006646E+02  0.55881562341E+02  0.51100000000E-03 0.  1.
         23    2    1    0    0    0  0.23294891885E+02  0.15494586147E+02  0.97431715074E+01  0.95374612596E+02  0.90656787661E+02 0.  0.
         11    1    3    3    0    0 -0.29680875041E+02  0.25587662847E+02 -0.49008351382E+01  0.39493050256E+02  0.51100000000E-03 0. -1.
         22    1    1    0    0    0 -0.23294891885E+02 -0.15494586147E+02 -0.97431715074E+01  0.29625387404E+02  0.00000000000E+00 0.  1.
</event>
<event>
 5    1  0.1102386E-009  0.9118800E+02  0.7818608E-02  0.1130116E+00
         25   -1    0    0    0    0  0.00000000000E+00  0.00000000000E+00  0.99999998245E-14  0.12500000000E+03  0.12500000000E+03 0.  0.
        -11    1    3    3    0    0  0.55210180474E+02  0.25740381741E+02 -0.77669759768E+01  0.61408934173E+02  0.51100000000E-03 0.  1.
         23    2    1    0    0    0  0.29517731297E+02  0.14872005106E+02  0.40402331092E+01  0.91701404228E+02  0.85442091834E+02 0.  0.
         11    1    3    3    0    0 -0.25692449177E+02 -0.10868376635E+02  0.11807209086E+02  0.30292470055E+02  0.51100000000E-03 0. -1.
         22    1    1    0    0    0 -0.29517731297E+02 -0.14872005106E+02 -0.40402331092E+01  0.33298595772E+02  0.00000000000E+00 0.  1.
</event>
<event>
 5    1  0.1102386E-009  0.9118800E+02  0.7818608E-02  0.1130116E+00
         25   -1    0    0    0    0  0.00000000000E+00  0.00000000000E+00  0.99999998245E-14  0.12500000000E+03  0.12500000000E+03 0.  0.
        -11    1    3    3    0    0  0.24945818223E+02  0.16386081147E+02  0.25944561388E+02  0.39546400190E+02  0.51100000000E-03 0. -1.
         23    2    1    0    0    0 -0.16497676274E+02  0.19203602887E+02 -0.13047126999E+02  0.96518791999E+02  0.92220919534E+02 0.  0.
         11    1    3    3    0    0 -0.41443494497E+02  0.28175217404E+01 -0.38991688387E+02  0.56972391808E+02  0.51100000000E-03 0.  1.
         22    1    1    0    0    0  0.16497676274E+02 -0.19203602887E+02  0.13047126999E+02  0.28481208001E+02  0.00000000000E+00 0.  1.
</event>
<event>
 5    1  0.1102386E-009  0.9118800E+02  0.7818608E-02  0.1130116E+00
         25   -1    0    0    0    0  0.00000000000E+00  0.00000000000E+00  0.99999998245E-14  0.12500000000E+03  0.12500000000E+03 0.  0.
        -11    1    3    3    0    0 -0.15767982507E+02  0.38374311928E+01  0.28948783808E+02  0.33187154664E+02  0.51100000000E-03 0.  1.
         23    2    1    0    0    0  0.22272810991E+02 -0.16295088407E+02 -0.14055610122E+02  0.94029559391E+02  0.88782824058E+02 0.  0.
         11    1    3    3    0    0  0.38040793498E+02 -0.20132519600E+02 -0.43004393930E+02  0.60842404727E+02  0.51100000000E-03 0. -1.
         22    1    1    0    0    0 -0.22272810991E+02  0.16295088407E+02  0.14055610122E+02  0.30970440609E+02  0.00000000000E+00 0. -1.
</event>
<event>
 5    1  0.1102386E-009  0.9118800E+02  0.7818608E-02  0.1130116E+00
         25   -1    0    0    0    0  0.00000000000E+00  0.00000000000E+00  0.99999998245E-14  0.12500000000E+03  0.12500000000E+03 0.  0.
        -11    1    3    3    0    0  0.11023492349E+02 -0.41409985220E+02 -0.43974181345E+02  0.61400593521E+02  0.51100000000E-03 0.  1.
         23    2    1    0    0    0 -0.10600660288E+01 -0.24609474856E+02 -0.18657272434E+02  0.94099452960E+02  0.88881174835E+02 0.  0.
         11    1    3    3    0    0 -0.12083558378E+02  0.16800510364E+02  0.25316908911E+02  0.32698859439E+02  0.51100000000E-03 0. -1.
         22    1    1    0    0    0  0.10600660288E+01  0.24609474856E+02  0.18657272434E+02  0.30900547040E+02  0.00000000000E+00 0.  1.
</event>
<event>
 5    1  0.1102386E-009  0.9118800E+02  0.7818608E-02  0.1130116E+00
         25   -1    0    0    0    0  0.00000000000E+00  0.00000000000E+00  0.99999998245E-14  0.12500000000E+03  0.12500000000E+03 0.  0.
        -11    1    3    3    0    0 -0.37226587969E+02 -0.22976518693E+02 -0.25558366911E+02  0.50665268010E+02  0.51100000000E-03 0. -1.
         23    2    1    0    0    0 -0.30994194482E+02 -0.13227139365E+02  0.11425587641E+02  0.89417119843E+02  0.82032188564E+02 0.  0.
         11    1    3    3    0    0  0.62323934875E+01  0.97493793284E+01  0.36983954552E+02  0.38751851833E+02  0.51100000000E-03 0.  1.
         22    1    1    0    0    0  0.30994194482E+02  0.13227139365E+02 -0.11425587641E+02  0.35582880157E+02  0.00000000000E+00 0. -1.
</event>
<event>
 5    1  0.1102386E-009  0.9118800E+02  0.7818608E-02  0.1130116E+00
         25   -1    0    0    0    0  0.00000000000E+00  0.00000000000E+00  0.99999998245E-14  0.12500000000E+03  0.12500000000E+03 0.  0.
        -11    1    3    3    0    0  0.50016491744E+02  0.14385585656E+02 -0.12626715523E+02  0.53553977128E+02  0.51100000000E-03 0. -1.
         23    2    1    0    0    0  0.10543730785E+02  0.17273121226E+02 -0.22895760585E+02  0.94442728713E+02  0.89362644199E+02 0.  0.
         11    1    3    3    0    0 -0.39472760960E+02  0.28875355698E+01 -0.10269045062E+02  0.40888751585E+02  0.51100000000E-03 0.  1.
         22    1    1    0    0    0 -0.10543730785E+02 -0.17273121226E+02  0.22895760585E+02  0.30557271287E+02  0.00000000000E+00 0. -1.
</event>
<event>
 5    1  0.1102386E-009  0.9118800E+02  0.7818608E-02  0.1130116E+00
         25   -1    0    0    0    0  0.00000000000E+00  0.00000000000E+00  0.99999998245E-14  0.12500000000E+03  0.12500000000E+03 0.  0.
        -11    1    3    3    0    0  0.39861270883E+01 -0.23570718381E+02  0.50729961373E+02  0.56080272425E+02  0.51100000000E-03 0. -1.
         23    2    1    0    0    0  0.28284988918E+01 -0.27319756342E+02  0.11968557315E+02  0.95039762071E+02  0.90193905103E+02 0.  0.
         11    1    3    3    0    0 -0.11576281964E+01 -0.37490379610E+01 -0.38761404058E+02  0.38959489646E+02  0.51100000000E-03 0.  1.
         22    1    1    0    0    0 -0.28284988918E+01  0.27319756342E+02 -0.11968557315E+02  0.29960237929E+02  0.00000000000E+00 0. -1.
</event>
<event>
 5    1  0.1102386E-009  0.9118800E+02  0.7818608E-02  0.1130116E+00
         25   -1    0    0    0    0  0.00000000000E+00  0.00000000000E+00  0.99999998245E-14  0.12500000000E+03  0.12500000000E+03 0.  0.
        -11    1    3    3    0    0  0.33667927580E+02  0.12120747851E+02  0.61171240147E+01  0.36302356431E+02  0.51100000000E-03 0. -1.
         23    2    1    0    0    0 -0.15239164886E+02 -0.22966682227E+02 -0.33520185881E+01  0.97234253701E+02  0.93185639587E+02 0.  0.
         11    1    3    3    0    0 -0.48907092466E+02 -0.35087430078E+02 -0.94691426028E+01  0.60931897269E+02  0.51100000000E-03 0.  1.
         22    1    1    0    0    0  0.15239164886E+02  0.22966682227E+02  0.33520185881E+01  0.27765746299E+02  0.00000000000E+00 0.  1.
</event>
<event>
 5    1  0.1102386E-009  0.9118800E+02  0.7818608E-02  0.1130116E+00
         25   -1    0    0    0    0  0.00000000000E+00  0.00000000000E+00  0.99999998245E-14  0.12500000000E+03  0.12500000000E+03 0.  0.
        -11    1    3    3    0    0 -0.16476147830E+02  0.25576281791E+02 -0.12178759464E+02  0.32770898980E+02  0.51100000000E-03 0.  1.
         23    2    1    0    0    0  0.79028621006E+01 -0.14341644933E+02  0.26757348870E+02  0.93629731794E+02  0.88218098759E+02 0.  0.
         11    1    3    3    0    0  0.24379009930E+02 -0.39917926724E+02  0.38936108334E+02  0.60858832815E+02  0.51100000000E-03 0. -1.
         22    1    1    0    0    0 -0.79028621006E+01  0.14341644933E+02 -0.26757348870E+02  0.31370268206E+02  0.00000000000E+00 0. -1.
</event>
<event>
 5    1  0.1102386E-009  0.9118800E+02  0.7818608E-02  0.1130116E+00
         25   -1    0    0    0    0  0.00000000000E+00  0.00000000000E+00  0.99999998245E-14  0.12500000000E+03  0.12500000000E+03 0.  0.
        -11    1    3    3    0    0 -0.24827612078E+02  0.14563164829E+02  0.33007904799E+02  0.43795180908E+02  0.51100000000E-03 0.  1.
         23    2    1    0    0    0  0.10702990866E+02  0.30472995703E+02  0.37683134283E+01  0.92482963439E+02  0.86577946729E+02 0.  0.
         11    1    3    3    0    0  0.35530602944E+02  0.15909830875E+02 -0.29239591370E+02  0.48687782531E+02  0.51100000000E-03 0. -1.
         22    1    1    0    0    0 -0.10702990866E+02 -0.30472995703E+02 -0.37683134283E+01  0.32517036561E+02  0.00000000000E+00 0.  1.
</event>
<event>
 5    1  0.1102386E-009  0.9118800E+02  0.7818608E-02  0.1130116E+00
         25   -1    0    0    0    0  0.00000000000E+00  0.00000000000E+00  0.99999998245E-14  0.12500000000E+03  0.12500000000E+03 0.  0.
        -11    1    3    3    0    0  0.10360747210E+02 -0.25701484781E+02  0.11398533372E+02  0.29963944433E+02  0.51100000000E-03 0.  1.
         23    2    1    0    0    0  0.29350574136E+02  0.62020287061E+00  0.41456801250E+02  0.74201306872E+02  0.54086289556E+02 0.  0.
         11    1    3    3    0    0  0.18989826926E+02  0.26321687651E+02  0.30058267878E+02  0.44237362439E+02  0.51100000000E-03 0. -1.
         22    1    1    0    0    0 -0.29350574136E+02 -0.62020287061E+00 -0.41456801250E+02  0.50798693128E+02  0.00000000000E+00 0. -1.
</event>
<event>
 5    1  0.1102386E-009  0.9118800E+02  0.7818608E-02  0.1130116E+00
         25   -1    0    0    0    0  0.00000000000E+00  0.00000000000E+00  0.99999998245E-14  0.12500000000E+03  0.12500000000E+03 0.  0.
        -11    1    3    3    0    0  0.28871897635E+02  0.45824876777E+02 -0.10998297323E+02  0.55267244810E+02  0.51100000000E-03 0.  1.
         23    2    1    0    0    0  0.25342128847E+02  0.10558133451E+02  0.91808085464E+01  0.96052030778E+02  0.91586067142E+02 0.  0.
         11    1    3    3    0    0 -0.35297687873E+01 -0.35266743326E+02  0.20179105870E+02  0.40784785968E+02  0.51100000000E-03 0. -1.
         22    1    1    0    0    0 -0.25342128847E+02 -0.10558133451E+02 -0.91808085464E+01  0.28947969222E+02  0.00000000000E+00 0.  1.
</event>
<event>
 5    1  0.1102386E-009  0.9118800E+02  0.7818608E-02  0.1130116E+00
         25   -1    0    0    0    0  0.00000000000E+00  0.00000000000E+00  0.99999998245E-14  0.12500000000E+03  0.12500000000E+03 0.  0.
        -11    1    3    3    0    0 -0.10378974782E+02 -0.58641843210E+02 -0.87923042816E+01  0.60198783272E+02  0.51100000000E-03 0. -1.
         23    2    1    0    0    0 -0.57019139595E+01 -0.23940835706E+02 -0.15589771645E+02  0.95867262109E+02  0.91333539990E+02 0.  0.
         11    1    3    3    0    0  0.46770608221E+01  0.34701007504E+02 -0.67974673636E+01  0.35668478837E+02  0.51100000000E-03 0.  1.
         22    1    1    0    0    0  0.57019139595E+01  0.23940835706E+02  0.15589771645E+02  0.29132737891E+02  0.00000000000E+00 0. -1.
</event>
<event>
 5    1  0.1102386E-009  0.9118800E+02  0.7818608E-02  0.1130116E+00
         25   -1    0    0    0    0  0.00000000000E+00  0.00000000000E+00  0.99999998245E-14  0.12500000000E+03  0.12500000000E+03 0.  0.
        -11    1    3    3    0    0  0.16270567631E+01 -0.36141934686E+02 -0.11509951943E+01  0.36196844431E+02  0.51100000000E-03 0.  1.
         23    2    1    0    0    0 -0.12727183373E+02  0.17180549126E+02  0.20375486521E+02  0.95465056021E+02  0.90781407816E+02 0.  0.
         11    1    3    3    0    0 -0.14354240136E+02  0.53322483812E+02  0.21526481716E+02  0.59268211590E+02  0.51100000000E-03 0. -1.
         22    1    1    0    0    0  0.12727183373E+02 -0.17180549126E+02 -0.20375486521E+02  0.29534943979E+02  0.00000000000E+00 0. -1.
</event>
<event>
 5    1  0.1102386E-009  0.9118800E+02  0.7818608E-02  0.1130116E+00
         25   -1    0    0    0    0  0.00000000000E+00  0.00000000000E+00  0.99999998245E-14  0.12500000000E+03  0.12500000000E+03 0.  0.
        -11    1    3    3    0    0  0.28207332618E+01 -0.15159416469E+01  0.36973052203E+02  0.37111469989E+02  0.51100000000E-03 0.  1.
         23    2    1    0    0    0 -0.21741405265E+02 -0.19128627422E+02 -0.11175215151E+02  0.93960049555E+02  0.88684905078E+02 0.  0.
         11    1    3    3    0    0 -0.24562138527E+02 -0.17612685775E+02 -0.48148267355E+02  0.56848579567E+02  0.51100000000E-03 0. -1.
         22    1    1    0    0    0  0.21741405265E+02  0.19128627422E+02  0.11175215151E+02  0.31039950445E+02  0.00000000000E+00 0. -1.
</event>
<event>
 5    1  0.1102386E-009  0.9118800E+02  0.7818608E-02  0.1130116E+00
         25   -1    0    0    0    0  0.00000000000E+00  0.00000000000E+00  0.99999998245E-14  0.12500000000E+03  0.12500000000E+03 0.  0.
        -11    1    3    3    0    0 -0.24621561990E+02 -0.22969354187E+02  0.29807291472E+01  0.33803805897E+02  0.51100000000E-03 0.  1.
         23    2    1    0    0    0  0.25104017074E+02  0.14058786822E+02  0.48081615109E+01  0.95828445752E+02  0.91280400075E+02 0.  0.
         11    1    3    3    0    0  0.49725579065E+02  0.37028141008E+02  0.18274323637E+01  0.62024639855E+02  0.51100000000E-03 0. -1.
         22    1    1    0    0    0 -0.25104017074E+02 -0.14058786822E+02 -0.48081615109E+01  0.29171554248E+02  0.00000000000E+00 0. -1.
</event>
<event>
 5    1  0.1102386E-009  0.9118800E+02  0.7818608E-02  0.1130116E+00
         25   -1    0    0    0    0  0.00000000000E+00  0.00000000000E+00  0.99999998245E-14  0.12500000000E+03  0.12500000000E+03 0.  0.
        -11    1    3    3    0    0  0.37688549937E+02  0.40465533843E+02  0.67734582542E+01  0.55711452705E+02  0.51100000000E-03 0. -1.
         23    2    1    0    0    0  0.13719405787E+01  0.24316619533E+02  0.15132843396E+02  0.96326263660E+02  0.91959588488E+02 0.  0.
         11    1    3    3    0    0 -0.36316609358E+02 -0.16148914310E+02  0.83593851419E+01  0.40614810955E+02  0.51100000000E-03 0.  1.
         22    1    1    0    0    0 -0.13719405787E+01 -0.24316619533E+02 -0.15132843396E+02  0.28673736340E+02  0.00000000000E+00 0. -1.
</event>
<event>
 5    1  0.1102386E-009  0.9118800E+02  0.7818608E-02  0.1130116E+00
         25   -1    0    0    0    0  0.00000000000E+00  0.00000000000E+00  0.99999998245E-14  0.12500000000E+03  0.12500000000E+03 0.  0.
        -11    1    3    3    0    0 -0.42804808553E+02 -0.14748920379E+02 -0.27192198460E+02  0.52812857761E+02  0.51100000000E-03 0. -1.
         23    2    1    0    0    0 -0.66813054399E+00 -0.16486437311E+02 -0.25004601745E+02  0.95042044094E+02  0.90197067711E+02 0.  0.
         11    1    3    3    0    0  0.42136678009E+02 -0.17375169324E+01  0.21875967150E+01  0.42229186333E+02  0.51100000000E-03 0.  1.
         22    1    1    0    0    0  0.66813054399E+00  0.16486437311E+02  0.25004601745E+02  0.29957955906E+02  0.00000000000E+00 0. -1.
</event>
<event>
 4    1  0.1102386E-009  0.9118800E+02  0.7818608E-02  0.1130116E+00
         25   -1    0    0    0    0  0.00000000000E+00  0.00000000000E+00  0.99999998245E-14  0.12500000000E+03  0.12500000000E+03 0.  0.
        -11    1    1    0    0    0  0.68524937511E+01  0.45275106392E+02 -0.47345311481E+01  0.46034853262E+02  0.51100000000E-03 0.  1.
         11    1    1    0    0    0  0.20468189739E+02 -0.11954646960E+01 -0.12859548001E+02  0.24202146642E+02  0.51100000000E-03 0. -1.
         22    1    1    0    0    0 -0.27320683490E+02 -0.44079641696E+02  0.17594079150E+02  0.54763000096E+02  0.00000000000E+00 0.  1.
</event>
<event>
 5    1  0.1102386E-009  0.9118800E+02  0.7818608E-02  0.1130116E+00
         25   -1    0    0    0    0  0.00000000000E+00  0.00000000000E+00  0.99999998245E-14  0.12500000000E+03  0.12500000000E+03 0.  0.
        -11    1    3    3    0    0 -0.18734416892E+02  0.41334899148E+02 -0.19973411581E+02  0.49583156761E+02  0.51100000000E-03 0.  1.
         23    2    1    0    0    0 -0.26141475706E+02  0.40794978055E+01  0.86708335748E+01  0.97157543045E+02  0.93082682392E+02 0.  0.
         11    1    3    3    0    0 -0.74070588132E+01 -0.37255401343E+02  0.28644245156E+02  0.47574386284E+02  0.51100000000E-03 0. -1.
         22    1    1    0    0    0  0.26141475706E+02 -0.40794978055E+01 -0.86708335748E+01  0.27842456955E+02  0.00000000000E+00 0.  1.
</event>
<event>
 5    1  0.1102386E-009  0.9118800E+02  0.7818608E-02  0.1130116E+00
         25   -1    0    0    0    0  0.00000000000E+00  0.00000000000E+00  0.99999998245E-14  0.12500000000E+03  0.12500000000E+03 0.  0.
        -11    1    3    3    0    0 -0.37173709574E+02  0.93049539670E+01 -0.18269856849E+02  0.42452968346E+02  0.51100000000E-03 0.  1.
         23    2    1    0    0    0  0.10204846101E+02  0.25771705785E+02  0.33638680690E+01  0.97078049649E+02  0.92975870053E+02 0.  0.
         11    1    3    3    0    0  0.47378555675E+02  0.16466751818E+02  0.21633724918E+02  0.54625081303E+02  0.51100000000E-03 0. -1.
         22    1    1    0    0    0 -0.10204846101E+02 -0.25771705785E+02 -0.33638680690E+01  0.27921950351E+02  0.00000000000E+00 0. -1.
</event>
<event>
 5    1  0.1102386E-009  0.9118800E+02  0.7818608E-02  0.1130116E+00
         25   -1    0    0    0    0  0.00000000000E+00  0.00000000000E+00  0.99999998245E-14  0.12500000000E+03  0.12500000000E+03 0.  0.
        -11    1    3    3    0    0  0.10174224029E+02 -0.28329114179E+02  0.22010414849E+02  0.37289568338E+02  0.51100000000E-03 0.  1.
         23    2    1    0    0    0 -0.16566467337E+01  0.27631548981E+02  0.81796377552E+01  0.96135602357E+02  0.91700057738E+02 0.  0.
         11    1    3    3    0    0 -0.11830870763E+02  0.55960663161E+02 -0.13830777094E+02  0.58846034018E+02  0.51100000000E-03 0. -1.
         22    1    1    0    0    0  0.16566467337E+01 -0.27631548981E+02 -0.81796377552E+01  0.28864397643E+02  0.00000000000E+00 0. -1.
</event>
<event>
 5    1  0.1102386E-009  0.9118800E+02  0.7818608E-02  0.1130116E+00
         25   -1    0    0    0    0  0.00000000000E+00  0.00000000000E+00  0.99999998245E-14  0.12500000000E+03  0.12500000000E+03 0.  0.
        -11    1    3    3    0    0  0.12920913464E+02  0.21653942893E+02  0.42103968343E+02  0.49077361360E+02  0.51100000000E-03 0. -1.
         23    2    1    0    0    0 -0.19774090378E+02  0.20733923194E+02  0.10714658949E+02  0.94410555126E+02  0.89317628615E+02 0.  0.
         11    1    3    3    0    0 -0.32695003842E+02 -0.92001969840E+00 -0.31389309395E+02  0.45333193766E+02  0.51100000000E-03 0.  1.
         22    1    1    0    0    0  0.19774090378E+02 -0.20733923194E+02 -0.10714658949E+02  0.30589444874E+02  0.00000000000E+00 0. -1.
</event>
<event>
 5    1  0.1102386E-009  0.9118800E+02  0.7818608E-02  0.1130116E+00
         25   -1    0    0    0    0  0.00000000000E+00  0.00000000000E+00  0.99999998245E-14  0.12500000000E+03  0.12500000000E+03 0.  0.
        -11    1    3    3    0    0 -0.25692445006E+02 -0.26634439813E+02 -0.49014642872E+02  0.61416042943E+02  0.51100000000E-03 0. -1.
         23    2    1    0    0    0 -0.18581324876E+02 -0.11366281170E+02 -0.17860469231E+02  0.96831678379E+02  0.92644047810E+02 0.  0.
         11    1    3    3    0    0  0.71111201304E+01  0.15268158642E+02  0.31154173641E+02  0.35415635436E+02  0.51100000000E-03 0.  1.
         22    1    1    0    0    0  0.18581324876E+02  0.11366281170E+02  0.17860469231E+02  0.28168321621E+02  0.00000000000E+00 0. -1.
</event>
<event>
 5    1  0.1102386E-009  0.9118800E+02  0.7818608E-02  0.1130116E+00
         25   -1    0    0    0    0  0.00000000000E+00  0.00000000000E+00  0.99999998245E-14  0.12500000000E+03  0.12500000000E+03 0.  0.
        -11    1    3    3    0    0 -0.34136765377E+02 -0.23080698030E+02  0.88066023749E+01  0.42137793222E+02  0.51100000000E-03 0. -1.
         23    2    1    0    0    0 -0.87154226580E+01  0.23437928018E+02  0.15514698762E+02  0.95572106098E+02  0.90928689226E+02 0.  0.
         11    1    3    3    0    0  0.25421342719E+02  0.46518626048E+02  0.67080963867E+01  0.53434312875E+02  0.51100000000E-03 0.  1.
         22    1    1    0    0    0  0.87154226580E+01 -0.23437928018E+02 -0.15514698762E+02  0.29427893902E+02  0.00000000000E+00 0.  1.
</event>
<event>
 5    1  0.1102386E-009  0.9118800E+02  0.7818608E-02  0.1130116E+00
         25   -1    0    0    0    0  0.00000000000E+00  0.00000000000E+00  0.99999998245E-14  0.12500000000E+03  0.12500000000E+03 0.  0.
        -11    1    3    3    0    0  0.24090811876E+02  0.13154456181E+02 -0.31841618149E+02  0.42039214798E+02  0.51100000000E-03 0.  1.
         23    2    1    0    0    0  0.21948563630E+02 -0.27350398451E+02 -0.82068833142E+01  0.88984216313E+02  0.81369859766E+02 0.  0.
         11    1    3    3    0    0 -0.21422482457E+01 -0.40504854632E+02  0.23634734835E+02  0.46945001515E+02  0.51100000000E-03 0. -1.
         22    1    1    0    0    0 -0.21948563630E+02  0.27350398451E+02  0.82068833142E+01  0.36015783687E+02  0.00000000000E+00 0.  1.
</event>
<event>
 5    1  0.1102386E-009  0.9118800E+02  0.7818608E-02  0.1130116E+00
         25   -1    0    0    0    0  0.00000000000E+00  0.00000000000E+00  0.99999998245E-14  0.12500000000E+03  0.12500000000E+03 0.  0.
        -11    1    3    3    0    0  0.28701911140E+01 -0.52211432624E+02  0.27951452468E+02  0.59292119114E+02  0.51100000000E-03 0.  1.
         23    2    1    0    0    0  0.15078561515E+02 -0.21051912592E+02  0.14140739397E+02  0.95495651984E+02  0.90823526666E+02 0.  0.
         11    1    3    3    0    0  0.12208370401E+02  0.31159520032E+02 -0.13810713071E+02  0.36203532870E+02  0.51100000000E-03 0. -1.
         22    1    1    0    0    0 -0.15078561515E+02  0.21051912592E+02 -0.14140739397E+02  0.29504348016E+02  0.00000000000E+00 0. -1.
</event>
<event>
 5    1  0.1102386E-009  0.9118800E+02  0.7818608E-02  0.1130116E+00
         25   -1    0    0    0    0  0.00000000000E+00  0.00000000000E+00  0.99999998245E-14  0.12500000000E+03  0.12500000000E+03 0.  0.
        -11    1    3    3    0    0 -0.16944494232E+01  0.30531444929E+02 -0.44585897450E+02  0.54064244562E+02  0.51100000000E-03 0.  1.
         23    2    1    0    0    0 -0.13836828404E+02  0.26110152338E+02 -0.58793751207E+01  0.94870862488E+02  0.89959522131E+02 0.  0.
         11    1    3    3    0    0 -0.12142378981E+02 -0.44212925914E+01  0.38706522330E+02  0.40806617927E+02  0.51100000000E-03 0. -1.
         22    1    1    0    0    0  0.13836828404E+02 -0.26110152338E+02  0.58793751207E+01  0.30129137512E+02  0.00000000000E+00 0. -1.
</event>
<event>
 5    1  0.1102386E-009  0.9118800E+02  0.7818608E-02  0.1130116E+00
         25   -1    0    0    0    0  0.00000000000E+00  0.00000000000E+00  0.99999998245E-14  0.12500000000E+03  0.12500000000E+03 0.  0.
        -11    1    3    3    0    0  0.28281513755E+02  0.15954541969E+02 -0.51292586180E+02  0.60706843329E+02  0.51100000000E-03 0.  1.
         23    2    1    0    0    0  0.92601260017E+01 -0.91918732839E+00 -0.29071878364E+02  0.94475109328E+02  0.89407926561E+02 0.  0.
         11    1    3    3    0    0 -0.19021387753E+02 -0.16873729298E+02  0.22220707815E+02  0.33768265999E+02  0.51100000000E-03 0. -1.
         22    1    1    0    0    0 -0.92601260017E+01  0.91918732839E+00  0.29071878364E+02  0.30524890672E+02  0.00000000000E+00 0.  1.
</event>
<event>
 5    1  0.1102386E-009  0.9118800E+02  0.7818608E-02  0.1130116E+00
         25   -1    0    0    0    0  0.00000000000E+00  0.00000000000E+00  0.99999998245E-14  0.12500000000E+03  0.12500000000E+03 0.  0.
        -11    1    3    3    0    0 -0.41658982445E+02 -0.72887815410E+01  0.67340828653E+01  0.42824584377E+02  0.51100000000E-03 0.  1.
         23    2    1    0    0    0 -0.41502168120E+01  0.29243772997E+02  0.27407477713E+01  0.95336314170E+02  0.90603965379E+02 0.  0.
         11    1    3    3    0    0  0.37508765633E+02  0.36532554538E+02 -0.39933350941E+01  0.52511729793E+02  0.51100000000E-03 0. -1.
         22    1    1    0    0    0  0.41502168120E+01 -0.29243772997E+02 -0.27407477713E+01  0.29663685830E+02  0.00000000000E+00 0.  1.
</event>
<event>
 5    1  0.1102386E-009  0.9118800E+02  0.7818608E-02  0.1130116E+00
         25   -1    0    0    0    0  0.00000000000E+00  0.00000000000E+00  0.99999998245E-14  0.12500000000E+03  0.12500000000E+03 0.  0.
        -11    1    3    3    0    0 -0.60636791562E+02 -0.10319310540E+02 -0.63935793902E+00  0.61511929247E+02  0.51100000000E-03 0.  1.
         23    2    1    0    0    0 -0.28745374276E+02 -0.70619109191E+01  0.72482017542E+01  0.94525362073E+02  0.89478156654E+02 0.  0.
         11    1    3    3    0    0  0.31891417285E+02  0.32573996208E+01  0.78875596932E+01  0.33013432826E+02  0.51100000000E-03 0. -1.
         22    1    1    0    0    0  0.28745374276E+02  0.70619109191E+01 -0.72482017542E+01  0.30474637927E+02  0.00000000000E+00 0.  1.
</event>
<event>
 5    1  0.1102386E-009  0.9118800E+02  0.7818608E-02  0.1130116E+00
         25   -1    0    0    0    0  0.00000000000E+00  0.00000000000E+00  0.99999998245E-14  0.12500000000E+03  0.12500000000E+03 0.  0.
        -11    1    3    3    0    0  0.50197946866E+02 -0.14196997829E+02 -0.23464995327E+02  0.57201351582E+02  0.51100000000E-03 0. -1.
         23    2    1    0    0    0  0.12202008713E+02 -0.75764210629E+01 -0.25402257281E+02  0.95818398815E+02  0.91266640695E+02 0.  0.
         11    1    3    3    0    0 -0.37995938153E+02  0.66205767664E+01 -0.19372619540E+01  0.38617047233E+02  0.51100000000E-03 0.  1.
         22    1    1    0    0    0 -0.12202008713E+02  0.75764210629E+01  0.25402257281E+02  0.29181601185E+02  0.00000000000E+00 0. -1.
</event>
<event>
 5    1  0.1102386E-009  0.9118800E+02  0.7818608E-02  0.1130116E+00
         25   -1    0    0    0    0  0.00000000000E+00  0.00000000000E+00  0.99999998245E-14  0.12500000000E+03  0.12500000000E+03 0.  0.
        -11    1    3    3    0    0 -0.38529913200E+01  0.41731820471E+02  0.67775334808E+01  0.42453802448E+02  0.51100000000E-03 0. -1.
         23    2    1    0    0    0  0.27753961431E+02 -0.14234097728E+01  0.83924685411E+01  0.95969981077E+02  0.91474014174E+02 0.  0.
         11    1    3    3    0    0  0.31606952751E+02 -0.43155230244E+02  0.16149350603E+01  0.53516178629E+02  0.51100000000E-03 0.  1.
         22    1    1    0    0    0 -0.27753961431E+02  0.14234097728E+01 -0.83924685411E+01  0.29030018923E+02  0.00000000000E+00 0.  1.
</event>
<event>
 5    1  0.1102386E-009  0.9118800E+02  0.7818608E-02  0.1130116E+00
         25   -1    0    0    0    0  0.00000000000E+00  0.00000000000E+00  0.99999998245E-14  0.12500000000E+03  0.12500000000E+03 0.  0.
        -11    1    3    3    0    0 -0.26081760114E+02 -0.48297894842E+02 -0.20022640208E+02  0.58428169388E+02  0.51100000000E-03 0.  1.
         23    2    1    0    0    0 -0.87571692388E+01 -0.28476239268E+02  0.50495718723E+01  0.94782746783E+02  0.89837000705E+02 0.  0.
         11    1    3    3    0    0  0.17324590876E+02  0.19821655574E+02  0.25072212080E+02  0.36354577395E+02  0.51100000000E-03 0. -1.
         22    1    1    0    0    0  0.87571692388E+01  0.28476239268E+02 -0.50495718723E+01  0.30217253217E+02  0.00000000000E+00 0.  1.
</event>
<event>
 5    1  0.1102386E-009  0.9118800E+02  0.7818608E-02  0.1130116E+00
         25   -1    0    0    0    0  0.00000000000E+00  0.00000000000E+00  0.99999998245E-14  0.12500000000E+03  0.12500000000E+03 0.  0.
        -11    1    3    3    0    0 -0.33916114772E+02  0.66364885222E+01  0.50195700652E+02  0.60942220056E+02  0.51100000000E-03 0.  1.
         23    2    1    0    0    0 -0.19148620439E+02  0.10093510232E+02  0.16871223861E+02  0.97555750910E+02  0.93615905313E+02 0.  0.
         11    1    3    3    0    0  0.14767494333E+02  0.34570217102E+01 -0.33324476791E+02  0.36613530854E+02  0.51100000000E-03 0. -1.
         22    1    1    0    0    0  0.19148620439E+02 -0.10093510232E+02 -0.16871223861E+02  0.27444249090E+02  0.00000000000E+00 0.  1.
</event>
<event>
 5    1  0.1102386E-009  0.9118800E+02  0.7818608E-02  0.1130116E+00
         25   -1    0    0    0    0  0.00000000000E+00  0.00000000000E+00  0.99999998245E-14  0.12500000000E+03  0.12500000000E+03 0.  0.
        -11    1    3    3    0    0  0.40595929441E+02 -0.37740461808E+00  0.37209005763E+02  0.55069792369E+02  0.51100000000E-03 0.  1.
         23    2    1    0    0    0  0.18457586289E+02  0.20541702499E+02  0.10923792170E+02  0.95301965241E+02  0.90556564148E+02 0.  0.
         11    1    3    3    0    0 -0.22138343152E+02  0.20919107117E+02 -0.26285213594E+02  0.40232172872E+02  0.51100000000E-03 0. -1.
         22    1    1    0    0    0 -0.18457586289E+02 -0.20541702499E+02 -0.10923792170E+02  0.29698034759E+02  0.00000000000E+00 0.  1.
</event>
<event>
 5    1  0.1102386E-009  0.9118800E+02  0.7818608E-02  0.1130116E+00
         25   -1    0    0    0    0  0.00000000000E+00  0.00000000000E+00  0.99999998245E-14  0.12500000000E+03  0.12500000000E+03 0.  0.
        -11    1    3    3    0    0  0.32431169570E+02  0.20506254432E+02 -0.32906789142E+02  0.50548432244E+02  0.51100000000E-03 0. -1.
         23    2    1    0    0    0  0.20442712132E+02 -0.17104913389E+02 -0.82251526713E+01  0.97104916601E+02  0.93011983907E+02 0.  0.
         11    1    3    3    0    0 -0.11988457437E+02 -0.37611167821E+02  0.24681636470E+02  0.46556484357E+02  0.51100000000E-03 0.  1.
         22    1    1    0    0    0 -0.20442712132E+02  0.17104913389E+02  0.82251526713E+01  0.27895083399E+02  0.00000000000E+00 0.  1.
</event>
<event>
 5    1  0.1102386E-009  0.9118800E+02  0.7818608E-02  0.1130116E+00
         25   -1    0    0    0    0  0.00000000000E+00  0.00000000000E+00  0.99999998245E-14  0.12500000000E+03  0.12500000000E+03 0.  0.
        -11    1    3    3    0    0 -0.24804771140E+02  0.51266122967E+02  0.19829360585E+02  0.60305021157E+02  0.51100000000E-03 0. -1.
         23    2    1    0    0    0 -0.21922229101E+02  0.18490373348E+02  0.92371179334E+01  0.94870240907E+02  0.89958658431E+02 0.  0.
         11    1    3    3    0    0  0.28825420388E+01 -0.32775749618E+02 -0.10592242652E+02  0.34565219749E+02  0.51100000000E-03 0.  1.
         22    1    1    0    0    0  0.21922229101E+02 -0.18490373348E+02 -0.92371179334E+01  0.30129759093E+02  0.00000000000E+00 0. -1.
</event>
<event>
 5    1  0.1102386E-009  0.9118800E+02  0.7818608E-02  0.1130116E+00
         25   -1    0    0    0    0  0.00000000000E+00  0.00000000000E+00  0.99999998245E-14  0.12500000000E+03  0.12500000000E+03 0.  0.
        -11    1    3    3    0    0 -0.18134636488E+02  0.43731993741E+02 -0.38005351522E+02  0.60710452656E+02  0.51100000000E-03 0. -1.
         23    2    1    0    0    0 -0.80602915552E+00  0.24355915139E+02 -0.10779167898E+02  0.98353222600E+02  0.94674736070E+02 0.  0.
         11    1    3    3    0    0  0.17328607333E+02 -0.19376078602E+02  0.27226183623E+02  0.37642769944E+02  0.51100000000E-03 0.  1.
         22    1    1    0    0    0  0.80602915552E+00 -0.24355915139E+02  0.10779167898E+02  0.26646777400E+02  0.00000000000E+00 0. -1.
</event>
<event>
 5    1  0.1102386E-009  0.9118800E+02  0.7818608E-02  0.1130116E+00
         25   -1    0    0    0    0  0.00000000000E+00  0.00000000000E+00  0.99999998245E-14  0.12500000000E+03  0.12500000000E+03 0.  0.
        -11    1    3    3    0    0  0.33838424944E+02  0.31997811631E+02  0.19997899841E+02  0.50683478079E+02  0.51100000000E-03 0.  1.
         23    2    1    0    0    0  0.28342152846E+02 -0.51915293435E+01 -0.48979883377E+01  0.95772959531E+02  0.91204385216E+02 0.  0.
         11    1    3    3    0    0 -0.54962720982E+01 -0.37189340975E+02 -0.24895888179E+02  0.45089481452E+02  0.51100000000E-03 0. -1.
         22    1    1    0    0    0 -0.28342152846E+02  0.51915293435E+01  0.48979883377E+01  0.29227040469E+02  0.00000000000E+00 0.  1.
</event>
<event>
 5    1  0.1102386E-009  0.9118800E+02  0.7818608E-02  0.1130116E+00
         25   -1    0    0    0    0  0.00000000000E+00  0.00000000000E+00  0.99999998245E-14  0.12500000000E+03  0.12500000000E+03 0.  0.
        -11    1    3    3    0    0  0.31488641917E+01 -0.31802768727E+02  0.21071595936E+02  0.38279806687E+02  0.51100000000E-03 0.  1.
         23    2    1    0    0    0  0.17169374780E+02  0.21739793418E+02  0.13632240210E+02  0.94125349859E+02  0.88917588050E+02 0.  0.
         11    1    3    3    0    0  0.14020510588E+02  0.53542562146E+02 -0.74393557267E+01  0.55845543172E+02  0.51100000000E-03 0. -1.
         22    1    1    0    0    0 -0.17169374780E+02 -0.21739793418E+02 -0.13632240210E+02  0.30874650141E+02  0.00000000000E+00 0. -1.
</event>
<event>
 5    1  0.1102386E-009  0.9118800E+02  0.7818608E-02  0.1130116E+00
         25   -1    0    0    0    0  0.00000000000E+00  0.00000000000E+00  0.99999998245E-14  0.12500000000E+03  0.12500000000E+03 0.  0.
        -11    1    3    3    0    0  0.23562606189E+02 -0.98351467908E+01 -0.34082233656E+02  0.42585504272E+02  0.51100000000E-03 0. -1.
         23    2    1    0    0    0  0.89134586784E+01 -0.22158575023E+02  0.16033690940E+02  0.96233153843E+02  0.91832937777E+02 0.  0.
         11    1    3    3    0    0 -0.14649147510E+02 -0.12323428232E+02  0.50115924596E+02  0.53647649572E+02  0.51100000000E-03 0.  1.
         22    1    1    0    0    0 -0.89134586784E+01  0.22158575023E+02 -0.16033690940E+02  0.28766846157E+02  0.00000000000E+00 0.  1.
</event>
<event>
 5    1  0.1102386E-009  0.9118800E+02  0.7818608E-02  0.1130116E+00
         25   -1    0    0    0    0  0.00000000000E+00  0.00000000000E+00  0.99999998245E-14  0.12500000000E+03  0.12500000000E+03 0.  0.
        -11    1    3    3    0    0  0.18895216909E+02  0.26258044913E+02 -0.19490534697E+02  0.37767646044E+02  0.51100000000E-03 0.  1.
         23    2    1    0    0    0  0.96876600417E+01 -0.28126221767E+02 -0.90568608109E+01  0.93903990036E+02  0.88605854823E+02 0.  0.
         11    1    3    3    0    0 -0.92075568669E+01 -0.54384266680E+02  0.10433673886E+02  0.56136343992E+02  0.51100000000E-03 0. -1.
         22    1    1    0    0    0 -0.96876600417E+01  0.28126221767E+02  0.90568608109E+01  0.31096009964E+02  0.00000000000E+00 0. -1.
</event>
<event>
 5    1  0.1102386E-009  0.9118800E+02  0.7818608E-02  0.1130116E+00
         25   -1    0    0    0    0  0.00000000000E+00  0.00000000000E+00  0.99999998245E-14  0.12500000000E+03  0.12500000000E+03 0.  0.
        -11    1    3    3    0    0  0.56446395610E+01 -0.43408796694E+02 -0.44312276555E+02  0.62287747110E+02  0.51100000000E-03 0. -1.
         23    2    1    0    0    0  0.42086928555E+01 -0.22038251752E+02 -0.17869032405E+02  0.96317253358E+02  0.91947340035E+02 0.  0.
         11    1    3    3    0    0 -0.14359467055E+01  0.21370544942E+02  0.26443244150E+02  0.34029506249E+02  0.51100000000E-03 0.  1.
         22    1    1    0    0    0 -0.42086928555E+01  0.22038251752E+02  0.17869032405E+02  0.28682746642E+02  0.00000000000E+00 0. -1.
</event>
<event>
 5    1  0.1102386E-009  0.9118800E+02  0.7818608E-02  0.1130116E+00
         25   -1    0    0    0    0  0.00000000000E+00  0.00000000000E+00  0.99999998245E-14  0.12500000000E+03  0.12500000000E+03 0.  0.
        -11    1    3    3    0    0  0.12041216318E+02  0.49780993741E+02  0.99682595702E+01  0.52177623819E+02  0.51100000000E-03 0.  1.
         23    2    1    0    0    0 -0.19639039798E+02  0.23070280222E+02  0.42783528497E+00  0.94699624479E+02  0.89721269048E+02 0.  0.
         11    1    3    3    0    0 -0.31680256116E+02 -0.26710713519E+02 -0.95404242852E+01  0.42522000659E+02  0.51100000000E-03 0. -1.
         22    1    1    0    0    0  0.19639039798E+02 -0.23070280222E+02 -0.42783528497E+00  0.30300375521E+02  0.00000000000E+00 0. -1.
</event>
<event>
 5    1  0.1102386E-009  0.9118800E+02  0.7818608E-02  0.1130116E+00
         25   -1    0    0    0    0  0.00000000000E+00  0.00000000000E+00  0.99999998245E-14  0.12500000000E+03  0.12500000000E+03 0.  0.
        -11    1    3    3    0    0 -0.15545585182E+01  0.41277928637E+01  0.36480293472E+02  0.36745981252E+02  0.51100000000E-03 0.  1.
         23    2    1    0    0    0  0.65292108628E+01  0.18673736746E+02 -0.20740817106E+02  0.96337820516E+02  0.91975296297E+02 0.  0.
         11    1    3    3    0    0  0.80837693810E+01  0.14545943883E+02 -0.57221110578E+02  0.59591839264E+02  0.51100000000E-03 0. -1.
         22    1    1    0    0    0 -0.65292108628E+01 -0.18673736746E+02  0.20740817106E+02  0.28662179484E+02  0.00000000000E+00 0. -1.
</event>
<event>
 5    1  0.1102386E-009  0.9118800E+02  0.7818608E-02  0.1130116E+00
         25   -1    0    0    0    0  0.00000000000E+00  0.00000000000E+00  0.99999998245E-14  0.12500000000E+03  0.12500000000E+03 0.  0.
        -11    1    3    3    0    0  0.37362682011E+02 -0.18085449636E+01  0.41404747510E+02  0.55799587441E+02  0.51100000000E-03 0. -1.
         23    2    1    0    0    0  0.27982450759E+02  0.12168924767E+02  0.76148983506E+01  0.93550247102E+02  0.88105401511E+02 0.  0.
         11    1    3    3    0    0 -0.93802312525E+01  0.13977469730E+02 -0.33789849159E+02  0.37750659661E+02  0.51100000000E-03 0.  1.
         22    1    1    0    0    0 -0.27982450759E+02 -0.12168924767E+02 -0.76148983506E+01  0.31449752898E+02  0.00000000000E+00 0. -1.
</event>
<event>
 5    1  0.1102386E-009  0.9118800E+02  0.7818608E-02  0.1130116E+00
         25   -1    0    0    0    0  0.00000000000E+00  0.00000000000E+00  0.99999998245E-14  0.12500000000E+03  0.12500000000E+03 0.  0.
        -11    1    3    3    0    0  0.11033694738E+02 -0.21520529713E+02  0.40497365589E+02  0.47168975382E+02  0.51100000000E-03 0. -1.
         23    2    1    0    0    0  0.29107984689E+02  0.35113073701E+00  0.90824233360E+00  0.95875732290E+02  0.91345131631E+02 0.  0.
         11    1    3    3    0    0  0.18074289951E+02  0.21871660450E+02 -0.39589123256E+02  0.48706756908E+02  0.51100000000E-03 0.  1.
         22    1    1    0    0    0 -0.29107984689E+02 -0.35113073701E+00 -0.90824233360E+00  0.29124267710E+02  0.00000000000E+00 0.  1.
</event>
<event>
 5    1  0.1102386E-009  0.9118800E+02  0.7818608E-02  0.1130116E+00
         25   -1    0    0    0    0  0.00000000000E+00  0.00000000000E+00  0.99999998245E-14  0.12500000000E+03  0.12500000000E+03 0.  0.
        -11    1    3    3    0    0  0.12006568986E+02 -0.19395803744E+02  0.30187855106E+02  0.37837302995E+02  0.51100000000E-03 0.  1.
         23    2    1    0    0    0  0.28683203274E+01 -0.82747960769E+01 -0.26899191689E+02  0.96711026439E+02  0.92481114881E+02 0.  0.
         11    1    3    3    0    0 -0.91382486588E+01  0.11121007667E+02 -0.57087046796E+02  0.58873723444E+02  0.51100000000E-03 0. -1.
         22    1    1    0    0    0 -0.28683203274E+01  0.82747960769E+01  0.26899191689E+02  0.28288973561E+02  0.00000000000E+00 0. -1.
</event>
<event>
 5    1  0.1102386E-009  0.9118800E+02  0.7818608E-02  0.1130116E+00
         25   -1    0    0    0    0  0.00000000000E+00  0.00000000000E+00  0.99999998245E-14  0.12500000000E+03  0.12500000000E+03 0.  0.
        -11    1    3    3    0    0 -0.17204092209E+02  0.57367298743E+02  0.16667765505E+02  0.62167533014E+02  0.51100000000E-03 0. -1.
         23    2    1    0    0    0 -0.97513854628E+01  0.24408389965E+02  0.11331279981E+02  0.96377335464E+02  0.92028983836E+02 0.  0.
         11    1    3    3    0    0  0.74527067457E+01 -0.32958908778E+02 -0.53364855234E+01  0.34209802450E+02  0.51100000000E-03 0.  1.
         22    1    1    0    0    0  0.97513854628E+01 -0.24408389965E+02 -0.11331279981E+02  0.28622664536E+02  0.00000000000E+00 0. -1.
</event>
<event>
 5    1  0.1102386E-009  0.9118800E+02  0.7818608E-02  0.1130116E+00
         25   -1    0    0    0    0  0.00000000000E+00  0.00000000000E+00  0.99999998245E-14  0.12500000000E+03  0.12500000000E+03 0.  0.
        -11    1    3    3    0    0 -0.15747933561E+01  0.31662533156E+00 -0.61614090218E+02  0.61635025265E+02  0.51100000000E-03 0. -1.
         23    2    1    0    0    0  0.28849794951E+01 -0.62299840175E+01 -0.27724046169E+02  0.96438512932E+02  0.92112041737E+02 0.  0.
         11    1    3    3    0    0  0.44597728512E+01 -0.65466093491E+01  0.33890044049E+02  0.34803487667E+02  0.51100000000E-03 0.  1.
         22    1    1    0    0    0 -0.28849794951E+01  0.62299840175E+01  0.27724046169E+02  0.28561487068E+02  0.00000000000E+00 0. -1.
</event>
<event>
 5    1  0.1102386E-009  0.9118800E+02  0.7818608E-02  0.1130116E+00
         25   -1    0    0    0    0  0.00000000000E+00  0.00000000000E+00  0.99999998245E-14  0.12500000000E+03  0.12500000000E+03 0.  0.
        -11    1    3    3    0    0  0.82878204007E+01  0.57805306603E+02  0.12150293803E+02  0.59647054229E+02  0.51100000000E-03 0. -1.
         23    2    1    0    0    0  0.12787507635E+02  0.25677532549E+02 -0.42552477440E+01  0.96000635133E+02  0.91515893610E+02 0.  0.
         11    1    3    3    0    0  0.44996872341E+01 -0.32127774054E+02 -0.16405541547E+02  0.36353580904E+02  0.51100000000E-03 0.  1.
         22    1    1    0    0    0 -0.12787507635E+02 -0.25677532549E+02  0.42552477440E+01  0.28999364867E+02  0.00000000000E+00 0. -1.
</event>
<event>
 5    1  0.1102386E-009  0.9118800E+02  0.7818608E-02  0.1130116E+00
         25   -1    0    0    0    0  0.00000000000E+00  0.00000000000E+00  0.99999998245E-14  0.12500000000E+03  0.12500000000E+03 0.  0.
        -11    1    3    3    0    0 -0.32273129150E+02  0.15590095086E+02  0.43672180121E+02  0.56496595001E+02  0.51100000000E-03 0. -1.
         23    2    1    0    0    0  0.26261749300E+00  0.19167608144E+02  0.22324491185E+02  0.95574686466E+02  0.90932236398E+02 0.  0.
         11    1    3    3    0    0  0.32535746643E+02  0.35775130578E+01 -0.21347688936E+02  0.39078091464E+02  0.51100000000E-03 0.  1.
         22    1    1    0    0    0 -0.26261749300E+00 -0.19167608144E+02 -0.22324491185E+02  0.29425313534E+02  0.00000000000E+00 0. -1.
</event>
<event>
 5    1  0.1102386E-009  0.9118800E+02  0.7818608E-02  0.1130116E+00
         25   -1    0    0    0    0  0.00000000000E+00  0.00000000000E+00  0.99999998245E-14  0.12500000000E+03  0.12500000000E+03 0.  0.
        -11    1    3    3    0    0  0.11653711887E+02  0.22676102829E+02  0.23455362281E+02  0.34643450467E+02  0.51100000000E-03 0. -1.
         23    2    1    0    0    0 -0.16842305218E+02 -0.85818266157E+01 -0.21501922367E+02  0.96370580540E+02  0.92019808384E+02 0.  0.
         11    1    3    3    0    0 -0.28496017105E+02 -0.31257929445E+02 -0.44957284647E+02  0.61727130074E+02  0.51100000000E-03 0.  1.
         22    1    1    0    0    0  0.16842305218E+02  0.85818266157E+01  0.21501922367E+02  0.28629419460E+02  0.00000000000E+00 0.  1.
</event>
<event>
 5    1  0.1102386E-009  0.9118800E+02  0.7818608E-02  0.1130116E+00
         25   -1    0    0    0    0  0.00000000000E+00  0.00000000000E+00  0.99999998245E-14  0.12500000000E+03  0.12500000000E+03 0.  0.
        -11    1    3    3    0    0  0.41051365756E+02  0.23792262891E+01 -0.88456223434E+01  0.42060912770E+02  0.51100000000E-03 0.  1.
         23    2    1    0    0    0 -0.60733885033E+01 -0.25589832921E+02  0.41329383561E+01  0.98376574670E+02  0.94705563023E+02 0.  0.
         11    1    3    3    0    0 -0.47124754259E+02 -0.27969059210E+02  0.12978560699E+02  0.56315661900E+02  0.51100000000E-03 0. -1.
         22    1    1    0    0    0  0.60733885033E+01  0.25589832921E+02 -0.41329383561E+01  0.26623425330E+02  0.00000000000E+00 0. -1.
</event>
<event>
 5    1  0.1102386E-009  0.9118800E+02  0.7818608E-02  0.1130116E+00
         25   -1    0    0    0    0  0.00000000000E+00  0.00000000000E+00  0.99999998245E-14  0.12500000000E+03  0.12500000000E+03 0.  0.
        -11    1    3    3    0    0 -0.10532113319E+02  0.55794644886E+02  0.25519399368E+02  0.62251165076E+02  0.51100000000E-03 0.  1.
         23    2    1    0    0    0 -0.87564074285E+01  0.26146009313E+02  0.10975966232E+02  0.95322393817E+02  0.90584758400E+02 0.  0.
         11    1    3    3    0    0  0.17757058909E+01 -0.29648635574E+02 -0.14543433136E+02  0.33071228741E+02  0.51100000000E-03 0. -1.
         22    1    1    0    0    0  0.87564074285E+01 -0.26146009313E+02 -0.10975966232E+02  0.29677606183E+02  0.00000000000E+00 0.  1.
</event>
<event>
 5    1  0.1102386E-009  0.9118800E+02  0.7818608E-02  0.1130116E+00
         25   -1    0    0    0    0  0.00000000000E+00  0.00000000000E+00  0.99999998245E-14  0.12500000000E+03  0.12500000000E+03 0.  0.
        -11    1    3    3    0    0  0.21347765670E+02 -0.19998303294E+01  0.35373214998E+02  0.41364124069E+02  0.51100000000E-03 0.  1.
         23    2    1    0    0    0 -0.25968704039E+02  0.32685195734E+01  0.36520048579E+01  0.98572855827E+02  0.94964277266E+02 0.  0.
         11    1    3    3    0    0 -0.47316469709E+02  0.52683499027E+01 -0.31721210140E+02  0.57208731758E+02  0.51100000000E-03 0. -1.
         22    1    1    0    0    0  0.25968704039E+02 -0.32685195734E+01 -0.36520048579E+01  0.26427144173E+02  0.00000000000E+00 0. -1.
</event>
<event>
 5    1  0.1102386E-009  0.9118800E+02  0.7818608E-02  0.1130116E+00
         25   -1    0    0    0    0  0.00000000000E+00  0.00000000000E+00  0.99999998245E-14  0.12500000000E+03  0.12500000000E+03 0.  0.
        -11    1    3    3    0    0 -0.25503339749E+02 -0.40615908441E+01 -0.34266802165E+02  0.42908397656E+02  0.51100000000E-03 0.  1.
         23    2    1    0    0    0 -0.23313251887E+02 -0.26305077904E+02  0.63622950658E+01  0.89279646760E+02  0.81822440016E+02 0.  0.
         11    1    3    3    0    0  0.21900878619E+01 -0.22243487060E+02  0.40629097231E+02  0.46371249104E+02  0.51100000000E-03 0. -1.
         22    1    1    0    0    0  0.23313251887E+02  0.26305077904E+02 -0.63622950658E+01  0.35720353240E+02  0.00000000000E+00 0.  1.
</event>
<event>
 5    1  0.1102386E-009  0.9118800E+02  0.7818608E-02  0.1130116E+00
         25   -1    0    0    0    0  0.00000000000E+00  0.00000000000E+00  0.99999998245E-14  0.12500000000E+03  0.12500000000E+03 0.  0.
        -11    1    3    3    0    0  0.88737907627E+01  0.58258523427E+02  0.13903039920E+01  0.58946863020E+02  0.51100000000E-03 0.  1.
         23    2    1    0    0    0  0.13558894825E+02  0.26721686569E+02 -0.10896563901E+02  0.93115407062E+02  0.87486294729E+02 0.  0.
         11    1    3    3    0    0  0.46851040628E+01 -0.31536836858E+02 -0.12286867893E+02  0.34168544042E+02  0.51100000000E-03 0. -1.
         22    1    1    0    0    0 -0.13558894825E+02 -0.26721686569E+02  0.10896563901E+02  0.31884592938E+02  0.00000000000E+00 0.  1.
</event>
<event>
 5    1  0.1102386E-009  0.9118800E+02  0.7818608E-02  0.1130116E+00
         25   -1    0    0    0    0  0.00000000000E+00  0.00000000000E+00  0.99999998245E-14  0.12500000000E+03  0.12500000000E+03 0.  0.
        -11    1    3    3    0    0 -0.59216956333E+01 -0.26790475490E+02  0.42332171205E+00  0.27440394635E+02  0.51100000000E-03 0.  1.
         23    2    1    0    0    0 -0.40440428213E+02  0.13028162491E+02 -0.10445935526E+02  0.81247527831E+02  0.68460805996E+02 0.  0.
         11    1    3    3    0    0 -0.34518732579E+02  0.39818637982E+02 -0.10869257238E+02  0.53807133196E+02  0.51100000000E-03 0. -1.
         22    1    1    0    0    0  0.40440428213E+02 -0.13028162491E+02  0.10445935526E+02  0.43752472169E+02  0.00000000000E+00 0.  1.
</event>
<event>
 5    1  0.1102386E-009  0.9118800E+02  0.7818608E-02  0.1130116E+00
         25   -1    0    0    0    0  0.00000000000E+00  0.00000000000E+00  0.99999998245E-14  0.12500000000E+03  0.12500000000E+03 0.  0.
        -11    1    3    3    0    0  0.25226234843E+02  0.12275408704E+02 -0.15724502612E+02  0.32160667995E+02  0.51100000000E-03 0.  1.
         23    2    1    0    0    0 -0.23292859786E+02 -0.57223578545E+01  0.18932052453E+02  0.94443080873E+02  0.89363136797E+02 0.  0.
         11    1    3    3    0    0 -0.48519094629E+02 -0.17997766559E+02  0.34656555065E+02  0.62282412879E+02  0.51100000000E-03 0. -1.
         22    1    1    0    0    0  0.23292859786E+02  0.57223578545E+01 -0.18932052453E+02  0.30556919127E+02  0.00000000000E+00 0. -1.
</event>
<event>
 5    1  0.1102386E-009  0.9118800E+02  0.7818608E-02  0.1130116E+00
         25   -1    0    0    0    0  0.00000000000E+00  0.00000000000E+00  0.99999998245E-14  0.12500000000E+03  0.12500000000E+03 0.  0.
        -11    1    3    3    0    0 -0.52645187048E+02 -0.30948244336E+01  0.32236686339E+01  0.52834512370E+02  0.51100000000E-03 0.  1.
         23    2    1    0    0    0 -0.14168267572E+02 -0.23462827424E+02  0.75114689084E+01  0.96580530584E+02  0.92304564600E+02 0.  0.
         11    1    3    3    0    0  0.38476919476E+02 -0.20368002990E+02  0.42878002745E+01  0.43746018215E+02  0.51100000000E-03 0. -1.
         22    1    1    0    0    0  0.14168267572E+02  0.23462827424E+02 -0.75114689084E+01  0.28419469416E+02  0.00000000000E+00 0.  1.
</event>
<event>
 5    1  0.1102386E-009  0.9118800E+02  0.7818608E-02  0.1130116E+00
         25   -1    0    0    0    0  0.00000000000E+00  0.00000000000E+00  0.99999998245E-14  0.12500000000E+03  0.12500000000E+03 0.  0.
        -11    1    3    3    0    0  0.51769912510E+02  0.12077191016E+02  0.19391794494E+02  0.56586430159E+02  0.51100000000E-03 0.  1.
         23    2    1    0    0    0  0.24099687500E+02 -0.10594439766E+02 -0.25491238374E+01  0.98551273681E+02  0.94935864774E+02 0.  0.
         11    1    3    3    0    0 -0.27670225010E+02 -0.22671630782E+02 -0.21940918331E+02  0.41964843523E+02  0.51100000000E-03 0. -1.
         22    1    1    0    0    0 -0.24099687500E+02  0.10594439766E+02  0.25491238374E+01  0.26448726319E+02  0.00000000000E+00 0.  1.
</event>
<event>
 5    1  0.1102386E-009  0.9118800E+02  0.7818608E-02  0.1130116E+00
         25   -1    0    0    0    0  0.00000000000E+00  0.00000000000E+00  0.99999998245E-14  0.12500000000E+03  0.12500000000E+03 0.  0.
        -11    1    3    3    0    0 -0.43428940118E+01 -0.11495723600E+01 -0.37118899409E+02  0.37389770508E+02  0.51100000000E-03 0.  1.
         23    2    1    0    0    0  0.59063958822E+01 -0.23950612195E+00  0.24466852209E+02  0.99829188879E+02  0.96603815762E+02 0.  0.
         11    1    3    3    0    0  0.10249289894E+02  0.91006623807E+00  0.61585751618E+02  0.62439418371E+02  0.51100000000E-03 0. -1.
         22    1    1    0    0    0 -0.59063958822E+01  0.23950612195E+00 -0.24466852209E+02  0.25170811121E+02  0.00000000000E+00 0. -1.
</event>
<event>
 5    1  0.1102386E-009  0.9118800E+02  0.7818608E-02  0.1130116E+00
         25   -1    0    0    0    0  0.00000000000E+00  0.00000000000E+00  0.99999998245E-14  0.12500000000E+03  0.12500000000E+03 0.  0.
        -11    1    3    3    0    0  0.51574841412E+02  0.28467176951E+02 -0.16518756568E+02  0.61181808972E+02  0.51100000000E-03 0. -1.
         23    2    1    0    0    0  0.20344690471E+02  0.20172660069E+02 -0.12492382695E+02  0.93744564152E+02  0.88380659864E+02 0.  0.
         11    1    3    3    0    0 -0.31230150941E+02 -0.82945168817E+01  0.40263738729E+01  0.32562755180E+02  0.51100000000E-03 0.  1.
         22    1    1    0    0    0 -0.20344690471E+02 -0.20172660069E+02  0.12492382695E+02  0.31255435848E+02  0.00000000000E+00 0. -1.
</event>
<event>
 5    1  0.1102386E-009  0.9118800E+02  0.7818608E-02  0.1130116E+00
         25   -1    0    0    0    0  0.00000000000E+00  0.00000000000E+00  0.99999998245E-14  0.12500000000E+03  0.12500000000E+03 0.  0.
        -11    1    3    3    0    0  0.36282592143E+02  0.20086642921E+01  0.39059515369E+01  0.36547471630E+02  0.51100000000E-03 0.  1.
         23    2    1    0    0    0 -0.17550272081E+02  0.12357914782E+00 -0.22440499986E+02  0.96511346793E+02  0.92210827446E+02 0.  0.
         11    1    3    3    0    0 -0.53832864223E+02 -0.18850851443E+01 -0.26346451523E+02  0.59963875164E+02  0.51100000000E-03 0. -1.
         22    1    1    0    0    0  0.17550272081E+02 -0.12357914782E+00  0.22440499986E+02  0.28488653207E+02  0.00000000000E+00 0. -1.
</event>
<event>
 5    1  0.1102386E-009  0.9118800E+02  0.7818608E-02  0.1130116E+00
         25   -1    0    0    0    0  0.00000000000E+00  0.00000000000E+00  0.99999998245E-14  0.12500000000E+03  0.12500000000E+03 0.  0.
        -11    1    3    3    0    0 -0.88192852665E+01  0.35992479009E+02  0.34889588144E+01  0.37221111908E+02  0.51100000000E-03 0.  1.
         23    2    1    0    0    0 -0.14947226617E+02 -0.23334349252E+02  0.47903931082E+01  0.96877779165E+02  0.92706228438E+02 0.  0.
         11    1    3    3    0    0 -0.61279413508E+01 -0.59326828261E+02  0.13014342938E+01  0.59656667257E+02  0.51100000000E-03 0. -1.
         22    1    1    0    0    0  0.14947226617E+02  0.23334349252E+02 -0.47903931082E+01  0.28122220835E+02  0.00000000000E+00 0. -1.
</event>
<event>
 5    1  0.1102386E-009  0.9118800E+02  0.7818608E-02  0.1130116E+00
         25   -1    0    0    0    0  0.00000000000E+00  0.00000000000E+00  0.99999998245E-14  0.12500000000E+03  0.12500000000E+03 0.  0.
        -11    1    3    3    0    0 -0.28866385642E+02  0.54499881293E+02  0.61323017852E+01  0.61976692445E+02  0.51100000000E-03 0. -1.
         23    2    1    0    0    0 -0.17378616675E+02  0.21061355167E+02  0.12857823453E+01  0.97664121831E+02  0.93760495188E+02 0.  0.
         11    1    3    3    0    0  0.11487768966E+02 -0.33438526126E+02 -0.48465194399E+01  0.35687429387E+02  0.51100000000E-03 0.  1.
         22    1    1    0    0    0  0.17378616675E+02 -0.21061355167E+02 -0.12857823453E+01  0.27335878169E+02  0.00000000000E+00 0. -1.
</event>
<event>
 5    1  0.1102386E-009  0.9118800E+02  0.7818608E-02  0.1130116E+00
         25   -1    0    0    0    0  0.00000000000E+00  0.00000000000E+00  0.99999998245E-14  0.12500000000E+03  0.12500000000E+03 0.  0.
        -11    1    3    3    0    0  0.21527042851E+02  0.11449985427E+02  0.41187270863E+02  0.47863420496E+02  0.51100000000E-03 0.  1.
         23    2    1    0    0    0 -0.17516307733E+02 -0.73850320294E+01  0.23728155989E+02  0.94596297572E+02  0.89577197953E+02 0.  0.
         11    1    3    3    0    0 -0.39043350584E+02 -0.18835017457E+02 -0.17459114874E+02  0.46732877076E+02  0.51100000000E-03 0. -1.
         22    1    1    0    0    0  0.17516307733E+02  0.73850320294E+01 -0.23728155989E+02  0.30403702428E+02  0.00000000000E+00 0.  1.
</event>
<event>
 5    1  0.1102386E-009  0.9118800E+02  0.7818608E-02  0.1130116E+00
         25   -1    0    0    0    0  0.00000000000E+00  0.00000000000E+00  0.99999998245E-14  0.12500000000E+03  0.12500000000E+03 0.  0.
        -11    1    3    3    0    0 -0.23894074042E+02 -0.10212527211E+02  0.33650135487E+02  0.42515339643E+02  0.51100000000E-03 0. -1.
         23    2    1    0    0    0  0.14948157980E+02 -0.99360355717E+01 -0.12716864880E+02  0.10300248009E+03  0.10062613986E+03 0.  0.
         11    1    3    3    0    0  0.38842232021E+02  0.27649163901E+00 -0.46367000367E+02  0.60487140446E+02  0.51100000000E-03 0.  1.
         22    1    1    0    0    0 -0.14948157980E+02  0.99360355717E+01  0.12716864880E+02  0.21997519911E+02  0.00000000000E+00 0.  1.
</event>
<event>
 5    1  0.1102386E-009  0.9118800E+02  0.7818608E-02  0.1130116E+00
         25   -1    0    0    0    0  0.00000000000E+00  0.00000000000E+00  0.99999998245E-14  0.12500000000E+03  0.12500000000E+03 0.  0.
        -11    1    3    3    0    0  0.50145505941E+02  0.86857650930E+01 -0.88901784516E+01  0.51662845010E+02  0.51100000000E-03 0.  1.
         23    2    1    0    0    0  0.81821998773E+01  0.24230772674E+02 -0.12452692354E+02  0.96554468083E+02  0.92269263683E+02 0.  0.
         11    1    3    3    0    0 -0.41963306064E+02  0.15545007581E+02 -0.35625139025E+01  0.44891623072E+02  0.51100000000E-03 0. -1.
         22    1    1    0    0    0 -0.81821998773E+01 -0.24230772674E+02  0.12452692354E+02  0.28445531917E+02  0.00000000000E+00 0. -1.
</event>
<event>
 5    1  0.1102386E-009  0.9118800E+02  0.7818608E-02  0.1130116E+00
         25   -1    0    0    0    0  0.00000000000E+00  0.00000000000E+00  0.99999998245E-14  0.12500000000E+03  0.12500000000E+03 0.  0.
        -11    1    3    3    0    0  0.36054362771E+02  0.16560214528E+02 -0.47456446232E+02  0.61856867600E+02  0.51100000000E-03 0.  1.
         23    2    1    0    0    0  0.17532050678E+02  0.13695095356E+02 -0.20101896396E+02  0.95016426556E+02  0.90161558543E+02 0.  0.
         11    1    3    3    0    0 -0.18522312092E+02 -0.28651191725E+01  0.27354549836E+02  0.33159558956E+02  0.51100000000E-03 0. -1.
         22    1    1    0    0    0 -0.17532050678E+02 -0.13695095356E+02  0.20101896396E+02  0.29983573444E+02  0.00000000000E+00 0.  1.
</event>
<event>
 5    1  0.1102386E-009  0.9118800E+02  0.7818608E-02  0.1130116E+00
         25   -1    0    0    0    0  0.00000000000E+00  0.00000000000E+00  0.99999998245E-14  0.12500000000E+03  0.12500000000E+03 0.  0.
        -11    1    3    3    0    0 -0.29894396349E+02 -0.29679161551E+02  0.36466221736E+02  0.55716361075E+02  0.51100000000E-03 0.  1.
         23    2    1    0    0    0  0.45213510416E+01 -0.23319118221E+02  0.17255118467E+02  0.95640793554E+02  0.91023065145E+02 0.  0.
         11    1    3    3    0    0  0.34415747391E+02  0.63600433306E+01 -0.19211103269E+02  0.39924432478E+02  0.51100000000E-03 0. -1.
         22    1    1    0    0    0 -0.45213510416E+01  0.23319118221E+02 -0.17255118467E+02  0.29359206446E+02  0.00000000000E+00 0.  1.
</event>
<event>
 5    1  0.1102386E-009  0.9118800E+02  0.7818608E-02  0.1130116E+00
         25   -1    0    0    0    0  0.00000000000E+00  0.00000000000E+00  0.99999998245E-14  0.12500000000E+03  0.12500000000E+03 0.  0.
        -11    1    3    3    0    0 -0.28764801440E+02 -0.20359177528E+02 -0.57062168450E+01  0.35699731406E+02  0.51100000000E-03 0.  1.
         23    2    1    0    0    0  0.85725840230E+01  0.27091496329E+02 -0.53795157039E+01  0.96079807065E+02  0.91623969388E+02 0.  0.
         11    1    3    3    0    0  0.37337385463E+02  0.47450673857E+02  0.32670114105E+00  0.60380075659E+02  0.51100000000E-03 0. -1.
         22    1    1    0    0    0 -0.85725840230E+01 -0.27091496329E+02  0.53795157039E+01  0.28920192935E+02  0.00000000000E+00 0. -1.
</event>
<event>
 5    1  0.1102386E-009  0.9118800E+02  0.7818608E-02  0.1130116E+00
         25   -1    0    0    0    0  0.00000000000E+00  0.00000000000E+00  0.99999998245E-14  0.12500000000E+03  0.12500000000E+03 0.  0.
        -11    1    3    3    0    0 -0.24784419870E+02 -0.33875510506E+02  0.45194905501E+02  0.61679795426E+02  0.51100000000E-03 0.  1.
         23    2    1    0    0    0 -0.11860985164E+02 -0.21222049943E+02  0.16434359177E+02  0.95654701665E+02  0.91042162849E+02 0.  0.
         11    1    3    3    0    0  0.12923434706E+02  0.12653460563E+02 -0.28760546324E+02  0.33974906239E+02  0.51100000000E-03 0. -1.
         22    1    1    0    0    0  0.11860985164E+02  0.21222049943E+02 -0.16434359177E+02  0.29345298335E+02  0.00000000000E+00 0.  1.
</event>
<event>
 5    1  0.1102386E-009  0.9118800E+02  0.7818608E-02  0.1130116E+00
         25   -1    0    0    0    0  0.00000000000E+00  0.00000000000E+00  0.99999998245E-14  0.12500000000E+03  0.12500000000E+03 0.  0.
        -11    1    3    3    0    0 -0.31278182132E+02  0.16040855794E+02 -0.15693154774E+02  0.38495569084E+02  0.51100000000E-03 0. -1.
         23    2    1    0    0    0  0.15813959227E+02 -0.17305330088E+02 -0.16716554274E+02  0.96207658263E+02  0.91798227466E+02 0.  0.
         11    1    3    3    0    0  0.47092141359E+02 -0.33346185882E+02 -0.10233995007E+01  0.57712089179E+02  0.51100000000E-03 0.  1.
         22    1    1    0    0    0 -0.15813959227E+02  0.17305330088E+02  0.16716554274E+02  0.28792341737E+02  0.00000000000E+00 0.  1.
</event>
<event>
 5    1  0.1102386E-009  0.9118800E+02  0.7818608E-02  0.1130116E+00
         25   -1    0    0    0    0  0.00000000000E+00  0.00000000000E+00  0.99999998245E-14  0.12500000000E+03  0.12500000000E+03 0.  0.
        -11    1    3    3    0    0  0.32658138216E+02  0.33373277964E+02 -0.35580172869E+02  0.58705011502E+02  0.51100000000E-03 0.  1.
         23    2    1    0    0    0  0.10477713330E+02  0.25965380708E+02 -0.60830354880E+01  0.96347132906E+02  0.91987951529E+02 0.  0.
         11    1    3    3    0    0 -0.22180424886E+02 -0.74078972558E+01  0.29497137381E+02  0.37642121404E+02  0.51100000000E-03 0. -1.
         22    1    1    0    0    0 -0.10477713330E+02 -0.25965380708E+02  0.60830354880E+01  0.28652867094E+02  0.00000000000E+00 0.  1.
</event>
<event>
 5    1  0.1102386E-009  0.9118800E+02  0.7818608E-02  0.1130116E+00
         25   -1    0    0    0    0  0.00000000000E+00  0.00000000000E+00  0.99999998245E-14  0.12500000000E+03  0.12500000000E+03 0.  0.
        -11    1    3    3    0    0 -0.75902168437E+01 -0.43000131358E+02  0.25590033124E+02  0.50610991732E+02  0.51100000000E-03 0.  1.
         23    2    1    0    0    0 -0.45662672862E+01  0.23979543479E+01  0.28341721162E+02  0.96192810959E+02  0.91778007931E+02 0.  0.
         11    1    3    3    0    0  0.30239495576E+01  0.45398085706E+02  0.27516880381E+01  0.45581819227E+02  0.51100000000E-03 0. -1.
         22    1    1    0    0    0  0.45662672862E+01 -0.23979543479E+01 -0.28341721162E+02  0.28807189041E+02  0.00000000000E+00 0.  1.
</event>
<event>
 5    1  0.1102386E-009  0.9118800E+02  0.7818608E-02  0.1130116E+00
         25   -1    0    0    0    0  0.00000000000E+00  0.00000000000E+00  0.99999998245E-14  0.12500000000E+03  0.12500000000E+03 0.  0.
        -11    1    3    3    0    0  0.54560922355E+02 -0.89759741219E+01 -0.20717640114E+02  0.59048141138E+02  0.51100000000E-03 0.  1.
         23    2    1    0    0    0  0.21749693635E+02  0.85752407067E+01 -0.16254996041E+02  0.96525295038E+02  0.92229733598E+02 0.  0.
         11    1    3    3    0    0 -0.32811228720E+02  0.17551214829E+02  0.44626440736E+01  0.37477153900E+02  0.51100000000E-03 0. -1.
         22    1    1    0    0    0 -0.21749693635E+02 -0.85752407067E+01  0.16254996041E+02  0.28474704962E+02  0.00000000000E+00 0.  1.
</event>
<event>
 5    1  0.1102386E-009  0.9118800E+02  0.7818608E-02  0.1130116E+00
         25   -1    0    0    0    0  0.00000000000E+00  0.00000000000E+00  0.99999998245E-14  0.12500000000E+03  0.12500000000E+03 0.  0.
        -11    1    3    3    0    0 -0.15656594576E+02 -0.10604741440E+02  0.27823397048E+02  0.33641208633E+02  0.51100000000E-03 0. -1.
         23    2    1    0    0    0  0.18378623071E+01  0.78066883208E+01 -0.28482407251E+02  0.95409973924E+02  0.90705531700E+02 0.  0.
         11    1    3    3    0    0  0.17494456883E+02  0.18411429761E+02 -0.56305804299E+02  0.61768765290E+02  0.51100000000E-03 0.  1.
         22    1    1    0    0    0 -0.18378623071E+01 -0.78066883208E+01  0.28482407251E+02  0.29590026076E+02  0.00000000000E+00 0.  1.
</event>
<event>
 5    1  0.1102386E-009  0.9118800E+02  0.7818608E-02  0.1130116E+00
         25   -1    0    0    0    0  0.00000000000E+00  0.00000000000E+00  0.99999998245E-14  0.12500000000E+03  0.12500000000E+03 0.  0.
        -11    1    3    3    0    0  0.46732049069E+02 -0.24862895206E+02  0.23303212173E+02  0.57836732844E+02  0.51100000000E-03 0. -1.
         23    2    1    0    0    0  0.26880889373E+02  0.47908956970E+01  0.98678646540E+01  0.95967093705E+02  0.91470068472E+02 0.  0.
         11    1    3    3    0    0 -0.19851159696E+02  0.29653790903E+02 -0.13435347519E+02  0.38130360861E+02  0.51100000000E-03 0.  1.
         22    1    1    0    0    0 -0.26880889373E+02 -0.47908956970E+01 -0.98678646540E+01  0.29032906295E+02  0.00000000000E+00 0. -1.
</event>
<event>
 5    1  0.1102386E-009  0.9118800E+02  0.7818608E-02  0.1130116E+00
         25   -1    0    0    0    0  0.00000000000E+00  0.00000000000E+00  0.99999998245E-14  0.12500000000E+03  0.12500000000E+03 0.  0.
        -11    1    3    3    0    0 -0.33595062846E+02  0.92442131300E+01 -0.78904255433E+01  0.35725936510E+02  0.51100000000E-03 0. -1.
         23    2    1    0    0    0  0.11837220033E+02 -0.27743215660E+02 -0.19186160944E-01  0.94837006757E+02  0.89912466818E+02 0.  0.
         11    1    3    3    0    0  0.45432282879E+02 -0.36987428790E+02  0.78712393824E+01  0.59111070247E+02  0.51100000000E-03 0.  1.
         22    1    1    0    0    0 -0.11837220033E+02  0.27743215660E+02  0.19186160944E-01  0.30162993243E+02  0.00000000000E+00 0.  1.
</event>
<event>
 5    1  0.1102386E-009  0.9118800E+02  0.7818608E-02  0.1130116E+00
         25   -1    0    0    0    0  0.00000000000E+00  0.00000000000E+00  0.99999998245E-14  0.12500000000E+03  0.12500000000E+03 0.  0.
        -11    1    3    3    0    0 -0.56371627777E+02  0.31729819484E+01 -0.17337748458E+02  0.59062896598E+02  0.51100000000E-03 0.  1.
         23    2    1    0    0    0 -0.24652438616E+02 -0.13126821769E+02 -0.66946816972E+01  0.96279363822E+02  0.91895815767E+02 0.  0.
         11    1    3    3    0    0  0.31719189161E+02 -0.16299803718E+02  0.10643066761E+02  0.37216467224E+02  0.51100000000E-03 0. -1.
         22    1    1    0    0    0  0.24652438616E+02  0.13126821769E+02  0.66946816972E+01  0.28720636178E+02  0.00000000000E+00 0.  1.
</event>
<event>
 5    1  0.1102386E-009  0.9118800E+02  0.7818608E-02  0.1130116E+00
         25   -1    0    0    0    0  0.00000000000E+00  0.00000000000E+00  0.99999998245E-14  0.12500000000E+03  0.12500000000E+03 0.  0.
        -11    1    3    3    0    0  0.17770689383E+02 -0.34205353764E+02 -0.16053834636E+02  0.41755589255E+02  0.51100000000E-03 0. -1.
         23    2    1    0    0    0  0.24340895508E+02  0.17171952441E+02 -0.78249646108E+01  0.94200889365E+02  0.89023717858E+02 0.  0.
         11    1    3    3    0    0  0.65702061244E+01  0.51377306205E+02  0.82288700254E+01  0.52445300109E+02  0.51100000000E-03 0.  1.
         22    1    1    0    0    0 -0.24340895508E+02 -0.17171952441E+02  0.78249646108E+01  0.30799110635E+02  0.00000000000E+00 0.  1.
</event>
<event>
 5    1  0.1102386E-009  0.9118800E+02  0.7818608E-02  0.1130116E+00
         25   -1    0    0    0    0  0.00000000000E+00  0.00000000000E+00  0.99999998245E-14  0.12500000000E+03  0.12500000000E+03 0.  0.
        -11    1    3    3    0    0 -0.21777091477E+02 -0.86538901294E+01  0.26180345208E+02  0.35136049906E+02  0.51100000000E-03 0.  1.
         23    2    1    0    0    0 -0.12524179910E+02  0.17796682624E+02 -0.23995223345E+02  0.92606362689E+02  0.86755925863E+02 0.  0.
         11    1    3    3    0    0  0.92529115674E+01  0.26450572754E+02 -0.50175568553E+02  0.57470312783E+02  0.51100000000E-03 0. -1.
         22    1    1    0    0    0  0.12524179910E+02 -0.17796682624E+02  0.23995223345E+02  0.32393637311E+02  0.00000000000E+00 0. -1.
</event>
<event>
 5    1  0.1102386E-009  0.9118800E+02  0.7818608E-02  0.1130116E+00
         25   -1    0    0    0    0  0.00000000000E+00  0.00000000000E+00  0.99999998245E-14  0.12500000000E+03  0.12500000000E+03 0.  0.
        -11    1    3    3    0    0 -0.12970475988E+02 -0.27820839369E+02  0.61850417808E+01  0.31312730520E+02  0.51100000000E-03 0. -1.
         23    2    1    0    0    0  0.88941089134E+01  0.11328996854E+02 -0.31806350358E+02  0.90084455236E+02  0.83042843214E+02 0.  0.
         11    1    3    3    0    0  0.21864584902E+02  0.39149836223E+02 -0.37991392138E+02  0.58771724716E+02  0.51100000000E-03 0.  1.
         22    1    1    0    0    0 -0.88941089134E+01 -0.11328996854E+02  0.31806350358E+02  0.34915544764E+02  0.00000000000E+00 0.  1.
</event>
<event>
 5    1  0.1102386E-009  0.9118800E+02  0.7818608E-02  0.1130116E+00
         25   -1    0    0    0    0  0.00000000000E+00  0.00000000000E+00  0.99999998245E-14  0.12500000000E+03  0.12500000000E+03 0.  0.
        -11    1    3    3    0    0  0.40186468408E+02  0.15132456766E+02 -0.33562728516E-01  0.42941176249E+02  0.51100000000E-03 0.  1.
         23    2    1    0    0    0 -0.11002939139E+02  0.24741059276E+02  0.10281750499E+02  0.96036245459E+02  0.91564520229E+02 0.  0.
         11    1    3    3    0    0 -0.51189407547E+02  0.96086025100E+01  0.10315313227E+02  0.53095069210E+02  0.51100000000E-03 0. -1.
         22    1    1    0    0    0  0.11002939139E+02 -0.24741059276E+02 -0.10281750499E+02  0.28963754541E+02  0.00000000000E+00 0. -1.
</event>
<event>
 5    1  0.1102386E-009  0.9118800E+02  0.7818608E-02  0.1130116E+00
         25   -1    0    0    0    0  0.00000000000E+00  0.00000000000E+00  0.99999998245E-14  0.12500000000E+03  0.12500000000E+03 0.  0.
        -11    1    3    3    0    0  0.29936961784E+02 -0.16983901265E+02  0.35050284242E+02  0.49124301610E+02  0.51100000000E-03 0.  1.
         23    2    1    0    0    0 -0.15509185163E+02 -0.93496998972E+01  0.20932201130E+02  0.97321330293E+02  0.93302371745E+02 0.  0.
         11    1    3    3    0    0 -0.45446146947E+02  0.76342013676E+01 -0.14118083111E+02  0.48197028683E+02  0.51100000000E-03 0. -1.
         22    1    1    0    0    0  0.15509185163E+02  0.93496998972E+01 -0.20932201130E+02  0.27678669707E+02  0.00000000000E+00 0.  1.
</event>
<event>
 5    1  0.1102386E-009  0.9118800E+02  0.7818608E-02  0.1130116E+00
         25   -1    0    0    0    0  0.00000000000E+00  0.00000000000E+00  0.99999998245E-14  0.12500000000E+03  0.12500000000E+03 0.  0.
        -11    1    3    3    0    0  0.19114113355E+02  0.51255242030E+01 -0.22153339107E+02  0.29705062894E+02  0.51100000000E-03 0.  1.
         23    2    1    0    0    0  0.55195838775E+01  0.17488615553E+02  0.32674820514E+02  0.87530527415E+02  0.79105194860E+02 0.  0.
         11    1    3    3    0    0 -0.13594529478E+02  0.12363091350E+02  0.54828159621E+02  0.57825464521E+02  0.51100000000E-03 0. -1.
         22    1    1    0    0    0 -0.55195838775E+01 -0.17488615553E+02 -0.32674820514E+02  0.37469472585E+02  0.00000000000E+00 0. -1.
</event>
<event>
 5    1  0.1102386E-009  0.9118800E+02  0.7818608E-02  0.1130116E+00
         25   -1    0    0    0    0  0.00000000000E+00  0.00000000000E+00  0.99999998245E-14  0.12500000000E+03  0.12500000000E+03 0.  0.
        -11    1    3    3    0    0  0.42531116786E+02 -0.35953953053E+02  0.11386017513E+02  0.56843856574E+02  0.51100000000E-03 0.  1.
         23    2    1    0    0    0  0.20642422022E+02  0.44858531138E+01  0.19469825317E+01  0.10378624960E+03  0.10159509043E+03 0.  0.
         11    1    3    3    0    0 -0.21888694764E+02  0.40439806166E+02 -0.94390349814E+01  0.46942393025E+02  0.51100000000E-03 0. -1.
         22    1    1    0    0    0 -0.20642422022E+02 -0.44858531138E+01 -0.19469825317E+01  0.21213750401E+02  0.00000000000E+00 0.  1.
</event>
<event>
 5    1  0.1102386E-009  0.9118800E+02  0.7818608E-02  0.1130116E+00
         25   -1    0    0    0    0  0.00000000000E+00  0.00000000000E+00  0.99999998245E-14  0.12500000000E+03  0.12500000000E+03 0.  0.
        -11    1    3    3    0    0  0.59191424544E+01  0.13379467357E+02 -0.37048006743E+02  0.39832162859E+02  0.51100000000E-03 0.  1.
         23    2    1    0    0    0 -0.26019254113E+02  0.76919251828E+01  0.92233474263E+01  0.96342759460E+02  0.91982008377E+02 0.  0.
         11    1    3    3    0    0 -0.31938396568E+02 -0.56875421738E+01  0.46271354169E+02  0.56510596601E+02  0.51100000000E-03 0. -1.
         22    1    1    0    0    0  0.26019254113E+02 -0.76919251828E+01 -0.92233474263E+01  0.28657240540E+02  0.00000000000E+00 0. -1.
</event>
<event>
 5    1  0.1102386E-009  0.9118800E+02  0.7818608E-02  0.1130116E+00
         25   -1    0    0    0    0  0.00000000000E+00  0.00000000000E+00  0.99999998245E-14  0.12500000000E+03  0.12500000000E+03 0.  0.
        -11    1    3    3    0    0  0.28571506034E+02  0.16616590796E+02 -0.52409680702E+02  0.61961412817E+02  0.51100000000E-03 0. -1.
         23    2    1    0    0    0  0.10657055392E+02  0.96302329306E+01 -0.31565389855E+02  0.90320206854E+02  0.83396952663E+02 0.  0.
         11    1    3    3    0    0 -0.17914450642E+02 -0.69863578658E+01  0.20844290847E+02  0.28358794037E+02  0.51100000000E-03 0.  1.
         22    1    1    0    0    0 -0.10657055392E+02 -0.96302329306E+01  0.31565389855E+02  0.34679793146E+02  0.00000000000E+00 0. -1.
</event>
<event>
 5    1  0.1102386E-009  0.9118800E+02  0.7818608E-02  0.1130116E+00
         25   -1    0    0    0    0  0.00000000000E+00  0.00000000000E+00  0.99999998245E-14  0.12500000000E+03  0.12500000000E+03 0.  0.
        -11    1    3    3    0    0  0.36174477240E+02  0.46566860698E+02  0.12786150891E+02  0.60336978494E+02  0.51100000000E-03 0.  1.
         23    2    1    0    0    0  0.19252394383E+02  0.12913015640E+02  0.13803829274E+02  0.98019518814E+02  0.94233113625E+02 0.  0.
         11    1    3    3    0    0 -0.16922082857E+02 -0.33653845058E+02  0.10176783827E+01  0.37682540320E+02  0.51100000000E-03 0. -1.
         22    1    1    0    0    0 -0.19252394383E+02 -0.12913015640E+02 -0.13803829274E+02  0.26980481186E+02  0.00000000000E+00 0.  1.
</event>
<event>
 5    1  0.1102386E-009  0.9118800E+02  0.7818608E-02  0.1130116E+00
         25   -1    0    0    0    0  0.00000000000E+00  0.00000000000E+00  0.99999998245E-14  0.12500000000E+03  0.12500000000E+03 0.  0.
        -11    1    3    3    0    0  0.20467997126E+02 -0.12447760738E+02 -0.28541786114E+02  0.37262839513E+02  0.51100000000E-03 0.  1.
         23    2    1    0    0    0 -0.10220520646E+02 -0.21247254212E+02  0.19130437849E+02  0.94637547758E+02  0.89634741811E+02 0.  0.
         11    1    3    3    0    0 -0.30688517772E+02 -0.87994934743E+01  0.47672223963E+02  0.57374708246E+02  0.51100000000E-03 0. -1.
         22    1    1    0    0    0  0.10220520646E+02  0.21247254212E+02 -0.19130437849E+02  0.30362452242E+02  0.00000000000E+00 0. -1.
</event>
<event>
 5    1  0.1102386E-009  0.9118800E+02  0.7818608E-02  0.1130116E+00
         25   -1    0    0    0    0  0.00000000000E+00  0.00000000000E+00  0.99999998245E-14  0.12500000000E+03  0.12500000000E+03 0.  0.
        -11    1    3    3    0    0 -0.30002206257E+02 -0.48608007009E+02 -0.76015557570E+01  0.57625119313E+02  0.51100000000E-03 0. -1.
         23    2    1    0    0    0 -0.23201671990E+02 -0.15556721475E+02  0.95508764867E+01  0.95478001290E+02  0.90799230848E+02 0.  0.
         11    1    3    3    0    0  0.68005342674E+01  0.33051285535E+02  0.17152432244E+02  0.37852881977E+02  0.51100000000E-03 0.  1.
         22    1    1    0    0    0  0.23201671990E+02  0.15556721475E+02 -0.95508764867E+01  0.29521998710E+02  0.00000000000E+00 0. -1.
</event>
<event>
 5    1  0.1102386E-009  0.9118800E+02  0.7818608E-02  0.1130116E+00
         25   -1    0    0    0    0  0.00000000000E+00  0.00000000000E+00  0.99999998245E-14  0.12500000000E+03  0.12500000000E+03 0.  0.
        -11    1    3    3    0    0  0.12806664488E+02  0.38605029162E+01  0.40043745246E+02  0.42218664968E+02  0.51100000000E-03 0. -1.
         23    2    1    0    0    0 -0.22536864530E+02  0.19409975315E+02  0.40932987990E+01  0.94976467569E+02  0.90106142367E+02 0.  0.
         11    1    3    3    0    0 -0.35343529018E+02  0.15549472398E+02 -0.35950446447E+02  0.52757802601E+02  0.51100000000E-03 0.  1.
         22    1    1    0    0    0  0.22536864530E+02 -0.19409975315E+02 -0.40932987990E+01  0.30023532431E+02  0.00000000000E+00 0.  1.
</event>
<event>
 5    1  0.1102386E-009  0.9118800E+02  0.7818608E-02  0.1130116E+00
         25   -1    0    0    0    0  0.00000000000E+00  0.00000000000E+00  0.99999998245E-14  0.12500000000E+03  0.12500000000E+03 0.  0.
        -11    1    3    3    0    0 -0.27542310136E+02 -0.19164360660E+02  0.19441391281E+01  0.33609987270E+02  0.51100000000E-03 0.  1.
         23    2    1    0    0    0  0.19160033627E+02  0.21957918315E+02  0.45239556581E+00  0.95854473292E+02  0.91316035411E+02 0.  0.
         11    1    3    3    0    0  0.46702343763E+02  0.41122278974E+02 -0.14917435623E+01  0.62244486022E+02  0.51100000000E-03 0. -1.
         22    1    1    0    0    0 -0.19160033627E+02 -0.21957918315E+02 -0.45239556581E+00  0.29145526708E+02  0.00000000000E+00 0. -1.
</event>
<event>
 5    1  0.1102386E-009  0.9118800E+02  0.7818608E-02  0.1130116E+00
         25   -1    0    0    0    0  0.00000000000E+00  0.00000000000E+00  0.99999998245E-14  0.12500000000E+03  0.12500000000E+03 0.  0.
        -11    1    3    3    0    0  0.23418462163E+02  0.82184225738E+01  0.24969828752E+02  0.35205953870E+02  0.51100000000E-03 0.  1.
         23    2    1    0    0    0  0.65360585513E+01  0.18538915640E+01 -0.30612196976E+02  0.93642966036E+02  0.88236848930E+02 0.  0.
         11    1    3    3    0    0 -0.16882403612E+02 -0.63645310097E+01 -0.55582025728E+02  0.58437012167E+02  0.51100000000E-03 0. -1.
         22    1    1    0    0    0 -0.65360585513E+01 -0.18538915640E+01  0.30612196976E+02  0.31357033964E+02  0.00000000000E+00 0. -1.
</event>
<event>
 5    1  0.1102386E-009  0.9118800E+02  0.7818608E-02  0.1130116E+00
         25   -1    0    0    0    0  0.00000000000E+00  0.00000000000E+00  0.99999998245E-14  0.12500000000E+03  0.12500000000E+03 0.  0.
        -11    1    3    3    0    0  0.24059977804E+02 -0.12632123455E+02  0.24995995510E+02  0.36922254356E+02  0.51100000000E-03 0. -1.
         23    2    1    0    0    0  0.74875174225E+01  0.23602047564E+02 -0.17118052054E+02  0.94897719813E+02  0.89996833017E+02 0.  0.
         11    1    3    3    0    0 -0.16572460381E+02  0.36234171019E+02 -0.42114047564E+02  0.57975465457E+02  0.51100000000E-03 0.  1.
         22    1    1    0    0    0 -0.74875174225E+01 -0.23602047564E+02  0.17118052054E+02  0.30102280187E+02  0.00000000000E+00 0.  1.
</event>
<event>
 5    1  0.1102386E-009  0.9118800E+02  0.7818608E-02  0.1130116E+00
         25   -1    0    0    0    0  0.00000000000E+00  0.00000000000E+00  0.99999998245E-14  0.12500000000E+03  0.12500000000E+03 0.  0.
        -11    1    3    3    0    0  0.30020925365E+02 -0.26451672872E+02  0.10666419782E+02  0.41409171312E+02  0.51100000000E-03 0.  1.
         23    2    1    0    0    0  0.67985851295E+01  0.25237923724E+02  0.53121476402E+01  0.98328058447E+02  0.94641505756E+02 0.  0.
         11    1    3    3    0    0 -0.23222340236E+02  0.51689596596E+02 -0.53542721415E+01  0.56918887135E+02  0.51100000000E-03 0. -1.
         22    1    1    0    0    0 -0.67985851295E+01 -0.25237923724E+02 -0.53121476402E+01  0.26671941553E+02  0.00000000000E+00 0. -1.
</event>
<event>
 5    1  0.1102386E-009  0.9118800E+02  0.7818608E-02  0.1130116E+00
         25   -1    0    0    0    0  0.00000000000E+00  0.00000000000E+00  0.99999998245E-14  0.12500000000E+03  0.12500000000E+03 0.  0.
        -11    1    3    3    0    0 -0.43903758470E+02  0.25480411343E+02  0.24931574563E+02  0.56554175623E+02  0.51100000000E-03 0.  1.
         23    2    1    0    0    0 -0.71660251820E+01  0.12672927853E+02  0.25694214884E+02  0.95467853180E+02  0.90785259239E+02 0.  0.
         11    1    3    3    0    0  0.36737733288E+02 -0.12807483490E+02  0.76264032090E+00  0.38913677557E+02  0.51100000000E-03 0. -1.
         22    1    1    0    0    0  0.71660251820E+01 -0.12672927853E+02 -0.25694214884E+02  0.29532146820E+02  0.00000000000E+00 0.  1.
</event>
<event>
 5    1  0.1102386E-009  0.9118800E+02  0.7818608E-02  0.1130116E+00
         25   -1    0    0    0    0  0.00000000000E+00  0.00000000000E+00  0.99999998245E-14  0.12500000000E+03  0.12500000000E+03 0.  0.
        -11    1    3    3    0    0 -0.37376605312E+02  0.39023531957E+02 -0.19635863343E+02  0.57492728240E+02  0.51100000000E-03 0.  1.
         23    2    1    0    0    0 -0.21164924331E+02  0.12131668295E+02  0.80040322125E+01  0.99325188818E+02  0.95949451299E+02 0.  0.
         11    1    3    3    0    0  0.16211680981E+02 -0.26891863661E+02  0.27639895555E+02  0.41832460578E+02  0.51100000000E-03 0. -1.
         22    1    1    0    0    0  0.21164924331E+02 -0.12131668295E+02 -0.80040322125E+01  0.25674811182E+02  0.00000000000E+00 0.  1.
</event>
<event>
 5    1  0.1102386E-009  0.9118800E+02  0.7818608E-02  0.1130116E+00
         25   -1    0    0    0    0  0.00000000000E+00  0.00000000000E+00  0.99999998245E-14  0.12500000000E+03  0.12500000000E+03 0.  0.
        -11    1    3    3    0    0  0.54649934569E+02 -0.92317958046E+01  0.87548331981E+01  0.56111393733E+02  0.51100000000E-03 0. -1.
         23    2    1    0    0    0  0.25361998146E+02  0.10023910057E+02 -0.10108482999E+02  0.95915792063E+02  0.91399934441E+02 0.  0.
         11    1    3    3    0    0 -0.29287936423E+02  0.19255705862E+02 -0.18863316197E+02  0.39804398329E+02  0.51100000000E-03 0.  1.
         22    1    1    0    0    0 -0.25361998146E+02 -0.10023910057E+02  0.10108482999E+02  0.29084207937E+02  0.00000000000E+00 0. -1.
</event>
<event>
 5    1  0.1102386E-009  0.9118800E+02  0.7818608E-02  0.1130116E+00
         25   -1    0    0    0    0  0.00000000000E+00  0.00000000000E+00  0.99999998245E-14  0.12500000000E+03  0.12500000000E+03 0.  0.
        -11    1    3    3    0    0 -0.57410497800E+01  0.41684223979E+02  0.55782123660E+01  0.42445855331E+02  0.51100000000E-03 0.  1.
         23    2    1    0    0    0 -0.19812338332E+02 -0.67040832041E+01 -0.17364460368E+02  0.97815482979E+02  0.93962070778E+02 0.  0.
         11    1    3    3    0    0 -0.14071288552E+02 -0.48388307183E+02 -0.22942672734E+02  0.55369627649E+02  0.51100000000E-03 0. -1.
         22    1    1    0    0    0  0.19812338332E+02  0.67040832041E+01  0.17364460368E+02  0.27184517021E+02  0.00000000000E+00 0. -1.
</event>
<event>
 5    1  0.1102386E-009  0.9118800E+02  0.7818608E-02  0.1130116E+00
         25   -1    0    0    0    0  0.00000000000E+00  0.00000000000E+00  0.99999998245E-14  0.12500000000E+03  0.12500000000E+03 0.  0.
        -11    1    3    3    0    0  0.83478025111E+01 -0.42687689450E+02 -0.42974738562E+02  0.61145341540E+02  0.51100000000E-03 0. -1.
         23    2    1    0    0    0  0.12063364987E+02 -0.15177197273E+02 -0.19528901081E+02  0.97481822929E+02  0.93517141382E+02 0.  0.
         11    1    3    3    0    0  0.37155624759E+01  0.27510492176E+02  0.23445837481E+02  0.36336481389E+02  0.51100000000E-03 0.  1.
         22    1    1    0    0    0 -0.12063364987E+02  0.15177197273E+02  0.19528901081E+02  0.27518177071E+02  0.00000000000E+00 0. -1.
</event>
<event>
 5    1  0.1102386E-009  0.9118800E+02  0.7818608E-02  0.1130116E+00
         25   -1    0    0    0    0  0.00000000000E+00  0.00000000000E+00  0.99999998245E-14  0.12500000000E+03  0.12500000000E+03 0.  0.
        -11    1    3    3    0    0  0.31412757717E+02 -0.13677694208E+02 -0.40010911599E+02  0.52675551383E+02  0.51100000000E-03 0.  1.
         23    2    1    0    0    0  0.28672885049E+02  0.69107456832E+01 -0.26938947781E+01  0.95383284923E+02  0.90668744508E+02 0.  0.
         11    1    3    3    0    0 -0.27398726683E+01  0.20588439892E+02  0.37317016821E+02  0.42707733540E+02  0.51100000000E-03 0. -1.
         22    1    1    0    0    0 -0.28672885049E+02 -0.69107456832E+01  0.26938947781E+01  0.29616715077E+02  0.00000000000E+00 0. -1.
</event>
<event>
 5    1  0.1102386E-009  0.9118800E+02  0.7818608E-02  0.1130116E+00
         25   -1    0    0    0    0  0.00000000000E+00  0.00000000000E+00  0.99999998245E-14  0.12500000000E+03  0.12500000000E+03 0.  0.
        -11    1    3    3    0    0 -0.13740997035E+02  0.39251199314E+02 -0.10893307839E+02  0.42989950024E+02  0.51100000000E-03 0.  1.
         23    2    1    0    0    0  0.70630259463E+01  0.99999651576E+01  0.27103076375E+02  0.95260087632E+02  0.90498739814E+02 0.  0.
         11    1    3    3    0    0  0.20804022981E+02 -0.29251234157E+02  0.37996384215E+02  0.52270137608E+02  0.51100000000E-03 0. -1.
         22    1    1    0    0    0 -0.70630259463E+01 -0.99999651576E+01 -0.27103076375E+02  0.29739912368E+02  0.00000000000E+00 0.  1.
</event>
<event>
 5    1  0.1102386E-009  0.9118800E+02  0.7818608E-02  0.1130116E+00
         25   -1    0    0    0    0  0.00000000000E+00  0.00000000000E+00  0.99999998245E-14  0.12500000000E+03  0.12500000000E+03 0.  0.
        -11    1    3    3    0    0  0.70303917590E+01  0.35049054396E+02  0.42932484646E+02  0.55866455593E+02  0.51100000000E-03 0.  1.
         23    2    1    0    0    0  0.20644627035E+02  0.56826601187E+01  0.21294786256E+02  0.94801305109E+02  0.89862819215E+02 0.  0.
         11    1    3    3    0    0  0.13614235276E+02 -0.29366394277E+02 -0.21637698390E+02  0.38934849516E+02  0.51100000000E-03 0. -1.
         22    1    1    0    0    0 -0.20644627035E+02 -0.56826601187E+01 -0.21294786256E+02  0.30198694891E+02  0.00000000000E+00 0.  1.
</event>
<event>
 5    1  0.1102386E-009  0.9118800E+02  0.7818608E-02  0.1130116E+00
         25   -1    0    0    0    0  0.00000000000E+00  0.00000000000E+00  0.99999998245E-14  0.12500000000E+03  0.12500000000E+03 0.  0.
        -11    1    3    3    0    0 -0.20223132337E+02 -0.37829970552E+02 -0.13903011900E+02  0.45092965012E+02  0.51100000000E-03 0. -1.
         23    2    1    0    0    0  0.94074799144E+01  0.59605308976E+01 -0.23651739451E+02  0.98857441097E+02  0.95338136516E+02 0.  0.
         11    1    3    3    0    0  0.29630612251E+02  0.43790501449E+02 -0.97487275516E+01  0.53764476085E+02  0.51100000000E-03 0.  1.
         22    1    1    0    0    0 -0.94074799144E+01 -0.59605308976E+01  0.23651739451E+02  0.26142558903E+02  0.00000000000E+00 0.  1.
</event>
<event>
 5    1  0.1102386E-009  0.9118800E+02  0.7818608E-02  0.1130116E+00
         25   -1    0    0    0    0  0.00000000000E+00  0.00000000000E+00  0.99999998245E-14  0.12500000000E+03  0.12500000000E+03 0.  0.
        -11    1    3    3    0    0  0.26222709380E+02  0.36709728384E+02  0.37318350353E+02  0.58548218748E+02  0.51100000000E-03 0.  1.
         23    2    1    0    0    0  0.23866735331E+02  0.12373201513E+02  0.75381319182E+01  0.97079745634E+02  0.92978150168E+02 0.  0.
         11    1    3    3    0    0 -0.23559740493E+01 -0.24336526871E+02 -0.29780218435E+02  0.38531526886E+02  0.51100000000E-03 0. -1.
         22    1    1    0    0    0 -0.23866735331E+02 -0.12373201513E+02 -0.75381319182E+01  0.27920254366E+02  0.00000000000E+00 0.  1.
</event>
<event>
 5    1  0.1102386E-009  0.9118800E+02  0.7818608E-02  0.1130116E+00
         25   -1    0    0    0    0  0.00000000000E+00  0.00000000000E+00  0.99999998245E-14  0.12500000000E+03  0.12500000000E+03 0.  0.
        -11    1    3    3    0    0 -0.18305786493E+02 -0.79774158210E+01 -0.34797963950E+02  0.40120310039E+02  0.51100000000E-03 0.  1.
         23    2    1    0    0    0  0.21026641398E+02 -0.21992199488E+02  0.15407692576E+00  0.94573034550E+02  0.89544729814E+02 0.  0.
         11    1    3    3    0    0  0.39332427891E+02 -0.14014783667E+02  0.34952040876E+02  0.54452724511E+02  0.51100000000E-03 0. -1.
         22    1    1    0    0    0 -0.21026641398E+02  0.21992199488E+02 -0.15407692576E+00  0.30426965450E+02  0.00000000000E+00 0. -1.
</event>
<event>
 5    1  0.1102386E-009  0.9118800E+02  0.7818608E-02  0.1130116E+00
         25   -1    0    0    0    0  0.00000000000E+00  0.00000000000E+00  0.99999998245E-14  0.12500000000E+03  0.12500000000E+03 0.  0.
        -11    1    3    3    0    0 -0.30648908382E+02 -0.53161178065E+02 -0.17796283350E+01  0.61389197059E+02  0.51100000000E-03 0. -1.
         23    2    1    0    0    0 -0.21789653667E+02 -0.21136800907E+02 -0.62411778140E+00  0.94636487646E+02  0.89633263420E+02 0.  0.
         11    1    3    3    0    0  0.88592547157E+01  0.32024377158E+02  0.11555105536E+01  0.33247290587E+02  0.51100000000E-03 0.  1.
         22    1    1    0    0    0  0.21789653667E+02  0.21136800907E+02  0.62411778140E+00  0.30363512354E+02  0.00000000000E+00 0. -1.
</event>
<event>
 5    1  0.1102386E-009  0.9118800E+02  0.7818608E-02  0.1130116E+00
         25   -1    0    0    0    0  0.00000000000E+00  0.00000000000E+00  0.99999998245E-14  0.12500000000E+03  0.12500000000E+03 0.  0.
        -11    1    3    3    0    0 -0.13645073555E+02  0.42301329433E+02 -0.76088285261E+01  0.45094176740E+02  0.51100000000E-03 0. -1.
         23    2    1    0    0    0  0.11173091898E+02  0.33269395713E+01 -0.27295818279E+02  0.95318891446E+02  0.90579925268E+02 0.  0.
         11    1    3    3    0    0  0.24818165453E+02 -0.38974389861E+02 -0.19686989753E+02  0.50224714706E+02  0.51100000000E-03 0.  1.
         22    1    1    0    0    0 -0.11173091898E+02 -0.33269395713E+01  0.27295818279E+02  0.29681108554E+02  0.00000000000E+00 0.  1.
</event>
<event>
 5    1  0.1102386E-009  0.9118800E+02  0.7818608E-02  0.1130116E+00
         25   -1    0    0    0    0  0.00000000000E+00  0.00000000000E+00  0.99999998245E-14  0.12500000000E+03  0.12500000000E+03 0.  0.
        -11    1    3    3    0    0 -0.29855144600E+02 -0.16391369794E+02 -0.24457349856E+02  0.41930521402E+02  0.51100000000E-03 0.  1.
         23    2    1    0    0    0  0.23394534131E+02 -0.10715124255E+02 -0.99442878015E+01  0.97413645132E+02  0.93425966857E+02 0.  0.
         11    1    3    3    0    0  0.53249678731E+02  0.56762455391E+01  0.14513062055E+02  0.55483123730E+02  0.51100000000E-03 0. -1.
         22    1    1    0    0    0 -0.23394534131E+02  0.10715124255E+02  0.99442878015E+01  0.27586354868E+02  0.00000000000E+00 0. -1.
</event>
<event>
 5    1  0.1102386E-009  0.9118800E+02  0.7818608E-02  0.1130116E+00
         25   -1    0    0    0    0  0.00000000000E+00  0.00000000000E+00  0.99999998245E-14  0.12500000000E+03  0.12500000000E+03 0.  0.
        -11    1    3    3    0    0  0.41897173561E+01  0.45926851502E+02 -0.14192275754E+02  0.48251944124E+02  0.51100000000E-03 0. -1.
         23    2    1    0    0    0  0.20217793372E+02  0.48665631208E+00 -0.19721498794E+02  0.96752282962E+02  0.92536861522E+02 0.  0.
         11    1    3    3    0    0  0.16028076016E+02 -0.45440195190E+02 -0.55292230403E+01  0.48500338838E+02  0.51100000000E-03 0.  1.
         22    1    1    0    0    0 -0.20217793372E+02 -0.48665631208E+00  0.19721498794E+02  0.28247717038E+02  0.00000000000E+00 0. -1.
</event>
<event>
 5    1  0.1102386E-009  0.9118800E+02  0.7818608E-02  0.1130116E+00
         25   -1    0    0    0    0  0.00000000000E+00  0.00000000000E+00  0.99999998245E-14  0.12500000000E+03  0.12500000000E+03 0.  0.
        -11    1    3    3    0    0 -0.45118398446E+02 -0.12781391823E+02  0.27520035444E+02  0.54372660468E+02  0.51100000000E-03 0.  1.
         23    2    1    0    0    0 -0.53456048529E+01 -0.21134914238E+02  0.19402078057E+02  0.95816087924E+02  0.91263475613E+02 0.  0.
         11    1    3    3    0    0  0.39772793593E+02 -0.83535224152E+01 -0.81179573864E+01  0.41443427456E+02  0.51100000000E-03 0. -1.
         22    1    1    0    0    0  0.53456048529E+01  0.21134914238E+02 -0.19402078057E+02  0.29183912076E+02  0.00000000000E+00 0.  1.
</event>
<event>
 5    1  0.1102386E-009  0.9118800E+02  0.7818608E-02  0.1130116E+00
         25   -1    0    0    0    0  0.00000000000E+00  0.00000000000E+00  0.99999998245E-14  0.12500000000E+03  0.12500000000E+03 0.  0.
        -11    1    3    3    0    0  0.27564913197E+02 -0.31699207042E+02  0.24154547343E+02  0.48457262864E+02  0.51100000000E-03 0.  1.
         23    2    1    0    0    0  0.26255291849E+02  0.20143362546E+01 -0.10341465618E+02  0.96709651614E+02  0.92479256613E+02 0.  0.
         11    1    3    3    0    0 -0.13096213476E+01  0.33713543296E+02 -0.34496012961E+02  0.48252388751E+02  0.51100000000E-03 0. -1.
         22    1    1    0    0    0 -0.26255291849E+02 -0.20143362546E+01  0.10341465618E+02  0.28290348386E+02  0.00000000000E+00 0. -1.
</event>
<event>
 5    1  0.1102386E-009  0.9118800E+02  0.7818608E-02  0.1130116E+00
         25   -1    0    0    0    0  0.00000000000E+00  0.00000000000E+00  0.99999998245E-14  0.12500000000E+03  0.12500000000E+03 0.  0.
        -11    1    3    3    0    0  0.45035063350E+02 -0.15704689809E+02 -0.37970677608E+02  0.60963649589E+02  0.51100000000E-03 0. -1.
         23    2    1    0    0    0  0.12543435317E+02 -0.10512050781E+02 -0.22113180941E+02  0.97489388365E+02  0.93527253201E+02 0.  0.
         11    1    3    3    0    0 -0.32491628033E+02  0.51926390278E+01  0.15857496667E+02  0.36525738776E+02  0.51100000000E-03 0.  1.
         22    1    1    0    0    0 -0.12543435317E+02  0.10512050781E+02  0.22113180941E+02  0.27510611635E+02  0.00000000000E+00 0. -1.
</event>
<event>
 5    1  0.1102386E-009  0.9118800E+02  0.7818608E-02  0.1130116E+00
         25   -1    0    0    0    0  0.00000000000E+00  0.00000000000E+00  0.99999998245E-14  0.12500000000E+03  0.12500000000E+03 0.  0.
        -11    1    3    3    0    0  0.12179576948E+02 -0.24291985432E+02  0.53167372160E+02  0.59709397196E+02  0.51100000000E-03 0.  1.
         23    2    1    0    0    0  0.97179863239E+01  0.60312809246E+00  0.28665267338E+02  0.94726239526E+02  0.89758341570E+02 0.  0.
         11    1    3    3    0    0 -0.24615906244E+01  0.24895113524E+02 -0.24502104822E+02  0.35016842330E+02  0.51100000000E-03 0. -1.
         22    1    1    0    0    0 -0.97179863239E+01 -0.60312809246E+00 -0.28665267338E+02  0.30273760474E+02  0.00000000000E+00 0.  1.
</event>
<event>
 5    1  0.1102386E-009  0.9118800E+02  0.7818608E-02  0.1130116E+00
         25   -1    0    0    0    0  0.00000000000E+00  0.00000000000E+00  0.99999998245E-14  0.12500000000E+03  0.12500000000E+03 0.  0.
        -11    1    3    3    0    0 -0.45917425329E+02  0.37184464250E+02  0.11269850876E+02  0.60150676384E+02  0.51100000000E-03 0. -1.
         23    2    1    0    0    0 -0.15331452900E+02  0.24100218670E+02 -0.28589805332E+01  0.96293767965E+02  0.91915406713E+02 0.  0.
         11    1    3    3    0    0  0.30585972429E+02 -0.13084245580E+02 -0.14128831409E+02  0.36143091581E+02  0.51100000000E-03 0.  1.
         22    1    1    0    0    0  0.15331452900E+02 -0.24100218670E+02  0.28589805332E+01  0.28706232035E+02  0.00000000000E+00 0. -1.
</event>
<event>
 5    1  0.1102386E-009  0.9118800E+02  0.7818608E-02  0.1130116E+00
         25   -1    0    0    0    0  0.00000000000E+00  0.00000000000E+00  0.99999998245E-14  0.12500000000E+03  0.12500000000E+03 0.  0.
        -11    1    3    3    0    0 -0.27209268447E+02 -0.27176035715E+02  0.12534039281E+02  0.40447290979E+02  0.51100000000E-03 0. -1.
         23    2    1    0    0    0  0.15895239294E+02  0.59326344776E+01  0.23619333401E+02  0.95918602262E+02  0.91403777633E+02 0.  0.
         11    1    3    3    0    0  0.43104507741E+02  0.33108670192E+02  0.11085294120E+02  0.55471311283E+02  0.51100000000E-03 0.  1.
         22    1    1    0    0    0 -0.15895239294E+02 -0.59326344776E+01 -0.23619333401E+02  0.29081397738E+02  0.00000000000E+00 0. -1.
</event>
<event>
 5    1  0.1102386E-009  0.9118800E+02  0.7818608E-02  0.1130116E+00
         25   -1    0    0    0    0  0.00000000000E+00  0.00000000000E+00  0.99999998245E-14  0.12500000000E+03  0.12500000000E+03 0.  0.
        -11    1    3    3    0    0 -0.49387531331E+01 -0.35932745615E+02  0.25505373947E+02  0.44340473502E+02  0.51100000000E-03 0.  1.
         23    2    1    0    0    0 -0.11125690702E+02  0.14555121087E+02  0.23442694044E+02  0.95247816089E+02  0.90481788346E+02 0.  0.
         11    1    3    3    0    0 -0.61869375684E+01  0.50487866702E+02 -0.20626799033E+01  0.50907342587E+02  0.51100000000E-03 0. -1.
         22    1    1    0    0    0  0.11125690702E+02 -0.14555121087E+02 -0.23442694044E+02  0.29752183911E+02  0.00000000000E+00 0.  1.
</event>
<event>
 5    1  0.1102386E-009  0.9118800E+02  0.7818608E-02  0.1130116E+00
         25   -1    0    0    0    0  0.00000000000E+00  0.00000000000E+00  0.99999998245E-14  0.12500000000E+03  0.12500000000E+03 0.  0.
        -11    1    3    3    0    0  0.17796622491E+02  0.12018299433E+02 -0.26521726686E+02  0.34125668932E+02  0.51100000000E-03 0.  1.
         23    2    1    0    0    0 -0.58868685848E+01 -0.25225986072E+01  0.28511545036E+02  0.95777971908E+02  0.91211254661E+02 0.  0.
         11    1    3    3    0    0 -0.23683491076E+02 -0.14540898040E+02  0.55033271723E+02  0.61652302975E+02  0.51100000000E-03 0. -1.
         22    1    1    0    0    0  0.58868685848E+01  0.25225986072E+01 -0.28511545036E+02  0.29222028092E+02  0.00000000000E+00 0. -1.
</event>
<event>
 5    1  0.1102386E-009  0.9118800E+02  0.7818608E-02  0.1130116E+00
         25   -1    0    0    0    0  0.00000000000E+00  0.00000000000E+00  0.99999998245E-14  0.12500000000E+03  0.12500000000E+03 0.  0.
        -11    1    3    3    0    0 -0.92728029232E+01  0.15828396884E+02 -0.55290878219E+02  0.58254649913E+02  0.51100000000E-03 0. -1.
         23    2    1    0    0    0 -0.12174574376E+02  0.18881681162E+02 -0.16872150550E+02  0.96903601496E+02  0.92741039319E+02 0.  0.
         11    1    3    3    0    0 -0.29017714528E+01  0.30532842786E+01  0.38418727669E+02  0.38648951583E+02  0.51100000000E-03 0.  1.
         22    1    1    0    0    0  0.12174574376E+02 -0.18881681162E+02  0.16872150550E+02  0.28096398504E+02  0.00000000000E+00 0. -1.
</event>
<event>
 5    1  0.1102386E-009  0.9118800E+02  0.7818608E-02  0.1130116E+00
         25   -1    0    0    0    0  0.00000000000E+00  0.00000000000E+00  0.99999998245E-14  0.12500000000E+03  0.12500000000E+03 0.  0.
        -11    1    3    3    0    0 -0.29023430151E+02  0.51738204696E+02  0.15012850379E+02  0.61193030647E+02  0.51100000000E-03 0.  1.
         23    2    1    0    0    0 -0.14993354770E+02  0.24568044466E+02 -0.19331394002E+01  0.96153396663E+02  0.91724310659E+02 0.  0.
         11    1    3    3    0    0  0.14030075381E+02 -0.27170160231E+02 -0.16945989780E+02  0.34960366017E+02  0.51100000000E-03 0. -1.
         22    1    1    0    0    0  0.14993354770E+02 -0.24568044466E+02  0.19331394002E+01  0.28846603337E+02  0.00000000000E+00 0.  1.
</event>
<event>
 5    1  0.1102386E-009  0.9118800E+02  0.7818608E-02  0.1130116E+00
         25   -1    0    0    0    0  0.00000000000E+00  0.00000000000E+00  0.99999998245E-14  0.12500000000E+03  0.12500000000E+03 0.  0.
        -11    1    3    3    0    0 -0.21671161452E+02  0.28170203273E+02 -0.36310339849E+00  0.35543374002E+02  0.51100000000E-03 0. -1.
         23    2    1    0    0    0 -0.16313011590E+02 -0.27467594563E+02  0.80159047148E+01  0.92063123606E+02  0.85969651048E+02 0.  0.
         11    1    3    3    0    0  0.53581498622E+01 -0.55637797836E+02  0.83790081133E+01  0.56519749603E+02  0.51100000000E-03 0.  1.
         22    1    1    0    0    0  0.16313011590E+02  0.27467594563E+02 -0.80159047148E+01  0.32936876394E+02  0.00000000000E+00 0.  1.
</event>
<event>
 5    1  0.1102386E-009  0.9118800E+02  0.7818608E-02  0.1130116E+00
         25   -1    0    0    0    0  0.00000000000E+00  0.00000000000E+00  0.99999998245E-14  0.12500000000E+03  0.12500000000E+03 0.  0.
        -11    1    3    3    0    0  0.20506652766E+01 -0.23246741868E+02  0.28011551939E+02  0.36459063041E+02  0.51100000000E-03 0. -1.
         23    2    1    0    0    0 -0.44553508812E+01 -0.73062849683E+01 -0.28347347315E+02  0.95389122754E+02  0.90676792447E+02 0.  0.
         11    1    3    3    0    0 -0.65060161578E+01  0.15940456900E+02 -0.56358899253E+02  0.58930059713E+02  0.51100000000E-03 0.  1.
         22    1    1    0    0    0  0.44553508812E+01  0.73062849683E+01  0.28347347315E+02  0.29610877246E+02  0.00000000000E+00 0.  1.
</event>
